/*--------------------------------*- C++ -*----------------------------------*\
| =========                 |                                                 |
| \\      /  F ield         | OpenFOAM: The Open Source CFD Toolbox           |
|  \\    /   O peration     | Version:  5.x                                   |
|   \\  /    A nd           | Web:      www.OpenFOAM.org                      |
|    \\/     M anipulation  |                                                 |
\*---------------------------------------------------------------------------*/
/*   Windows 32 and 64 bit porting by blueCAPE: http://www.bluecape.com.pt   *\
|  Based on Windows porting (2.0.x v4) by Symscape: http://www.symscape.com   |
\*---------------------------------------------------------------------------*/
FoamFile
{
    version     2.0;
    format      ascii;
    class       volScalarField;
    location    "4000";
    object      omega;
}
// * * * * * * * * * * * * * * * * * * * * * * * * * * * * * * * * * * * * * //

dimensions      [0 0 -1 0 0 0 0];

internalField   nonuniform List<scalar> 
4000
(
1.01559e+008
1.51138e+008
1.8922e+008
2.1798e+008
2.41463e+008
2.61567e+008
2.7924e+008
2.95086e+008
3.09494e+008
3.22742e+008
3.35016e+008
3.46469e+008
3.57219e+008
3.67353e+008
3.76944e+008
3.86048e+008
3.9471e+008
4.02967e+008
4.10851e+008
4.18384e+008
4.25587e+008
4.32474e+008
4.39059e+008
4.45372e+008
4.51413e+008
4.57174e+008
4.62667e+008
4.67898e+008
4.72872e+008
4.77596e+008
4.82072e+008
4.86307e+008
4.90304e+008
4.94068e+008
4.97602e+008
5.00907e+008
5.03993e+008
5.06869e+008
5.09538e+008
5.12001e+008
5.14255e+008
5.16299e+008
5.18135e+008
5.19765e+008
5.2119e+008
5.2241e+008
5.23425e+008
5.24233e+008
5.24833e+008
5.25223e+008
5.25401e+008
5.25365e+008
5.25114e+008
5.24645e+008
5.23956e+008
5.23054e+008
5.21956e+008
5.20643e+008
5.1912e+008
5.17394e+008
5.15472e+008
5.13364e+008
5.11083e+008
5.08644e+008
5.06056e+008
5.03338e+008
5.00519e+008
4.97602e+008
4.94611e+008
4.91572e+008
4.88506e+008
4.85436e+008
4.82386e+008
4.79382e+008
4.76453e+008
4.73625e+008
4.7093e+008
4.68398e+008
4.66061e+008
4.63954e+008
4.62112e+008
4.60581e+008
4.59532e+008
4.58884e+008
4.58675e+008
4.5897e+008
4.59828e+008
4.61302e+008
4.6344e+008
4.66268e+008
4.69857e+008
4.74298e+008
4.79656e+008
4.859e+008
4.93025e+008
5.00988e+008
5.09772e+008
5.19378e+008
5.29785e+008
5.40967e+008
5.52894e+008
5.65536e+008
5.78861e+008
5.92842e+008
6.07451e+008
6.22665e+008
6.3846e+008
6.54809e+008
6.71689e+008
6.89373e+008
7.07668e+008
7.26505e+008
7.45896e+008
7.6585e+008
7.86369e+008
8.07453e+008
8.29101e+008
8.51313e+008
8.74092e+008
8.97434e+008
9.2129e+008
9.4569e+008
9.7056e+008
9.95718e+008
1.02122e+009
1.04704e+009
1.07313e+009
1.09942e+009
1.12585e+009
1.15237e+009
1.17893e+009
1.20547e+009
1.23196e+009
1.25835e+009
1.28457e+009
1.31059e+009
1.33636e+009
1.36183e+009
1.38696e+009
1.41169e+009
1.43601e+009
1.46017e+009
1.48392e+009
1.50709e+009
1.52969e+009
1.5517e+009
1.57309e+009
1.5938e+009
1.61381e+009
1.63307e+009
1.65152e+009
1.66911e+009
1.68575e+009
1.70129e+009
1.71585e+009
1.72958e+009
1.74236e+009
1.75408e+009
1.76453e+009
1.77347e+009
1.78088e+009
1.78674e+009
1.79097e+009
1.79351e+009
1.79428e+009
1.79322e+009
1.79027e+009
1.78539e+009
1.77851e+009
1.76961e+009
1.75863e+009
1.74554e+009
1.73024e+009
1.71318e+009
1.69484e+009
1.67452e+009
1.65224e+009
1.62809e+009
1.60219e+009
1.57463e+009
1.54551e+009
1.51492e+009
1.48297e+009
1.44976e+009
1.4154e+009
1.37975e+009
1.3423e+009
1.30349e+009
1.26318e+009
1.22076e+009
1.17573e+009
1.12722e+009
1.07396e+009
1.01423e+009
9.45454e+008
8.63872e+008
7.65557e+008
6.4152e+008
4.7891e+008
2.84211e+008
1.00249e+008
7.31645e+007
7.5333e+007
8.127e+007
8.75026e+007
9.34449e+007
9.89719e+007
1.041e+008
1.0887e+008
1.13321e+008
1.17492e+008
1.21411e+008
1.25104e+008
1.28593e+008
1.31897e+008
1.35033e+008
1.38013e+008
1.4085e+008
1.43553e+008
1.46131e+008
1.48591e+008
1.50942e+008
1.53189e+008
1.5535e+008
1.57427e+008
1.59412e+008
1.61307e+008
1.63113e+008
1.64832e+008
1.66467e+008
1.68019e+008
1.6949e+008
1.7088e+008
1.72193e+008
1.73427e+008
1.74585e+008
1.75669e+008
1.76679e+008
1.77617e+008
1.78484e+008
1.79277e+008
1.79998e+008
1.80647e+008
1.81224e+008
1.81729e+008
1.82163e+008
1.82525e+008
1.82815e+008
1.83033e+008
1.83179e+008
1.83253e+008
1.83255e+008
1.83184e+008
1.83042e+008
1.82829e+008
1.82551e+008
1.82222e+008
1.8183e+008
1.81374e+008
1.80856e+008
1.80276e+008
1.79637e+008
1.78939e+008
1.78183e+008
1.77376e+008
1.76525e+008
1.75633e+008
1.74706e+008
1.73742e+008
1.72742e+008
1.71712e+008
1.7066e+008
1.69592e+008
1.68516e+008
1.67438e+008
1.66367e+008
1.65314e+008
1.6429e+008
1.63308e+008
1.62381e+008
1.61527e+008
1.60777e+008
1.60221e+008
1.59832e+008
1.59601e+008
1.59542e+008
1.59677e+008
1.60023e+008
1.60602e+008
1.61431e+008
1.62533e+008
1.63935e+008
1.65648e+008
1.67672e+008
1.7001e+008
1.72661e+008
1.75623e+008
1.78895e+008
1.82473e+008
1.86352e+008
1.90523e+008
1.9498e+008
1.99712e+008
2.04711e+008
2.09968e+008
2.15476e+008
2.21227e+008
2.27221e+008
2.33479e+008
2.40134e+008
2.47118e+008
2.54337e+008
2.61767e+008
2.69396e+008
2.77213e+008
2.8521e+008
2.93374e+008
3.01692e+008
3.10143e+008
3.18708e+008
3.27414e+008
3.3629e+008
3.45248e+008
3.54291e+008
3.63375e+008
3.72458e+008
3.81546e+008
3.9063e+008
3.99697e+008
4.08729e+008
4.17713e+008
4.26632e+008
4.35472e+008
4.4422e+008
4.5286e+008
4.61381e+008
4.69769e+008
4.78013e+008
4.86103e+008
4.94036e+008
5.01835e+008
5.0964e+008
5.17413e+008
5.25021e+008
5.32431e+008
5.39627e+008
5.46598e+008
5.53334e+008
5.59822e+008
5.66052e+008
5.72011e+008
5.77685e+008
5.83061e+008
5.88124e+008
5.92884e+008
5.97367e+008
6.01529e+008
6.05336e+008
6.08754e+008
6.11749e+008
6.14302e+008
6.16399e+008
6.18021e+008
6.19147e+008
6.1976e+008
6.1984e+008
6.19368e+008
6.18326e+008
6.16698e+008
6.14469e+008
6.11628e+008
6.08175e+008
6.04164e+008
5.9988e+008
5.95567e+008
5.90769e+008
5.85365e+008
5.79318e+008
5.72609e+008
5.65224e+008
5.57153e+008
5.48385e+008
5.389e+008
5.28641e+008
5.17512e+008
5.0555e+008
4.92794e+008
4.79184e+008
4.64828e+008
4.49397e+008
4.3258e+008
4.1416e+008
3.9387e+008
3.71363e+008
3.46367e+008
3.19172e+008
2.92161e+008
2.68475e+008
2.59861e+008
3.07935e+008
1.18322e+008
6.87313e+007
5.97696e+007
5.92353e+007
6.10147e+007
6.35572e+007
6.6334e+007
6.91399e+007
7.18893e+007
7.45454e+007
7.70939e+007
7.95303e+007
8.18552e+007
8.4072e+007
8.61856e+007
8.82009e+007
9.01232e+007
9.19576e+007
9.37087e+007
9.53812e+007
9.69793e+007
9.85074e+007
9.99703e+007
1.01375e+008
1.02722e+008
1.04011e+008
1.05243e+008
1.06418e+008
1.07538e+008
1.08603e+008
1.09616e+008
1.10576e+008
1.11485e+008
1.12344e+008
1.13153e+008
1.13913e+008
1.14624e+008
1.15288e+008
1.15904e+008
1.16473e+008
1.16995e+008
1.1747e+008
1.17897e+008
1.18278e+008
1.18611e+008
1.18898e+008
1.19138e+008
1.19331e+008
1.19477e+008
1.19577e+008
1.1963e+008
1.19637e+008
1.19598e+008
1.19514e+008
1.19386e+008
1.19217e+008
1.19012e+008
1.18766e+008
1.18481e+008
1.18156e+008
1.17791e+008
1.17389e+008
1.16949e+008
1.16473e+008
1.15963e+008
1.15423e+008
1.14854e+008
1.14258e+008
1.13637e+008
1.1299e+008
1.12322e+008
1.11635e+008
1.10934e+008
1.10223e+008
1.09507e+008
1.08792e+008
1.08084e+008
1.07391e+008
1.06722e+008
1.06088e+008
1.05503e+008
1.04986e+008
1.04573e+008
1.04259e+008
1.04049e+008
1.03951e+008
1.03979e+008
1.04145e+008
1.04462e+008
1.04946e+008
1.05609e+008
1.06466e+008
1.07524e+008
1.08786e+008
1.10257e+008
1.11938e+008
1.1383e+008
1.15933e+008
1.18246e+008
1.20765e+008
1.23488e+008
1.26409e+008
1.29524e+008
1.32828e+008
1.36315e+008
1.39982e+008
1.43826e+008
1.47849e+008
1.52062e+008
1.56511e+008
1.61157e+008
1.65967e+008
1.70924e+008
1.76015e+008
1.8123e+008
1.86559e+008
1.91992e+008
1.97521e+008
2.03134e+008
2.08826e+008
2.14602e+008
2.20447e+008
2.26334e+008
2.32254e+008
2.38188e+008
2.44121e+008
2.50046e+008
2.55954e+008
2.61837e+008
2.67686e+008
2.73493e+008
2.79247e+008
2.84941e+008
2.90566e+008
2.96115e+008
3.0158e+008
3.06955e+008
3.12234e+008
3.17416e+008
3.22503e+008
3.2751e+008
3.32486e+008
3.374e+008
3.42211e+008
3.46896e+008
3.51445e+008
3.55848e+008
3.601e+008
3.64193e+008
3.68121e+008
3.71877e+008
3.75456e+008
3.78852e+008
3.82061e+008
3.85086e+008
3.87926e+008
3.90559e+008
3.92972e+008
3.95149e+008
3.97076e+008
3.98742e+008
4.00136e+008
4.01249e+008
4.02068e+008
4.02583e+008
4.02784e+008
4.02659e+008
4.02198e+008
4.01392e+008
4.00234e+008
3.98721e+008
3.96864e+008
3.94699e+008
3.92325e+008
3.89796e+008
3.86982e+008
3.83809e+008
3.80239e+008
3.76244e+008
3.71805e+008
3.66905e+008
3.61526e+008
3.55649e+008
3.49247e+008
3.42291e+008
3.34782e+008
3.2672e+008
3.18085e+008
3.0893e+008
2.99197e+008
2.8882e+008
2.77792e+008
2.66182e+008
2.54194e+008
2.42362e+008
2.31958e+008
2.2592e+008
2.31026e+008
2.66169e+008
3.87782e+008
1.30459e+008
7.11312e+007
5.66915e+007
5.2876e+007
5.24092e+007
5.3286e+007
5.47611e+007
5.65076e+007
5.83665e+007
6.02551e+007
6.21281e+007
6.39605e+007
6.57384e+007
6.74544e+007
6.91053e+007
7.06902e+007
7.22097e+007
7.36653e+007
7.5059e+007
7.63933e+007
7.76705e+007
7.88936e+007
8.00656e+007
8.11898e+007
8.22676e+007
8.32993e+007
8.42855e+007
8.5227e+007
8.61247e+007
8.69795e+007
8.77922e+007
8.85634e+007
8.92939e+007
8.99842e+007
9.06349e+007
9.12463e+007
9.18189e+007
9.23533e+007
9.28496e+007
9.33081e+007
9.37285e+007
9.41111e+007
9.44558e+007
9.47628e+007
9.50321e+007
9.52637e+007
9.54579e+007
9.56146e+007
9.57339e+007
9.58161e+007
9.58613e+007
9.58698e+007
9.5842e+007
9.57786e+007
9.56808e+007
9.55502e+007
9.53881e+007
9.51941e+007
9.49683e+007
9.47108e+007
9.44222e+007
9.41032e+007
9.37545e+007
9.33773e+007
9.2973e+007
9.25434e+007
9.20898e+007
9.16135e+007
9.11155e+007
9.05975e+007
9.00614e+007
8.951e+007
8.89461e+007
8.83733e+007
8.77956e+007
8.72178e+007
8.66452e+007
8.60843e+007
8.55426e+007
8.50292e+007
8.4555e+007
8.41342e+007
8.37837e+007
8.35084e+007
8.33145e+007
8.32107e+007
8.32069e+007
8.33141e+007
8.35433e+007
8.39059e+007
8.44131e+007
8.50741e+007
8.58951e+007
8.68809e+007
8.80354e+007
8.93611e+007
9.08594e+007
9.25306e+007
9.43738e+007
9.63873e+007
9.85685e+007
1.00914e+008
1.03421e+008
1.06085e+008
1.08903e+008
1.11871e+008
1.14989e+008
1.18257e+008
1.21681e+008
1.25271e+008
1.2901e+008
1.32881e+008
1.36871e+008
1.4097e+008
1.45168e+008
1.49458e+008
1.5383e+008
1.58278e+008
1.62795e+008
1.67374e+008
1.72014e+008
1.76694e+008
1.81405e+008
1.86136e+008
1.90876e+008
1.95616e+008
2.00348e+008
2.05064e+008
2.09758e+008
2.14423e+008
2.19052e+008
2.23638e+008
2.28174e+008
2.32656e+008
2.37077e+008
2.41433e+008
2.45718e+008
2.49931e+008
2.5407e+008
2.58137e+008
2.62139e+008
2.66094e+008
2.69982e+008
2.73785e+008
2.77491e+008
2.8109e+008
2.84575e+008
2.8794e+008
2.91181e+008
2.94292e+008
2.97269e+008
3.00107e+008
3.02803e+008
3.05354e+008
3.0776e+008
3.10014e+008
3.12105e+008
3.14021e+008
3.15754e+008
3.17296e+008
3.18636e+008
3.19768e+008
3.20683e+008
3.21373e+008
3.2183e+008
3.22047e+008
3.22015e+008
3.21728e+008
3.2118e+008
3.20366e+008
3.19288e+008
3.17952e+008
3.16378e+008
3.14606e+008
3.12646e+008
3.10448e+008
3.07972e+008
3.0519e+008
3.02078e+008
2.98619e+008
2.94799e+008
2.90604e+008
2.86022e+008
2.8104e+008
2.75651e+008
2.69856e+008
2.63665e+008
2.57089e+008
2.50171e+008
2.42966e+008
2.35529e+008
2.27988e+008
2.20593e+008
2.13804e+008
2.08485e+008
2.06315e+008
2.10767e+008
2.30004e+008
2.88043e+008
4.59264e+008
1.40601e+008
7.45373e+007
5.66687e+007
5.08094e+007
4.89354e+007
4.87709e+007
4.94406e+007
5.05432e+007
5.18729e+007
5.3316e+007
5.48064e+007
5.63043e+007
5.77851e+007
5.9234e+007
6.0642e+007
6.20038e+007
6.33169e+007
6.45803e+007
6.5794e+007
6.69589e+007
6.80763e+007
6.9148e+007
7.01757e+007
7.11617e+007
7.21069e+007
7.30119e+007
7.38773e+007
7.4704e+007
7.54925e+007
7.62436e+007
7.69579e+007
7.76361e+007
7.82786e+007
7.8886e+007
7.94586e+007
7.99968e+007
8.0501e+007
8.09715e+007
8.14085e+007
8.18121e+007
8.21823e+007
8.25193e+007
8.28229e+007
8.30935e+007
8.33309e+007
8.35352e+007
8.37067e+007
8.38453e+007
8.39512e+007
8.40245e+007
8.40656e+007
8.40747e+007
8.40522e+007
8.39987e+007
8.3915e+007
8.38024e+007
8.36613e+007
8.3492e+007
8.32946e+007
8.30694e+007
8.28171e+007
8.25381e+007
8.22331e+007
8.19032e+007
8.15495e+007
8.11731e+007
8.07752e+007
8.03569e+007
7.99194e+007
7.94641e+007
7.8993e+007
7.85083e+007
7.80125e+007
7.75089e+007
7.70009e+007
7.64927e+007
7.59893e+007
7.54963e+007
7.50205e+007
7.45697e+007
7.41531e+007
7.37815e+007
7.34663e+007
7.3214e+007
7.3032e+007
7.29287e+007
7.29131e+007
7.29949e+007
7.3184e+007
7.34904e+007
7.39236e+007
7.4491e+007
7.51988e+007
7.60518e+007
7.70539e+007
7.82076e+007
7.95144e+007
8.09747e+007
8.25879e+007
8.43527e+007
8.62668e+007
8.83276e+007
9.0532e+007
9.2877e+007
9.53596e+007
9.79773e+007
1.00728e+008
1.03612e+008
1.06631e+008
1.09784e+008
1.13061e+008
1.16452e+008
1.19947e+008
1.23537e+008
1.27213e+008
1.3097e+008
1.34798e+008
1.38692e+008
1.42646e+008
1.46655e+008
1.50709e+008
1.54797e+008
1.5891e+008
1.63039e+008
1.67176e+008
1.71314e+008
1.75446e+008
1.79564e+008
1.83664e+008
1.87739e+008
1.91784e+008
1.95792e+008
1.99759e+008
2.03679e+008
2.07549e+008
2.11364e+008
2.1512e+008
2.18817e+008
2.22451e+008
2.26025e+008
2.29542e+008
2.33005e+008
2.36403e+008
2.39726e+008
2.42964e+008
2.4611e+008
2.49159e+008
2.52105e+008
2.54943e+008
2.5767e+008
2.6028e+008
2.62771e+008
2.65138e+008
2.6738e+008
2.69494e+008
2.71471e+008
2.73305e+008
2.74986e+008
2.76508e+008
2.77864e+008
2.79046e+008
2.80047e+008
2.8086e+008
2.8148e+008
2.81899e+008
2.82111e+008
2.8211e+008
2.8189e+008
2.81448e+008
2.8078e+008
2.79888e+008
2.78775e+008
2.77453e+008
2.75938e+008
2.74231e+008
2.72305e+008
2.70137e+008
2.67707e+008
2.64997e+008
2.61995e+008
2.5869e+008
2.55071e+008
2.51135e+008
2.46876e+008
2.42299e+008
2.37415e+008
2.32245e+008
2.26824e+008
2.21209e+008
2.15504e+008
2.09838e+008
2.04425e+008
1.9962e+008
1.96024e+008
1.94677e+008
1.97498e+008
2.08379e+008
2.36579e+008
3.10446e+008
5.24289e+008
1.48803e+008
7.76132e+007
5.74828e+007
5.0269e+007
4.74519e+007
4.65818e+007
4.67032e+007
4.73686e+007
4.83424e+007
4.94902e+007
5.07313e+007
5.20151e+007
5.33094e+007
5.45934e+007
5.58538e+007
5.70821e+007
5.82731e+007
5.9424e+007
6.05333e+007
6.16007e+007
6.26267e+007
6.3612e+007
6.45579e+007
6.54657e+007
6.63361e+007
6.71699e+007
6.79674e+007
6.87295e+007
6.94567e+007
7.01496e+007
7.08087e+007
7.14346e+007
7.20277e+007
7.25884e+007
7.31171e+007
7.36141e+007
7.40797e+007
7.45141e+007
7.49176e+007
7.52902e+007
7.56321e+007
7.59432e+007
7.62237e+007
7.64735e+007
7.66929e+007
7.68818e+007
7.70403e+007
7.71687e+007
7.72669e+007
7.73352e+007
7.73739e+007
7.73832e+007
7.73635e+007
7.73153e+007
7.72394e+007
7.71365e+007
7.7007e+007
7.68512e+007
7.66695e+007
7.64621e+007
7.62297e+007
7.59727e+007
7.56919e+007
7.53881e+007
7.50622e+007
7.47153e+007
7.43483e+007
7.39623e+007
7.35586e+007
7.31386e+007
7.27041e+007
7.22571e+007
7.18001e+007
7.1336e+007
7.0868e+007
7.04001e+007
6.99369e+007
6.94835e+007
6.90462e+007
6.8632e+007
6.82489e+007
6.79062e+007
6.76127e+007
6.73755e+007
6.72023e+007
6.71012e+007
6.7081e+007
6.71506e+007
6.73193e+007
6.75962e+007
6.79898e+007
6.8507e+007
6.91537e+007
6.99348e+007
7.0854e+007
7.19137e+007
7.31155e+007
7.44596e+007
7.59457e+007
7.75722e+007
7.93372e+007
8.12381e+007
8.32721e+007
8.54364e+007
8.7728e+007
9.01444e+007
9.26836e+007
9.53443e+007
9.81258e+007
1.01025e+008
1.04034e+008
1.07144e+008
1.10348e+008
1.13639e+008
1.17008e+008
1.20451e+008
1.23959e+008
1.27527e+008
1.31149e+008
1.3482e+008
1.3853e+008
1.4227e+008
1.46033e+008
1.49811e+008
1.53598e+008
1.57386e+008
1.61171e+008
1.64945e+008
1.68703e+008
1.72441e+008
1.76152e+008
1.79832e+008
1.83476e+008
1.8708e+008
1.9064e+008
1.94153e+008
1.97615e+008
2.01025e+008
2.0438e+008
2.07681e+008
2.10929e+008
2.14123e+008
2.17254e+008
2.20316e+008
2.233e+008
2.26202e+008
2.29016e+008
2.31736e+008
2.34359e+008
2.3688e+008
2.39296e+008
2.41602e+008
2.43795e+008
2.45871e+008
2.47828e+008
2.49658e+008
2.51353e+008
2.52908e+008
2.54316e+008
2.55569e+008
2.56663e+008
2.5759e+008
2.58344e+008
2.5892e+008
2.59311e+008
2.59513e+008
2.59519e+008
2.59326e+008
2.58931e+008
2.58331e+008
2.57527e+008
2.56521e+008
2.55318e+008
2.53928e+008
2.52347e+008
2.5056e+008
2.4855e+008
2.46304e+008
2.43809e+008
2.41056e+008
2.38038e+008
2.3475e+008
2.31191e+008
2.27366e+008
2.23284e+008
2.18967e+008
2.14446e+008
2.09773e+008
2.05026e+008
2.00328e+008
1.95856e+008
1.91876e+008
1.88811e+008
1.87342e+008
1.88626e+008
1.94753e+008
2.09958e+008
2.44409e+008
3.29305e+008
5.8195e+008
1.54442e+008
7.94841e+007
5.83479e+007
5.02771e+007
4.68351e+007
4.54839e+007
4.52249e+007
4.55848e+007
4.63098e+007
4.72524e+007
4.8322e+007
4.94605e+007
5.063e+007
5.18053e+007
5.29698e+007
5.41124e+007
5.52261e+007
5.63065e+007
5.73511e+007
5.83585e+007
5.93285e+007
6.02613e+007
6.11577e+007
6.20183e+007
6.28439e+007
6.36349e+007
6.43919e+007
6.51153e+007
6.58058e+007
6.64639e+007
6.70901e+007
6.76847e+007
6.82482e+007
6.8781e+007
6.92834e+007
6.97557e+007
7.01982e+007
7.0611e+007
7.09944e+007
7.13484e+007
7.16732e+007
7.19688e+007
7.22352e+007
7.24727e+007
7.26811e+007
7.28607e+007
7.30114e+007
7.31335e+007
7.32271e+007
7.32924e+007
7.33295e+007
7.33389e+007
7.33208e+007
7.32757e+007
7.32042e+007
7.31069e+007
7.29842e+007
7.28363e+007
7.26637e+007
7.24668e+007
7.22461e+007
7.2002e+007
7.17353e+007
7.14468e+007
7.11373e+007
7.08077e+007
7.04591e+007
7.00923e+007
6.97088e+007
6.931e+007
6.88975e+007
6.84733e+007
6.80398e+007
6.75997e+007
6.71563e+007
6.67132e+007
6.62747e+007
6.58459e+007
6.54325e+007
6.5041e+007
6.46788e+007
6.43541e+007
6.40747e+007
6.38478e+007
6.36812e+007
6.35828e+007
6.35612e+007
6.3625e+007
6.37832e+007
6.40442e+007
6.44161e+007
6.49056e+007
6.55184e+007
6.62593e+007
6.71319e+007
6.81386e+007
6.92807e+007
7.05585e+007
7.19713e+007
7.35177e+007
7.51955e+007
7.70023e+007
7.89353e+007
8.09913e+007
8.31677e+007
8.54616e+007
8.78707e+007
9.0393e+007
9.30268e+007
9.57674e+007
9.86084e+007
1.01543e+008
1.04564e+008
1.07666e+008
1.10841e+008
1.14084e+008
1.17389e+008
1.2075e+008
1.24161e+008
1.27617e+008
1.31109e+008
1.34629e+008
1.38171e+008
1.41729e+008
1.45296e+008
1.48866e+008
1.52435e+008
1.55995e+008
1.59543e+008
1.63072e+008
1.66579e+008
1.70059e+008
1.73508e+008
1.76922e+008
1.80296e+008
1.83628e+008
1.86915e+008
1.90155e+008
1.93346e+008
1.96487e+008
1.99578e+008
2.02615e+008
2.05593e+008
2.08505e+008
2.11345e+008
2.14108e+008
2.16788e+008
2.19382e+008
2.21884e+008
2.24291e+008
2.26598e+008
2.28801e+008
2.30897e+008
2.32882e+008
2.34751e+008
2.36498e+008
2.38116e+008
2.39599e+008
2.40941e+008
2.42136e+008
2.43177e+008
2.44059e+008
2.44776e+008
2.45322e+008
2.45693e+008
2.45882e+008
2.45886e+008
2.45701e+008
2.45324e+008
2.44754e+008
2.4399e+008
2.43035e+008
2.4189e+008
2.40561e+008
2.39045e+008
2.3733e+008
2.35406e+008
2.33262e+008
2.3089e+008
2.28284e+008
2.2544e+008
2.22358e+008
2.19041e+008
2.15497e+008
2.11744e+008
2.07809e+008
2.03733e+008
1.99578e+008
1.95435e+008
1.91441e+008
1.87797e+008
1.84802e+008
1.82912e+008
1.8286e+008
1.85878e+008
1.94198e+008
2.12353e+008
2.51268e+008
3.41747e+008
6.30042e+008
1.57112e+008
7.97999e+007
5.89682e+007
5.04295e+007
4.66006e+007
4.49348e+007
4.44201e+007
4.45715e+007
4.51257e+007
4.59275e+007
4.68799e+007
4.79198e+007
4.90055e+007
5.01087e+007
5.12102e+007
5.22973e+007
5.33615e+007
5.43971e+007
5.54009e+007
5.63709e+007
5.73062e+007
5.82068e+007
5.90727e+007
5.99046e+007
6.0703e+007
6.14681e+007
6.22005e+007
6.29006e+007
6.3569e+007
6.42061e+007
6.48123e+007
6.53881e+007
6.59338e+007
6.64498e+007
6.69363e+007
6.73936e+007
6.7822e+007
6.82217e+007
6.85929e+007
6.89356e+007
6.925e+007
6.95361e+007
6.9794e+007
7.00238e+007
7.02256e+007
7.03994e+007
7.05454e+007
7.06637e+007
7.07545e+007
7.08178e+007
7.0854e+007
7.08633e+007
7.0846e+007
7.08027e+007
7.07337e+007
7.06397e+007
7.05209e+007
7.03777e+007
7.02105e+007
7.00198e+007
6.98059e+007
6.95695e+007
6.93112e+007
6.90317e+007
6.87319e+007
6.84127e+007
6.8075e+007
6.77198e+007
6.73485e+007
6.69625e+007
6.65634e+007
6.61532e+007
6.57341e+007
6.5309e+007
6.48808e+007
6.44531e+007
6.40302e+007
6.36169e+007
6.32185e+007
6.28413e+007
6.24922e+007
6.21789e+007
6.19089e+007
6.16891e+007
6.15274e+007
6.14317e+007
6.14105e+007
6.14722e+007
6.16256e+007
6.1879e+007
6.22399e+007
6.27152e+007
6.33105e+007
6.40304e+007
6.48784e+007
6.58568e+007
6.69667e+007
6.82083e+007
6.95806e+007
7.1082e+007
7.27103e+007
7.44626e+007
7.63362e+007
7.83278e+007
8.04345e+007
8.26534e+007
8.49817e+007
8.7417e+007
8.99571e+007
9.25968e+007
9.53302e+007
9.81514e+007
1.01054e+008
1.04033e+008
1.07081e+008
1.10194e+008
1.13365e+008
1.1659e+008
1.19862e+008
1.23176e+008
1.26525e+008
1.29901e+008
1.333e+008
1.36714e+008
1.40139e+008
1.43569e+008
1.46998e+008
1.50422e+008
1.53836e+008
1.57234e+008
1.60613e+008
1.63969e+008
1.67296e+008
1.70592e+008
1.73853e+008
1.77076e+008
1.80258e+008
1.83397e+008
1.8649e+008
1.89537e+008
1.92535e+008
1.95482e+008
1.98371e+008
2.01198e+008
2.03957e+008
2.06642e+008
2.09249e+008
2.11773e+008
2.14209e+008
2.16554e+008
2.18803e+008
2.20951e+008
2.22995e+008
2.24931e+008
2.26753e+008
2.28455e+008
2.3003e+008
2.31474e+008
2.32779e+008
2.3394e+008
2.3495e+008
2.35805e+008
2.36497e+008
2.37023e+008
2.37376e+008
2.37553e+008
2.37549e+008
2.37361e+008
2.36987e+008
2.36425e+008
2.35676e+008
2.34739e+008
2.33619e+008
2.32317e+008
2.3083e+008
2.29151e+008
2.27271e+008
2.25183e+008
2.22882e+008
2.20364e+008
2.17629e+008
2.14679e+008
2.11521e+008
2.08167e+008
2.04638e+008
2.00967e+008
1.97201e+008
1.93407e+008
1.89684e+008
1.86174e+008
1.83087e+008
1.80731e+008
1.79576e+008
1.80371e+008
1.84384e+008
1.93945e+008
2.13862e+008
2.55881e+008
3.49374e+008
6.6812e+008
1.5753e+008
7.91892e+007
5.93079e+007
5.05682e+007
4.65263e+007
4.46735e+007
4.40015e+007
4.40223e+007
4.44687e+007
4.51813e+007
4.60596e+007
4.70375e+007
4.80707e+007
4.9129e+007
5.01917e+007
5.12449e+007
5.2279e+007
5.32878e+007
5.42674e+007
5.52153e+007
5.61304e+007
5.70121e+007
5.78605e+007
5.86759e+007
5.94587e+007
6.0209e+007
6.09275e+007
6.16144e+007
6.22702e+007
6.28954e+007
6.34903e+007
6.40554e+007
6.45909e+007
6.50973e+007
6.55747e+007
6.60235e+007
6.64439e+007
6.68361e+007
6.72002e+007
6.75364e+007
6.78448e+007
6.81254e+007
6.83784e+007
6.86038e+007
6.88017e+007
6.89722e+007
6.91155e+007
6.92315e+007
6.93206e+007
6.93827e+007
6.94183e+007
6.94275e+007
6.94107e+007
6.93682e+007
6.93006e+007
6.92083e+007
6.90916e+007
6.8951e+007
6.87867e+007
6.85992e+007
6.83891e+007
6.81569e+007
6.79032e+007
6.76287e+007
6.73343e+007
6.70209e+007
6.66893e+007
6.63407e+007
6.59764e+007
6.55977e+007
6.52063e+007
6.48043e+007
6.43937e+007
6.39774e+007
6.35582e+007
6.31398e+007
6.27262e+007
6.2322e+007
6.19326e+007
6.1564e+007
6.12229e+007
6.09167e+007
6.06526e+007
6.04376e+007
6.02795e+007
6.01863e+007
6.01664e+007
6.02285e+007
6.03809e+007
6.06321e+007
6.09895e+007
6.14597e+007
6.20486e+007
6.27607e+007
6.35992e+007
6.45663e+007
6.5663e+007
6.6889e+007
6.82433e+007
6.97237e+007
7.1328e+007
7.3053e+007
7.48955e+007
7.68524e+007
7.89203e+007
8.10961e+007
8.3377e+007
8.57602e+007
8.82431e+007
9.08205e+007
9.34867e+007
9.62362e+007
9.90636e+007
1.01963e+008
1.0493e+008
1.07958e+008
1.11042e+008
1.14178e+008
1.17359e+008
1.20581e+008
1.23836e+008
1.2712e+008
1.30425e+008
1.33748e+008
1.37081e+008
1.40422e+008
1.43763e+008
1.47102e+008
1.50432e+008
1.53749e+008
1.5705e+008
1.6033e+008
1.63585e+008
1.66812e+008
1.70006e+008
1.73166e+008
1.76288e+008
1.7937e+008
1.82409e+008
1.85403e+008
1.88352e+008
1.91251e+008
1.94095e+008
1.96879e+008
1.99596e+008
2.02243e+008
2.04814e+008
2.07305e+008
2.09712e+008
2.12028e+008
2.14251e+008
2.16376e+008
2.18398e+008
2.20312e+008
2.22113e+008
2.23795e+008
2.25351e+008
2.26776e+008
2.28064e+008
2.29207e+008
2.30201e+008
2.3104e+008
2.31717e+008
2.32227e+008
2.32567e+008
2.32731e+008
2.32716e+008
2.32519e+008
2.32137e+008
2.31571e+008
2.30819e+008
2.29883e+008
2.28765e+008
2.27468e+008
2.25989e+008
2.24321e+008
2.22459e+008
2.20397e+008
2.18133e+008
2.15665e+008
2.12995e+008
2.10128e+008
2.07072e+008
2.03843e+008
2.00465e+008
1.96972e+008
1.93414e+008
1.89861e+008
1.86412e+008
1.83209e+008
1.80456e+008
1.78452e+008
1.77649e+008
1.7877e+008
1.83043e+008
1.92766e+008
2.12808e+008
2.55508e+008
3.5026e+008
6.82409e+008
1.56792e+008
7.83763e+007
5.94457e+007
5.06505e+007
4.65145e+007
4.45739e+007
4.38262e+007
4.37834e+007
4.41768e+007
4.48454e+007
4.56871e+007
4.66343e+007
4.76416e+007
4.86779e+007
4.97217e+007
5.07585e+007
5.17782e+007
5.27742e+007
5.37424e+007
5.468e+007
5.55858e+007
5.64589e+007
5.72994e+007
5.81074e+007
5.88832e+007
5.96271e+007
6.03394e+007
6.10205e+007
6.16709e+007
6.22909e+007
6.28809e+007
6.34412e+007
6.39723e+007
6.44745e+007
6.49479e+007
6.53929e+007
6.58097e+007
6.61985e+007
6.65595e+007
6.68927e+007
6.71983e+007
6.74764e+007
6.77271e+007
6.79505e+007
6.81466e+007
6.83156e+007
6.84575e+007
6.85725e+007
6.86607e+007
6.87223e+007
6.87575e+007
6.87666e+007
6.87499e+007
6.87077e+007
6.86405e+007
6.85489e+007
6.8433e+007
6.82933e+007
6.81301e+007
6.79439e+007
6.77352e+007
6.75046e+007
6.72527e+007
6.69803e+007
6.66881e+007
6.63771e+007
6.60482e+007
6.57024e+007
6.53412e+007
6.49658e+007
6.4578e+007
6.41797e+007
6.37732e+007
6.33611e+007
6.29463e+007
6.25323e+007
6.21232e+007
6.17236e+007
6.13387e+007
6.09744e+007
6.06373e+007
6.03348e+007
6.00738e+007
5.98616e+007
5.97059e+007
5.96149e+007
5.95971e+007
5.96611e+007
5.98156e+007
6.00687e+007
6.04281e+007
6.09005e+007
6.14917e+007
6.22061e+007
6.30469e+007
6.40161e+007
6.51142e+007
6.63408e+007
6.76944e+007
6.91726e+007
7.07726e+007
7.2491e+007
7.43244e+007
7.62692e+007
7.8322e+007
8.04794e+007
8.27384e+007
8.50961e+007
8.75496e+007
9.00937e+007
9.2723e+007
9.54323e+007
9.82164e+007
1.0107e+008
1.03988e+008
1.06966e+008
1.09998e+008
1.13081e+008
1.16207e+008
1.19373e+008
1.22573e+008
1.25801e+008
1.29051e+008
1.32319e+008
1.356e+008
1.38889e+008
1.4218e+008
1.4547e+008
1.48754e+008
1.52028e+008
1.55287e+008
1.58528e+008
1.61746e+008
1.64938e+008
1.68101e+008
1.71231e+008
1.74326e+008
1.77382e+008
1.80399e+008
1.83373e+008
1.86304e+008
1.89186e+008
1.92015e+008
1.94785e+008
1.97491e+008
2.00129e+008
2.02692e+008
2.05178e+008
2.07579e+008
2.09893e+008
2.12114e+008
2.14237e+008
2.16258e+008
2.18171e+008
2.19971e+008
2.21651e+008
2.23206e+008
2.24628e+008
2.25912e+008
2.27051e+008
2.2804e+008
2.28871e+008
2.29539e+008
2.3004e+008
2.30368e+008
2.3052e+008
2.30491e+008
2.3028e+008
2.29885e+008
2.29304e+008
2.28538e+008
2.27589e+008
2.26459e+008
2.25151e+008
2.23663e+008
2.21989e+008
2.20125e+008
2.18068e+008
2.15815e+008
2.13369e+008
2.1073e+008
2.07907e+008
2.04909e+008
2.01754e+008
1.98467e+008
1.95082e+008
1.91649e+008
1.88237e+008
1.84941e+008
1.81894e+008
1.79285e+008
1.77383e+008
1.76595e+008
1.77554e+008
1.81324e+008
1.89864e+008
2.07329e+008
2.44437e+008
3.28976e+008
6.08874e+008
1.56891e+008
7.84125e+007
5.94728e+007
5.06694e+007
4.65285e+007
4.45846e+007
4.38344e+007
4.37896e+007
4.41812e+007
4.48482e+007
4.56884e+007
4.66343e+007
4.76404e+007
4.86756e+007
4.97185e+007
5.07546e+007
5.17738e+007
5.27695e+007
5.37375e+007
5.46752e+007
5.55811e+007
5.64545e+007
5.72954e+007
5.81039e+007
5.88802e+007
5.96246e+007
6.03375e+007
6.10192e+007
6.16701e+007
6.22906e+007
6.2881e+007
6.34418e+007
6.39733e+007
6.44758e+007
6.49495e+007
6.53947e+007
6.58117e+007
6.62006e+007
6.65617e+007
6.6895e+007
6.72007e+007
6.74788e+007
6.77295e+007
6.79529e+007
6.8149e+007
6.83179e+007
6.84598e+007
6.85748e+007
6.86629e+007
6.87244e+007
6.87595e+007
6.87684e+007
6.87515e+007
6.87091e+007
6.86417e+007
6.85497e+007
6.84334e+007
6.82933e+007
6.81297e+007
6.7943e+007
6.77338e+007
6.75027e+007
6.72503e+007
6.69774e+007
6.66848e+007
6.63733e+007
6.6044e+007
6.5698e+007
6.53365e+007
6.4961e+007
6.45732e+007
6.41751e+007
6.37687e+007
6.33569e+007
6.29424e+007
6.25289e+007
6.21202e+007
6.17211e+007
6.13366e+007
6.09728e+007
6.06362e+007
6.03343e+007
6.0074e+007
5.98628e+007
5.97084e+007
5.96192e+007
5.96038e+007
5.96711e+007
5.98298e+007
6.00884e+007
6.04548e+007
6.09357e+007
6.15369e+007
6.22628e+007
6.31165e+007
6.40996e+007
6.52124e+007
6.6454e+007
6.78225e+007
6.93151e+007
7.09285e+007
7.26589e+007
7.45024e+007
7.64553e+007
7.85137e+007
8.06742e+007
8.29336e+007
8.52889e+007
8.77373e+007
9.02734e+007
9.2892e+007
9.55881e+007
9.83566e+007
1.01193e+008
1.04091e+008
1.07048e+008
1.10058e+008
1.13117e+008
1.1622e+008
1.19362e+008
1.22538e+008
1.25742e+008
1.2897e+008
1.32216e+008
1.35476e+008
1.38745e+008
1.42019e+008
1.45292e+008
1.48562e+008
1.51822e+008
1.55071e+008
1.58302e+008
1.61513e+008
1.647e+008
1.6786e+008
1.70988e+008
1.74084e+008
1.77143e+008
1.80164e+008
1.83144e+008
1.86081e+008
1.88973e+008
1.91812e+008
1.94594e+008
1.97314e+008
1.99966e+008
2.02545e+008
2.05046e+008
2.07465e+008
2.09796e+008
2.12035e+008
2.14176e+008
2.16214e+008
2.18143e+008
2.19959e+008
2.21654e+008
2.23222e+008
2.24656e+008
2.25949e+008
2.27095e+008
2.28088e+008
2.2892e+008
2.29586e+008
2.30082e+008
2.30401e+008
2.30541e+008
2.30498e+008
2.30269e+008
2.29853e+008
2.2925e+008
2.28461e+008
2.27488e+008
2.26333e+008
2.25002e+008
2.23491e+008
2.21796e+008
2.19913e+008
2.17841e+008
2.15579e+008
2.13128e+008
2.10492e+008
2.07679e+008
2.04701e+008
2.01575e+008
1.98325e+008
1.94986e+008
1.91605e+008
1.88246e+008
1.84996e+008
1.81976e+008
1.79348e+008
1.77343e+008
1.76292e+008
1.76689e+008
1.79308e+008
1.85433e+008
1.97328e+008
2.19187e+008
2.58152e+008
3.14152e+008
1.5783e+008
7.93039e+007
5.93884e+007
5.06246e+007
4.65682e+007
4.47057e+007
4.40265e+007
4.40413e+007
4.44823e+007
4.51901e+007
4.60638e+007
4.70376e+007
4.80672e+007
4.91223e+007
5.01824e+007
5.12335e+007
5.22661e+007
5.32739e+007
5.4253e+007
5.5201e+007
5.61165e+007
5.6999e+007
5.78485e+007
5.86653e+007
5.94496e+007
6.02016e+007
6.09217e+007
6.16103e+007
6.22677e+007
6.28944e+007
6.34908e+007
6.40572e+007
6.45938e+007
6.51012e+007
6.55795e+007
6.60289e+007
6.64498e+007
6.68424e+007
6.72068e+007
6.75432e+007
6.78517e+007