/*--------------------------------*- C++ -*----------------------------------*\
| =========                 |                                                 |
| \\      /  F ield         | OpenFOAM: The Open Source CFD Toolbox           |
|  \\    /   O peration     | Version:  5.x                                   |
|   \\  /    A nd           | Web:      www.OpenFOAM.org                      |
|    \\/     M anipulation  |                                                 |
\*---------------------------------------------------------------------------*/
/*   Windows 32 and 64 bit porting by blueCAPE: http://www.bluecape.com.pt   *\
|  Based on Windows porting (2.0.x v4) by Symscape: http://www.symscape.com   |
\*---------------------------------------------------------------------------*/
FoamFile
{
    version     2.0;
    format      ascii;
    class       volScalarField;
    location    "4000";
    object      p;
}
// * * * * * * * * * * * * * * * * * * * * * * * * * * * * * * * * * * * * * //

dimensions      [0 2 -2 0 0 0 0];

internalField   nonuniform List<scalar> 
4000
(
-4.52999e+009
-4.52729e+009
-4.52872e+009
-4.53694e+009
-4.55227e+009
-4.57269e+009
-4.59531e+009
-4.61827e+009
-4.64043e+009
-4.66044e+009
-4.67719e+009
-4.68899e+009
-4.69461e+009
-4.69361e+009
-4.6855e+009
-4.66999e+009
-4.64703e+009
-4.61677e+009
-4.57958e+009
-4.53601e+009
-4.48676e+009
-4.43267e+009
-4.37463e+009
-4.31395e+009
-4.25236e+009
-4.19117e+009
-4.13136e+009
-4.07401e+009
-4.02013e+009
-3.97062e+009
-3.92628e+009
-3.88775e+009
-3.85555e+009
-3.83006e+009
-3.81143e+009
-3.80032e+009
-3.79629e+009
-3.79807e+009
-3.80556e+009
-3.81854e+009
-3.83793e+009
-3.86391e+009
-3.89579e+009
-3.93343e+009
-3.97668e+009
-4.02542e+009
-4.07958e+009
-4.13912e+009
-4.204e+009
-4.27419e+009
-4.3496e+009
-4.43007e+009
-4.51553e+009
-4.60549e+009
-4.69929e+009
-4.79649e+009
-4.89566e+009
-4.99503e+009
-5.0932e+009
-5.18846e+009
-5.27878e+009
-5.36203e+009
-5.4358e+009
-5.49689e+009
-5.54423e+009
-5.57768e+009
-5.59502e+009
-5.59468e+009
-5.57123e+009
-5.52189e+009
-5.447e+009
-5.34495e+009
-5.21496e+009
-5.05653e+009
-4.86954e+009
-4.65428e+009
-4.41143e+009
-4.14215e+009
-3.84764e+009
-3.52995e+009
-3.19155e+009
-2.83452e+009
-2.46385e+009
-2.08643e+009
-1.70704e+009
-1.33033e+009
-9.62077e+008
-6.08795e+008
-2.77028e+008
2.38802e+007
2.88025e+008
5.14754e+008
6.99506e+008
8.34783e+008
9.06638e+008
9.01026e+008
8.09459e+008
6.24699e+008
3.39244e+008
-5.32895e+007
-5.58158e+008
-1.17921e+009
-1.91853e+009
-2.77639e+009
-3.75079e+009
-4.83956e+009
-6.03725e+009
-7.33372e+009
-8.72458e+009
-1.01945e+010
-1.17189e+010
-1.32819e+010
-1.48705e+010
-1.64684e+010
-1.80582e+010
-1.96209e+010
-2.11365e+010
-2.25849e+010
-2.39438e+010
-2.51765e+010
-2.62863e+010
-2.72843e+010
-2.8142e+010
-2.88529e+010
-2.93467e+010
-2.95813e+010
-2.95624e+010
-2.92619e+010
-2.86596e+010
-2.77362e+010
-2.6475e+010
-2.48617e+010
-2.28841e+010
-2.05331e+010
-1.78026e+010
-1.46901e+010
-1.11971e+010
-7.3286e+009
-3.09328e+009
1.49724e+009
6.42846e+009
1.1662e+010
1.71368e+010
2.28076e+010
2.86336e+010
3.45615e+010
4.05301e+010
4.647e+010
5.23041e+010
5.7947e+010
6.33059e+010
6.82799e+010
7.27774e+010
7.66563e+010
7.98593e+010
8.24262e+010
8.42902e+010
8.53632e+010
8.54461e+010
8.44235e+010
8.22788e+010
7.89789e+010
7.45169e+010
6.89075e+010
6.21877e+010
5.44193e+010
4.56891e+010
3.61087e+010
2.58123e+010
1.49549e+010
3.70409e+009
-7.75734e+009
-1.92531e+010
-3.05729e+010
-4.14113e+010
-5.15285e+010
-6.07788e+010
-6.9024e+010
-7.61411e+010
-8.20334e+010
-8.66322e+010
-8.98961e+010
-9.18068e+010
-9.24274e+010
-9.16668e+010
-8.97591e+010
-8.69698e+010
-8.31969e+010
-7.86675e+010
-7.33224e+010
-6.70502e+010
-6.00439e+010
-5.24584e+010
-4.44828e+010
-3.6357e+010
-2.8437e+010
-2.11836e+010
-1.58376e+010
-1.62748e+010
-7.08067e+009
-4.53849e+009
-4.53409e+009
-4.53707e+009
-4.53923e+009
-4.54241e+009
-4.54893e+009
-4.56018e+009
-4.57346e+009
-4.58514e+009
-4.59496e+009
-4.60061e+009
-4.60253e+009
-4.60207e+009
-4.59811e+009
-4.58982e+009
-4.57696e+009
-4.55943e+009
-4.53728e+009
-4.51069e+009
-4.47996e+009
-4.4455e+009
-4.40807e+009
-4.36927e+009
-4.32934e+009
-4.28701e+009
-4.24314e+009
-4.19948e+009
-4.1569e+009
-4.11614e+009
-4.07789e+009
-4.04283e+009
-4.01153e+009
-3.98448e+009
-3.96205e+009
-3.94377e+009
-3.92802e+009
-3.9181e+009
-3.91682e+009
-3.92168e+009
-3.93512e+009
-3.95458e+009
-3.97696e+009
-4.00402e+009
-4.03664e+009
-4.07479e+009
-4.11837e+009
-4.16719e+009
-4.22104e+009
-4.27965e+009
-4.34268e+009
-4.40972e+009
-4.48023e+009
-4.5537e+009
-4.62926e+009
-4.70489e+009
-4.77915e+009
-4.85268e+009
-4.92495e+009
-4.99387e+009
-5.05753e+009
-5.1144e+009
-5.16328e+009
-5.20612e+009
-5.24387e+009
-5.26728e+009
-5.27046e+009
-5.2563e+009
-5.21603e+009
-5.15737e+009
-5.08755e+009
-4.99984e+009
-4.89254e+009
-4.76558e+009
-4.61908e+009
-4.45349e+009
-4.26954e+009
-4.06811e+009
-3.85055e+009
-3.61814e+009
-3.37286e+009
-3.11996e+009
-2.86508e+009
-2.60655e+009
-2.34074e+009
-2.07299e+009
-1.81099e+009
-1.55927e+009
-1.32235e+009
-1.10202e+009
-8.81882e+008
-6.80814e+008
-5.36241e+008
-4.44553e+008
-4.22893e+008
-4.72988e+008
-5.70423e+008
-7.19136e+008
-9.38247e+008
-1.23495e+009
-1.61333e+009
-2.07615e+009
-2.62473e+009
-3.259e+009
-3.9778e+009
-4.77773e+009
-5.65539e+009
-6.60461e+009
-7.61236e+009
-8.65186e+009
-9.72492e+009
-1.08492e+010
-1.20137e+010
-1.31935e+010
-1.4374e+010
-1.55428e+010
-1.66873e+010
-1.77946e+010
-1.88548e+010
-1.98986e+010
-2.09622e+010
-2.19261e+010
-2.2692e+010
-2.32832e+010
-2.35826e+010
-2.37214e+010
-2.37981e+010
-2.36965e+010
-2.33744e+010
-2.28138e+010
-2.19967e+010
-2.09075e+010
-1.95334e+010
-1.78637e+010
-1.58906e+010
-1.36096e+010
-1.10191e+010
-8.12196e+009
-4.92488e+009
-1.44036e+009
2.29563e+009
6.22036e+009
1.03345e+010
1.4687e+010
1.92293e+010
2.38759e+010
2.85744e+010
3.32696e+010
3.79003e+010
4.24005e+010
4.67e+010
5.07281e+010
5.44158e+010
5.77946e+010
6.11109e+010
6.38886e+010
6.56065e+010
6.65321e+010
6.62506e+010
6.50654e+010
6.33866e+010
6.09663e+010
5.76693e+010
5.34842e+010
4.84347e+010
4.25694e+010
3.59582e+010
2.86904e+010
2.08738e+010
1.26322e+010
4.10589e+009
-4.55808e+009
-1.31961e+010
-2.14911e+010
-2.92201e+010
-3.65362e+010
-4.34156e+010
-4.96042e+010
-5.49503e+010
-5.93784e+010
-6.2845e+010
-6.53328e+010
-6.68564e+010
-6.74552e+010
-6.73546e+010
-6.70935e+010
-6.61516e+010
-6.37357e+010
-6.02996e+010
-5.58359e+010
-5.09513e+010
-4.62406e+010
-4.15226e+010
-3.67092e+010
-3.19801e+010
-2.7647e+010
-2.40784e+010
-2.09395e+010
-1.68878e+010
-1.75218e+010
-6.35965e+009
-4.54136e+009
-4.5306e+009
-4.53327e+009
-4.53265e+009
-4.52928e+009
-4.52581e+009
-4.52388e+009
-4.52266e+009
-4.52097e+009
-4.51881e+009
-4.51525e+009
-4.51014e+009
-4.50426e+009
-4.49736e+009
-4.48914e+009
-4.47946e+009
-4.46818e+009
-4.45525e+009
-4.4406e+009
-4.42424e+009
-4.40619e+009
-4.38661e+009
-4.36597e+009
-4.34426e+009
-4.32095e+009
-4.29634e+009
-4.27106e+009
-4.24552e+009
-4.22011e+009
-4.19526e+009
-4.17143e+009
-4.14905e+009
-4.12856e+009
-4.11034e+009
-4.09456e+009
-4.08117e+009
-4.07231e+009
-4.06891e+009
-4.07022e+009
-4.07754e+009
-4.0905e+009
-4.10753e+009
-4.12923e+009
-4.15598e+009
-4.18777e+009
-4.22447e+009
-4.26581e+009
-4.3114e+009
-4.36072e+009
-4.41317e+009
-4.46801e+009
-4.5244e+009
-4.58147e+009
-4.63813e+009
-4.69272e+009
-4.74412e+009
-4.7918e+009
-4.8348e+009
-4.87176e+009
-4.90148e+009
-4.92303e+009
-4.93575e+009
-4.94017e+009
-4.93604e+009
-4.91862e+009
-4.88654e+009
-4.84138e+009
-4.77984e+009
-4.70391e+009
-4.61847e+009
-4.52221e+009
-4.41521e+009
-4.29814e+009
-4.17172e+009
-4.03687e+009
-3.89462e+009
-3.74604e+009
-3.59241e+009
-3.43495e+009
-3.27515e+009
-3.11591e+009
-2.95954e+009
-2.80639e+009
-2.65608e+009
-2.51132e+009
-2.37577e+009
-2.25194e+009
-2.14216e+009
-2.04832e+009
-1.96593e+009
-1.90695e+009
-1.88637e+009
-1.90264e+009
-1.96358e+009
-2.07509e+009
-2.22744e+009
-2.41956e+009
-2.65824e+009
-2.94632e+009
-3.28539e+009
-3.6758e+009
-4.11701e+009
-4.6074e+009
-5.14466e+009
-5.72516e+009
-6.34538e+009
-7.00056e+009
-7.6817e+009
-8.37677e+009
-9.08401e+009
-9.80769e+009
-1.05425e+010
-1.12777e+010
-1.20061e+010
-1.27213e+010
-1.34174e+010
-1.40895e+010
-1.47329e+010
-1.53563e+010
-1.59647e+010
-1.64931e+010
-1.69112e+010
-1.72344e+010
-1.74027e+010
-1.74343e+010
-1.73844e+010
-1.72107e+010
-1.68881e+010
-1.63997e+010
-1.57292e+010
-1.48635e+010
-1.37917e+010
-1.25052e+010
-1.09978e+010
-9.26631e+009
-7.31075e+009
-5.13487e+009
-2.74658e+009
-1.58158e+008
2.60781e+009
5.51946e+009
8.56042e+009
1.17284e+010
1.49877e+010
1.8287e+010
2.15834e+010
2.48312e+010
2.7982e+010
3.09855e+010
3.37915e+010
3.63534e+010
3.8627e+010
4.06002e+010
4.23299e+010
4.35441e+010
4.40821e+010
4.40502e+010
4.32749e+010
4.17905e+010
3.98108e+010
3.7286e+010
3.41873e+010
3.05255e+010
2.63329e+010
2.16615e+010
1.65779e+010
1.11635e+010
5.51152e+009
-2.7543e+008
-6.08681e+009
-1.18092e+010
-1.73285e+010
-2.24807e+010
-2.7128e+010
-3.12973e+010
-3.49593e+010
-3.80191e+010
-4.04268e+010
-4.21679e+010
-4.32527e+010
-4.37144e+010
-4.36118e+010
-4.30152e+010
-4.2058e+010
-4.09446e+010
-3.94285e+010
-3.74443e+010
-3.52463e+010
-3.27613e+010
-3.01574e+010
-2.77688e+010
-2.56175e+010
-2.37106e+010
-2.21307e+010
-2.09371e+010
-2.00766e+010
-1.89977e+010
-1.6178e+010
-1.63726e+010
-6.09753e+009
-4.53314e+009
-4.52325e+009
-4.5241e+009
-4.52161e+009
-4.51498e+009
-4.50611e+009
-4.49661e+009
-4.48691e+009
-4.47698e+009
-4.46712e+009
-4.45721e+009
-4.44744e+009
-4.43834e+009
-4.4299e+009
-4.42207e+009
-4.4148e+009
-4.40794e+009
-4.40135e+009
-4.39485e+009
-4.38825e+009
-4.38136e+009
-4.374e+009
-4.36612e+009
-4.35744e+009
-4.34751e+009
-4.33627e+009
-4.32384e+009
-4.31034e+009
-4.29596e+009
-4.28095e+009
-4.2656e+009
-4.25028e+009
-4.23538e+009
-4.22131e+009
-4.2085e+009
-4.1973e+009
-4.18898e+009
-4.1844e+009
-4.18363e+009
-4.18745e+009
-4.19578e+009
-4.20815e+009
-4.22487e+009
-4.24609e+009
-4.27178e+009
-4.30177e+009
-4.33572e+009
-4.37315e+009
-4.41343e+009
-4.45581e+009
-4.4994e+009
-4.5432e+009
-4.58615e+009
-4.62708e+009
-4.6646e+009
-4.6976e+009
-4.72523e+009
-4.74658e+009
-4.76064e+009
-4.76655e+009
-4.76372e+009
-4.75173e+009
-4.73069e+009
-4.70046e+009
-4.65926e+009
-4.60652e+009
-4.54329e+009
-4.469e+009
-4.3856e+009
-4.29597e+009
-4.20063e+009
-4.10062e+009
-3.99714e+009
-3.89135e+009
-3.78446e+009
-3.67772e+009
-3.57231e+009
-3.46947e+009
-3.37036e+009
-3.27619e+009
-3.18852e+009
-3.1086e+009
-3.03677e+009
-2.97305e+009
-2.9187e+009
-2.87545e+009
-2.84461e+009
-2.82728e+009
-2.82487e+009
-2.83641e+009
-2.8675e+009
-2.92574e+009
-3.01162e+009
-3.12859e+009
-3.27804e+009
-3.45517e+009
-3.65897e+009
-3.891e+009
-4.15132e+009
-4.43976e+009
-4.75501e+009
-5.0953e+009
-5.4581e+009
-5.84055e+009
-6.23906e+009
-6.64999e+009
-7.06905e+009
-7.49092e+009
-7.90973e+009
-8.32437e+009
-8.73684e+009
-9.1455e+009
-9.54654e+009
-9.93734e+009
-1.03157e+010
-1.068e+010
-1.10296e+010
-1.13631e+010
-1.16827e+010
-1.19874e+010
-1.22471e+010
-1.2442e+010
-1.25722e+010
-1.26135e+010
-1.2574e+010
-1.24714e+010
-1.2286e+010
-1.20029e+010
-1.16091e+010
-1.10916e+010
-1.04396e+010
-9.64411e+009
-8.69779e+009
-7.59585e+009
-6.33614e+009
-4.91945e+009
-3.35e+009
-1.636e+009
2.10469e+008
2.17249e+009
4.2291e+009
6.36309e+009
8.56204e+009
1.07982e+010
1.3035e+010
1.52375e+010
1.73683e+010
1.93893e+010
2.12623e+010
2.29502e+010
2.44201e+010
2.56414e+010
2.65898e+010
2.72672e+010
2.75501e+010
2.73466e+010
2.66855e+010
2.55033e+010
2.38396e+010
2.17948e+010
1.93686e+010
1.65777e+010
1.34492e+010
1.00226e+010
6.35299e+009
2.50471e+009
-1.44818e+009
-5.42495e+009
-9.34033e+009
-1.3106e+010
-1.66334e+010
-1.98377e+010
-2.26257e+010
-2.49288e+010
-2.67539e+010
-2.80963e+010
-2.89352e+010
-2.92739e+010
-2.91378e+010
-2.85731e+010
-2.76452e+010
-2.64385e+010
-2.5049e+010
-2.35839e+010
-2.21683e+010
-2.0751e+010
-1.93145e+010
-1.79771e+010
-1.67608e+010
-1.57931e+010
-1.52312e+010
-1.50971e+010
-1.53817e+010
-1.60538e+010
-1.6979e+010
-1.78379e+010
-1.8021e+010
-1.62554e+010
-1.55433e+010
-6.73712e+009
-4.51563e+009
-4.51397e+009
-4.51341e+009
-4.50966e+009
-4.5012e+009
-4.48938e+009
-4.47568e+009
-4.4611e+009
-4.44625e+009
-4.43178e+009
-4.41804e+009
-4.40542e+009
-4.39444e+009
-4.38523e+009
-4.37784e+009
-4.37234e+009
-4.36855e+009
-4.36628e+009
-4.36528e+009
-4.36522e+009
-4.36576e+009
-4.36652e+009
-4.36718e+009
-4.36732e+009
-4.36647e+009
-4.36435e+009
-4.36083e+009
-4.35583e+009
-4.34936e+009
-4.34153e+009
-4.33254e+009
-4.32267e+009
-4.31227e+009
-4.30177e+009
-4.29166e+009
-4.2824e+009
-4.27497e+009
-4.27007e+009
-4.26803e+009
-4.26948e+009
-4.27459e+009
-4.28328e+009
-4.29579e+009
-4.31217e+009
-4.33238e+009
-4.35621e+009
-4.38329e+009
-4.41311e+009
-4.445e+009
-4.47816e+009
-4.51167e+009
-4.54451e+009
-4.5756e+009
-4.60378e+009
-4.62787e+009
-4.64679e+009
-4.65966e+009
-4.66565e+009
-4.66396e+009
-4.654e+009
-4.63538e+009
-4.60792e+009
-4.5717e+009
-4.52684e+009
-4.47288e+009
-4.41001e+009
-4.33929e+009
-4.26129e+009
-4.17775e+009
-4.09094e+009
-4.00218e+009
-3.91288e+009
-3.82473e+009
-3.73907e+009
-3.65721e+009
-3.58049e+009
-3.51005e+009
-3.44698e+009
-3.39221e+009
-3.34658e+009
-3.31096e+009
-3.28595e+009
-3.27174e+009
-3.26828e+009
-3.27603e+009
-3.29558e+009
-3.32742e+009
-3.3719e+009
-3.42969e+009
-3.50053e+009
-3.58706e+009
-3.69256e+009
-3.81726e+009
-3.96217e+009
-4.12751e+009
-4.30966e+009
-4.50756e+009
-4.72032e+009
-4.946e+009
-5.18363e+009
-5.4306e+009
-5.68455e+009
-5.94246e+009
-6.20126e+009
-6.45767e+009
-6.70849e+009
-6.95054e+009
-7.18078e+009
-7.39619e+009
-7.59638e+009
-7.78297e+009
-7.95655e+009
-8.1171e+009
-8.26528e+009
-8.40208e+009
-8.52879e+009
-8.64703e+009
-8.75762e+009
-8.86168e+009
-8.95773e+009
-9.03148e+009
-9.07325e+009
-9.07996e+009
-9.04173e+009
-8.95886e+009
-8.83667e+009
-8.66618e+009
-8.43617e+009
-8.13807e+009
-7.76165e+009
-7.29832e+009
-6.74068e+009
-6.08292e+009
-5.32115e+009
-4.45367e+009
-3.4813e+009
-2.40776e+009
-1.23979e+009
1.28861e+007
1.33763e+009
2.71815e+009
4.13853e+009
5.58397e+009
7.03219e+009
8.45622e+009
9.82856e+009
1.11204e+010
1.23026e+010
1.33465e+010
1.42249e+010
1.49128e+010
1.53873e+010
1.56267e+010
1.56191e+010
1.53043e+010
1.46381e+010
1.36312e+010
1.22642e+010
1.05638e+010
8.59308e+009
6.37015e+009
3.93202e+009
1.31719e+009
-1.43499e+009
-4.267e+009
-7.12054e+009
-9.9296e+009
-1.26255e+010
-1.5138e+010
-1.73985e+010
-1.93426e+010
-2.09122e+010
-2.20572e+010
-2.27439e+010
-2.29774e+010
-2.27715e+010
-2.21444e+010
-2.1133e+010
-1.97916e+010
-1.81913e+010
-1.64173e+010
-1.4567e+010
-1.2743e+010
-1.10465e+010
-9.58173e+009
-8.37128e+009
-7.45251e+009
-6.8991e+009
-6.7445e+009
-7.0651e+009
-7.9281e+009
-9.32765e+009
-1.12025e+010
-1.34182e+010
-1.56988e+010
-1.75523e+010
-1.82351e+010
-1.66222e+010
-1.41398e+010
-7.02434e+009
-4.49159e+009
-4.49849e+009
-4.49732e+009
-4.49351e+009
-4.48488e+009
-4.47252e+009
-4.45765e+009
-4.44147e+009
-4.4249e+009
-4.40878e+009
-4.39373e+009
-4.38021e+009
-4.36887e+009
-4.35979e+009
-4.35305e+009
-4.34891e+009
-4.34706e+009
-4.34736e+009
-4.34949e+009
-4.3531e+009
-4.35776e+009
-4.36303e+009
-4.36846e+009
-4.37359e+009
-4.37793e+009
-4.38112e+009
-4.38289e+009
-4.38308e+009
-4.3816e+009
-4.37848e+009
-4.37383e+009
-4.36788e+009
-4.36093e+009
-4.35338e+009
-4.3457e+009
-4.33824e+009
-4.33192e+009
-4.32727e+009
-4.32471e+009
-4.32477e+009
-4.32769e+009
-4.3336e+009
-4.34266e+009
-4.35492e+009
-4.37032e+009
-4.38865e+009
-4.40955e+009
-4.43253e+009
-4.45695e+009
-4.48205e+009
-4.50697e+009
-4.53076e+009
-4.55241e+009
-4.5709e+009
-4.58519e+009
-4.59435e+009
-4.59755e+009
-4.59409e+009
-4.58337e+009
-4.56495e+009
-4.53861e+009
-4.50431e+009
-4.46222e+009
-4.41265e+009
-4.35577e+009
-4.29216e+009
-4.2229e+009
-4.14901e+009
-4.07215e+009
-3.99417e+009
-3.9167e+009
-3.84101e+009
-3.76932e+009
-3.70279e+009
-3.64253e+009
-3.58995e+009
-3.54599e+009
-3.51159e+009
-3.48745e+009
-3.47413e+009
-3.47203e+009
-3.48141e+009
-3.50221e+009
-3.53424e+009
-3.57746e+009
-3.63189e+009
-3.69747e+009
-3.77411e+009
-3.86191e+009
-3.96064e+009
-4.07127e+009
-4.19501e+009
-4.33174e+009
-4.48098e+009
-4.64294e+009
-4.81335e+009
-4.99217e+009
-5.17739e+009
-5.36526e+009
-5.55562e+009
-5.74467e+009
-5.92998e+009
-6.10832e+009
-6.27665e+009
-6.43194e+009
-6.57146e+009
-6.69278e+009
-6.79406e+009
-6.87386e+009
-6.9324e+009
-6.97153e+009
-6.9931e+009
-6.99911e+009
-6.99208e+009
-6.97488e+009
-6.95056e+009
-6.92222e+009
-6.89219e+009
-6.86222e+009
-6.83205e+009
-6.79522e+009
-6.74824e+009
-6.68628e+009
-6.60994e+009
-6.51386e+009
-6.39917e+009
-6.26406e+009
-6.09571e+009
-5.89053e+009
-5.63987e+009
-5.33729e+009
-4.97673e+009
-4.55331e+009
-4.06362e+009
-3.506e+009
-2.88087e+009
-2.19094e+009
-1.44112e+009
-6.38869e+008
2.06147e+008
1.08167e+009
1.97449e+009
2.87125e+009
3.75462e+009
4.60439e+009
5.39944e+009
6.1178e+009
6.73744e+009
7.23684e+009
7.59555e+009
7.79486e+009
7.8175e+009
7.64679e+009
7.27051e+009
6.65832e+009
5.78931e+009
4.66841e+009
3.29694e+009
1.69104e+009
-9.58253e+007
-2.04808e+009
-4.11478e+009
-6.25315e+009
-8.43864e+009
-1.06097e+010
-1.2716e+010
-1.46982e+010
-1.64978e+010
-1.80571e+010
-1.93221e+010
-2.02449e+010
-2.07858e+010
-2.09169e+010
-2.06243e+010
-1.99182e+010
-1.88241e+010
-1.73792e+010
-1.56367e+010
-1.36652e+010
-1.1548e+010
-9.37899e+009
-7.26019e+009
-5.29632e+009
-3.58723e+009
-2.23097e+009
-1.2775e+009
-7.94767e+008
-8.23124e+008
-1.39768e+009
-2.57413e+009
-4.35832e+009
-6.71389e+009
-9.53095e+009
-1.26041e+010
-1.55677e+010
-1.78414e+010
-1.85555e+010
-1.67678e+010
-1.2153e+010
-6.80848e+009
-4.46521e+009
-4.47545e+009
-4.47474e+009
-4.47184e+009
-4.46437e+009
-4.45331e+009
-4.43965e+009
-4.42451e+009
-4.40889e+009
-4.39364e+009
-4.37951e+009
-4.36686e+009
-4.35661e+009
-4.34853e+009
-4.34263e+009
-4.33964e+009
-4.33892e+009
-4.34046e+009
-4.34392e+009
-4.34896e+009
-4.35516e+009
-4.36209e+009
-4.36931e+009
-4.37635e+009
-4.38279e+009
-4.38825e+009
-4.39245e+009
-4.39518e+009
-4.39634e+009
-4.3959e+009
-4.39392e+009
-4.39059e+009
-4.38611e+009
-4.38092e+009
-4.37535e+009
-4.36953e+009
-4.36452e+009
-4.36057e+009
-4.35806e+009
-4.35745e+009
-4.35899e+009
-4.36286e+009
-4.36918e+009
-4.378e+009
-4.38926e+009
-4.40276e+009
-4.41819e+009
-4.43513e+009
-4.45302e+009
-4.47121e+009
-4.48896e+009
-4.50546e+009
-4.51988e+009
-4.53134e+009
-4.53902e+009
-4.54212e+009
-4.53999e+009
-4.53204e+009
-4.51784e+009
-4.49708e+009
-4.46965e+009
-4.43559e+009
-4.39514e+009
-4.34868e+009
-4.29664e+009
-4.23974e+009
-4.179e+009
-4.11553e+009
-4.05078e+009
-3.98626e+009
-3.92359e+009
-3.86325e+009
-3.80846e+009
-3.75982e+009
-3.71786e+009
-3.68413e+009
-3.65929e+009
-3.64404e+009
-3.63887e+009
-3.64407e+009
-3.65978e+009
-3.68599e+009
-3.7225e+009
-3.76902e+009
-3.82527e+009
-3.891e+009
-3.96592e+009
-4.04975e+009
-4.14232e+009
-4.24338e+009
-4.35314e+009
-4.47183e+009
-4.59932e+009
-4.73403e+009
-4.87766e+009
-5.02321e+009
-5.17475e+009
-5.3293e+009
-5.47972e+009
-5.6292e+009
-5.77208e+009
-5.90647e+009
-6.02908e+009
-6.13704e+009
-6.22753e+009
-6.29813e+009
-6.34687e+009
-6.37249e+009
-6.37429e+009
-6.3528e+009
-6.3099e+009
-6.24799e+009
-6.16991e+009
-6.07908e+009
-5.97927e+009
-5.87443e+009
-5.76844e+009
-5.66465e+009
-5.56561e+009
-5.47238e+009
-5.3826e+009
-5.29833e+009
-5.21022e+009
-5.1323e+009
-5.04633e+009
-4.95425e+009
-4.86584e+009
-4.75927e+009
-4.63937e+009
-4.49718e+009
-4.32776e+009
-4.12592e+009
-3.88734e+009
-3.60872e+009
-3.28811e+009
-2.92512e+009
-2.52108e+009
-2.07911e+009
-1.6042e+009
-1.10303e+009
-5.84358e+008
-5.82744e+007
4.64602e+008
9.71318e+008
1.44705e+009
1.87604e+009
2.24187e+009
2.52799e+009
2.71818e+009
2.7969e+009
2.74968e+009
2.56315e+009
2.22458e+009
1.72376e+009
1.04476e+009
1.78049e+008
-8.74008e+008
-2.09966e+009
-3.5028e+009
-5.02174e+009
-6.67311e+009
-8.37841e+009
-1.00848e+010
-1.18095e+010
-1.34753e+010
-1.50453e+010
-1.64662e+010
-1.76887e+010
-1.86642e+010
-1.93489e+010
-1.97051e+010
-1.97042e+010
-1.93293e+010
-1.85755e+010
-1.74553e+010
-1.59977e+010
-1.42463e+010
-1.2259e+010
-1.01074e+010
-7.87568e+009
-5.65788e+009
-3.55307e+009
-1.66196e+009
-7.94146e+007
1.09961e+009
1.82467e+009
1.98982e+009
1.6084e+009
6.39565e+008
-9.80283e+008
-3.19954e+009
-5.97154e+009
-9.16271e+009
-1.25449e+010
-1.57298e+010
-1.81351e+010
-1.88046e+010
-1.7098e+010
-1.07949e+010
-7.032e+009
-4.43736e+009
-4.44611e+009
-4.44629e+009
-4.44477e+009
-4.4393e+009
-4.43083e+009
-4.42006e+009
-4.40795e+009
-4.39536e+009
-4.383e+009
-4.37161e+009
-4.36109e+009
-4.35311e+009
-4.34695e+009
-4.34215e+009
-4.34045e+009
-4.34033e+009
-4.34218e+009
-4.34565e+009
-4.35046e+009
-4.35627e+009
-4.36273e+009
-4.36946e+009
-4.37609e+009
-4.38228e+009
-4.3877e+009
-4.39214e+009
-4.3954e+009
-4.39738e+009
-4.39804e+009
-4.39744e+009
-4.39572e+009
-4.39298e+009
-4.38994e+009
-4.38661e+009
-4.38175e+009
-4.37804e+009
-4.37503e+009
-4.37295e+009
-4.3722e+009
-4.37295e+009
-4.37536e+009
-4.37952e+009
-4.38546e+009
-4.39314e+009
-4.4024e+009
-4.413e+009
-4.42461e+009
-4.43681e+009
-4.44909e+009
-4.4609e+009
-4.47162e+009
-4.48061e+009
-4.48723e+009
-4.49085e+009
-4.49089e+009
-4.48686e+009
-4.47834e+009
-4.46501e+009
-4.44669e+009
-4.42332e+009
-4.39499e+009
-4.36194e+009
-4.32453e+009
-4.28322e+009
-4.23868e+009
-4.19178e+009
-4.14345e+009
-4.09483e+009
-4.04692e+009
-4.001e+009
-3.95569e+009
-3.91922e+009
-3.88815e+009
-3.86177e+009
-3.84262e+009
-3.8309e+009
-3.82715e+009
-3.83161e+009
-3.84436e+009
-3.86535e+009
-3.89441e+009
-3.93127e+009
-3.97561e+009
-4.02709e+009
-4.08542e+009
-4.15033e+009
-4.22158e+009
-4.29904e+009
-4.38257e+009
-4.47226e+009
-4.56811e+009
-4.67048e+009
-4.77694e+009
-4.89459e+009
-5.00949e+009
-5.13008e+009
-5.2495e+009
-5.36051e+009
-5.47526e+009
-5.58249e+009
-5.68137e+009
-5.76841e+009
-5.8409e+009
-5.89615e+009
-5.93189e+009
-5.94629e+009
-5.93828e+009
-5.90734e+009
-5.85398e+009
-5.7799e+009
-5.68744e+009
-5.5796e+009
-5.45994e+009
-5.33242e+009
-5.20122e+009
-5.07052e+009
-4.9442e+009
-4.82549e+009
-4.71615e+009
-4.61502e+009
-4.52877e+009
-4.4289e+009
-4.35813e+009
-4.29944e+009
-4.2595e+009
-4.24163e+009
-4.19791e+009
-4.15701e+009
-4.10816e+009
-4.04842e+009
-3.97335e+009
-3.87886e+009
-3.76151e+009
-3.61877e+009
-3.44918e+009
-3.25255e+009
-3.02995e+009
-2.78389e+009
-2.51811e+009
-2.23803e+009
-1.95036e+009
-1.66243e+009
-1.3832e+009
-1.123e+009
-8.93088e+008
-7.05444e+008
-5.72388e+008
-5.0634e+008
-5.19467e+008
-6.23466e+008
-8.29467e+008
-1.14802e+009
-1.58828e+009
-2.16049e+009
-2.87095e+009
-3.72304e+009
-4.7011e+009
-5.86619e+009
-7.11543e+009
-8.45934e+009
-9.7526e+009
-1.10165e+010
-1.2366e+010
-1.36534e+010
-1.48592e+010
-1.59321e+010
-1.68299e+010
-1.75108e+010
-1.79371e+010
-1.80769e+010
-1.7906e+010
-1.74112e+010
-1.65894e+010
-1.54509e+010
-1.40223e+010
-1.2344e+010
-1.04697e+010
-8.46643e+009
-6.41115e+009
-4.38936e+009
-2.49169e+009
-8.09775e+008
5.70718e+008
1.55883e+009
2.1364e+009
2.10812e+009
1.59846e+009
5.70725e+008
-1.13723e+009
-3.36688e+009
-6.10081e+009
-9.21388e+009
-1.25044e+010
-1.56293e+010
-1.80832e+010
-1.88939e+010
-1.77055e+010
-1.05032e+010
-8.07513e+009
-4.40856e+009
-4.41371e+009
-4.41435e+009
-4.41386e+009
-4.41063e+009
-4.40536e+009
-4.39853e+009
-4.39076e+009
-4.38262e+009
-4.37461e+009
-4.36738e+009
-4.35992e+009
-4.35779e+009
-4.35354e+009
-4.34777e+009
-4.34779e+009
-4.348e+009
-4.34955e+009
-4.35214e+009
-4.3556e+009
-4.35971e+009
-4.36423e+009
-4.36891e+009
-4.37351e+009
-4.37781e+009
-4.38161e+009
-4.38475e+009
-4.38713e+009
-4.38867e+009
-4.38934e+009
-4.38919e+009
-4.3883e+009
-4.38649e+009
-4.38497e+009
-4.38126e+009
-4.37886e+009
-4.37745e+009
-4.3759e+009
-4.37459e+009
-4.37408e+009
-4.37445e+009
-4.3758e+009
-4.37821e+009
-4.3817e+009
-4.38622e+009
-4.39169e+009
-4.39795e+009
-4.40478e+009
-4.41193e+009
-4.41908e+009
-4.42587e+009
-4.43193e+009
-4.43684e+009
-4.44021e+009
-4.44165e+009
-4.4408e+009
-4.43735e+009
-4.43104e+009
-4.42169e+009
-4.4092e+009
-4.39354e+009
-4.3748e+009
-4.35317e+009
-4.32893e+009
-4.30242e+009
-4.27416e+009
-4.24475e+009
-4.21488e+009
-4.1854e+009
-4.1573e+009
-4.13307e+009
-4.10745e+009
-4.08165e+009
-4.06716e+009
-4.05354e+009
-4.04568e+009
-4.04269e+009
-4.04487e+009
-4.05219e+009
-4.06456e+009
-4.08176e+009
-4.10355e+009
-4.12964e+009
-4.15973e+009
-4.1936e+009
-4.23106e+009
-4.27204e+009
-4.31656e+009
-4.36475e+009
-4.41686e+009
-4.47311e+009
-4.5339e+009
-4.60034e+009
-4.66858e+009
-4.75599e+009
-4.80148e+009
-4.87921e+009
-5.00154e+009
-5.07429e+009
-5.16209e+009
-5.24275e+009
-5.3181e+009
-5.3848e+009
-5.44028e+009
-5.48195e+009
-5.50752e+009
-5.51515e+009
-5.50357e+009
-5.47216e+009
-5.42115e+009
-5.35176e+009
-5.26593e+009
-5.16633e+009
-5.05619e+009
-4.93917e+009
-4.81923e+009
-4.70037e+009
-4.58656e+009
-4.48158e+009
-4.3877e+009
-4.30474e+009
-4.24928e+009
-4.16171e+009
-4.27917e+009
-4.27384e+009
-4.12377e+009
-4.17655e+009
-4.18248e+009
-4.21244e+009
-4.24527e+009
-4.27811e+009
-4.30666e+009
-4.32677e+009
-4.33462e+009
-4.32689e+009
-4.30091e+009
-4.25479e+009
-4.18748e+009
-4.0989e+009
-3.98988e+009
-3.86254e+009
-3.72009e+009
-3.56647e+009
-3.4069e+009
-3.2478e+009
-3.09657e+009
-2.96155e+009
-2.85181e+009
-2.77697e+009
-2.7471e+009
-2.77242e+009
-2.86334e+009
-3.03015e+009
-3.28243e+009
-3.62687e+009
-4.07142e+009
-4.62136e+009
-5.23319e+009
-6.04543e+009
-6.53843e+009
-7.7143e+009
-9.071e+009
-9.8761e+009
-1.09359e+010
-1.19401e+010
-1.2906e+010
-1.37839e+010
-1.45374e+010
-1.51291e+010
-1.55247e+010
-1.56941e+010
-1.56134e+010
-1.52677e+010
-1.46505e+010
-1.37666e+010
-1.26349e+010
-1.12866e+010
-9.76557e+009
-8.12685e+009
-6.43519e+009
-4.7626e+009
-3.18572e+009
-1.78259e+009
-6.25751e+008
2.05966e+008
7.71683e+008
4.59663e+008
2.09594e+007
-5.97902e+008
-2.15132e+009
-4.08919e+009
-6.45451e+009
-9.16142e+009
-1.20694e+010
-1.49298e+010
-1.73769e+010
-1.8564e+010
-1.83071e+010
-1.17016e+010
-1.00218e+010
-4.37913e+009
-4.38057e+009
-4.38095e+009
-4.38086e+009
-4.37977e+009
-4.37794e+009
-4.37556e+009
-4.37287e+009
-4.37009e+009
-4.36745e+009
-4.36558e+009
-4.36197e+009
-4.36167e+009
-4.36107e+009
-4.35893e+009
-4.3595e+009
-4.3595e+009
-4.36024e+009
-4.36137e+009
-4.36281e+009
-4.36443e+009
-4.36614e+009
-4.36785e+009
-4.36947e+009
-4.37092e+009
-4.37215e+009
-4.3731e+009
-4.37374e+009
-4.37407e+009
-4.37406e+009
-4.37372e+009
-4.37296e+009
-4.37097e+009
-4.37223e+009
-4.37227e+009
-4.36954e+009
-4.36762e+009
-4.36822e+009
-4.36813e+009
-4.36815e+009
-4.36839e+009
-4.36896e+009
-4.36987e+009
-4.37115e+009
-4.37279e+009
-4.37475e+009
-4.37697e+009
-4.37938e+009
-4.38189e+009
-4.38439e+009
-4.38674e+009
-4.38882e+009
-4.39049e+009
-4.39159e+009
-4.39199e+009
-4.39155e+009
-4.39017e+009
-4.38775e+009
-4.38423e+009
-4.37958e+009
-4.37381e+009
-4.36696e+009
-4.35913e+009
-4.35047e+009
-4.34119e+009
-4.33153e+009
-4.32184e+009
-4.31256e+009
-4.30446e+009
-4.2996e+009
-4.28904e+009
-4.27648e+009
-4.27463e+009
-4.27923e+009
-4.27479e+009
-4.2754e+009
-4.27816e+009
-4.28272e+009
-4.28873e+009
-4.29584e+009
-4.30371e+009
-4.31203e+009
-4.32053e+009
-4.32901e+009
-4.33741e+009
-4.34577e+009
-4.35431e+009
-4.3634e+009
-4.37346e+009
-4.38526e+009
-4.39974e+009
-4.41701e+009
-4.438e+009
-4.4554e+009
-4.49869e+009
-4.53395e+009
-4.58605e+009
-4.64444e+009
-4.67759e+009
-4.74953e+009
-4.81241e+009
-4.87305e+009
-4.92957e+009
-4.97981e+009
-5.02135e+009
-5.05188e+009
-5.06936e+009
-5.07226e+009
-5.05962e+009
-5.03119e+009
-4.98758e+009
-4.93012e+009
-4.86089e+009
-4.78256e+009
-4.69834e+009
-4.6118e+009
-4.52673e+009
-4.44715e+009
-4.37775e+009
-4.32399e+009
-4.29044e+009
-4.31711e+009
-4.26156e+009
-4.23954e+009
-4.2762e+009
-4.36522e+009
-4.49719e+009
-4.51364e+009
-4.5954e+009
-4.69724e+009
-4.80983e+009
-4.92707e+009
-5.04374e+009
-5.15507e+009
-5.25665e+009
-5.34436e+009
-5.41448e+009
-5.4637e+009
-5.48931e+009
-5.48918e+009
-5.4621e+009
-5.40773e+009
-5.32663e+009
-5.22045e+009
-5.09203e+009
-4.94534e+009
-4.7856e+009
-4.6192e+009
-4.45369e+009
-4.29775e+009
-4.16093e+009
-4.0535e+009
-3.98516e+009
-3.96328e+009
-4.00503e+009
-4.10967e+009
-4.26748e+009
-4.3732e+009
-4.91235e+009
-5.58914e+009
-6.23554e+009
-6.69687e+009
-7.1939e+009
-8.18594e+009
-9.03482e+009
-9.86774e+009
-1.06595e+010
-1.13861e+010
-1.20169e+010
-1.25208e+010
-1.28678e+010
-1.30322e+010
-1.29939e+010
-1.27405e+010
-1.22686e+010
-1.15862e+010
-1.07118e+010
-9.67546e+009
-8.51705e+009
-7.28543e+009
-6.03674e+009
-4.83199e+009
-3.73457e+009
-2.80753e+009
-2.12059e+009
-1.66396e+009
-1.52384e+009
-1.81895e+009
-2.48163e+009
-3.49727e+009
-4.90993e+009
-6.69556e+009
-8.80655e+009
-1.11776e+010
-1.36853e+010
-1.61578e+010
-1.80841e+010
-1.93915e+010
-1.62804e+010
-1.37981e+010
-4.34919e+009
-4.34763e+009
-4.34725e+009
-4.34723e+009
-4.34817e+009
-4.34981e+009
-4.35201e+009
-4.35457e+009
-4.35728e+009
-4.35994e+009
-4.36193e+009
-4.36573e+009
-4.36654e+009
-4.36793e+009
-4.37064e+009
-4.37094e+009
-4.37168e+009
-4.37175e+009
-4.37138e+009
-4.37062e+009
-4.36952e+009
-4.36815e+009
-4.36659e+009
-4.36491e+009
-4.3632e+009
-4.36155e+009
-4.36002e+009
-4.35869e+009
-4.35762e+009
-4.35687e+009
-4.35648e+009
-4.35658e+009
-4.358e+009
-4.35632e+009
-4.35569e+009
-4.35809e+009
-4.36017e+009
-4.35967e+009
-4.35978e+009
-4.35992e+009
-4.35993e+009
-4.3597e+009
-4.35917e+009
-4.35832e+009
-4.35715e+009
-4.35569e+009
-4.35398e+009
-4.35208e+009
-4.35009e+009
-4.3481e+009
-4.34622e+009
-4.34456e+009
-4.34325e+009
-4.34242e+009
-4.34216e+009
-4.34258e+009
-4.34377e+009
-4.34579e+009
-4.34871e+009
-4.35257e+009
-4.35738e+009
-4.36315e+009
-4.36988e+009
-4.37755e+009
-4.38615e+009
-4.39559e+009
-4.40574e+009
-4.41639e+009
-4.42699e+009
-4.43564e+009
-4.45128e+009
-4.47074e+009
-4.48101e+009
-4.48598e+009
-4.50103e+009
-4.51172e+009
-4.52033e+009
-4.52654e+009
-4.52999e+009
-4.53022e+009
-4.52684e+009
-4.5195e+009
-4.50798e+009
-4.49221e+009
-4.47231e+009
-4.44861e+009
-4.42167e+009
-4.39228e+009
-4.36155e+009
-4.33071e+009
-4.30161e+009
-4.27578e+009
-4.25524e+009
-4.24609e+009
-4.23105e+009
-4.23554e+009