/*--------------------------------*- C++ -*----------------------------------*\
| =========                 |                                                 |
| \\      /  F ield         | OpenFOAM: The Open Source CFD Toolbox           |
|  \\    /   O peration     | Version:  5.x                                   |
|   \\  /    A nd           | Web:      www.OpenFOAM.org                      |
|    \\/     M anipulation  |                                                 |
\*---------------------------------------------------------------------------*/
/*   Windows 32 and 64 bit porting by blueCAPE: http://www.bluecape.com.pt   *\
|  Based on Windows porting (2.0.x v4) by Symscape: http://www.symscape.com   |
\*---------------------------------------------------------------------------*/
FoamFile
{
    version     2.0;
    format      ascii;
    class       volVectorField;
    location    "4000";
    object      U;
}
// * * * * * * * * * * * * * * * * * * * * * * * * * * * * * * * * * * * * * //

dimensions      [0 1 -1 0 0 0 0];

internalField   nonuniform List<vector> 
4000
(
(41.1814 -81.6996 -4.74981e-016)
(259.332 -191.807 0)
(464.316 -153.627 0)
(587.369 -77.8144 0)
(616.873 6.00795 0)
(562.362 75.598 0)
(439.625 119.534 9.69003e-017)
(265.328 150.126 0)
(45.8173 181.04 0)
(-211.915 206.792 8.4385e-017)
(-500.219 234.074 0)
(-814.052 256.366 0)
(-1143.91 265.299 7.58673e-017)
(-1477.51 265.089 0)
(-1806.06 257.994 7.134e-017)
(-2120.99 244.409 6.92736e-017)
(-2414.27 224.787 6.73047e-017)
(-2678.56 199.725 6.54173e-017)
(-2907.43 170.005 6.36014e-017)
(-3095.59 136.515 6.18509e-017)
(-3238.8 100.353 6.01628e-017)
(-3334.59 61.9448 5.85387e-017)
(-3380.43 18.5604 0)
(-3373.66 -27.6111 5.55018e-017)
(-3316.15 -68.2606 5.40816e-017)
(-3212.02 -103.196 5.27363e-017)
(-3065.06 -135.376 5.14746e-017)
(-2879.06 -164.231 5.03008e-017)
(-2658.73 -189.2 4.92184e-017)
(-2409.26 -209.984 4.82307e-017)
(-2136.14 -226.478 0)
(-1844.9 -238.775 4.65475e-017)
(-1540.93 -247.147 4.58542e-017)
(-1229.32 -251.913 4.52597e-017)
(-914.225 -251.35 4.47579e-017)
(-603.775 -239.316 4.43395e-017)
(-302.999 -225.49 4.40168e-017)
(-10.5284 -218.945 4.37693e-017)
(272.441 -211.271 4.35513e-017)
(545.281 -211.413 0)
(811.069 -211.277 4.33433e-017)
(1067.88 -202.646 4.33568e-017)
(1311.86 -192.385 4.34476e-017)
(1543.97 -182.884 4.36185e-017)
(1764.86 -174.162 4.38674e-017)
(1975.11 -166 4.41923e-017)
(2175.02 -158.063 4.45915e-017)
(2364.45 -149.922 0)
(2542.69 -141.047 4.56067e-017)
(2708.3 -130.826 4.62201e-017)
(2859.11 -118.639 4.6902e-017)
(2992.15 -103.711 4.76503e-017)
(3103.07 -85.5756 4.84636e-017)
(3188.26 -63.6041 4.93373e-017)
(3241.52 -34.1065 5.02603e-017)
(3253.56 5.51898 5.12242e-017)
(3217.96 50.1336 0)
(3127.82 97.6741 5.32553e-017)
(2976.9 150.583 5.43035e-017)
(2757.74 210.008 5.5352e-017)
(2463.32 275.691 5.63845e-017)
(2087.02 346.482 5.73854e-017)
(1624.51 411.8 5.83533e-017)
(1083.27 459.957 5.92754e-017)
(463.927 511.17 0)
(-239.971 578.128 6.0592e-017)
(-1027.37 642.776 6.07113e-017)
(-1896.32 730.222 6.05426e-017)
(-2849.24 809.588 6.01274e-017)
(-3871.09 854.912 5.94918e-017)
(-4937.44 886.49 5.86022e-017)
(-6034.93 904.898 5.74421e-017)
(-7144.75 908.007 5.60088e-017)
(-8246.22 893.982 5.43031e-017)
(-9316.65 861.335 5.23297e-017)
(-10331.8 809.001 5.00969e-017)
(-11266.4 736.516 4.76158e-017)
(-12095.1 643.591 4.49022e-017)
(-12791.1 531.136 4.19704e-017)
(-13332 400.212 3.88425e-017)
(-13692.5 243.135 3.55613e-017)
(-13841.5 48.118 0)
(-13754.1 -169.286 2.86576e-017)
(-13415 -381.928 2.50649e-017)
(-12817.6 -594.449 2.14448e-017)
(-11951.2 -817.601 1.78618e-017)
(-10806.5 -1049.55 1.43714e-017)
(-9378.73 -1288.13 1.10347e-017)
(-7664.37 -1523.59 7.89932e-018)
(-5683.9 -1683.82 4.92592e-018)
(-3491.91 -1796.24 0)
(-1078.86 -1953.96 1.23563e-019)
(1555.67 -2117.8 -1.44562e-018)
(4388.79 -2306.38 -2.27263e-018)
(7422.73 -2516.66 -2.3239e-018)
(10627.4 -2651.76 -1.71825e-018)
(13928.1 -2703.89 -4.54829e-019)
(17271.7 -2717.35 1.52873e-018)
(20610.8 -2693.94 4.22697e-018)
(23893.5 -2630.64 7.61258e-018)
(27065 -2525.45 1.16496e-017)
(30069.3 -2377.19 1.62954e-017)
(32850.1 -2185.63 2.15016e-017)
(35351.8 -1952.29 2.72181e-017)
(37523.5 -1678.57 3.33871e-017)
(39311.9 -1368.88 3.99617e-017)
(40679.8 -1027.18 4.68821e-017)
(41589.4 -649.661 5.40594e-017)
(41988.2 -197.024 6.13927e-017)
(41837.3 302.299 6.87835e-017)
(41122 775.752 7.62618e-017)
(39852.8 1222.18 8.37669e-017)
(38035.1 1668.33 9.1188e-017)
(35673.6 2112.18 9.84469e-017)
(32781.3 2547.73 1.05471e-016)
(29378.3 2970.48 1.12183e-016)
(25491.9 3377.13 1.18504e-016)
(21153 3761.24 1.24359e-016)
(16399.5 4064.61 1.29786e-016)
(11364.7 4159.51 1.34782e-016)
(6106.66 4208.59 1.39005e-016)
(639.644 4362.19 1.41461e-016)
(-5009.74 4488.43 1.41035e-016)
(-10836.5 4784.57 1.3831e-016)
(-16833.6 5007.37 1.34731e-016)
(-22908.7 4991.6 1.30565e-016)
(-28921 4915.26 1.25649e-016)
(-34836.9 4802.39 1.19921e-016)
(-40600.5 4651.77 1.13394e-016)
(-46162.3 4464.78 1.06078e-016)
(-51474.6 4242.55 9.79868e-017)
(-56490.8 3985.87 8.91355e-017)
(-61166.5 3696 7.95419e-017)
(-65459.1 3374.33 6.92255e-017)
(-69328.1 3022.31 5.82086e-017)
(-72735 2641.43 4.65164e-017)
(-75643.6 2233.47 3.41783e-017)
(-78019.5 1800.15 2.12273e-017)
(-79829.5 1342.43 7.70151e-018)
(-81045.1 848.482 -6.32733e-018)
(-81619 269.448 -2.0753e-017)
(-81492.6 -370.493 -3.55298e-017)
(-80654.5 -974.954 -5.06711e-017)
(-79103.3 -1557.94 -6.60781e-017)
(-76821.2 -2164.13 -8.16043e-017)
(-73784.6 -2791.22 -9.71455e-017)
(-69975.7 -3435.69 -1.1259e-016)
(-65380.8 -4094.89 -1.27809e-016)
(-59990.8 -4766.48 -1.42661e-016)
(-53801.5 -5448.92 -1.56987e-016)
(-46813.8 -6141.07 -1.70617e-016)
(-39038.8 -6838.22 -1.83369e-016)
(-30478.8 -7473.8 -1.95216e-016)
(-21284.1 -7713.6 -2.06363e-016)
(-11649.7 -7867.12 -2.16004e-016)
(-1436.92 -8329.73 -2.22254e-016)
(9308.96 -8726.9 -2.23355e-016)
(20529.6 -9366.82 -2.19689e-016)
(32319.6 -9979.61 -2.13512e-016)
(44477.4 -10206.9 -2.05458e-016)
(56766.9 -10231.9 -1.95314e-016)
(69061.4 -10153.5 -1.82985e-016)
(81224.8 -9970.7 -1.68566e-016)
(93111.3 -9673.48 -1.52196e-016)
(104565 -9253.78 -1.3404e-016)
(115424 -8705.82 -1.14286e-016)
(125520 -8026.51 -9.31345e-017)
(134685 -7215.3 -7.07998e-017)
(142751 -6274.69 -4.75047e-017)
(149556 -5209.37 -2.34801e-017)
(154944 -4030.25 1.05144e-018)
(158783 -2748.24 2.58552e-017)
(160928 -1240.04 5.05394e-017)
(161174 543.834 7.47551e-017)
(159399 2319.43 9.84435e-017)
(155602 3979.06 1.21549e-016)
(149793 5626.9 1.43747e-016)
(141966 7284.42 1.64814e-016)
(132142 8929.97 1.84603e-016)
(120373 10538.9 2.02996e-016)
(106748 12090.5 2.19893e-016)
(91384.1 13567.8 2.35219e-016)
(74443.2 14954.5 2.48907e-016)
(56037.6 16085 2.61249e-016)
(36731.4 16340.6 2.72775e-016)
(16858 16207.6 2.82743e-016)
(-3288.32 16536.3 2.83385e-016)
(-23738.9 16770 2.71058e-016)
(-44356.3 17186.9 2.52602e-016)
(-64741.9 17234.6 2.32485e-016)
(-84489.4 16310.3 2.11802e-016)
(-102824 14763.2 1.90691e-016)
(-119204 12737.4 1.69296e-016)
(-132987 10065.6 1.48264e-016)
(-143302 6352.52 1.28618e-016)
(-149002 1042.71 1.11939e-016)
(-148361 -5733.27 9.83388e-017)
(-139998 -10949.3 8.85567e-017)
(-135540 -14111.2 1.18683e-016)
(-104309 -8955.87 7.75715e-017)
(160.494 -247.806 -1.31021e-016)
(247.524 -277.071 0)
(308.766 -196.457 0)
(319.627 -82.8016 0)
(290.546 31.1287 0)
(221.889 132.676 0)
(112.21 218.299 1.9085e-017)
(-37.7782 290.659 0)
(-222.536 351.817 0)
(-435.814 401.508 1.62196e-017)
(-670.929 440.069 0)
(-920.177 467.09 0)
(-1177.87 480.518 1.44682e-017)
(-1438.29 480.221 0)
(-1694.55 466.937 1.36165e-017)
(-1939.72 441.422 1.32513e-017)
(-2167.39 404.599 1.29178e-017)
(-2371.74 357.65 1.26111e-017)
(-2547.61 302.012 1.23273e-017)
(-2690.71 239.324 1.20633e-017)
(-2797.5 171.371 1.18165e-017)
(-2865.38 99.8361 1.15854e-017)
(-2893.42 26.1662 0)
(-2882.43 -47.3768 1.11694e-017)
(-2832.93 -118.119 1.09752e-017)
(-2745.48 -184.431 1.07877e-017)
(-2622.41 -245.361 1.06083e-017)
(-2467.21 -299.912 1.04371e-017)
(-2283.69 -347.217 1.02738e-017)
(-2076.02 -386.694 1.01186e-017)
(-1848.56 -418.061 0)
(-1605.8 -441.322 9.83369e-018)
(-1352.21 -456.706 9.70479e-018)
(-1092.29 -464.551 9.58543e-018)
(-830.104 -464.928 9.47475e-018)
(-567.72 -458.52 9.36965e-018)
(-306.644 -448.458 9.27878e-018)
(-50.6635 -436.021 9.20768e-018)
(197.862 -421.505 9.15008e-018)
(437.211 -406.471 0)
(665.235 -391.406 9.09018e-018)
(882.762 -374.897 9.07706e-018)
(1090.87 -357.714 9.07651e-018)
(1289.33 -340.818 9.09025e-018)
(1477.8 -324.445 9.11823e-018)
(1656.11 -308.415 9.16007e-018)
(1824.01 -292.25 9.21501e-018)
(1980.92 -275.228 0)
(2125.92 -256.418 9.35973e-018)
(2257.53 -234.732 9.44666e-018)
(2373.69 -208.97 9.54105e-018)
(2471.74 -177.861 9.6408e-018)
(2548.2 -140.234 9.74384e-018)
(2598.89 -94.6998 9.84765e-018)
(2619.18 -39.4219 9.94766e-018)
(2605.14 26.352 1.00404e-017)
(2551.98 102.547 0)
(2453.52 189.178 1.02077e-017)
(2304.02 286.35 1.02781e-017)
(2098.64 393.729 1.03357e-017)
(1833.36 510.167 1.03787e-017)
(1505.45 633.34 1.04065e-017)
(1111.85 759.177 1.04244e-017)
(647.28 885.203 1.0436e-017)
(109.012 1013.45 0)
(-499.047 1141.23 1.03626e-017)
(-1173.5 1263.96 1.02727e-017)
(-1906.91 1380.08 1.01382e-017)
(-2688.34 1484.6 9.97673e-018)
(-3512.93 1567.53 9.80937e-018)
(-4372.43 1625.9 9.62471e-018)
(-5252.33 1657.41 9.42227e-018)
(-6136.33 1658.83 9.20377e-018)
(-7006.97 1627.16 8.97103e-018)
(-7845.33 1559.79 8.72629e-018)
(-8631.33 1454.77 8.47201e-018)
(-9343.99 1310.91 8.2106e-018)
(-9961.89 1127.72 7.94498e-018)
(-10463.1 905.757 7.67788e-018)
(-10825.5 645.766 7.41268e-018)
(-11028.2 347.495 7.15944e-018)
(-11055.8 13.4077 0)
(-10895.2 -350.517 6.70996e-018)
(-10529.6 -736.932 6.49407e-018)
(-9943.29 -1141.32 6.28655e-018)
(-9127.79 -1559.94 6.09869e-018)
(-8079.98 -1987.06 5.93453e-018)
(-6801.43 -2414.97 5.79671e-018)
(-5300.33 -2831.7 5.68361e-018)
(-3574.61 -3221.92 5.55488e-018)
(-1619.05 -3590.17 0)
(546.121 -3941.35 5.44298e-018)
(2892.76 -4263.6 5.50631e-018)
(5391.87 -4550.64 5.67457e-018)
(8001.69 -4796.71 5.94389e-018)
(10691.5 -4979.12 6.24672e-018)
(13437 -5083.75 6.57296e-018)
(16200.5 -5110.24 6.94561e-018)
(18934.7 -5056.34 7.36582e-018)
(21591.7 -4918.72 7.83011e-018)
(24123.9 -4694.99 8.33266e-018)
(26483.6 -4384.44 8.86646e-018)
(28624.5 -3988.09 9.42351e-018)
(30501.7 -3508.99 9.99611e-018)
(32073.7 -2951.81 1.05751e-017)
(33301.2 -2323.87 1.11527e-017)
(34148.9 -1632.97 1.17206e-017)
(34584.9 -883.404 1.22631e-017)
(34593.7 -82.0731 1.27481e-017)
(34169.6 754.296 1.31833e-017)
(33299.3 1604.61 1.36167e-017)
(31969.6 2455.81 1.40418e-017)
(30182.1 3299.86 1.44338e-017)
(27949.6 4126.84 1.47853e-017)
(25290.1 4925.61 1.50929e-017)
(22227.3 5684.93 1.53552e-017)
(18792.1 6393.2 1.5573e-017)
(15025.8 7035.54 1.57488e-017)
(10964.3 7589.96 1.59268e-017)
(6618.92 8046.96 1.61547e-017)
(2009.76 8439.36 1.62828e-017)
(-2801.68 8771.42 1.61905e-017)
(-7759.86 9028.84 1.59424e-017)
(-12788.3 9224.25 1.54625e-017)
(-17816.8 9345.12 1.48912e-017)
(-22837.3 9348.45 1.43606e-017)
(-27824.1 9247.39 1.37696e-017)
(-32723.2 9057.21 1.30944e-017)
(-37483.9 8783.97 1.23285e-017)
(-42060.8 8432.06 1.14659e-017)
(-46410.4 8004.87 1.05038e-017)
(-50492.1 7505.55 9.4416e-018)
(-54267.4 6937.24 8.28042e-018)
(-57699.6 6303.06 7.02297e-018)
(-60754 5606.05 5.6737e-018)
(-63397 4849.09 4.23877e-018)
(-65596.7 4034.94 2.72639e-018)
(-67321.9 3165.97 1.14695e-018)
(-68540.8 2243.52 -4.86484e-019)
(-69224.7 1266.37 -2.14762e-018)
(-69355.1 233.028 -3.79799e-018)
(-68923.4 -847.114 -5.44132e-018)
(-67902.7 -1960.66 -7.11746e-018)
(-66260.2 -3105.01 -8.80272e-018)
(-63978.2 -4281.83 -1.04506e-017)
(-61047.1 -5487.82 -1.20379e-017)
(-57458.4 -6717 -1.35425e-017)
(-53207 -7962.08 -1.49427e-017)
(-48293.1 -9214.4 -1.62173e-017)
(-42723.6 -10463.4 -1.73472e-017)
(-36514.5 -11695.2 -1.83183e-017)
(-29698.4 -12888.3 -1.9121e-017)
(-22313.8 -14002.2 -1.97919e-017)
(-14339 -14995.5 -2.04862e-017)
(-5757.37 -15934 -2.09219e-017)
(3336.25 -16823.6 -2.08052e-017)
(12855.2 -17616.6 -2.03019e-017)
(22702.8 -18318.6 -1.92716e-017)
(32745.6 -18899.3 -1.78973e-017)
(42938.7 -19261.6 -1.64542e-017)
(53234.9 -19391.3 -1.48492e-017)
(63518.6 -19295.4 -1.30384e-017)
(73658.6 -18967.2 -1.10265e-017)
(83523.7 -18395 -8.83181e-018)
(92980.1 -17568.5 -6.48199e-018)
(101892 -16480 -4.00984e-018)
(110120 -15125.2 -1.45269e-018)
(117528 -13504.3 1.14877e-018)
(123981 -11622.3 3.75157e-018)
(129347 -9488.98 6.30995e-018)
(133500 -7119.39 8.7779e-018)
(136317 -4528.9 1.11081e-017)
(137701 -1722.93 1.31804e-017)
(137618 1276.13 1.49157e-017)
(136018 4392.19 1.6456e-017)
(132820 7562.59 1.78547e-017)
(127983 10751.7 1.90206e-017)
(121519 13920.9 1.9912e-017)
(113468 17022.6 2.05216e-017)
(103894 20004.5 2.08565e-017)
(92891.1 22812.4 2.09357e-017)
(80582.4 25389.1 2.07958e-017)
(67138.3 27670.6 2.04833e-017)
(52754.9 29550.7 2.01269e-017)
(37532.7 30936.9 2.00839e-017)
(21516 31925.2 1.99338e-017)
(5006.18 32522.9 1.9207e-017)
(-11602.7 32654.7 1.81773e-017)
(-27984 32305 1.67056e-017)
(-43818 31385.8 1.52485e-017)
(-58922.7 29704.8 1.43746e-017)
(-73098.5 27175.7 1.40036e-017)
(-86023.5 23721 1.41043e-017)
(-97335 19171.1 1.48459e-017)
(-106713 13284.2 1.65101e-017)
(-114006 5851.26 1.94736e-017)
(-119152 -2950.81 2.35326e-017)
(-121339 -12040.5 2.60058e-017)
(-124133 -19263.3 3.96967e-017)
(-113089 -18500.3 3.04043e-017)
(137.721 -421.386 1.68046e-016)
(172.749 -328.972 0)
(180.771 -196.808 0)
(153.822 -51.1968 0)
(102.583 92.0024 0)
(26.8087 223.92 0)
(-75.9474 340.482 -1.85852e-017)
(-206.416 441.646 0)
(-361.942 528 0)
(-538.686 598.721 -1.57205e-017)
(-732.035 653.315 0)
(-936.37 690.363 0)
(-1146.76 708.271 -1.40562e-017)
(-1358.47 706.836 0)
(-1566.14 686.569 -1.32319e-017)
(-1764.38 648.374 -1.28685e-017)
(-1948.01 593.539 -1.25291e-017)
(-2112.32 523.767 -1.22092e-017)
(-2253.09 441.128 -1.19058e-017)
(-2366.79 347.983 -1.16166e-017)
(-2450.62 246.9 -1.134e-017)
(-2502.55 140.482 -1.10757e-017)
(-2521.77 31.3036 0)
(-2508.51 -77.5485 -1.05856e-017)
(-2463.19 -182.732 -1.03552e-017)
(-2386.58 -281.781 -1.01341e-017)
(-2280.48 -372.927 -9.92405e-018)
(-2147.52 -454.603 -9.72551e-018)
(-1990.75 -525.568 -2.90283e-017)
(-1813.52 -584.977 -9.3648e-018)
(-1619.4 -632.398 0)
(-1412.06 -667.797 -9.05576e-018)
(-1195.13 -691.487 -8.92163e-018)
(-972.091 -704.056 -8.80141e-018)
(-746.041 -706.235 -2.66552e-017)
(-518.991 -699.153 -8.59767e-018)
(-292.936 -685.405 -8.51723e-018)
(-70.8026 -667.297 -8.45622e-018)
(145.397 -645.905 -8.41007e-018)
(354.09 -622.86 0)
(553.61 -598.508 -2.56141e-017)
(743.854 -572.665 -8.36964e-018)
(925.265 -546.181 -8.3815e-018)
(1097.7 -519.778 -8.40743e-018)
(1260.85 -493.656 -8.44725e-018)
(1414.41 -467.559 -8.5006e-018)
(1557.91 -440.823 -2.60434e-017)
(1690.66 -412.425 0)
(1811.67 -381.043 -8.73626e-018)
(1919.54 -345.108 -8.83747e-018)
(2012.41 -302.888 -8.94842e-018)
(2087.97 -252.538 -9.06783e-018)
(2143.35 -192.219 -9.19453e-018)
(2175.19 -120.046 -9.32675e-018)
(2179.95 -34.138 -9.46112e-018)
(2154.2 66.7189 -9.5949e-018)
(2094.01 182.788 0)
(1994.86 314.058 -9.86138e-018)
(1852.45 460.33 -9.98934e-018)
(1663.01 620.753 -1.01094e-017)
(1423.33 793.544 -1.02191e-017)
(1130.86 975.876 -1.03162e-017)
(782.979 1163.71 -1.04031e-017)
(376.474 1353.48 -1.04802e-017)
(-89.4359 1543.77 0)
(-611.637 1731.52 -1.0547e-017)
(-1186.65 1911.19 -1.05329e-017)
(-1808.58 2078.31 -1.0476e-017)
(-2468.78 2224.48 -1.03854e-017)
(-3160.66 2340.58 -1.02728e-017)
(-3876.42 2421.32 -1.01288e-017)
(-4604.56 2461.65 -9.9508e-018)
(-5331.8 2456.67 -9.73839e-018)
(-6043.47 2401.87 -9.49155e-018)
(-6723.62 2293.41 -9.21088e-018)
(-7355.31 2128.3 -8.89746e-018)
(-7920.83 1904.63 -8.55274e-018)
(-8402.05 1621.51 -8.17903e-018)
(-8780.68 1279.27 -7.77868e-018)
(-9038.56 879.103 -7.35535e-018)
(-9158.89 422.871 -6.91814e-018)
(-9127.72 -85.5321 0)
(-8932.43 -638.595 -6.02636e-018)
(-8559.8 -1227.08 6.97601e-018)
(-7998.2 -1843.14 6.99108e-018)
(-7240.4 -2478.96 -4.65868e-018)
(-6283.26 -3124.8 -4.23103e-018)
(-5127.12 -3769.11 -3.83227e-018)
(-3775.93 -4398.19 -3.46722e-018)
(-2230.78 -4996.29 -3.1137e-018)
(-494.815 -5558.34 1.0353e-017)
(1413.41 -6082.84 -2.5979e-018)
(3469.56 -6557.67 -2.48353e-018)
(5647.25 -6971.88 -2.48711e-018)
(7911.83 -7309.85 -2.61116e-018)
(10231.6 -7549.49 -2.81475e-018)
(12578.9 -7676.55 8.89405e-018)
(14920.1 -7684.71 -3.47246e-018)
(17216 -7568.57 -3.94776e-018)
(19425.7 -7323.73 -4.51833e-018)
(21508.5 -6947.82 -5.17848e-018)
(23423.9 -6440.83 -5.92052e-018)
(25133.1 -5805.4 1.05006e-017)
(26599.3 -5046.94 -7.61154e-018)
(27788.5 -4173.33 -8.53791e-018)
(28670.1 -3194.98 -9.5031e-018)
(29217.1 -2123.67 -1.04942e-017)
(29407.7 -971.508 -1.14915e-017)
(29229.6 247.48 -1.24645e-017)
(28676.9 1511.54 1.14134e-017)
(27742.6 2795.57 -1.43512e-017)
(26422.2 4079.9 -1.52723e-017)
(24719.4 5348.59 -1.61491e-017)
(22645.9 6585.12 -1.69686e-017)
(20218.7 7772.63 -1.77212e-017)
(17459.4 8894.34 1.10559e-017)
(14394.4 9933.48 -1.89946e-017)
(11053.7 10872.9 -1.95047e-017)
(7465.22 11694 -1.99568e-017)
(3646.32 12386.8 -2.03773e-017)
(-374.714 12965.7 -2.06575e-017)
(-4547.76 13439.8 1.00009e-017)
(-8827.24 13802.7 -2.06498e-017)
(-13160.6 14057 -2.03399e-017)
(-17492.6 14179.6 -1.98934e-017)
(-21796.9 14150.2 -1.93938e-017)
(-26048.7 13977.5 -1.87739e-017)
(-30209.1 13670.5 7.83857e-018)
(-34238.3 13236.2 -1.7111e-017)
(-38098.1 12680.6 -1.60618e-017)
(-41751.7 12009.1 -1.48663e-017)
(-45164 11227 -1.3526e-017)
(-48301.7 10339.3 -1.20442e-017)
(-51132.8 9350.83 3.99321e-018)
(-53627.2 8266.09 -8.67637e-018)
(-55755.7 7089.4 -6.80449e-018)
(-57490.8 5824.66 -4.81959e-018)
(-58805.9 4475.29 -2.73307e-018)
(-59675.9 3043.92 -5.58432e-019)
(-60078 1532.1 -1.59643e-018)
(-59995.2 -57.4083 3.95166e-018)
(-59413.8 -1715.04 6.24825e-018)
(-58313.9 -3427.3 8.58852e-018)
(-56674.1 -5187.84 1.09463e-017)
(-54480.3 -6993.18 1.32804e-017)
(-51723.7 -8836.44 1.55655e-017)
(-48398.8 -10708.1 -8.04586e-018)
(-44504.1 -12596.4 1.98846e-017)
(-40042.6 -14486.9 2.1865e-017)
(-35022.9 -16362 2.36898e-017)
(-29460 -18199.8 2.5334e-017)
(-23375.2 -19973.2 2.67747e-017)
(-16791.7 -21646.6 -1.02503e-017)
(-9708.92 -23184.7 2.91868e-017)
(-2142.08 -24603.7 3.00426e-017)
(5834.96 -25913.2 3.03931e-017)
(14151.8 -27073.9 3.03612e-017)
(22731 -28068 2.98197e-017)
(31469.9 -28836 -6.5941e-018)
(40302.7 -29305.8 2.76965e-017)
(49170.6 -29452.2 2.62148e-017)
(57983.6 -29261.1 2.43869e-017)
(66638.2 -28715.9 2.22143e-017)
(75025.2 -27800.1 1.97108e-017)
(83031.4 -26499.5 2.15797e-018)
(90542 -24804 1.38097e-017)
(97441.4 -22709.1 1.04781e-017)
(103616 -20216.4 6.94646e-018)
(108954 -17334.2 3.2615e-018)
(113350 -14077.9 -5.24849e-019)
(116705 -10469.2 1.07904e-017)
(118928 -6535.02 -8.18233e-018)
(119949 -2302.62 -1.18827e-017)
(119726 2180.47 -1.53718e-017)
(118224 6830.64 -1.87061e-017)
(115401 11568.3 -2.18852e-017)
(111237 16328.9 -2.48141e-017)
(105745 21044.5 1.26622e-017)
(98962.8 25640.8 -2.97045e-017)
(90952.1 30038.3 -3.16074e-017)
(81797.6 34154.4 -3.31277e-017)
(71607 37903 -3.42657e-017)
(60511.2 41193.1 -3.50313e-017)
(48651.7 43923.5 7.09917e-018)
(36132.4 46003.8 -3.59409e-017)
(23075.6 47443.1 -3.60496e-017)
(9715.17 48266.5 -3.55199e-017)
(-3701.58 48414.5 -3.45013e-017)
(-16940.2 47833.8 -3.29155e-017)
(-29757.4 46406.6 4.13524e-018)
(-41987.1 43990.3 -2.93593e-017)
(-53497.8 40502.1 -2.77245e-017)
(-64132.8 35854.8 -2.61789e-017)
(-73753 29917 -2.4905e-017)
(-82284.7 22535 -2.42303e-017)
(-89772 13604 1.77109e-017)
(-96343.8 3265.41 -2.6637e-017)
(-101555 -7837.19 -2.93952e-017)
(-107229 -18674.8 -4.95566e-017)
(-105008 -22280.1 -4.71935e-017)
(78.4259 -536.538 -2.66129e-016)
(85.4942 -345.824 0)
(72.5147 -175.028 0)
(34.4732 -6.26077 0)
(-21.1158 157.5 0)
(-94.2069 311.097 0)
(-186.403 450.754 2.44848e-017)
(-298.374 574.548 0)
(-428.852 681.048 0)
(-575.394 768.506 2.01794e-017)
(-734.702 835.431 0)
(-902.727 880.226 0)
(-1075.47 901.5 1.78466e-017)
(-1248.89 898.75 0)
(-1418.65 872.276 1.67722e-017)
(-1580.38 823.067 1.63252e-017)
(-1729.91 752.668 1.59244e-017)
(-1863.34 663.202 1.55623e-017)
(-1977.22 557.279 1.52328e-017)
(-2068.64 437.909 1.49308e-017)
(-2135.3 308.392 1.46523e-017)
(-2175.6 172.188 1.43939e-017)
(-2188.75 32.8298 0)
(-2174.71 -105.986 1.39258e-017)
(-2133.83 -240.603 1.37104e-017)
(-2066.91 -367.906 1.3505e-017)
(-1975.4 -485.34 1.33086e-017)
(-1861.38 -590.785 1.31203e-017)
(-1727.28 -682.607 2.56859e-017)
(-1575.85 -759.697 1.27665e-017)
(-1410.01 -821.473 0)
(-1232.76 -867.871 1.24434e-017)
(-1047.07 -899.302 1.22942e-017)
(-855.749 -916.604 1.21543e-017)
(-661.339 -920.999 2.37697e-017)
(-465.853 -914.15 1.19049e-017)
(-271.227 -898.385 1.17988e-017)
(-79.6609 -875.91 1.17077e-017)
(107.095 -848.454 1.16311e-017)
(287.625 -817.752 0)
(460.711 -784.902 2.28024e-017)
(625.912 -750.53 1.14976e-017)
(783.154 -715.437 1.14846e-017)
(932.213 -680.177 1.14875e-017)
(1072.79 -644.86 1.15058e-017)
(1204.51 -609.113 1.15391e-017)
(1326.85 -572.092 2.30163e-017)
(1439.11 -532.522 0)
(1540.33 -488.752 1.17163e-017)
(1629.25 -438.829 1.17956e-017)
(1704.22 -380.593 1.18814e-017)
(1763.28 -311.765 1.19713e-017)
(1804.05 -230.071 1.20625e-017)
(1823.83 -133.317 1.21523e-017)
(1819.75 -19.5229 1.22374e-017)
(1788.85 112.711 1.23145e-017)
(1727.93 264.059 0)
(1633.54 434.633 1.24376e-017)
(1502.33 623.948 1.24788e-017)
(1331.33 830.712 1.25035e-017)
(1117.9 1052.68 1.251e-017)
(859.879 1286.61 1.24972e-017)
(555.372 1528.37 1.24648e-017)
(202.779 1773.6 1.24124e-017)
(-197.873 2018.27 0)
(-644.295 2257.1 1.22307e-017)
(-1133.16 2483.39 1.21034e-017)
(-1659.51 2690.23 1.19522e-017)
(-2216.74 2869 1.17811e-017)
(-2798.34 3010.5 1.15964e-017)
(-3396.78 3107.02 1.13998e-017)
(-4002.43 3151.45 1.1194e-017)
(-4604.2 3137.28 1.09825e-017)
(-5189.81 3058.64 1.07682e-017)
(-5745.79 2910.55 1.0554e-017)
(-6257.83 2689.16 1.03432e-017)
(-6711.02 2391.94 1.01388e-017)
(-7090.08 2017.8 9.9438e-018)
(-7379.68 1567.16 9.76091e-018)
(-7564.82 1041.94 9.59296e-018)
(-7631.48 445.636 9.44334e-018)
(-7567.18 -216.121 0)
(-7360.57 -935.125 9.20336e-018)
(-7000.96 -1701.38 8.93949e-019)
(-6479.29 -2504.3 1.11664e-018)
(-5789.46 -3332.32 9.00171e-018)
(-4928.47 -4172.32 8.98281e-018)
(-3896.16 -5009.65 8.98965e-018)
(-2695.27 -5828.5 9.02361e-018)
(-1329.54 -6612.5 9.08112e-018)
(193.828 -7349.31 -6.78244e-018)
(1859.06 -8027.26 9.29886e-018)
(3645.24 -8630.44 9.47078e-018)
(5528.26 -9142.81 9.6894e-018)
(7479.42 -9546.56 9.9534e-018)
(9470.06 -9821.99 1.0248e-017)
(11472.3 -9953.07 2.70188e-018)
(13455.2 -9928.94 1.09103e-017)
(15385.3 -9741.71 1.12714e-017)
(17227.8 -9385.98 1.16474e-017)
(18947.8 -8859.58 1.20321e-017)
(20511.4 -8163.62 1.24194e-017)
(21886.2 -7302.63 1.49926e-018)
(23041.6 -6284.6 1.31753e-017)
(23950.4 -5120.68 1.35308e-017)
(24588.1 -3825.04 1.38633e-017)
(24934.4 -2414.22 1.41674e-017)
(24973.3 -906.709 1.44374e-017)
(24695.2 676.62 1.46648e-017)
(24094.8 2310.88 -1.38766e-018)
(23168.9 3969.4 1.50061e-017)
(21917.3 5627.34 1.51303e-017)
(20345.4 7261.7 1.52214e-017)
(18463.8 8850.02 1.52797e-017)
(16287.7 10370.4 1.5306e-017)
(13836 11802 -3.89446e-018)
(11130.6 13124.7 1.52714e-017)
(8195.73 14320.4 1.52149e-017)
(5055.15 15372.9 1.51373e-017)
(1730.71 16272.8 1.50387e-017)
(-1749.46 17021.1 1.48824e-017)
(-5347.05 17617.3 -5.33827e-018)
(-9023.53 18055.7 1.43635e-017)
(-12738.2 18334.1 1.39956e-017)
(-16450.7 18442.2 1.35617e-017)
(-20131.9 18370.3 1.30817e-017)
(-23755 18121.2 1.25428e-017)
(-27288.8 17700.6 -4.93536e-018)
(-30700.9 17115.1 1.1252e-017)
(-33959.4 16371.3 1.04871e-017)
(-37033.4 15476.1 9.63639e-018)
(-39893.1 14436.1 8.6975e-018)
(-42509.6 13257.7 7.67018e-018)
(-44855.8 11947.2 -2.88125e-018)
(-46905.5 10510.6 5.35941e-018)
(-48633.7 8953.47 4.08578e-018)
(-50016.7 7281.11 2.74355e-018)
(-51032.2 5498.48 1.34331e-018)
(-51659.4 3610.36 -1.0234e-019)
(-51879.4 1621.7 5.71255e-019)
(-51676.5 -461.535 -3.06874e-018)
(-51036.5 -2630.28 -4.55815e-018)
(-49943.8 -4873.61 -6.03765e-018)
(-48383.4 -7182.36 -7.48838e-018)
(-46344.3 -9547.66 -8.88717e-018)
(-43819.1 -11958.5 -1.02125e-017)
(-40804.1 -14401.2 5.50715e-018)
(-37299.1 -16859.6 -1.25573e-017)
(-33308.1 -19314.1 -1.3536e-017)
(-28839.4 -21741.9 -1.4361e-017)
(-23905.6 -24116.1 -1.50176e-017)
(-18523.3 -26406.3 -1.54927e-017)
(-12711.4 -28579.1 9.33275e-018)
(-6484.57 -30603 -1.58722e-017)
(130.703 -32464.4 -1.57139e-017)
(7080.26 -34143.4 -1.52555e-017)
(14304.3 -35601 -1.45236e-017)
(21736.1 -36801.5 -1.34986e-017)
(29298.3 -37693.7 1.1082e-017)
(36925.3 -38220.5 -1.07169e-017)
(44553.1 -38343.5 -9.02822e-018)
(52104.4 -38033.2 -7.16143e-018)
(59493.8 -37263.9 -5.13736e-018)
(66629.7 -36012.9 -2.9797e-018)
(73416.9 -34263 8.98137e-018)
(79758.8 -32003.1 1.59781e-018)
(85558.9 -29229.2 3.94004e-018)
(90722.6 -25945.6 6.26004e-018)
(95158.8 -22165.2 8.51159e-018)
(98781.6 -17910.3 1.06475e-017)
(101513 -13212 2.64285e-018)
(103283 -8110.92 1.43873e-017)
(104039 -2656.52 1.58997e-017)
(103744 3086.27 1.71164e-017)
(102370 9032.28 1.8038e-017)
(99896.9 15091 1.8667e-017)
(96317.7 21172.4 1.8992e-017)
(91648.9 27182.3 -7.27816e-018)
(85927 33021.9 1.87508e-017)
(79207.9 38588.2 1.8229e-017)
(71566.4 43776 1.74926e-017)
(63094.6 48479.5 1.65996e-017)
(53899 52593.9 1.56193e-017)
(44094.7 56018.8 -1.31022e-017)
(33791.7 58669.2 1.37315e-017)
(23117.4 60504.7 1.29129e-017)
(12245.2 61489.9 1.21906e-017)
(1358.24 61567.6 1.16585e-017)
(-9364.1 60685.5 1.13554e-017)
(-19750.2 58768.9 -1.15331e-017)
(-29672.4 55728.4 1.20166e-017)
(-39038.7 51495.6 1.32583e-017)
(-47775.8 46004.4 1.52521e-017)
(-55850 39177.2 1.81518e-017)
(-63289.4 30938 2.2142e-017)
(-70194.1 21252.4 -1.95894e-018)
(-76715.6 10217.1 3.45192e-017)
(-82675.2 -1817.45 4.34036e-017)
(-89022.5 -14336.8 6.75627e-017)
(-92098.1 -21036.7 8.65008e-017)
(17.8063 -574.555 2.29671e-016)
(15.2671 -339.732 0)
(-8.09265 -143.918 0)
(-47.3516 41.4969 0)
(-99.7355 220.126 0)
(-165.063 389.307 0)
(-244.343 545.52 -1.90177e-017)
(-338.066 685.745 0)
(-445.576 807.264 3.25114e-017)
(-565.271 907.436 -1.54547e-017)
(-694.794 983.97 2.92434e-017)
(-831.16 1034.84 2.80271e-017)
(-971.211 1058.59 -1.36061e-017)
(-1111.64 1054.48 0)
(-1248.9 1022.71 -1.27733e-017)
(-1379.48 964.345 -1.24297e-017)
(-1500.02 881.105 -1.21229e-017)
(-1607.34 775.445 -1.18465e-017)
(-1698.63 650.405 -1.15957e-017)
(-1771.52 509.517 -1.13663e-017)
(-1824.12 356.674 -1.11549e-017)
(-1855.14 195.991 -1.0959e-017)
(-1863.85 31.6823 0)
(-1850.12 -132.009 -1.06042e-017)
(-1814.23 -290.998 -1.04408e-017)
(-1756.88 -441.649 -1.0285e-017)
(-1679.27 -580.86 -1.01359e-017)
(-1583.02 -706.076 -9.99288e-018)
(-1470.1 -815.336 -9.85563e-018)
(-1342.72 -907.305 -9.72401e-018)
(-1203.24 -981.277 0)
(-1054.1 -1037.16 -9.47816e-018)
(-897.708 -1075.44 -9.36462e-018)
(-736.358 -1097.13 -9.25801e-018)
(-572.168 -1103.75 -9.15895e-018)
(-406.943 -1097.22 -9.06794e-018)
(-242.392 -1079.82 -8.98703e-018)
(-80.2634 -1053.89 -8.91753e-018)
(77.976 -1021.52 -8.85922e-018)
(231.126 -984.658 0)
(378.212 -944.809 -8.77977e-018)
(518.692 -903.065 -8.75794e-018)
(652.27 -860.325 -8.74812e-018)
(778.654 -817.112 -8.75035e-018)
(897.519 -773.47 -8.7644e-018)
(1008.47 -728.923 -8.78979e-018)
(1111.01 -682.473 -8.82573e-018)
(1204.47 -632.635 0)
(1287.97 -577.497 -8.92487e-018)
(1360.41 -514.811 -8.98523e-018)
(1420.39 -442.089 -9.05056e-018)
(1466.27 -356.726 -9.11891e-018)
(1496.09 -256.134 -9.18825e-018)
(1507.68 -137.879 -9.25639e-018)
(1498.7 0.153247 -9.3209e-018)
(1466.72 159.523 -9.37915e-018)
(1409.14 341.084 1.86033e-017)
(1323.28 544.969 -9.47155e-018)
(1206.55 770.513 -9.50201e-018)
(1056.59 1016.12 -9.51973e-018)
(871.339 1279.18 -9.52353e-018)
(649.103 1556.05 -9.5125e-018)
(388.593 1842.15 -9.48653e-018)
(89.0545 2132.23 -9.44506e-018)
(-249.114 2420.57 0)
(-624.053 2700.43 -9.3049e-018)
(-1032.86 2963.95 -9.20747e-018)
(-1471.4 3202.64 -9.0919e-018)
(-1934.39 3407 8.30536e-018)
(-2416.03 3567.22 -8.82072e-018)
(-2909.59 3674.14 -8.67124e-018)
(-3406.92 3719.16 -8.51504e-018)
(-3898.84 3694.56 -8.35468e-018)
(-4375.17 3593.3 -8.1924e-018)
(-4824.73 3409.4 -8.0305e-018)
(-5235.62 3138.31 -7.87145e-018)
(-5595.43 2777.04 -7.71748e-018)
(-5891.53 2324.28 -7.57088e-018)
(-6111.22 1780.57 -7.4337e-018)
(-6242.13 1148.4 -7.30805e-018)
(-6272.56 432.26 -7.19642e-018)
(-6191.81 -361.031 1.50271e-017)
(-5990.17 -1222.26 -7.01764e-018)
(-5658.88 -2140.18 -6.95101e-018)
(-5190.69 -3102.04 -6.9008e-018)
(-4580.58 -4093.55 -6.86864e-018)
(-3825.98 -5098.81 -6.85543e-018)
(-2926.76 -6100.41 -6.86164e-018)
(-1885.42 -7079.91 -6.88826e-018)
(-706.721 -8018.28 -6.9325e-018)
(601.146 -8897.74 0)
(2024.48 -9700.49 -7.09955e-018)
(3545.37 -10406.9 -7.23242e-018)
(5142.84 -10997 1.02236e-017)
(6792.64 -11450.4 -7.60307e-018)
(8469.67 -11747.4 -7.82845e-018)
(10148.4 -11870.4 -8.0724e-018)
(11801.3 -11806.5 -8.33353e-018)
(13399.9 -11546.5 -8.60813e-018)
(14914.9 -11084.3 -8.8936e-018)
(16317.1 -10418.3 -9.18509e-018)
(17578.3 -9550.79 -9.47809e-018)
(18671.8 -8488.16 -9.76745e-018)
(19573.1 -7240.93 -1.00483e-017)
(20260.1 -5823.33 -1.03156e-017)
(20713.9 -4253.06 -1.05651e-017)
(20918.9 -2550.78 -1.07926e-017)
(20863.5 -739.751 -1.09938e-017)
(20540.4 1154.28 -1.1161e-017)
(19945.8 3102.97 -1.12971e-017)
(19078.7 5076.71 -1.14089e-017)
(17941 7046.56 -1.1497e-017)
(16538.5 8984.66 -1.156e-017)
(14881.2 10864.2 -1.15984e-017)
(12982.1 12659.4 -1.1613e-017)
(10857.3 14346.2 -1.16054e-017)
(8525.16 15902.4 -1.15776e-017)
(6005.68 17308.4 -1.15311e-017)
(3319.64 18547.7 -1.14693e-017)
(488.343 19608.8 -1.13909e-017)
(-2463.04 20486 -1.12716e-017)
(-5504.4 21174.6 -1.11009e-017)
(-8604.35 21668.8 -1.08839e-017)
(-11730.9 21965 -1.06081e-017)
(-14852.9 22056.8 -1.02824e-017)
(-17943.7 21939.9 -9.92178e-018)
(-20978.6 21616.5 -9.51644e-018)
(-23931.5 21090.6 -9.05871e-018)
(-26775.7 20368.7 -8.54361e-018)
(-29485 19458 -7.96598e-018)
(-32033.7 18365.9 -7.32266e-018)
(-34396.7 17100.3 -6.61183e-018)
(-36550.2 15668.5 -5.83318e-018)