# vtk DataFile Version 2.0
track0
ASCII
DATASET POLYDATA
POINTS 12030 float
-0.0205 0.001 1e-005
-0.0203851 0.00100536 1.50229e-005
-0.0202701 0.00101048 1.96614e-005
-0.0201552 0.00101536 2.39682e-005
-0.0200402 0.00102001 2.79387e-005
-0.0198627 0.00102682 3.35394e-005
-0.0196936 0.00103277 3.80896e-005
-0.0195244 0.00103811 4.16071e-005
-0.0193553 0.00104284 4.4101e-005
-0.019186 0.00104696 4.55808e-005
-0.0190172 0.00105047 4.60548e-005
-0.0187132 0.00105601 4.60548e-005
-0.0184093 0.0010609 4.60548e-005
-0.0181054 0.00106528 4.60548e-005
-0.0178014 0.00106914 4.60548e-005
-0.0174976 0.00107248 4.60548e-005
-0.0172058 0.00107541 4.60548e-005
-0.016914 0.00107825 4.60548e-005
-0.0166222 0.00108104 4.60548e-005
-0.0163305 0.00108376 4.60548e-005
-0.0160387 0.00108641 4.60548e-005
-0.0157586 0.00108887 4.60548e-005
-0.0154784 0.00109126 4.60548e-005
-0.0151983 0.00109356 4.60548e-005
-0.0149182 0.00109578 4.60548e-005
-0.0146381 0.00109792 4.60548e-005
-0.0143692 0.00109985 4.60548e-005
-0.0141002 0.00110169 4.60548e-005
-0.0138313 0.00110345 4.60548e-005
-0.0135624 0.00110514 4.60548e-005
-0.0132934 0.00110676 4.60548e-005
-0.0130353 0.00110825 4.60548e-005
-0.0127771 0.00110967 4.60548e-005
-0.0125189 0.00111107 4.60548e-005
-0.0122607 0.00111243 4.60548e-005
-0.0120025 0.00111376 4.60548e-005
-0.0117547 0.001115 4.60548e-005
-0.0115068 0.00111622 4.60548e-005
-0.0112589 0.00111743 4.60548e-005
-0.0110111 0.00111863 4.60548e-005
-0.0107632 0.00111982 4.60548e-005
-0.0105252 0.00112094 4.60548e-005
-0.0102873 0.00112206 4.60548e-005
-0.0100493 0.00112317 4.60548e-005
-0.00981133 0.00112427 4.60548e-005
-0.00957337 0.00112537 4.60548e-005
-0.00934491 0.00112642 4.60548e-005
-0.00911645 0.00112746 4.60548e-005
-0.00888799 0.0011285 4.60548e-005
-0.00865954 0.00112954 4.60548e-005
-0.00843108 0.00113057 4.60548e-005
-0.00821175 0.00113157 4.60548e-005
-0.00799242 0.00113256 4.60548e-005
-0.00777309 0.00113356 4.60548e-005
-0.00755376 0.00113456 4.60548e-005
-0.00733443 0.00113556 4.60548e-005
-0.00712387 0.00113652 4.60548e-005
-0.0069133 0.00113748 4.60548e-005
-0.00670273 0.00113845 4.60548e-005
-0.00649217 0.00113942 4.60548e-005
-0.0062816 0.0011404 4.60548e-005
-0.00607944 0.00114134 4.60548e-005
-0.00587729 0.00114229 4.60548e-005
-0.00567514 0.00114324 4.60548e-005
-0.00547298 0.0011442 4.60548e-005
-0.00527083 0.00114516 4.60548e-005
-0.00507675 0.0011461 4.60548e-005
-0.00488267 0.00114704 4.60548e-005
-0.0046886 0.00114799 4.60548e-005
-0.00449452 0.00114894 4.60548e-005
-0.00430044 0.00114991 4.60548e-005
-0.00411412 0.00115086 4.60548e-005
-0.0039278 0.00115181 4.60548e-005
-0.00374147 0.00115277 4.60548e-005
-0.00355515 0.00115374 4.60548e-005
-0.00336883 0.00115473 4.60548e-005
-0.00318995 0.0011557 4.60548e-005
-0.00301107 0.00115667 4.60548e-005
-0.00283219 0.00115766 4.60548e-005
-0.00265331 0.00115867 4.60548e-005
-0.00247443 0.00115969 4.60548e-005
-0.0023027 0.0011607 4.60548e-005
-0.00213097 0.00116172 4.60548e-005
-0.00195924 0.00116276 4.60548e-005
-0.00178751 0.00116382 4.60548e-005
-0.00161577 0.0011649 4.60548e-005
-0.0014509 0.00116596 4.60548e-005
-0.00128603 0.00116704 4.60548e-005
-0.00112116 0.00116814 4.60548e-005
-0.00095629 0.00116927 4.60548e-005
-0.000791418 0.00117043 4.60548e-005
-0.000633135 0.00117158 4.60548e-005
-0.000474851 0.00117276 4.60548e-005
-0.000316568 0.00117397 4.60548e-005
-0.000158285 0.00117521 4.60548e-005
0 0.0011765 4.60548e-005
0.000105677 0.00117739 4.60548e-005
0.000211355 0.0011783 4.60548e-005
0.000317032 0.00117923 4.60548e-005
0.000422709 0.00118019 4.60548e-005
0.000528387 0.00118118 4.60548e-005
0.000634886 0.00118221 4.60548e-005
0.000741385 0.00118326 4.60548e-005
0.000847884 0.00118433 4.60548e-005
0.000954382 0.00118543 4.60548e-005
0.00106088 0.00118657 4.60548e-005
0.00116821 0.00118775 4.60548e-005
0.00127554 0.00118896 4.60548e-005
0.00138286 0.00119019 4.60548e-005
0.00149019 0.00119144 4.60548e-005
0.00159752 0.00119274 4.60548e-005
0.00170568 0.00119409 4.60548e-005
0.00181384 0.00119548 4.60548e-005
0.001922 0.00119689 4.60548e-005
0.00203016 0.00119834 4.60548e-005
0.00213833 0.00119983 4.60548e-005
0.00224733 0.00120139 4.60548e-005
0.00235633 0.001203 4.60548e-005
0.00246533 0.00120465 4.60548e-005
0.00257433 0.00120635 4.60548e-005
0.00268334 0.00120811 4.60548e-005
0.00279319 0.00120993 4.60548e-005
0.00290304 0.00121182 4.60548e-005
0.00301288 0.00121376 4.60548e-005
0.00312273 0.00121578 4.60548e-005
0.00323259 0.00121785 4.60548e-005
0.00334329 0.00121999 4.60548e-005
0.00345399 0.00122221 4.60548e-005
0.00356469 0.00122449 4.60548e-005
0.00367539 0.00122685 4.60548e-005
0.00378611 0.00122929 4.60548e-005
0.00389767 0.0012318 4.60548e-005
0.00400923 0.0012344 4.60548e-005
0.0041208 0.00123706 4.60548e-005
0.00423236 0.00123981 4.60548e-005
0.00434393 0.00124264 4.60548e-005
0.00445636 0.00124556 4.60548e-005
0.00456879 0.00124856 4.60548e-005
0.00468122 0.00125164 4.60548e-005
0.00479365 0.0012548 4.60548e-005
0.00490609 0.00125805 4.60548e-005
0.0050194 0.00126141 4.60548e-005
0.0051327 0.00126484 4.60548e-005
0.005246 0.00126835 4.60548e-005
0.0053593 0.00127195 4.60548e-005
0.00547262 0.00127564 4.60548e-005
0.00558681 0.00127944 4.60548e-005
0.00570099 0.00128333 4.60548e-005
0.00581517 0.00128731 4.60548e-005
0.00592935 0.00129136 4.60548e-005
0.00604356 0.00129551 4.60548e-005
0.00615863 0.00129977 4.60548e-005
0.0062737 0.00130413 4.60548e-005
0.00638877 0.00130859 4.60548e-005
0.00650383 0.00131313 4.60548e-005
0.00661893 0.00131774 4.60548e-005
0.0067349 0.00132247 4.60548e-005
0.00685087 0.0013273 4.60548e-005
0.00696683 0.00133225 4.60548e-005
0.00708278 0.00133728 4.60548e-005
0.00719878 0.00134236 4.60548e-005
0.00731565 0.00134754 4.60548e-005
0.00743252 0.00135285 4.60548e-005
0.00754938 0.00135828 4.60548e-005
0.00766623 0.00136379 4.60548e-005
0.00778313 0.00136934 4.60548e-005
0.00790091 0.00137496 4.60548e-005
0.00801869 0.00138072 4.60548e-005
0.00813645 0.00138661 4.60548e-005
0.00825422 0.00139258 4.60548e-005
0.00837203 0.00139857 4.60548e-005
0.00849073 0.00140461 4.60548e-005
0.00860942 0.0014108 4.60548e-005
0.0087281 0.00141712 4.60548e-005
0.00884678 0.0014235 4.60548e-005
0.00896551 0.00142991 4.60548e-005
0.00908513 0.00143636 4.60548e-005
0.00920474 0.00144295 4.60548e-005
0.00932434 0.00144965 4.60548e-005
0.00944394 0.00145641 4.60548e-005
0.0095636 0.00146321 4.60548e-005
0.00968415 0.00147003 4.60548e-005
0.00980469 0.00147699 4.60548e-005
0.00992523 0.00148403 4.60548e-005
0.0100458 0.00149111 4.60548e-005
0.0101663 0.00149826 4.60548e-005
0.0102878 0.00150542 4.60548e-005
0.0104093 0.0015127 4.60548e-005
0.0105308 0.00152003 4.60548e-005
0.0106523 0.0015274 4.60548e-005
0.0107738 0.00153483 4.60548e-005
0.0108962 0.00154229 4.60548e-005
0.0110186 0.00154984 4.60548e-005
0.0111411 0.00155743 4.60548e-005
0.0112635 0.00156505 4.60548e-005
0.0113859 0.00157272 4.60548e-005
0.0114604 0.00157739 4.60548e-005
0.0115349 0.00158208 4.60548e-005
0.0116094 0.00158679 4.60548e-005
0.0116839 0.0015915 4.60548e-005
0.0117556 0.00159604 4.60548e-005
0.011805 0.00159919 4.60548e-005
0.0118545 0.00160233 4.60548e-005
0.0119039 0.00160549 4.60548e-005
0.0119534 0.00160864 4.60548e-005
0.0120028 0.0016118 4.60548e-005
0.0121272 0.00161976 4.60548e-005
0.0122515 0.00162775 4.60548e-005
0.0123759 0.00163576 4.60548e-005
0.0125002 0.00164378 4.60548e-005
0.0126245 0.00165184 4.60548e-005
0.0127498 0.00165993 4.60548e-005
0.0128752 0.00166809 4.60548e-005
0.0130005 0.00167626 4.60548e-005
0.0131258 0.00168444 4.60548e-005
0.0132511 0.00169264 4.60548e-005
0.0133774 0.00170083 4.60548e-005
0.0135036 0.00170912 4.60548e-005
0.0136299 0.00171741 4.60548e-005
0.0137562 0.0017257 4.60548e-005
0.0138825 0.00173399 4.60548e-005
0.0140098 0.00174224 4.60548e-005
0.014137 0.00175059 4.60548e-005
0.0142643 0.00175895 4.60548e-005
0.0143915 0.00176731 4.60548e-005
0.0145188 0.00177562 4.60548e-005
0.0146471 0.0017839 4.60548e-005
0.0147753 0.00179225 4.60548e-005
0.0149036 0.00180063 4.60548e-005
0.0150318 0.001809 4.60548e-005
0.0151601 0.0018173 4.60548e-005
0.0152893 0.00182557 4.60548e-005
0.0154186 0.00183388 4.60548e-005
0.0155478 0.00184223 4.60548e-005
0.0156771 0.00185055 4.60548e-005
0.0158063 0.0018588 4.60548e-005
0.0159366 0.00186703 4.60548e-005
0.0160668 0.00187527 4.60548e-005
0.0161971 0.00188352 4.60548e-005
0.0163273 0.00189174 4.60548e-005
0.0164576 0.0018999 4.60548e-005
0.0165889 0.00190806 4.60548e-005
0.0167201 0.0019162 4.60548e-005
0.0168514 0.00192431 4.60548e-005
0.0169827 0.00193239 4.60548e-005
0.0171139 0.00194042 4.60548e-005
0.0172462 0.00194847 4.60548e-005
0.0173785 0.00195646 4.60548e-005
0.0175108 0.0019644 4.60548e-005
0.0176431 0.0019723 4.60548e-005
0.0177754 0.00198017 4.60548e-005
0.0179087 0.00198807 4.60548e-005
0.018042 0.00199589 4.60548e-005
0.0181754 0.00200363 4.60548e-005
0.0183087 0.00201132 4.60548e-005
0.018442 0.00201899 4.60548e-005
0.0185763 0.0020267 4.60548e-005
0.0187107 0.00203431 4.60548e-005
0.0188451 0.00204184 4.60548e-005
0.0189794 0.0020493 4.60548e-005
0.0191137 0.00205673 4.60548e-005
0.0192491 0.00206422 4.60548e-005
0.0193845 0.00207159 4.60548e-005
0.01952 0.00207888 4.60548e-005
0.0196554 0.0020861 4.60548e-005
0.0197907 0.00209326 4.60548e-005
0.0199272 0.00210049 4.60548e-005
0.0200636 0.00210758 4.60548e-005
0.0202001 0.0021146 4.60548e-005
0.0203366 0.00212155 4.60548e-005
0.020473 0.00212842 4.60548e-005
0.0206105 0.00213535 4.60548e-005
0.020748 0.00214215 4.60548e-005
0.0208855 0.00214887 4.60548e-005
0.0210231 0.00215552 4.60548e-005
0.0211606 0.00216208 4.60548e-005
0.0212991 0.00216867 4.60548e-005
0.0214377 0.00217515 4.60548e-005
0.0215763 0.00218154 4.60548e-005
0.0217149 0.00218785 4.60548e-005
0.0218535 0.00219407 4.60548e-005
0.0219931 0.00220029 4.60548e-005
0.0221328 0.00220641 4.60548e-005
0.0222724 0.00221244 4.60548e-005
0.0224121 0.00221837 4.60548e-005
0.0225517 0.00222422 4.60548e-005
0.0226925 0.00223004 4.60548e-005
[...]
POINT_DATA 12030
 FIELD attributes 2
p 1 12030 float
-1535.38 -1522.77 -1508.95 -1495.27 -1481.75 -1461.11 -1446.42 -1431.66 -1416.82 -1401.9 -1381.08 -1332.84 -1284.67 -1236.56 -1188.52 -1145.94 -1114.09 -1088.43 -1062.79 -1037.15 -1020.16 -1008.04 -998.174 -988.307 -978.444 -970.407 -963.17 -954.75 -946.329 -937.907 -928.323 -919.348 -910.119 -900.882 -891.658 -882.577 -873.92 -866.011 -858.209 -850.588 -843.864 -837.349 -831.357 -825.498 -819.818 -814.716 -809.777 -804.953 -800.172 -795.454 -790.879 -786.486 -782.125 -777.78 -773.458 -769.174 -765.024 -760.949 -756.927 -752.976 -749.122 -745.306 -741.554 -737.857 -734.271 -730.8 -727.306 -723.829 -720.371 -717.002 -713.707 -710.38 -707.038 -703.676 -700.349 -697.044 -693.71 -690.348 -686.934 -683.513 -680.089 -676.598 -673.082 -669.504 -665.949 -662.403 -658.728 -655.011 -651.14 -647.339 -643.555 -639.631 -635.715 -631.848 -628.374 -624.956 -621.678 -618.429 -615.436 -612.962 -610.554 -607.787 -605.047 -602.478 -600.351 -598.293 -595.603 -592.95 -590.518 -588.652 -586.884 -584.477 -582.073 -579.683 -577.734 -575.863 -573.852 -571.793 -569.432 -567.221 -565.035 -563.39 -561.701 -559.675 -557.606 -555.533 -554.266 -553.008 -551.829 -550.741 -549.661 -549.042 -548.432 -548.223 -548.357 -548.495 -548.65 -548.808 -549.192 -549.98 -550.773 -551.562 -552.355 -553.186 -554.332 -555.483 -556.988 -558.497 -560.109 -561.921 -563.738 -566.288 -568.844 -571.487 -574.217 -576.952 -580.615 -584.284 -587.768 -591.175 -594.586 -598.92 -603.26 -607.241 -611.088 -614.937 -619.48 -624.01 -628.372 -632.806 -637.256 -641.908 -646.637 -651.501 -656.655 -662.046 -666.937 -672.194 -677.679 -683.406 -689.878 -695.089 -701.102 -707.21 -713.32 -720.662 -726.387 -733.025 -739.664 -746.305 -753.86 -760.284 -767.354 -774.424 -781.495 -788.948 -793.19 -797.684 -802.178 -806.672 -810.995 -813.965 -816.935 -819.905 -822.875 -825.842 -833.497 -841.246 -848.994 -856.743 -864.584 -872.14 -880.179 -888.219 -896.258 -904.678 -911.978 -920.269 -928.559 -936.891 -945.863 -952.974 -961.179 -969.678 -978.524 -987.951 -995.199 -1003.07 -1011.76 -1021.14 -1030.84 -1038.35 -1045.97 -1054.82 -1064.58 -1074.35 -1082.21 -1090.06 -1098.93 -1108.59 -1118.25 -1126.49 -1134.73 -1143.51 -1152.93 -1162.35 -1170.95 -1179.55 -1188.25 -1197.38 -1206.51 -1215.4 -1224.27 -1232.95 -1241.74 -1250.56 -1259.63 -1268.54 -1277.2 -1285.8 -1294.33 -1303.46 -1312.24 -1320.83 -1329.36 -1337.66 -1346.73 -1355.28 -1363.78 -1372.27 -1380.41 -1389.26 -1397.62 -1405.99 -1414.36 -1422.45 -1430.99 -1439.19 -1447.4 -1455.61 -1463.63 -1471.86 -1479.86 -1487.87 -1495.88 -1503.78 -1511.66 -1519.43 -1527.21 -1534.99 -1542.73 -1550.3 -1557.81 -1565.33 -1572.85 -1580.36 -1583.15 -1585.92 -1588.69 -1591.46 -1594.78 -1599.14 -1603.5 -1607.86 -1612.22 -1616.54 -1623.51 -1630.43 -1637.37 -1644.31 -1651.15 -1657.81 -1664.4 -1670.98 -1677.58 -1684.04 -1690.36 -1696.58 -1702.79 -1709.02 -1715.1 -1721.04 -1726.86 -1732.69 -1738.52 -1744.23 -1749.73 -1755.11 -1760.5 -1765.9 -1771.2 -1776.18 -1781.07 -1785.97 -1790.87 -1795.76 -1797.49 -1799.2 -1800.91 -1802.62 -1803.89 -1806.66 -1809.44 -1812.22 -1815 -1817.74 -1821.66 -1825.55 -1829.44 -1833.34 -1837.12 -1840.61 -1843.98 -1847.35 -1850.74 -1853.87 -1856.95 -1859.79 -1862.64 -1865.49 -1867.94 -1870.64 -1872.93 -1875.22 -1877.53 -1879.22 -1881.5 -1883.23 -1884.94 -1886.48 -1887.49 -1889.17 -1890.5 -1891.57 -1892.19 -1892.5 -1893.54 -1894.51 -1894.91 -1894.53 -1894.13 -1894.54 -1894.97 -1894.64 -1893.54 -1892.45 -1892.3 -1892.16 -1891.21 -1889.43 -1887.66 -1886.99 -1885.96 -1884.3 -1882.3 -1879.77 -1878.55 -1876.28 -1873.93 -1871.59 -1868.56 -1866.66 -1864.12 -1861.58 -1859.06 -1856.89 -1856.27 -1855.65 -1855.03 -1854.41 -1853.64 -1850.05 -1846.27 -1842.52 -1838.78 -1834.1 -1830.63 -1826.24 -1821.66 -1816.39 -1810.59 -1806.44 -1802.29 -1796.76 -1789.98 -1783.21 -1778.32 -1773.17 -1766.81 -1759.8 -1752.01 -1746.14 -1738.83 -1731.54 -1724.27 -1716.91 -1716.64 -1716.3 -1715.97 -1715.63 -1715.29 -1707.59 -1699.92 -1692.28 -1684.66 -1675.56 -1667.97 -1659.81 -1650.77 -1640.09 -1629.36 -1620.61 -1611.79 -1601.34 -1590.19 -1578.28 -1571.11 -1562.91 -1554.56 -1546.22 -1538.75 -1535.45 -1532.16 -1528.86 -1525.46 -1521.64 -1510.29 -1498.02 -1485.8 -1472.52 -1458.52 -1446.31 -1434.15 -1420.35 -1405.73 -1390.58 -1383.39 -1375.6 -1367.46 -1359.34 -1351.84 -1344.92 -1338.02 -1331.13 -1323.85 -1316.04 -1301.18 -1286.03 -1269.89 -1252.23 -1234.49 -1220.76 -1206.35 -1191.15 -1175.98 -1162.6 -1159.49 -1156.38 -1153.27 -1149.96 -1146.52 -1128.52 -1109.88 -1091.33 -1071.15 -1050.77 -1036.04 -1021.01 -1005.1 -989.237 -975.051 -969.791 -964.537 -959.289 -953.738 -948.06 -926.762 -905.296 -883.342 -860.331 -837.092 -825.065 -812.945 -800.252 -787.584 -775.84 -764.649 -753.484 -742.344 -730.621 -718.689 -694.224 -669.87 -644.676 -619.079 -592.981 -588.261 -583.534 -578.638 -573.745 -568.975 -547.494 -526.099 -504.79 -482.648 -460.093 -439.335 -418.629 -397.38 -376.209 -357.206 -350.187 -343.177 -336.177 -328.912 -321.593 -293.136 -264.829 -236.368 -207.732 -178.437 -172.071 -165.713 -159.346 -152.986 -146.814 -123.945 -101.177 -78.5028 -55.635 -32.2709 -13.8478 4.5046 22.6212 40.6486 57.1799 68.6151 80.0222 91.3991 102.729 114.213 142.749 171.101 198.448 225.489 249.09 250.805 252.519 254.225 255.886 257.551 285.879 313.736 340.797 366.156 392.614 397.91 403.198 407.972 412.552 417.016 437.214 457.297 476.655 493.552 511.089 520.374 529.628 537.492 544.788 551.794 563.914 575.988 587.457 596.985 606.725 617.465 628.165 636.971 645.061 652.885 658.895 664.899 670.659 675.495 680.364 691.75 703.111 712.806 722.027 731.141 732.732 734.322 735.888 737.288 738.688 749.57 760.405 770.542 780.022 789.463 791.44 793.418 795.248 797.057 798.875 806.437 814.021 821.507 828.475 835.356 839.869 844.393 848.633 852.828 857.12 861.459 865.808 870.134 874.252 878.32 885.605 892.925 899.924 906.913 914.304 915.25 916.198 917.143 918.049 918.951 926.985 934.945 942.797 950.446 957.874 960.321 962.773 965.129 967.489 969.918 974.953 980.006 985.079 989.972 994.754 1001.01 1007.28 1013.36 1019.47 1026.19 1026.8 1027.41 1028.02 1028.61 1029.2 1035.86 1042.47 1049.11 1055.55 1061.78 1065.8 1069.81 1073.73 1077.67 1081.97 1083.97 1085.98 1087.98 1089.95 1091.89 1097.63 1103.36 1109.01 1114.57 1119.96 1123.7 1127.41 1131.09 1134.78 1138.93 1140.3 1141.67 1143.04 1144.41 1145.75 1150.62 1155.45 1160.28 1165.08 1169.74 1174.15 1178.55 1182.93 1187.31 1191.55 1192.73 1193.91 1195.08 1196.25 1197.5 1200.36 1203.22 1206.08 1208.95 1211.76 1215.48 1219.2 1222.91 1226.61 1230.26 1233.63 1237 1240.37 1243.74 1247.06 1249.33 1251.6 1253.87 1256.13 1258.76 1259.5 1260.23 1260.96 1261.69 1262.43 1265.27 1268.13 1270.98 1273.83 1276.66 1279.23 1281.81 1284.41 1287.02 1289.62 1291.97 1294.32 1296.68 1299.07 1301.45 1303.6 1305.76 1307.92 1310.09 1312.28 1314.26 1316.26 1318.25 1320.24 1322.22 1322.47 1322.72 1322.97 1323.22 1323.48 1325.09 1326.69 1328.29 1329.89 1331.49 1333.17 1334.89 1336.61 1338.33 1340.05 1341.59 1343.17 1344.76 1346.36 1347.96 1349.4 1350.84 1352.32 1353.81 1355.3 1356.65 1357.99 1359.35 1360.75 1362.14 1363.4 1364.65 1365.92 1367.22 1368.53 1369.71 1370.9 1372.09 1373.29 1374.52 1375.64 1376.77 1377.89 1379.02 1380.18 1381.24 1382.3 1383.37 1384.43 1385.51 1386.52 1387.52 1388.53 1389.53 1390.54 1390.96 1391.38 1391.79 1392.21 1392.66 1393.19 1393.72 1394.25 1394.78 1395.31 1396.2 1397.11 1398.01 1398.92 1399.82 1400.66 1401.52 1402.38 1403.24 1404.11 1404.9 1405.72 1406.55 1407.37 1408.2 1408.95 1409.74 1410.53 1411.32 1412.12 1412.85 1413.6 1414.36 1415.12 1415.89 1416.59 1417.31 1418.05 1418.78 1419.52 1420.21 1420.89 1421.61 1422.32 1423.04 1423.7 1424.37 1425.06 1425.75 1426.45 1427.09 1427.74 1428.41 1429.08 1429.76 1430.39 1431.03 1431.67 1432.33 1432.99 1433.61 1434.23 1434.86 1435.5 1436.15 1436.75 1437.36 1437.98 1438.61 1439.24 1439.83 1440.43 1441.03 1441.65 1442.27 1442.86 1443.45 1444.04 1444.65 1445.26 1445.84 1446.42 1447 1447.6 1448.2 1448.78 1449.36 1449.94 1450.53 1451.12 1451.7 1452.27 1452.85 1453.44 1454.03 1454.6 1455.18 1455.76 1456.34 1456.93 1457.51 1458.08 1458.66 1459.24 1459.84 1460.41 1460.98 1461.56 1462.14 1462.72 1463.3 1463.87 1464.44 1465.01 1465.6 1466.16 1466.73 1467.3 1467.87 1468.45 1469.01 1469.58 1470.14 1470.71 1471.28 1471.84 1472.4 1472.97 1473.53 1474.1 1474.66 1475.22 1475.78 1476.34 1476.9 1477.46 1478.02 1478.57 1479.13 1479.69 1480.25 1480.8 1481.36 1481.91 1482.47 1483.02 1483.57 1484.12 1484.68 1485.23 1485.78 1486.33 1486.88 1487.43 1487.98 1488.53 1489.08 1489.62 1490.17 1490.72 1491.27 1491.81 1492.35 1492.9 1493.45 1493.99 1494.53 1495.07 1495.62 1496.16 1496.7 1497.24 1497.78 1498.32 1498.86 1499.39 1499.93 1500.47 1501 1501.54 1502.07 1502.61 1503.14 1503.67 1504.2 1504.67 1505.13 1505.59 1506.05 1506.53 1506.59 1506.66 1506.72 1506.79 1506.85 1507.38 1507.9 1508.43 1508.95 1509.48 1510 1510.52 1511.04 1511.56 1512.08 1512.6 1513.11 1513.63 1514.14 1514.66 1515.17 1515.68 1516.19 1516.7 1517.21 1517.71 1518.22 1518.72 1519.23 1519.73 1520.23 1520.73 1521.23 1521.73 1522.23 1522.72 1523.21 1523.71 1524.2 1524.69 1525.18 1525.67 1526.16 1526.65 1527.14 1527.62 1528.1 1528.59 1529.07 1529.56 1530.04 1530.52 1531.01 1531.49 1531.97 1532.46 1532.94 1533.42 1533.91 1534.4 1534.88 1535.37 1535.86 1536.35 1536.85 1537.35 1537.85 1538.35 1538.86 1539.37 1539.89 1540.41 1540.94 1541.47 1542.01 1542.56 1543.13 1543.69 1544.26 1544.85 1545.46 1546.08 1546.71 1547.33 1548 1548.69 1549.4 1550.12 1550.83 1551.61 1552.42 1553.27 1554.12 1554.96 1555.91 1556.92 1557.94 1558.95 1559.96 1561.11 1562.34 1563.61 1564.88 1566.14 1567.7 1569.29 1570.53 1571.76 1572.99 1574.29 1575.61 1576.98 1578.34 1579.69 1581.4 1582.36 1582.07 1581.75 1581.4 1578.44 1574.87 1571.21 1567.52 1563.56 1559.03 1554.41 1550.15 1546.33 1542.88 1539.6 1536.26 1532.91 1529.59 1526.31 1523.03 1519.59 1516.15 1512.41 1508.37 1504.32 1500.08 1495.83 1491.47 1487.01 1482.54 1477.87 1473.2 1468.47 1463.71 1458.94 1453.96 1448.97 1443.87 1438.66 1433.43 1427.97 1422.44 1416.78 1411.02 1405.16 1399.06 1392.83 1386.54 1380.19 1373.69 1366.93 1359.96 1352.95 1345.95 1338.7 1331.14 1323.37 1315.59 1307.81 1299.85 1291.4 1282.74 1274.08 1265.42 1256.61 1247.09 1237.4 1227.72 1218.04 1208.28 1199.44 1190.52 1181.6 1172.68 1162.32 1160.7 1159.08 1157.46 1155.84 1154.2 1142.15 1130.07 1118 1105.92 1093.71 1080.34 1066.8 1053.25 1039.71 1025.88 1011.02 995.863 980.701 965.537 949.955 933.48 916.337 899.193 882.047 864.083 845.441 826.32 807.198 788.034 768.398 748.143 726.245 703.993 681.173 656.854 631.745 607.266 583.173 559.545 536.48 512.645 485.572 454.087 417.303 377.793 336.891 298.817 271.017 253.696 238.787 223.337 207.901 159.732 79.806 0