# vtk DataFile Version 2.0
track0
ASCII
DATASET POLYDATA
POINTS 11930 float
-0.0205 0.001 1e-005
-0.0203851 0.00100536 1.50239e-005
-0.0202701 0.00101047 1.96633e-005
-0.0201551 0.00101535 2.39709e-005
-0.0200401 0.00102 2.7942e-005
-0.0198624 0.00102682 3.35503e-005
-0.0196933 0.00103276 3.80972e-005
-0.0195242 0.00103809 4.16124e-005
-0.0193551 0.00104281 4.4105e-005
-0.019186 0.00104692 4.55843e-005
-0.0190172 0.00105042 4.60587e-005
-0.0187132 0.00105593 4.60587e-005
-0.0184093 0.00106079 4.60587e-005
-0.0181054 0.00106513 4.60587e-005
-0.0178014 0.00106895 4.60587e-005
-0.0174976 0.00107223 4.60587e-005
-0.0172058 0.0010751 4.60587e-005
-0.016914 0.00107789 4.60587e-005
-0.0166222 0.00108061 4.60587e-005
-0.0163305 0.00108326 4.60587e-005
-0.0160387 0.00108585 4.60587e-005
-0.0157586 0.00108824 4.60587e-005
-0.0154784 0.00109056 4.60587e-005
-0.0151983 0.00109279 4.60587e-005
-0.0149182 0.00109495 4.60587e-005
-0.0146381 0.00109702 4.60587e-005
-0.0143692 0.00109889 4.60587e-005
-0.0141002 0.00110066 4.60587e-005
-0.0138313 0.00110236 4.60587e-005
-0.0135624 0.00110398 4.60587e-005
-0.0132934 0.00110553 4.60587e-005
-0.0130353 0.00110694 4.60587e-005
-0.0127771 0.00110829 4.60587e-005
-0.0125189 0.0011096 4.60587e-005
-0.0122607 0.00111088 4.60587e-005
-0.0120025 0.00111212 4.60587e-005
-0.0117547 0.00111327 4.60587e-005
-0.0115068 0.0011144 4.60587e-005
-0.0112589 0.00111551 4.60587e-005
-0.0110111 0.00111661 4.60587e-005
-0.0107632 0.00111769 4.60587e-005
-0.0105252 0.0011187 4.60587e-005
-0.0102873 0.0011197 4.60587e-005
-0.0100493 0.00112069 4.60587e-005
-0.00981133 0.00112166 4.60587e-005
-0.00957337 0.00112263 4.60587e-005
-0.00934491 0.00112354 4.60587e-005
-0.00911645 0.00112444 4.60587e-005
-0.00888799 0.00112533 4.60587e-005
-0.00865954 0.00112621 4.60587e-005
-0.00843108 0.00112708 4.60587e-005
-0.00821175 0.00112791 4.60587e-005
-0.00799242 0.00112873 4.60587e-005
-0.00777309 0.00112955 4.60587e-005
-0.00755376 0.00113036 4.60587e-005
-0.00733443 0.00113116 4.60587e-005
-0.00712387 0.00113193 4.60587e-005
-0.0069133 0.0011327 4.60587e-005
-0.00670273 0.00113346 4.60587e-005
-0.00649216 0.00113421 4.60587e-005
-0.0062816 0.00113497 4.60587e-005
-0.00607944 0.00113569 4.60587e-005
-0.00587729 0.00113641 4.60587e-005
-0.00567514 0.00113713 4.60587e-005
-0.00547298 0.00113784 4.60587e-005
-0.00527083 0.00113856 4.60587e-005
-0.00507675 0.00113924 4.60587e-005
-0.00488267 0.00113993 4.60587e-005
-0.0046886 0.00114061 4.60587e-005
-0.00449452 0.00114129 4.60587e-005
-0.00430044 0.00114197 4.60587e-005
-0.00411412 0.00114263 4.60587e-005
-0.0039278 0.00114328 4.60587e-005
-0.00374147 0.00114393 4.60587e-005
-0.00355515 0.00114459 4.60587e-005
-0.00336883 0.00114524 4.60587e-005
-0.00318995 0.00114587 4.60587e-005
-0.00301107 0.0011465 4.60587e-005
-0.00283219 0.00114713 4.60587e-005
-0.00265331 0.00114776 4.60587e-005
-0.00247443 0.00114839 4.60587e-005
-0.0023027 0.001149 4.60587e-005
-0.00213097 0.00114961 4.60587e-005
-0.00195924 0.00115022 4.60587e-005
-0.0017875 0.00115083 4.60587e-005
-0.00161577 0.00115144 4.60587e-005
-0.0014509 0.00115204 4.60587e-005
-0.00128603 0.00115264 4.60587e-005
-0.00112116 0.00115323 4.60587e-005
-0.000956289 0.00115383 4.60587e-005
-0.000791418 0.00115443 4.60587e-005
-0.000633135 0.00115502 4.60587e-005
-0.000474851 0.00115561 4.60587e-005
-0.000316567 0.0011562 4.60587e-005
-0.000158284 0.00115679 4.60587e-005
0 0.0011574 4.60587e-005
0.000105677 0.00115781 4.60587e-005
0.000211355 0.00115821 4.60587e-005
0.000317032 0.00115862 4.60587e-005
0.00042271 0.00115903 4.60587e-005
0.000528387 0.00115944 4.60587e-005
0.000634886 0.00115987 4.60587e-005
0.000741385 0.0011603 4.60587e-005
0.000847885 0.00116072 4.60587e-005
0.000954384 0.00116115 4.60587e-005
0.00106088 0.00116159 4.60587e-005
0.00116821 0.00116205 4.60587e-005
0.00127554 0.0011625 4.60587e-005
0.00138286 0.00116295 4.60587e-005
0.00149019 0.00116341 4.60587e-005
0.00159752 0.00116387 4.60587e-005
0.00170568 0.00116434 4.60587e-005
0.00181384 0.00116482 4.60587e-005
0.001922 0.00116529 4.60587e-005
0.00203016 0.00116576 4.60587e-005
0.00213833 0.00116624 4.60587e-005
0.00224733 0.00116673 4.60587e-005
0.00235633 0.00116722 4.60587e-005
0.00246533 0.00116771 4.60587e-005
0.00257434 0.0011682 4.60587e-005
0.00268334 0.00116869 4.60587e-005
0.00279319 0.00116919 4.60587e-005
0.00290304 0.00116969 4.60587e-005
0.00301289 0.00117019 4.60587e-005
0.00312274 0.0011707 4.60587e-005
0.00323259 0.0011712 4.60587e-005
0.00334329 0.0011717 4.60587e-005
0.003454 0.00117222 4.60587e-005
0.0035647 0.00117274 4.60587e-005
0.0036754 0.00117326 4.60587e-005
0.00378611 0.00117377 4.60587e-005
0.00389767 0.00117428 4.60587e-005
0.00400924 0.0011748 4.60587e-005
0.0041208 0.00117533 4.60587e-005
0.00423237 0.00117586 4.60587e-005
0.00434393 0.00117638 4.60587e-005
0.00445636 0.00117689 4.60587e-005
0.00456879 0.00117742 4.60587e-005
0.00468123 0.00117796 4.60587e-005
0.00479366 0.0011785 4.60587e-005
0.00490609 0.00117903 4.60587e-005
0.0050194 0.00117954 4.60587e-005
0.0051327 0.00118008 4.60587e-005
0.00524601 0.00118061 4.60587e-005
0.00535931 0.00118115 4.60587e-005
0.00547262 0.00118169 4.60587e-005
0.00558681 0.00118221 4.60587e-005
0.005701 0.00118274 4.60587e-005
0.00581518 0.00118329 4.60587e-005
0.00592937 0.00118383 4.60587e-005
0.00604356 0.00118437 4.60587e-005
0.00615863 0.00118489 4.60587e-005
0.00627371 0.00118543 4.60587e-005
0.00638878 0.00118597 4.60587e-005
0.00650386 0.00118651 4.60587e-005
0.00661893 0.00118705 4.60587e-005
0.0067349 0.00118757 4.60587e-005
0.00685087 0.00118811 4.60587e-005
0.00696684 0.00118865 4.60587e-005
0.00708281 0.00118919 4.60587e-005
0.00719878 0.00118973 4.60587e-005
0.00731565 0.00119025 4.60587e-005
0.00743252 0.00119078 4.60587e-005
0.00754939 0.00119132 4.60587e-005
0.00766626 0.00119185 4.60587e-005
0.00778313 0.00119239 4.60587e-005
0.00790091 0.00119291 4.60587e-005
0.00801869 0.00119344 4.60587e-005
0.00813647 0.00119397 4.60587e-005
0.00825425 0.0011945 4.60587e-005
0.00837203 0.00119503 4.60587e-005
0.00849073 0.00119555 4.60587e-005
0.00860942 0.00119607 4.60587e-005
0.00872812 0.0011966 4.60587e-005
0.00884682 0.00119712 4.60587e-005
0.00896551 0.00119764 4.60587e-005
0.00908513 0.00119816 4.60587e-005
0.00920475 0.00119868 4.60587e-005
0.00932437 0.00119919 4.60587e-005
0.00944398 0.00119971 4.60587e-005
0.0095636 0.00120022 4.60587e-005
0.00968415 0.00120073 4.60587e-005
0.0098047 0.00120125 4.60587e-005
0.00992525 0.00120176 4.60587e-005
0.0100458 0.00120226 4.60587e-005
0.0101663 0.00120277 4.60587e-005
0.0102878 0.00120327 4.60587e-005
0.0104093 0.00120378 4.60587e-005
0.0105308 0.00120428 4.60587e-005
0.0106523 0.00120478 4.60587e-005
0.0107738 0.00120527 4.60587e-005
0.0108962 0.00120577 4.60587e-005
0.0110186 0.00120626 4.60587e-005
0.0111411 0.00120676 4.60587e-005
0.0112635 0.00120725 4.60587e-005
0.0113859 0.00120773 4.60587e-005
0.0115093 0.00120822 4.60587e-005
0.0116327 0.0012087 4.60587e-005
0.0117561 0.00120919 4.60587e-005
0.0118795 0.00120967 4.60587e-005
0.0120028 0.00121014 4.60587e-005
0.0121272 0.00121062 4.60587e-005
0.0122515 0.00121109 4.60587e-005
0.0123759 0.00121156 4.60587e-005
0.0125002 0.00121203 4.60587e-005
0.0126245 0.0012125 4.60587e-005
0.0127498 0.00121296 4.60587e-005
0.0128752 0.00121342 4.60587e-005
0.0130005 0.00121388 4.60587e-005
0.0131258 0.00121434 4.60587e-005
0.0132511 0.00121479 4.60587e-005
0.0133774 0.00121524 4.60587e-005
0.0135036 0.00121569 4.60587e-005
0.0136299 0.00121614 4.60587e-005
0.0137562 0.00121658 4.60587e-005
0.0138825 0.00121702 4.60587e-005
0.0140098 0.00121745 4.60587e-005
0.014137 0.00121788 4.60587e-005
0.0142643 0.00121831 4.60587e-005
0.0143915 0.00121874 4.60587e-005
0.0145188 0.00121916 4.60587e-005
0.0146471 0.00121958 4.60587e-005
0.0147753 0.00121999 4.60587e-005
0.0149036 0.00122041 4.60587e-005
0.0150318 0.00122081 4.60587e-005
0.0151601 0.00122122 4.60587e-005
0.0152893 0.00122161 4.60587e-005
0.0154186 0.00122201 4.60587e-005
0.0155478 0.0012224 4.60587e-005
0.0156771 0.00122279 4.60587e-005
0.0158063 0.00122317 4.60587e-005
0.0159366 0.00122355 4.60587e-005
0.0160668 0.00122392 4.60587e-005
0.0161971 0.00122429 4.60587e-005
0.0163274 0.00122466 4.60587e-005
0.0164576 0.00122502 4.60587e-005
0.0165889 0.00122537 4.60587e-005
0.0167201 0.00122572 4.60587e-005
0.0168514 0.00122606 4.60587e-005
0.0169827 0.0012264 4.60587e-005
0.0171139 0.00122673 4.60587e-005
0.0172 0.00122694 4.60587e-005
0.017286 0.00122716 4.60587e-005
0.017372 0.00122736 4.60587e-005
0.017458 0.00122757 4.60587e-005
0.0175416 0.00122777 4.60587e-005
0.0175883 0.00122787 4.60587e-005
0.0176351 0.00122798 4.60587e-005
0.0176819 0.00122809 4.60587e-005
0.0177286 0.0012282 4.60587e-005
0.0177754 0.0012283 4.60587e-005
0.0179087 0.0012286 4.60587e-005
0.018042 0.00122889 4.60587e-005
0.0181753 0.00122917 4.60587e-005
0.0183087 0.00122945 4.60587e-005
0.018442 0.00122972 4.60587e-005
0.0185763 0.00122998 4.60587e-005
0.0187107 0.00123023 4.60587e-005
0.018845 0.00123048 4.60587e-005
0.0189794 0.00123072 4.60587e-005
0.0191137 0.00123096 4.60587e-005
0.0192491 0.00123118 4.60587e-005
0.0193845 0.0012314 4.60587e-005
0.0195199 0.0012316 4.60587e-005
0.0196553 0.00123181 4.60587e-005
0.0197907 0.001232 4.60587e-005
0.0199272 0.00123218 4.60587e-005
0.0200636 0.00123236 4.60587e-005
0.0202001 0.00123252 4.60587e-005
0.0203365 0.00123268 4.60587e-005
0.020473 0.00123283 4.60587e-005
0.0206105 0.00123297 4.60587e-005
0.020748 0.0012331 4.60587e-005
0.0208855 0.00123322 4.60587e-005
0.021023 0.00123333 4.60587e-005
0.0211606 0.00123343 4.60587e-005
0.0212991 0.00123352 4.60587e-005
0.0214377 0.00123361 4.60587e-005
0.0215763 0.00123368 4.60587e-005
0.0217149 0.00123374 4.60587e-005
0.0218535 0.00123379 4.60587e-005
0.0219931 0.00123384 4.60587e-005
0.0221328 0.00123387 4.60587e-005
0.0222724 0.00123389 4.60587e-005
0.0224121 0.0012339 4.60587e-005
0.0225517 0.0012339 4.60587e-005
0.0226925 0.00123389 4.60587e-005
[...]
POINT_DATA 11930
 FIELD attributes 2
p 1 11930 float
-1548.76 -1536.18 -1522.39 -1508.76 -1495.27 -1474.67 -1460.02 -1445.31 -1430.51 -1415.64 -1394.9 -1346.81 -1298.79 -1250.83 -1202.93 -1160.47 -1128.83 -1103.36 -1077.9 -1052.46 -1035.63 -1023.87 -1014.39 -1004.92 -995.446 -987.829 -981.069 -973.159 -965.25 -957.34 -948.289 -939.824 -931.163 -922.498 -913.849 -905.42 -897.427 -890.218 -883.098 -876.131 -870.081 -864.285 -859.071 -853.978 -849.042 -844.708 -840.541 -836.598 -832.724 -828.939 -825.403 -822.001 -818.725 -815.5 -812.346 -809.344 -806.451 -803.681 -800.974 -798.347 -795.858 -793.446 -791.145 -788.916 -786.768 -784.738 -782.755 -780.853 -779.015 -777.25 -775.572 -773.912 -772.312 -770.769 -769.293 -767.885 -766.465 -765.091 -763.769 -762.511 -761.309 -760.069 -758.871 -757.726 -756.653 -755.632 -754.547 -753.49 -752.477 -751.54 -750.651 -749.677 -748.754 -747.922 -747.211 -746.566 -745.845 -745.189 -744.65 -744.247 -743.928 -743.433 -742.983 -742.596 -742.299 -742.073 -741.656 -741.34 -741.137 -741.047 -741.067 -740.897 -740.805 -740.784 -740.827 -740.947 -741.025 -741.092 -741.152 -741.206 -741.253 -741.51 -741.67 -741.773 -741.821 -741.76 -742.15 -742.367 -742.506 -742.561 -742.411 -742.881 -743.122 -743.281 -743.352 -743.141 -743.635 -743.858 -744.009 -744.086 -743.832 -744.29 -744.463 -744.583 -744.652 -744.382 -744.769 -744.897 -744.995 -745.066 -744.83 -745.142 -745.244 -745.335 -745.418 -745.247 -745.485 -745.564 -745.644 -745.723 -745.622 -745.78 -745.841 -745.901 -745.962 -745.922 -746.017 -746.068 -746.119 -746.17 -746.182 -746.243 -746.296 -746.349 -746.402 -746.456 -746.503 -746.56 -746.617 -746.675 -746.754 -746.8 -746.861 -746.922 -746.983 -747.073 -747.131 -747.198 -747.265 -747.332 -747.424 -747.501 -747.577 -747.653 -747.729 -747.818 -747.921 -748.009 -748.097 -748.185 -748.271 -748.401 -748.503 -748.605 -748.706 -748.792 -748.946 -749.061 -749.176 -749.292 -749.379 -749.553 -749.681 -749.809 -749.937 -750.031 -750.219 -750.361 -750.502 -750.643 -750.748 -750.947 -751.102 -751.257 -751.411 -751.532 -751.737 -751.905 -752.073 -752.241 -752.381 -752.592 -752.775 -752.958 -753.141 -753.306 -753.523 -753.723 -753.924 -754.124 -754.317 -754.463 -754.603 -754.743 -754.883 -755.019 -755.095 -755.171 -755.247 -755.323 -755.411 -755.627 -755.855 -756.083 -756.311 -756.586 -756.785 -757.026 -757.267 -757.508 -757.827 -758.014 -758.269 -758.523 -758.777 -759.133 -759.314 -759.58 -759.847 -760.113 -760.498 -760.679 -760.957 -761.234 -761.512 -761.918 -762.106 -762.395 -762.684 -762.973 -763.39 -763.593 -763.893 -764.192 -764.492 -764.911 -765.137 -765.447 -765.757 -766.067 -766.48 -766.735 -767.054 -767.374 -767.693 -768.092 -768.381 -768.709 -769.038 -769.367 -769.745 -770.071 -770.408 -770.745 -771.082 -771.434 -771.799 -772.144 -772.488 -772.833 -773.157 -773.559 -773.913 -774.265 -774.611 -774.912 -775.342 -775.712 -776.071 -776.413 -776.697 -777.15 -777.539 -777.904 -778.24 -778.513 -778.982 -779.391 -779.763 -780.091 -780.359 -780.84 -781.269 -781.649 -781.97 -782.239 -782.73 -783.181 -783.569 -783.882 -784.153 -784.652 -785.122 -785.516 -785.819 -786.092 -786.594 -787.079 -787.476 -787.768 -788.044 -788.541 -789.036 -789.433 -789.717 -790 -790.489 -790.977 -791.371 -791.665 -791.958 -792.435 -792.912 -793.305 -793.611 -793.916 -794.379 -794.843 -795.234 -795.553 -795.872 -796.319 -796.767 -797.157 -797.488 -797.819 -798.25 -798.682 -799.069 -799.411 -799.752 -800.168 -800.584 -800.966 -801.317 -801.668 -802.067 -802.467 -802.845 -803.202 -803.559 -803.943 -804.327 -804.699 -805.061 -805.422 -805.791 -806.159 -806.525 -806.888 -807.25 -807.605 -807.96 -808.318 -808.678 -809.038 -809.378 -809.721 -810.07 -810.423 -810.779 -811.104 -811.436 -811.775 -812.116 -812.464 -812.775 -813.096 -813.422 -813.751 -814.088 -814.383 -814.693 -815.005 -815.318 -815.641 -815.921 -816.216 -816.512 -816.808 -817.114 -817.377 -817.654 -817.931 -818.209 -818.497 -818.741 -818.999 -819.257 -819.516 -819.783 -820.009 -820.246 -820.483 -820.721 -820.965 -821.172 -821.387 -821.602 -821.817 -822.036 -822.223 -822.413 -822.604 -822.795 -822.986 -822.991 -822.997 -823.002 -823.007 -823.013 -823.172 -823.332 -823.492 -823.652 -823.811 -823.949 -824.085 -824.22 -824.356 -824.488 -824.598 -824.702 -824.806 -824.91 -825.008 -825.088 -825.158 -825.229 -825.3 -825.361 -825.41 -825.445 -825.48 -825.515 -825.537 -825.553 -825.55 -825.546 -825.541 -825.522 -825.499 -825.459 -825.415 -825.366 -825.304 -825.24 -825.163 -825.076 -824.979 -824.873 -824.766 -824.65 -824.518 -824.371 -824.219 -824.066 -823.911 -823.732 -823.532 -823.33 -823.13 -822.929 -822.701 -822.449 -822.197 -821.946 -821.695 -821.417 -821.112 -820.807 -820.503 -820.2 -819.87 -819.51 -819.149 -818.791 -818.433 -818.048 -817.631 -817.213 -816.798 -816.38 -815.936 -815.464 -814.987 -814.512 -814.028 -813.522 -812.998 -812.46 -811.923 -811.368 -810.799 -810.221 -809.619 -809.018 -808.39 -807.756 -807.122 -806.453 -805.783 -805.081 -804.38 -803.678 -802.952 -802.203 -801.431 -800.659 -799.888 -799.102 -798.271 -797.426 -796.582 -795.738 -794.891 -794.597 -794.3 -794.003 -793.706 -793.415 -792.795 -792.176 -791.557 -790.937 -790.308 -789.328 -788.338 -787.347 -786.358 -785.342 -784.299 -783.23 -782.161 -781.093 -779.981 -778.874 -777.724 -776.574 -775.418 -774.212 -773.028 -771.808 -770.575 -769.317 -768.026 -766.757 -765.47 -764.152 -762.788 -761.41 -760.054 -758.699 -757.289 -755.822 -754.355 -752.911 -751.467 -749.967 -748.409 -746.852 -745.317 -743.783 -742.19 -740.541 -738.891 -737.264 -735.629 -733.937 -732.205 -730.461 -728.741 -726.986 -725.198 -723.394 -721.554 -719.737 -717.861 -715.976 -714.091 -712.16 -710.229 -708.245 -706.261 -704.278 -702.273 -700.377 -698.456 -696.536 -694.616 -692.812 -692.627 -692.443 -692.258 -692.074 -691.887 -689.719 -687.549 -685.379 -683.211 -681.01 -678.767 -676.496 -674.226 -671.956 -669.623 -667.299 -664.934 -662.562 -660.164 -657.723 -655.298 -652.859 -650.386 -647.852 -645.309 -642.781 -640.254 -637.669 -635.023 -632.377 -629.748 -627.119 -624.426 -621.678 -618.93 -616.199 -613.444 -610.641 -607.818 -604.968 -602.136 -599.242 -596.338 -593.434 -590.494 -587.533 -584.528 -581.524 -578.52 -575.512 -575.065 -574.613 -574.161 -573.708 -573.26 -570.614 -567.969 -565.324 -562.68 -560.011 -556.834 -553.641 -550.448 -547.256 -544.012 -540.75 -537.469 -534.181 -530.865 -527.526 -524.168 -520.812 -517.424 -513.992 -510.56 -507.11 -503.66 -500.171 -496.649 -493.127 -489.586 -486.032 -482.445 -478.849 -475.239 -471.611 -467.942 -464.269 -460.597 -456.911 -454.06 -451.188 -448.317 -445.446 -442.7 -441.792 -440.884 -439.976 -439.068 -438.154 -434.328 -430.498 -426.669 -422.841 -418.977 -415.09 -411.185 -407.28 -403.357 -399.408 -395.446 -391.483 -387.502 -383.484 -379.464 -375.431 -371.398 -367.336 -363.251 -359.165 -355.065 -350.951 -346.816 -342.678 -338.53 -334.364 -330.168 -325.973 -321.778 -317.579 -316.221 -314.855 -313.49 -312.124 -310.781 -307.893 -305.005 -302.117 -299.229 -296.325 -292.03 -287.729 -283.429 -279.124 -274.793 -270.451 -266.107 -261.759 -257.387 -253.011 -248.623 -244.236 -239.832 -235.417 -231.001 -226.572 -222.136 -217.686 -213.237 -208.784 -204.317 -199.833 -195.35 -190.868 -186.384 -185.662 -184.939 -184.216 -183.493 -182.775 -178.983 -175.192 -171.401 -167.61 -163.807 -159.266 -154.726 -150.188 -145.643 -141.087 -136.523 -131.958 -127.396 -122.823 -118.248 -113.664 -109.08 -104.486 -99.8956 -95.3044 -90.7027 -86.0962 -81.489 -76.8822 -72.2781 -70.0829 -67.8873 -65.6918 -63.4965 -61.3445 -58.9148 -56.4852 -54.0557 -51.6264 -49.1945 -44.5662 -39.9437 -35.3217 -30.6988 -26.0703 -21.435 -16.8015 -12.1768 -7.55002 -2.9213 1.71488 6.3505 10.985 15.6093 20.2338 24.8664 29.496 34.1246 38.7527 43.3759 45.1651 46.9525 48.7399 50.5271 52.2883 55.1317 57.9749 60.818 63.6609 66.5032 71.1322 75.7498 80.367 84.9819 89.5958 94.2146 98.8329 103.437 108.033 112.631 117.235 121.836 126.429 131.016 135.596 140.087 144.568 149.048 153.528 157.858 157.982 158.106 158.231 158.355 158.48 163.045 167.609 172.173 176.736 181.292 185.85 190.398 194.939 199.469 203.999 208.531 213.063 217.584 222.085 226.589 231.094 235.588 240.078 244.568 249.052 250.314 251.572 252.83 254.087 255.334 258.549 261.764 264.978 268.193 271.399 275.858 280.304 284.746 289.179 293.608 298.035 302.462 306.874 311.267 315.662 320.056 324.437 328.812 333.187 337.554 339.061 340.561 342.061 343.561 345.046 347.898 350.75 353.603 356.455 359.296 363.63 367.949 372.266 376.571 380.872 385.167 389.461 393.739 397.999 402.261 406.516 410.756 414.991 419.225 423.456 424.235 425.01 425.785 426.559 427.33 430.764 434.198 437.631 441.064 444.482 448.665 452.841 457.009 461.158 465.308 469.447 473.586 477.703 481.812 485.918 489.261 492.587 495.912 499.237 502.497 503.261 504.025 504.788 505.552 506.312 510.361 514.406 518.45 522.488 526.512 530.522 534.532 538.523 542.497 546.473 550.433 554.38 558.317 562.253 566.184 567.135 568.081 569.025 569.97 570.91 573.867 576.825 579.782 582.736 585.675 589.542 593.404 597.254 601.08 604.908 608.718 612.521 616.304 620.087 623.855 625.495 627.125 628.752 630.379 631.999 634.11 636.221 638.331 640.439 642.534 646.236 649.926 653.61 657.266 660.919 664.555 668.185 671.784 675.377 678.952 680.723 682.482 684.239 685.995 687.759 689.544 691.329 693.114 694.896 696.668 700.18 703.652 707.11 710.494 713.864 717.215 720.581 724.077 727.592 731.149 733.011 734.524 735.928 737.333 738.771 740.238 741.704 743.17 744.548 745.62 747.86 750.858 753.971 758.428 763.223 767.902 772.146 774.612 777.082 779.045 779.281 779.568 779.938 780.307 780.68 782.432 784.185 785.939 788.163 790.691 793.672 796.654 799.493 802.324 805.093 805.75 806.394 807.014 807.634 808.267 810.391 812.515 814.637 816.692 818.705 821.353 823.999 826.557 829.083 831.567 832.274 832.965 833.626 834.288 834.974 836.75 838.524 840.296 842.001 843.664 845.981 848.294 850.455 852.513 854.533 855.275 855.985 856.639 857.294 857.992 859.216 860.437 861.655 862.795 863.874 865.555 867.229 868.7 869.965 871.221 871.929 872.547 873.059 873.568 874.145 874.569 874.991 875.412 875.778 876.081 876.762 877.318 877.78 877.887 877.983 877.945 877.71 877.232 876.747 876.161 876.034 875.862 875.664 875.466 875.26 874.363 873.453 872.532 871.477 870.141 868.361 866.569 864.334 861.684 859.021 856.101 852.788 849.214 845.634 841.875 840.956 839.915 838.854 837.792 836.655 833.068 829.469 825.86 822.199 818.096 812.443 806.493 800.267 793.289 786.21 778.66 771.097 762.95 754.331 745.645 736.434 726.036 715.354 704.67 693.498 688.921 684.333 679.745 675.155 669.958 662.342 654.722 647.097 639.467 631.793 617.975 602.244 586.48 569.725 550.368 530.037 510.259 492.669 478.693 464.745 450.048 435.352 407.865 368.051 328.204 286.562 253.889 237.436 228.495 231.35 233.966 176.933 119.592 61.9562 0