/*--------------------------------*- C++ -*----------------------------------*\
| =========                 |                                                 |
| \\      /  F ield         | OpenFOAM: The Open Source CFD Toolbox           |
|  \\    /   O peration     | Version:  5.x                                   |
|   \\  /    A nd           | Web:      www.OpenFOAM.org                      |
|    \\/     M anipulation  |                                                 |
\*---------------------------------------------------------------------------*/
/*   Windows 32 and 64 bit porting by blueCAPE: http://www.bluecape.com.pt   *\
|  Based on Windows porting (2.0.x v4) by Symscape: http://www.symscape.com   |
\*---------------------------------------------------------------------------*/
FoamFile
{
    version     2.0;
    format      ascii;
    class       volScalarField;
    location    "1668";
    object      k;
}
// * * * * * * * * * * * * * * * * * * * * * * * * * * * * * * * * * * * * * //

dimensions      [0 2 -2 0 0 0 0];

internalField   nonuniform List<scalar> 
4000
(
0.00963211
0.00892913
0.00829338
0.00771541
0.00718881
0.00670872
0.00627117
0.00587264
0.00550989
0.00517987
0.00487967
0.00460655
0.00435797
0.00413156
0.00392511
0.00373662
0.00356428
0.00340643
0.0032616
0.00312854
0.00300614
0.00289346
0.00278969
0.00269411
0.00260599
0.00252472
0.00244978
0.00238069
0.00231705
0.00225848
0.00220463
0.00215508
0.00210956
0.00206786
0.00202974
0.00199505
0.00196362
0.00193525
0.00190969
0.00188682
0.00186652
0.00184868
0.00183334
0.00182044
0.00180983
0.00180116
0.00179407
0.00178824
0.00178349
0.00177967
0.0017767
0.0017745
0.00177306
0.0017723
0.00177221
0.00177273
0.00177382
0.00177538
0.00177735
0.00177958
0.00178196
0.00178438
0.00178682
0.00178928
0.00179186
0.00179454
0.00179732
0.00180013
0.00180298
0.00180586
0.00180882
0.00181184
0.00181495
0.00181804
0.00182112
0.0018241
0.00182706
0.00183002
0.0018331
0.00183632
0.00183977
0.00184343
0.00184731
0.00185065
0.00185311
0.00185488
0.00185614
0.00185703
0.00185768
0.0018582
0.00185866
0.00185913
0.00185965
0.00186026
0.00186099
0.00186186
0.00186288
0.00186405
0.00186537
0.00186681
0.00186838
0.00187006
0.00187185
0.00187373
0.0018757
0.00187775
0.00187987
0.00188207
0.00188434
0.00188667
0.00188903
0.00189141
0.00189378
0.0018961
0.00189834
0.00190047
0.00190247
0.00190434
0.00190607
0.00190768
0.00190921
0.00191069
0.00191218
0.00191372
0.00191536
0.00191715
0.00191912
0.00192128
0.00192366
0.00192623
0.00192906
0.00193223
0.00193585
0.00194001
0.00194472
0.00194997
0.00195575
0.00196201
0.00196877
0.00197608
0.00198396
0.00199242
0.00200148
0.00201113
0.00202142
0.00203235
0.00204395
0.00205622
0.00206915
0.00208273
0.00209695
0.0021118
0.00212723
0.00214321
0.00215971
0.0021767
0.00219419
0.00221221
0.00223074
0.00224976
0.00226921
0.00228905
0.00230923
0.00232972
0.00235057
0.00237179
0.00239336
0.00241524
0.00243742
0.00245998
0.00248306
0.00250664
0.00253065
0.00255497
0.00257936
0.0026037
0.00262791
0.00265181
0.00267526
0.00269812
0.00272032
0.00274185
0.0027626
0.0027824
0.00280111
0.00281853
0.00283432
0.00284809
0.00285955
0.00286821
0.00287374
0.00287605
0.0028752
0.00286948
0.0028606
0.00284927
0.00283524
0.00281856
0.00279967
0.00277914
0.00997239
0.00987904
0.00976392
0.00963659
0.00950276
0.00936675
0.00923174
0.00910007
0.0089732
0.00885198
0.00873683
0.00862789
0.0085252
0.00842865
0.00833812
0.00825335
0.00817414
0.00810027
0.00803146
0.0079675
0.00790813
0.00785311
0.0078022
0.00775519
0.00771205
0.00767267
0.00763681
0.00760405
0.00757414
0.00754695
0.00752252
0.00750112
0.00748271
0.00746715
0.00745431
0.00744402
0.00743608
0.00742995
0.00742609
0.0074245
0.00742505
0.00742759
0.00743243
0.00743975
0.00744927
0.0074603
0.00747203
0.0074837
0.00749503
0.00750595
0.00751653
0.0075269
0.00753733
0.00754795
0.00755891
0.00757024
0.00758186
0.00759327
0.00760399
0.00761338
0.00762129
0.00762825
0.00763462
0.00764069
0.00764665
0.00765261
0.00765867
0.00766483
0.00767114
0.00767765
0.00768442
0.00769145
0.00769879
0.0077064
0.00771427
0.00772235
0.00773069
0.0077393
0.00774826
0.0077576
0.0077674
0.00777764
0.00778831
0.00779925
0.00781032
0.00782141
0.00783252
0.0078436
0.00785468
0.00786572
0.00787673
0.00788768
0.0078986
0.00790954
0.00792064
0.00793193
0.00794334
0.00795464
0.00796576
0.00797665
0.00798734
0.00799782
0.00800816
0.00801833
0.00802844
0.00803849
0.00804859
0.00805873
0.00806898
0.00807927
0.00808969
0.00810023
0.00811096
0.00812191
0.00813315
0.00814463
0.00815639
0.00816835
0.00818055
0.00819295
0.00820563
0.00821859
0.00823195
0.00824572
0.00825997
0.00827464
0.00828967
0.00830478
0.00831969
0.00833435
0.00834967
0.00836702
0.00838676
0.00840881
0.00843263
0.00845721
0.00848201
0.0085073
0.00853383
0.00856188
0.00859133
0.00862202
0.00865379
0.00868685
0.00872155
0.00875797
0.00879611
0.00883577
0.00887689
0.00891932
0.00896306
0.00900794
0.0090538
0.0091004
0.00914782
0.00919633
0.00924655
0.00929855
0.00935202
0.00940645
0.00946155
0.00951719
0.00957347
0.00963085
0.0096902
0.00975128
0.00981349
0.00987616
0.00993978
0.0100066
0.0100778
0.0101509
0.0102249
0.0102981
0.0103686
0.0104377
0.0105066
0.0105725
0.0106361
0.0106976
0.0107581
0.010819
0.0108787
0.0109362
0.0109919
0.0110449
0.0110915
0.0111315
0.0111655
0.0111881
0.0112011
0.0112083
0.0112081
0.0111995
0.0111855
0.0111678
0.0111463
0.0111209
0.0110918
0.0110577
0.00999211
0.00996515
0.00992896
0.00988639
0.00983928
0.00978901
0.00973665
0.00968298
0.00962871
0.00957437
0.00952041
0.00946723
0.0094152
0.00936464
0.00931582
0.00926897
0.00922426
0.00918187
0.00914191
0.0091044
0.00906938
0.00903682
0.00900664
0.00897876
0.00895312
0.00892964
0.00890828
0.00888906
0.00887184
0.00885647
0.00884281
0.00883079
0.00882036
0.00881142
0.00880393
0.00879782
0.00879307
0.00878985
0.00878746
0.00878571
0.00878459
0.00878412
0.00878415
0.00878457
0.00878555
0.00878737
0.00879042
0.00879483
0.00880048
0.00880714
0.00881464
0.00882271
0.0088309
0.00883776
0.00884366
0.00884898
0.008854
0.00885908
0.00886448
0.00887044
0.00887694
0.00888377
0.0088908
0.00889793
0.00890513
0.0089124
0.00891973
0.00892714
0.00893464
0.00894225
0.00894994
0.00895772
0.00896559
0.00897354
0.0089816
0.00898976
0.00899803
0.00900646
0.00901509
0.00902393
0.00903293
0.00904208
0.00905137
0.00906086
0.00907054
0.00908037
0.00909029
0.00910028
0.00911031
0.00912036
0.00913041
0.00914047
0.00915059
0.00916084
0.00917129
0.00918194
0.00919274
0.00920361
0.00921448
0.00922533
0.00923615
0.00924692
0.00925766
0.00926834
0.009279
0.00928963
0.00930028
0.00931097
0.00932174
0.0093326
0.00934356
0.00935464
0.00936586
0.00937725
0.00938884
0.00940063
0.00941265
0.00942492
0.00943747
0.00945031
0.00946348
0.009477
0.00949092
0.00950526
0.00952006
0.00953535
0.00955106
0.00956706
0.00958325
0.00960012
0.00961845
0.00963789
0.00965741
0.00967735
0.00969826
0.00972003
0.00974244
0.00976547
0.00978922
0.00981373
0.00983902
0.00986511
0.00989203
0.00991984
0.00994859
0.0099783
0.010009
0.0100405
0.0100727
0.0101057
0.0101394
0.0101737
0.0102085
0.0102437
0.0102793
0.0103151
0.0103517
0.0103893
0.0104278
0.0104668
0.0105062
0.0105457
0.0105852
0.0106248
0.0106652
0.0107064
0.0107481
0.0107899
0.0108322
0.0108739
0.0109145
0.0109553
0.0109963
0.0110377
0.0110786
0.0111179
0.0111559
0.0111931
0.0112284
0.0112614
0.011293
0.0113237
0.0113538
0.0113833
0.0114115
0.0114384
0.0114642
0.0114881
0.0115086
0.0115253
0.0115375
0.0115453
0.0115501
0.0115529
0.0115531
0.01155
0.0115435
0.0115338
0.0115211
0.0115031
0.00999483
0.00998111
0.00996297
0.00994118
0.00991638
0.00988909
0.00985974
0.00982871
0.00979638
0.00976309
0.00972916
0.00969489
0.00966056
0.00962644
0.00959278
0.00955981
0.00952772
0.0094967
0.0094669
0.00943847
0.00941151
0.0093861
0.0093623
0.0093401
0.00931949
0.00930046
0.00928303
0.00926723
0.00925302
0.00924034
0.00922904
0.00921899
0.00921014
0.00920243
0.00919584
0.00919033
0.00918588
0.00918244
0.00917979
0.0091778
0.0091764
0.00917548
0.0091749
0.00917465
0.0091748
0.00917551
0.0091769
0.00917909
0.00918205
0.00918572
0.00918999
0.00919476
0.00919989
0.00920545
0.00921116
0.00921697
0.00922292
0.00922915
0.00923577
0.00924283
0.0092502
0.00925767
0.00926508
0.00927236
0.00927966
0.00928708
0.00929465
0.00930233
0.00931012
0.00931801
0.00932601
0.00933408
0.00934221
0.00935038
0.00935856
0.00936678
0.00937505
0.00938352
0.00939226
0.0094011
0.00940998
0.00941891
0.0094279
0.00943696
0.00944614
0.00945541
0.00946477
0.00947418
0.0094836
0.00949306
0.00950254
0.00951209
0.00952184
0.00953175
0.00954172
0.00955177
0.00956191
0.00957214
0.00958243
0.00959277
0.00960313
0.00961348
0.00962382
0.00963412
0.00964438
0.00965458
0.0096648
0.00967503
0.00968529
0.00969561
0.00970601
0.0097165
0.00972711
0.00973785
0.00974875
0.00975983
0.0097711
0.00978261
0.00979438
0.00980642
0.00981875
0.0098314
0.00984436
0.00985765
0.00987128
0.00988523
0.00989948
0.00991406
0.00992902
0.00994433
0.00995985
0.00997595
0.00999311
0.0100106
0.0100284
0.0100466
0.0100652
0.0100842
0.0101036
0.0101235
0.0101437
0.0101643
0.0101853
0.0102067
0.0102286
0.0102509
0.0102736
0.0102966
0.0103199
0.0103435
0.0103673
0.0103913
0.0104155
0.0104398
0.0104643
0.010489
0.0105138
0.0105387
0.0105637
0.0105889
0.0106142
0.0106394
0.0106648
0.0106902
0.0107153
0.01074
0.0107645
0.0107885
0.010812
0.0108348
0.010857
0.0108786
0.0108998
0.0109204
0.0109405
0.0109596
0.0109776
0.0109945
0.0110101
0.0110247
0.0110386
0.0110521
0.0110656
0.011079
0.0110923
0.0111054
0.0111187
0.0111318
0.0111445
0.011156
0.0111657
0.0111734
0.0111799
0.011185
0.0111886
0.0111903
0.0111898
0.0111875
0.0111834
0.0111756
0.00999576
0.00998633
0.00997434
0.00995995
0.00994339
0.00992486
0.00990459
0.00988279
0.0098597
0.00983556
0.00981059
0.00978503
0.00975909
0.00973297
0.00970688
0.00968102
0.00965556
0.00963066
0.00960648
0.00958317
0.00956085
0.00953963
0.0095196
0.00950082
0.00948331
0.00946708
0.00945217
0.00943856
0.00942628
0.00941528
0.00940548
0.00939678
0.00938913
0.00938247
0.00937676
0.00937195
0.009368
0.00936483
0.00936243
0.00936072
0.0093596
0.00935897
0.00935875
0.0093589
0.0093594
0.00936025
0.00936146
0.00936304
0.00936504
0.00936745
0.00937027
0.00937348
0.00937713
0.00938144
0.00938619
0.00939125
0.00939657
0.00940212
0.0094079
0.0094139
0.00942006
0.00942632
0.00943263
0.00943896
0.00944532
0.00945172
0.00945821
0.00946478
0.00947142
0.00947815
0.00948495
0.00949183
0.00949879
0.00950582
0.00951293
0.00952012
0.00952743
0.00953486
0.00954243
0.00955011
0.00955789
0.00956578
0.00957378
0.0095819
0.00959014
0.00959851
0.00960701
0.00961562
0.00962437
0.00963323
0.00964223
0.00965139
0.00966071
0.00967023
0.00967993
0.00968973
0.00969958
0.00970947
0.00971938
0.0097293
0.00973922
0.00974911
0.00975897
0.00976876
0.0097785
0.00978819
0.00979782
0.00980743
0.00981707
0.00982674
0.00983647
0.00984629
0.0098562
0.00986622
0.00987637
0.00988668
0.00989716
0.00990783
0.00991873
0.00992988
0.00994127
0.00995291
0.0099648
0.00997693
0.00998929
0.0100018
0.0100144
0.0100274
0.0100408
0.0100543
0.0100681
0.0100824
0.010097
0.0101119
0.010127
0.0101424
0.010158
0.0101739
0.01019
0.0102063
0.0102227
0.0102393
0.0102562
0.0102733
0.0102906
0.010308
0.0103255
0.0103431
0.0103608
0.0103785
0.0103962
0.010414
0.0104318
0.0104496
0.0104675
0.0104853
0.0105031
0.0105208
0.0105385
0.0105562
0.0105738
0.0105914
0.010609
0.0106263
0.0106432
0.0106595
0.0106751
0.0106901
0.0107045
0.0107183
0.0107317
0.0107445
0.0107564
0.0107677
0.0107785
0.0107883
0.0107968
0.0108042
0.010811
0.0108178
0.0108246
0.0108316
0.0108389
0.0108469
0.0108556
0.0108648
0.0108749
0.0108857
0.0108972
0.0109073
0.0109164
0.0109244
0.0109312
0.0109367
0.0109408
0.0109429
0.0109431
0.0109421
0.0109407
0.0109384
0.00999628
0.00998877
0.00997963
0.00996881
0.00995635
0.00994233
0.00992687
0.0099101
0.00989218
0.00987328
0.00985356
0.00983322
0.00981241
0.0097913
0.00977008
0.00974891
0.00972793
0.00970731
0.00968717
0.00966767
0.00964891
0.00963101
0.00961406
0.00959812
0.00958324
0.00956944
0.00955674
0.00954515
0.00953467
0.00952526
0.0095169
0.00950952
0.00950306
0.00949748
0.00949272
0.00948873
0.00948545
0.00948284
0.0094809
0.00947957
0.00947878
0.00947846
0.00947856
0.00947902
0.00947978
0.0094808
0.00948206
0.00948356
0.00948532
0.00948735
0.00948967
0.0094923
0.00949526
0.00949863
0.00950234
0.00950636
0.0095106
0.00951504
0.00951964
0.00952439
0.00952931
0.00953438
0.00953961
0.00954497
0.00955041
0.00955587
0.00956137
0.00956692
0.00957254
0.00957823
0.009584
0.00958987
0.00959583
0.00960192
0.00960813
0.00961447
0.00962094
0.0096275
0.00963414
0.00964091
0.00964784
0.00965491
0.00966214
0.0096695
0.00967702
0.00968468
0.0096925
0.00970048
0.00970865
0.00971699
0.00972551
0.00973419
0.00974301
0.00975195
0.00976103
0.0097702
0.00977942
0.00978868
0.00979797
0.00980725
0.0098165
0.00982571
0.00983485
0.00984393
0.00985293
0.00986185
0.00987069
0.00987947
0.00988824
0.00989703
0.00990588
0.00991479
0.00992377
0.00993285
0.00994205
0.00995138
0.00996087
0.00997053
0.00998037
0.0099904
0.0100006
0.0100111
0.0100217
0.0100324
0.0100433
0.0100543
0.0100654
0.0100768
0.0100883
0.0101
0.0101118
0.010124
0.0101362
0.0101486
0.0101611
0.0101739
0.0101868
0.0101998
0.010213
0.0102262
0.0102394
0.0102528
0.0102663
0.0102799
0.0102936
0.0103074
0.0103211
0.0103347
0.0103484
0.010362
0.0103756
0.0103892
0.0104028
0.0104164
0.01043
0.0104435
0.010457
0.0104705
0.010484
0.0104974
0.0105108
0.0105241
0.0105372
0.01055
0.0105623
0.0105741
0.0105853
0.0105958
0.0106058
0.0106151
0.0106238
0.0106319
0.0106395
0.0106463
0.0106527
0.0106584
0.0106634
0.0106676
0.0106714
0.0106755
0.0106803
0.0106857
0.0106917
0.0106986
0.0107067
0.0107158
0.0107258
0.0107366
0.0107474
0.0107577
0.010767
0.0107753
0.0107827
0.0107887
0.0107927
0.0107947
0.0107947
0.0107931
0.0107912
0.0107913
0.00999661
0.00999017
0.00998261
0.00997384
0.00996382
0.00995256
0.00994012
0.00992659
0.00991206
0.00989666
0.00988052
0.00986378
0.00984658
0.00982906
0.00981138
0.00979367
0.00977607
0.00975873
0.00974176
0.00972529
0.00970942
0.00969426
0.00967989
0.00966636
0.00965373
0.00964204
0.00963128
0.00962148
0.00961262
0.00960468
0.00959765
0.00959147
0.00958611
0.0095815
0.00957762
0.00957439
0.00957178
0.00956975
0.00956826
0.00956729
0.00956678
0.00956668
0.00956696
0.00956755
0.00956841
0.00956951
0.00957082
0.00957232
0.00957403
0.00957594
0.00957807
0.00958044
0.00958306
0.00958595
0.00958909
0.00959248
0.00959606
0.00959981
0.00960371
0.00960775
0.00961192
0.00961624
0.00962071
0.00962531
0.00963001
0.00963478
0.00963959
0.00964446
0.00964939
0.0096544
0.00965951
0.00966472
0.00967005
0.0096755
0.0096811
0.00968683
0.0096927
0.00969868
0.00970476
0.00971098
0.00971734
0.00972385
0.00973052
0.00973733
0.00974429
0.00975141
0.00975868
0.00976611
0.00977371
0.00978148
0.00978941
0.00979747
0.00980564
0.00981389
0.00982219
0.00983056
0.00983898
0.00984743
0.00985589
0.00986433
0.00987272
0.00988104
0.00988928
0.00989742
0.00990547
0.00991343
0.0099213
0.00992912
0.00993689
0.00994466
0.00995244
0.00996027
0.00996816
0.00997614
0.00998424
0.00999246
0.0100008
0.0100093
0.0100179
0.0100267
0.0100356
0.0100446
0.0100538
0.010063
0.0100723
0.0100817
0.0100912
0.0101007
0.0101103
0.01012
0.0101298
0.0101397
0.0101497
0.0101598
0.01017
0.0101802
0.0101906
0.0102011
0.0102116
0.0102221
0.0102327
0.0102433
0.0102539
0.0102645
0.0102753
0.0102862
0.010297
0.0103078
0.0103184
0.0103291
0.0103398
0.0103505
0.0103613
0.0103721
0.0103829
0.0103937
0.0104046
0.0104156
0.0104266
0.0104377
0.0104487
0.0104596
0.0104701
0.0104804
0.0104904
0.0104999
0.0105089
0.0105172
0.0105248
0.0105318
0.0105379
0.0105433
0.0105481
0.0105523
0.0105559
0.0105592
0.0105625
0.0105659
0.0105693
0.0105727
0.010577
0.0105822
0.0105883
0.0105954
0.0106034
0.0106126
0.0106227
0.0106334
0.0106439
0.0106542
0.0106635
0.0106715
0.0106783
0.0106833
0.0106864
0.0106879
0.0106878
0.0106863
0.0106844
0.0106845
0.00999682
0.009991
0.00998438
0.00997686
0.00996836
0.00995887
0.00994842
0.00993705
0.00992483
0.00991184
0.0098982
0.00988402
0.0098694
0.00985448
0.00983939
0.00982424
0.00980917
0.0097943
0.00977974
0.0097656
0.00975197
0.00973895
0.0097266
0.00971499
0.00970416
0.00969414
0.00968495
0.00967658
0.00966904
0.00966231
0.00965637
0.00965117
0.00964669
0.00964287
0.00963968
0.00963707
0.009635
0.00963343
0.00963232
0.00963164
0.00963135
0.00963142
0.00963181
0.00963247
0.00963338
0.00963451
0.00963582
0.00963732
0.009639
0.00964085
0.00964287
0.00964509
0.00964749
0.0096501
0.0096529
0.00965589
0.00965905
0.00966236
0.00966581
0.00966938
0.00967307
0.00967688
0.00968082
0.00968487
0.00968902
0.00969325
0.00969756
0.00970193
0.00970639
0.00971094
0.00971558
0.00972034
0.00972522
0.00973023
0.00973538
0.00974066
0.00974609
0.00975164
0.00975733
0.00976315
0.00976911
0.00977521
0.00978145
0.00978783
0.00979436
0.00980102
0.00980783
0.00981478
0.00982187
0.0098291
0.00983645
0.00984391
0.00985145
0.00985906
0.0098667
0.00987437
0.00988205
0.00988974
0.00989739
0.009905
0.00991253
0.00991997
0.00992731
0.00993453
0.00994165
0.00994867
0.0099556
0.00996247
0.00996928
0.00997608
0.00998287
0.00998969
0.00999657
0.0100035
0.0100106
0.0100177
0.010025
0.0100324
0.0100399
0.0100474
0.0100551
0.0100628
0.0100706
0.0100784
0.0100862
0.0100941
0.010102
0.0101099
0.0101178
0.0101258
0.0101338
0.0101418
0.0101498
0.010158
0.0101662
0.0101744
0.0101828
0.0101912
0.0101996
0.0102081
0.0102166
0.0102251
0.0102337
0.0102422
0.0102508
0.0102594
0.0102681
0.0102768
0.0102855
0.0102942
0.010303
0.010312
0.0103211
0.0103303
0.0103398
0.0103494
0.0103592
0.010369
0.010379
0.010389
0.0103989
0.0104086
0.010418
0.0104271
0.0104359
0.0104442
0.010452
0.010459
0.0104652
0.0104705
0.010475
0.0104788
0.0104817
0.010484
0.0104858
0.0104874
0.0104892
0.0104914
0.0104942
0.0104975
0.0105012
0.0105061
0.010512
0.0105189
0.0105265
0.010535
0.0105441
0.0105537
0.0105634
0.0105728
0.0105812
0.0105884
0.0105939
0.0105977
0.0106001
0.0106012
0.0106013
0.0106006
0.0106
0.0106001
0.00999694
0.00999147
0.00998538
0.00997856
0.00997096
0.00996253
0.0099533
0.00994327
0.00993251
0.00992107
0.00990905
0.00989654
0.00988363
0.00987044
0.00985709
0.00984368
0.00983034
0.00981716
0.00980426
0.00979174
0.00977968
0.00976817
0.00975726
0.00974701
0.00973746
0.00972864
0.00972057
0.00971323
0.00970664
0.00970077
0.00969561
0.00969111
0.00968725
0.00968399
0.00968129
0.00967911
0.0096774
0.00967614
0.00967529
0.00967481
0.00967467
0.00967484
0.00967529
0.009676
0.00967693
0.00967805
0.00967937
0.00968085
0.00968249
0.00968429
0.00968625
0.00968836
0.00969064
0.00969308
0.00969567
0.00969843
0.00970132
0.00970435
0.00970751
0.00971077
0.00971415
0.00971764
0.00972123
0.00972492
0.0097287
0.00973257
0.00973653
0.00974057
0.0097447
0.00974892
0.00975325
0.00975769
0.00976225
0.00976695
0.00977178
0.00977675
0.00978187
0.00978712
0.00979252
0.00979805
0.00980371
0.00980951
0.00981545
0.00982152
0.00982772
0.00983405
0.00984051
0.00984708
0.00985378
0.00986058
0.00986749
0.00987447
0.00988151
0.00988859
0.0098957
0.00990281
0.0099099
0.00991696
0.00992396
0.00993089
0.00993773
0.00994445
0.00995106
0.00995755
0.00996392
0.00997018
0.00997635
0.00998245
0.00998849
0.00999451
0.0100005
0.0100066
0.0100127
0.0100188
0.010025
0.0100313
0.0100377
0.0100442
0.0100508
0.0100574
0.010064
0.0100707
0.0100774
0.0100841
0.0100908
0.0100975
0.0101042
0.0101109
0.0101175
0.0101241
0.0101307
0.0101374
0.0101441
0.0101508
0.0101576
0.0101645
0.0101714
0.0101784
0.0101855
0.0101926
0.0101999
0.0102071
0.0102144
0.0102218
0.0102291
0.0102365
0.0102441
0.0102516
0.0102593
0.0102671
0.0102751
0.0102832
0.0102916
0.0103002
0.0103093
0.0103187
0.0103283
0.010338
0.0103477
0.0103575
0.0103672
0.0103766
0.0103858
0.0103945
0.0104026
0.0104102
0.010417
0.0104231
0.0104282
0.0104324
0.0104356
0.010438
0.0104395
0.0104404
0.0104409
0.0104412
0.0104416
0.0104423
0.0104437
0.0104458
0.0104485
0.0104522
0.010457
0.0104628
0.0104693
0.0104764
0.010484
0.0104916
0.0104994
0.0105072
0.0105144
0.0105207
0.0105257
0.0105295
0.0105319
0.0105331
0.0105336
0.0105338
0.0105341
0.010535
0.00999698
0.00999165
0.00998578
0.00997927
0.00997206
0.00996413
0.00995545
0.00994607
0.00993601
0.00992534
0.00991412
0.00990246
0.00989043
0.00987815
0.00986571
0.00985323
0.00984082
0.00982857
0.00981659
0.00980497
0.00979379
0.00978313
0.00977304
0.00976358
0.00975477
0.00974664
0.00973921
0.00973248
0.00972643
0.00972106
0.00971634
0.00971224
0.00970873
0.00970577
0.00970334
0.00970138
0.00969986
0.00969876
0.00969802
0.00969763
0.00969756
0.00969777
0.00969824
0.00969894
0.00969987
0.00970098
0.00970227
0.00970373
0.00970535
0.00970712
0.00970903
0.00971109
0.0097133
0.00971565
0.00971814
0.00972077
0.00972352
0.0097264
0.00972939
0.00973248
0.00973568
0.00973898
0.00974237
0.00974585
0.00974942
0.00975308
0.00975683
0.00976066
0.00976459
0.00976861
0.00977274
0.00977699
0.00978137
0.00978588
0.00979052
0.00979532
0.00980025
0.00980533
0.00981055
0.00981591
0.00982141
0.00982704
0.00983281
0.0098387
0.00984472
0.00985087
0.00985712
0.00986349
0.00986996
0.00987652
0.00988316
0.00988986
0.00989661
0.00990338
0.00991015
0.00991691
0.00992364
0.00993032
0.00993692
0.00994343
0.00994983
0.00995611
0.00996227
0.0099683
0.0099742
0.00998
0.0099857
0.00999132
0.00999689
0.0100024
0.010008
0.0100135
0.0100191
0.0100248
0.0100305
0.0100363
0.0100421
0.010048
0.010054
0.01006
0.010066
0.010072
0.010078
0.010084
0.01009
0.010096
0.0101019
0.0101077
0.0101136
0.0101194
0.0101252
0.0101311
0.0101369
0.0101429
0.0101489
0.010155
0.0101613
0.0101676
0.010174
0.0101806
0.0101873
0.010194
0.0102009
0.0102078
0.0102148
0.0102219
0.0102291
0.0102365
0.0102442
0.0102519
0.0102599
0.0102681
0.0102766
0.0102855
0.0102948
0.0103046
0.0103145
0.0103247
0.0103348
0.010345
0.010355
0.0103646
0.0103739
0.0103826
0.0103905
0.0103977
0.0104039
0.0104091
0.0104133
0.0104165
0.0104186
0.0104197
0.0104199
0.0104195
0.0104185
0.0104173
0.0104161
0.0104151
0.0104147
0.010415
0.010416
0.0104179
0.0104209
0.0104248
0.0104296
0.0104349
0.0104405
0.0104462
0.0104521
0.0104583
0.0104644
0.0104698
0.0104743
0.0104779
0.0104803
0.0104818
0.0104828
0.0104837
0.0104847
0.0104862
0.00999696
0.00999159
0.00998567
0.00997912
0.00997187
0.00996389
0.00995519
0.00994579
0.00993573
0.00992507
0.00991388
0.00990227
0.00989031
0.00987811
0.00986577
0.00985341
0.00984114
0.00982905
0.00981724
0.0098058
0.00979481
0.00978435
0.00977445
0.00976518
0.00975657
0.00974862
0.00974136
0.00973478
0.00972887
0.00972362
0.009719
0.00971499
0.00971155
0.00970865
0.00970625
0.00970432
0.00970282
0.00970172
0.00970097
0.00970056
0.00970046
0.00970064
0.00970108
0.00970175
0.00970265
0.00970374
0.00970501
0.00970646
0.00970806
0.00970982
0.00971173
0.00971378
0.00971598
0.00971831
0.00972078
0.00972337
0.00972609
0.00972892
0.00973186
0.00973491
0.00973805
0.00974128
0.0097446
0.00974801
0.0097515
0.00975508
0.00975874
0.00976249
0.00976634
0.00977029
0.00977435
0.00977853
0.00978284
0.00978729
0.00979188
0.00979661
0.0098015
0.00980653
0.00981171
0.00981703
0.0098225
0.0098281
0.00983384
0.00983972
0.00984573
0.00985185
0.0098581
0.00986445
0.00987089
0.00987742
0.00988402
0.00989068
0.00989737
0.00990407
0.00991078
0.00991746
0.0099241
0.00993068
0.00993717
0.00994357
0.00994985
0.009956
0.00996203
0.00996792
0.00997369
0.00997935
0.00998491
0.0099904
0.00999583
0.0100012
0.0100066
0.010012
0.0100175
0.010023
0.0100285
0.0100341
0.0100398
0.0100455
0.0100512
0.010057
0.0100628
0.0100685
0.0100743
0.01008
0.0100858
0.0100914
0.0100971
0.0101027
0.0101082
0.0101138
0.0101193
0.0101249
0.0101306
0.0101363
0.0101422
0.0101482
0.0101544
0.0101607
0.0101671
0.0101737
0.0101805
0.0101874
0.0101944
0.0102016
0.0102089
0.0102164
0.0102242
0.0102322
0.0102404
0.0102488
0.0102575
0.0102664
0.0102758
0.0102855
0.0102958
0.0103064
0.0103173
0.0103283
0.0103394
0.0103503
0.0103611
0.0103714
0.0103811
0.01039
0.0103981
0.0104051
0.010411
0.0104156
0.010419
0.0104212
0.0104223
0.0104222
0.0104212
0.0104193
0.0104168
0.010414
0.010411
0.0104082
0.0104059
0.0104041
0.0104031
0.0104031
0.010404
0.0104059
0.0104087
0.0104121
0.0104158
0.0104198
0.0104241
0.0104286
0.0104331
0.0104372
0.0104408
0.0104438
0.0104461
0.0104479
0.0104493
0.0104506
0.0104518
0.0104534
0.00999687
0.00999127
0.00998505
0.0099781
0.00997036
0.00996183
0.00995251
0.00994243
0.00993166
0.00992026
0.00990833
0.00989596
0.00988325
0.00987032
0.00985728
0.00984425
0.00983132
0.00981863
0.00980625
0.00979428
0.0097828
0.00977188
0.00976158
0.00975192
0.00974296
0.00973469
0.00972713
0.00972027
0.0097141
0.00970861
0.00970376
0.00969953
0.0096959
0.00969281
0.00969023
0.00968814
0.00968648
0.00968523
0.00968435
0.00968382
0.00968361
0.00968369
0.00968406
0.00968468
0.00968554
0.00968661
0.00968788
0.00968933
0.00969096
0.00969275
0.0096947
0.00969681
0.00969906
0.00970145
0.00970399
0.00970665
0.00970943
0.00971233
0.00971533
0.00971844
0.00972164
0.00972493
0.00972831
0.00973177
0.00973531
0.00973894
0.00974264
0.00974644
0.00975033
0.00975433
0.00975844
0.00976268
0.00976705
0.00977155
0.00977621
0.00978101
0.00978597
0.00979108
0.00979634
0.00980176
0.00980732
0.00981304
0.0098189
0.00982491
0.00983106
0.00983735
0.00984376
0.00985028
0.0098569
0.00986361
0.00987039
0.00987723
0.0098841
0.00989099
0.00989788
0.00990475
0.00991158
0.00991834
0.00992502
0.00993161
0.00993807
0.00994441
0.00995062
0.00995671
0.00996267
0.00996853
0.00997429
0.00997997
0.0099856
0.0099912
0.00999678
0.0100024
0.010008
0.0100137
0.0100194
0.0100252
0.010031
0.0100369
0.0100428
0.0100487
0.0100546
0.0100605
0.0100664
0.0100723
0.0100782
0.0100841
0.0100899
0.0100957
0.0101015
0.0101072
0.010113
0.0101189
0.0101248
0.0101309
0.0101372
0.0101437
0.0101503
0.0101571
0.0101641
0.0101713
0.0101787
0.0101863
0.0101941
0.0102022
0.0102105
0.010219
0.0102278
0.0102369
0.0102462
0.0102558
0.0102657
0.0102759
0.0102867
0.0102978
0.0103094
0.0103214
0.0103337
0.0103461
0.0103585
0.0103707
0.0103826
0.010394
0.0104046
0.0104142
0.0104227
0.0104299
0.0104359
0.0104404
0.0104435
0.0104451
0.0104453
0.0104441
0.0104418
0.0104385
0.0104346
0.0104302
0.0104256
0.010421
0.0104168
0.0104131
0.0104102
0.0104081
0.010407
0.0104068
0.0104076
0.010409
0.0104111
0.0104135
0.0104162
0.0104191
0.010422
0.0104249
0.0104274
0.0104296
0.0104316
0.0104333
0.0104348
0.0104361
0.0104375
0.0104394
0.0099967
0.00999067
0.00998382
0.00997606
0.00996735
0.00995768
0.00994709
0.00993564
0.00992341
0.00991049
0.00989701
0.00988307
0.00986879
0.00985432
0.00983976
0.00982525
0.00981091
0.00979686
0.00978319
0.00977001
0.00975738
0.00974539
0.00973408
0.00972349
0.00971366
0.00970459
0.00969628
0.00968874
0.00968193
0.00967585
0.00967046
0.00966574
0.00966165
0.00965815
0.00965521
0.00965277
0.00965081
0.00964928
0.00964815
0.00964741
0.00964702
0.00964697
0.00964723
0.0096478
0.00964864
0.00964973
0.00965103
0.00965255
0.00965426
0.00965615
0.00965823
0.00966047
0.00966288
0.00966543
0.00966814
0.00967098
0.00967394
0.00967703
0.00968022
0.00968352
0.00968691
0.0096904
0.00969396
0.00969761
0.00970134
0.00970515
0.00970903
0.009713
0.00971706
0.00972123
0.00972551
0.00972992
0.00973447
0.00973916
0.009744
0.00974898
0.00975413
0.00975943
0.0097649
0.00977052
0.00977629
0.00978224
0.00978834
0.00979461
0.00980104
0.00980762
0.00981434
0.00982118
0.00982814
0.0098352
0.00984234
0.00984954
0.00985679
0.00986407
0.00987136
0.00987863
0.00988587
0.00989305
0.00990016
0.00990718
0.00991409
0.00992087
0.00992754
0.00993409
0.00994052
0.00994686
0.0099531
0.00995928
0.0099654
0.00997148
0.00997752
0.00998357
0.00998969
0.00999587
0.0100021
0.0100084
0.0100147
0.0100211
0.0100274
0.0100338
0.0100402
0.0100466
0.010053
0.0100594
0.0100659
0.0100723
0.0100787
0.0100851
0.0100915
0.0100979
0.0101044
0.0101109
0.0101176
0.0101245
0.0101316
0.0101389
0.0101464
0.0101542
0.0101622
0.0101705
0.0101791
0.0101879
0.010197
0.0102064
0.0102162
0.0102262
0.0102365
0.010247
0.0102578
0.010269
0.0102806
0.0102928
0.0103053
0.0103182
0.0103316
0.0103454
0.0103594
0.0103735
0.0103877
0.0104017
0.0104152
0.0104281
0.01044
0.0104508
0.0104603
0.0104684
0.0104749
0.0104799
0.0104834
0.0104851
0.010485
0.0104833
0.0104801
0.0104758
0.0104707
0.010465
0.010459
0.0104531
0.0104473
0.0104419
0.0104371
0.0104332
0.0104302
0.0104281
0.010427
0.0104266
0.0104268
0.0104275
0.0104286
0.0104299
0.0104313
0.0104329
0.0104343
0.0104356
0.0104369
0.0104383
0.0104398
0.0104413
0.0104429
0.0104447
0.00999643
0.00998968
0.00998179
0.0099727
0.00996237
0.00995085
0.00993823
0.00992459
0.00991005
0.00989476
0.00987885
0.00986248
0.00984579
0.00982893
0.00981204
0.00979528
0.00977877
0.00976263
0.00974699
0.00973193
0.00971754
0.00970389
0.00969103
0.009679
0.00966783
0.00965752
0.00964806
0.00963945
0.00963167
0.00962469
0.00961848
0.00961302
0.00960827
0.00960417
0.00960068
0.00959775
0.00959535
0.00959343
0.00959197
0.00959094
0.00959033
0.00959013
0.00959032
0.00959089
0.00959177
0.00959295
0.00959437
0.00959604
0.00959794
0.00960005
0.00960238
0.0096049
0.0096076
0.00961047
0.00961349
0.00961666
0.00961996
0.00962339
0.00962692
0.00963057
0.00963431
0.00963814
0.00964205
0.00964605
0.00965011
0.00965424
0.00965843
0.00966269
0.00966704
0.00967149
0.00967607
0.00968078
0.00968561
0.00969057
0.00969569
0.00970095
0.00970638
0.00971197
0.00971772
0.00972362
0.00972969
0.00973593
0.00974235
0.00974896
0.00975573
0.00976267
0.00976977
0.00977701
0.00978438
0.00979188
0.00979947
0.00980715
0.0098149
0.00982268
0.00983049
0.0098383
0.00984609
0.00985384
0.00986152
0.00986914
0.00987666
0.00988408
0.00989138
0.00989858
0.00990567
0.00991267
0.0099196
0.00992647
0.00993331
0.00994015
0.00994699
0.00995379
0.00996065
0.00996757
0.00997452
0.00998155
0.0099886
0.00999566
0.0100027
0.0100098
0.0100169
0.0100241
0.0100313
0.0100385
0.0100458
0.0100531
0.0100604
0.0100676
0.0100749
0.0100823
0.0100898
0.0100973
0.0101051
0.010113
0.0101213
0.0101297
0.0101384
0.0101475
0.0101568
0.0101665