/*--------------------------------*- C++ -*----------------------------------*\
| =========                 |                                                 |
| \\      /  F ield         | OpenFOAM: The Open Source CFD Toolbox           |
|  \\    /   O peration     | Version:  5.x                                   |
|   \\  /    A nd           | Web:      www.OpenFOAM.org                      |
|    \\/     M anipulation  |                                                 |
\*---------------------------------------------------------------------------*/
/*   Windows 32 and 64 bit porting by blueCAPE: http://www.bluecape.com.pt   *\
|  Based on Windows porting (2.0.x v4) by Symscape: http://www.symscape.com   |
\*---------------------------------------------------------------------------*/
FoamFile
{
    version     2.0;
    format      ascii;
    class       volScalarField;
    location    "1668";
    object      nut;
}
// * * * * * * * * * * * * * * * * * * * * * * * * * * * * * * * * * * * * * //

dimensions      [0 2 -1 0 0 0 0];

internalField   nonuniform List<scalar> 
4000
(
5.01923e-005
4.65757e-005
4.33028e-005
4.03252e-005
3.76104e-005
3.51337e-005
3.2875e-005
3.08165e-005
2.89418e-005
2.72354e-005
2.56825e-005
2.42692e-005
2.29824e-005
2.181e-005
2.07408e-005
1.97644e-005
1.88715e-005
1.80537e-005
1.73032e-005
1.66138e-005
1.59796e-005
1.53959e-005
1.48584e-005
1.43635e-005
1.39074e-005
1.3487e-005
1.30996e-005
1.27428e-005
1.24143e-005
1.21125e-005
1.18353e-005
1.15807e-005
1.13473e-005
1.11339e-005
1.09394e-005
1.0763e-005
1.06039e-005
1.04609e-005
1.03329e-005
1.02192e-005
1.01191e-005
1.00323e-005
9.95876e-006
9.89837e-006
9.85034e-006
9.81273e-006
9.78368e-006
9.76142e-006
9.745e-006
9.73359e-006
9.72683e-006
9.72429e-006
9.72586e-006
9.73119e-006
9.74019e-006
9.75248e-006
9.76799e-006
9.7861e-006
9.80651e-006
9.82834e-006
9.85106e-006
9.87402e-006
9.89707e-006
9.92035e-006
9.94427e-006
9.96876e-006
9.9939e-006
1.00192e-005
1.00448e-005
1.00706e-005
1.00968e-005
1.01235e-005
1.01506e-005
1.01777e-005
1.02048e-005
1.02313e-005
1.02578e-005
1.02843e-005
1.03116e-005
1.03396e-005
1.0369e-005
1.03996e-005
1.04316e-005
1.04605e-005
1.04844e-005
1.05045e-005
1.05217e-005
1.05368e-005
1.05507e-005
1.05637e-005
1.05765e-005
1.05892e-005
1.06023e-005
1.0616e-005
1.06303e-005
1.06454e-005
1.06614e-005
1.06783e-005
1.0696e-005
1.07145e-005
1.07337e-005
1.07536e-005
1.07741e-005
1.07952e-005
1.08168e-005
1.08389e-005
1.08615e-005
1.08846e-005
1.0908e-005
1.09318e-005
1.09559e-005
1.0976e-005
1.09799e-005
1.09842e-005
1.09887e-005
1.09932e-005
1.09977e-005
1.1002e-005
1.10063e-005
1.10107e-005
1.10153e-005
1.10204e-005
1.10263e-005
1.10333e-005
1.10418e-005
1.1052e-005
1.10641e-005
1.10781e-005
1.10942e-005
1.11125e-005
1.1133e-005
1.11566e-005
1.1184e-005
1.12158e-005
1.1252e-005
1.12927e-005
1.13377e-005
1.1387e-005
1.14408e-005
1.14993e-005
1.15628e-005
1.16314e-005
1.17053e-005
1.17846e-005
1.18696e-005
1.19606e-005
1.20577e-005
1.21611e-005
1.22708e-005
1.23867e-005
1.25089e-005
1.26372e-005
1.27717e-005
1.29121e-005
1.30535e-005
1.31684e-005
1.32866e-005
1.34081e-005
1.3533e-005
1.3661e-005
1.37919e-005
1.39253e-005
1.4061e-005
1.4199e-005
1.43393e-005
1.44821e-005
1.46273e-005
1.47747e-005
1.49241e-005
1.50761e-005
1.52316e-005
1.53904e-005
1.55522e-005
1.57161e-005
1.58807e-005
1.60453e-005
1.62094e-005
1.63719e-005
1.65318e-005
1.66884e-005
1.68412e-005
1.699e-005
1.71343e-005
1.72729e-005
1.74049e-005
1.75292e-005
1.76436e-005
1.77455e-005
1.78332e-005
1.79036e-005
1.79545e-005
1.79853e-005
1.79964e-005
1.7977e-005
1.79377e-005
1.78829e-005
1.78111e-005
1.77225e-005
1.76197e-005
1.75064e-005
0.00132499
0.000752667
0.000570248
0.00047847
0.000424261
0.000390178
0.000368207
0.000353837
0.000344231
0.000337533
0.000332547
0.000328523
0.000324974
0.000321568
0.000318086
0.000314462
0.000310632
0.000306521
0.000302255
0.000297956
0.000293694
0.000289614
0.000285805
0.000282286
0.000278846
0.000275582
0.000272558
0.000269809
0.000267347
0.000265199
0.000263263
0.000261342
0.000259667
0.000258256
0.000257091
0.000256266
0.000255738
0.00025538
0.000255087
0.000255028
0.000255199
0.000255629
0.000256516
0.000257735
0.000259059
0.00026004
0.000260685
0.000260991
0.000261227
0.000261409
0.000261674
0.00026197
0.0002624
0.000262845
0.000263396
0.000263932
0.000264556
0.000265094
0.000265665
0.000266066
0.000266412
0.000266603
0.000266787
0.00026703
0.000267445
0.000267853
0.000268305
0.000268606
0.000268929
0.000269211
0.000269612
0.000269944
0.000270338
0.000270549
0.000270717
0.000270743
0.000270885
0.000271052
0.000271453
0.000271937
0.000272608
0.000273261
0.00027402
0.000272493
0.000270486
0.000268704
0.000267114
0.000265685
0.000264399
0.000263237
0.000262185
0.000261228
0.000260355
0.000259557
0.000258831
0.00025817
0.000257564
0.000257
0.000256472
0.000255976
0.000255512
0.000255078
0.000254673
0.000254295
0.000253946
0.000253625
0.000253333
0.000253067
0.000252829
0.000252618
0.000252437
0.000252285
0.000252164
0.000252073
0.000252012
0.000251981
0.00025198
0.000252007
0.000252063
0.000252148
0.000252264
0.000252412
0.000252596
0.000252816
0.000253077
0.000253374
0.000253699
0.00025405
0.000254429
0.000254834
0.000255282
0.000255821
0.000256445
0.00025716
0.000257936
0.000258747
0.000259584
0.000260456
0.000261388
0.000262389
0.000263452
0.000264572
0.000265745
0.000266975
0.000268274
0.000269645
0.000271084
0.000272576
0.000274113
0.000275701
0.000277349
0.000279052
0.000280803
0.000282587
0.000284402
0.000286264
0.000288209
0.000290232
0.000292308
0.000294419
0.000296553
0.000298702
0.000300856
0.000303027
0.000305255
0.000307542
0.000309866
0.0003122
0.000314552
0.00031698
0.000319498
0.000322028
0.000324547
0.000327007
0.000329344
0.0003316
0.00033382
0.000335937
0.000337959
0.000339872
0.000341685
0.000343435
0.000345074
0.000346563
0.000347933
0.000349159
0.000350118
0.000350768
0.00035112
0.000351029
0.000350621
0.000350109
0.000344753
0.000332444
0.000326369
0.000323276
0.000319984
0.000316454
0.00031321
0.000312104
0.00538177
0.00332686
0.00251793
0.0021084
0.00187712
0.00174098
0.00166007
0.001612
0.00158326
0.00156553
0.00155381
0.00154558
0.00153978
0.00153566
0.00153239
0.00152911
0.00152612
0.00152333
0.00152034
0.00151769
0.00151491
0.00151165
0.00150799
0.00150393
0.00150209
0.00150133
0.00150041
0.00149651
0.00149106
0.00148552
0.00148174
0.00148305
0.00148645
0.00149084
0.00149586
0.00150112
0.00150617
0.00150625
0.00151328
0.00152321
0.00153438
0.00154648
0.00156439
0.00158779
0.00161249
0.00163384
0.00164775
0.00165298
0.00165247
0.00164832
0.00164227
0.00163558
0.00163099
0.00163015
0.00163327
0.00163898
0.00164529
0.00164642
0.00164021
0.00162148
0.00159658
0.00157373
0.00155224
0.00153172
0.00151176
0.00149221
0.00147294
0.00145398
0.00143529
0.00141694
0.00139896
0.00138142
0.00136434
0.00134779
0.00133176
0.00131625
0.00130119
0.0012865
0.00127207
0.00125805
0.0012444
0.00123141
0.00121914
0.0012077
0.001197
0.00118727
0.00117858
0.00117083
0.00116391
0.00115772
0.00115211
0.00114704
0.00114231
0.001138
0.00113407
0.00113042
0.00112704
0.00112386
0.00112088
0.0011181
0.00111549
0.00111306
0.00111078
0.00110865
0.00110666
0.00110482
0.00110312
0.00110154
0.00110007
0.00109873
0.00109751
0.00109639
0.00109539
0.00109449
0.00109371
0.00109307
0.00109256
0.00109218
0.00109193
0.0010918
0.00109177
0.00109186
0.00109204
0.00109236
0.00109286
0.00109353
0.00109436
0.00109527
0.00109636
0.00109768
0.0010992
0.00110112
0.00110268
0.00110458
0.00110651
0.00110855
0.00111074
0.0011131
0.00111564
0.0011184
0.00112129
0.0011243
0.00112739
0.0011305
0.00113363
0.00113687
0.0011402
0.00114354
0.00114684
0.00115016
0.00115363
0.0011572
0.0011608
0.00116432
0.00116766
0.00117094
0.00117439
0.00117794
0.00118139
0.00118473
0.00118797
0.00119106
0.00119388
0.00119638
0.0011988
0.0012012
0.0012035
0.00120562
0.00120761
0.00120938
0.00121079
0.00121185
0.00121279
0.00121362
0.00121397
0.00121368
0.00121287
0.00121183
0.00121044
0.00120857
0.00120593
0.00120281
0.00119938
0.00119575
0.00119177
0.00118762
0.00118341
0.0011786
0.00117312
0.00116709
0.00116132
0.00115599
0.00115068
0.00114464
0.00113735
0.00112915
0.00112062
0.00110584
0.00109294
0.00106494
0.00820837
0.00655682
0.00558677
0.00500488
0.00465382
0.00444412
0.00432093
0.00424932
0.00420719
0.00418114
0.00416386
0.00415257
0.00414729
0.00414835
0.00415526
0.00416598
0.00418161
0.0042049
0.00423272
0.00426326
0.00429762
0.0043321
0.00436503
0.00439651
0.00443009
0.00446315
0.00449487
0.00452663
0.00455516
0.00457936
0.00460313
0.00463322
0.004665
0.00469665
0.00472747
0.00475816
0.00478856
0.00483009
0.00485408
0.00486762
0.00487722
0.0048879
0.00489815
0.00490396
0.00490961
0.00491806
0.00494138
0.00497593
0.00501742
0.00506082
0.00510959
0.00515777
0.00519792
0.00513327
0.00505845
0.0049792
0.00489744
0.00481748
0.00474212
0.00467412
0.00461352
0.00455828
0.0045065
0.00445655
0.00440786
0.00436048
0.00431446
0.00426962
0.00422563
0.00418248
0.00414017
0.00409885
0.00405852
0.00401924
0.003981
0.00394379
0.00390712
0.00387129
0.00383675
0.00380347
0.00377101
0.00373998
0.00371043
0.00368204
0.00365474
0.00362973
0.0036074
0.00358738
0.00356919
0.00355258
0.00353721
0.00352268
0.00350911
0.00349786
0.00348812
0.0034786
0.00346942
0.00346057
0.00345217
0.00344424
0.00343674
0.00342966
0.00342289
0.00341649
0.00341045
0.00340485
0.00339973
0.00339503
0.00339051
0.00338621
0.00338215
0.00337829
0.00337468
0.0033713
0.00336825
0.00336558
0.00336339
0.00336165
0.00336024
0.00335905
0.00335797
0.00335693
0.00335578
0.00335493
0.00335443
0.00335443
0.00335544
0.00335626
0.00335691
0.00335883
0.00336192
0.00336404
0.00336754
0.00337195
0.00337643
0.00338037
0.00338414
0.00338827
0.00339284
0.00339812
0.00340375
0.00340932
0.00341518
0.00342087
0.00342622
0.00343201
0.00343835
0.00344449
0.00344945
0.00345354
0.00345806
0.00346352
0.00346974
0.00347523
0.00347833
0.00348012
0.00348269
0.00348612
0.00348918
0.00349182
0.00349473
0.00349737
0.00349876
0.00349767
0.00349543
0.00349323
0.00349112
0.00348898
0.00348713
0.00348547
0.00348318
0.00347911
0.00347473
0.00347046
0.00346404
0.00345431
0.00344189
0.00342955
0.00341779
0.00340688
0.00339308
0.00337707
0.0033606
0.00334475
0.00332898
0.00331442
0.00330244
0.00328749
0.00326785
0.00324423
0.00322403
0.00320717
0.00318938
0.00316541
0.00313633
0.00310546
0.00307406
0.00301969
0.00296544
0.00292817
0.00942219
0.00865921
0.00810662
0.00772312
0.00747303
0.00731781
0.0072245
0.00716851
0.00713335
0.0071091
0.00709078
0.00707711
0.00706913
0.00706839
0.00707517
0.00708757
0.00710593
0.00713262
0.00716419
0.00719787
0.00723453
0.00727099
0.00730553
0.00733808
0.00736935
0.00739878
0.00742735
0.00745897
0.00749052
0.0075209
0.00754893
0.00757573
0.00760104
0.00762533
0.00764974
0.00767584
0.0077051
0.00773932
0.00775685
0.00776231
0.00776331
0.00775847
0.00774144
0.00772208
0.00770829
0.00770281
0.00771279
0.00773528
0.00776544
0.00779877
0.00783487
0.00786851
0.00789573
0.00791382
0.00792414
0.00793077
0.00794347
0.00796672
0.00800435
0.00805047
0.00809051
0.0081146
0.00811262
0.00808301
0.00806249
0.00806326
0.00807758
0.00809493
0.00811396
0.00813602
0.00816133
0.00818712
0.00821044
0.00822791
0.00823992
0.008247
0.00824348
0.00826759
0.00832647
0.00836733
0.0083894
0.00840598
0.00841967
0.00843262
0.00844565
0.00846239
0.00847586
0.00848212
0.00847217
0.00845497
0.00843033
0.00839544
0.00839043
0.00838049
0.00836474
0.00835049
0.00833644
0.00832149
0.00830589
0.00829056
0.00827589
0.00826185
0.00824815
0.00823473
0.00822236
0.00821159
0.00820155
0.00819116
0.00818078
0.00817106
0.00816247
0.00815505
0.00814813
0.00814111
0.00813414
0.00812769
0.00812179
0.00811668
0.00811249
0.00810902
0.00810564
0.00810198
0.00809718
0.00809179
0.00809021
0.00808959
0.00808332
0.00807552
0.00807541
0.00808217
0.00805743
0.00798484
0.00807285
0.00808455
0.00808665
0.00808526
0.00808247
0.00807858
0.00807524
0.00807183
0.00806877
0.00806624
0.00806453
0.00806601
0.00807215
0.00807824
0.00808634
0.00808829
0.00808098
0.00807038
0.00806455
0.00806764
0.00807544
0.00807757
0.00806324
0.00804055
0.00802675
0.00801998
0.00801157
0.00799944
0.00798922
0.00797994
0.00796389
0.00793869
0.00790855
0.00788223
0.00785885
0.00783515
0.00781557
0.00780008
0.00777805
0.00775001
0.00772698
0.00771476
0.00770198
0.007678
0.00764757
0.00762037
0.00760092
0.00758321
0.00755629
0.00751231
0.00746963
0.00743134
0.00739655
0.00737298
0.00736733
0.00735059
0.00729563
0.00722698
0.00717077
0.00713249
0.00708551
0.00701482
0.00692872
0.00683374
0.00673265
0.0065891
0.00645122
0.00654611
0.00983758
0.00957621
0.00936794
0.00920921
0.00909853
0.00902575
0.00897869
0.00894707
0.00892373
0.00890441
0.00888713
0.00887154
0.00885833
0.00884849
0.00884228
0.0088389
0.00883807
0.00884019
0.00884415
0.00884892
0.00885454
0.00886028
0.00886566
0.00887073
0.00887571
0.00888059
0.00888573
0.00889248
0.00890059
0.00890976
0.00891871
0.00892695
0.00893462
0.00894221
0.00895052
0.00896027
0.00897173
0.00898284
0.00899046
0.0089946
0.00899688
0.00899588
0.00898927
0.00898201
0.00897752
0.00897629
0.00897903
0.00898494
0.00899325
0.00900328
0.00901438
0.0090249
0.00903393
0.00904005
0.00904373
0.0090469
0.00905171
0.00906161
0.0090772
0.00909526
0.00911305
0.00912498
0.009128
0.00912075
0.00910615
0.00909912
0.00910375
0.00911853
0.00913444
0.00914929
0.00916409
0.00917751
0.00918955
0.0091994
0.00920547
0.00920843
0.00921488
0.00922483
0.00925245
0.00927633
0.00929138
0.0093034
0.00931362
0.00932338
0.00933358
0.00934485
0.00935483
0.00936141
0.00936344
0.00935971
0.00935236
0.00934557
0.00934686
0.00937393
0.00942658
0.00947571
0.00949594
0.00950713
0.00951455
0.00952153
0.00952841
0.00953268
0.00953718
0.00954083
0.00955144
0.00956136
0.00955422
0.00953944
0.00954418
0.00955591
0.0095716
0.00959386
0.00960932
0.00961834
0.00962553
0.00962986
0.00962289
0.00961705
0.00961837
0.00962336
0.00962941
0.00964161
0.00965721
0.00966468
0.00970734
0.00967919
0.00953559
0.00951914
0.00959229
0.00960668
0.00959243
0.00962381
0.00969816
0.00972206
0.00971079
0.00969645
0.00974364
0.00973983
0.00978062
0.00976084
0.00967765
0.00965476
0.00958373
0.00959704
0.00972413
0.00980231
0.00988423
0.0098658
0.00980386
0.00981151
0.0098253
0.00984714
0.00986383
0.00986768
0.0098189
0.00978065
0.00984061
0.00987181
0.00989696
0.00992575
0.00992545
0.00994586
0.00982023
0.00974001
0.00969762
0.00971947
0.00978116
0.00979401
0.00983239
0.00984569
0.00965404
0.00956887
0.00956661
0.00949712
0.00937878
0.00932759
0.00948049
0.00963422
0.00981912
0.00975807
0.0098051
0.00980945
0.00988584
0.00985409
0.00981746
0.0098657
0.00986728
0.00975356
0.00927048
0.00938097
0.0093295
0.00930587
0.00930403
0.0092666
0.00912305
0.00900493
0.00892369
0.0086349
0.00814121
0.00832699
0.0099567
0.00988135
0.00981793
0.00976533
0.00972515
0.00969551
0.00967312
0.00965488
0.00963863
0.00962308
0.00960765
0.00959233
0.00957741
0.00956329
0.00955011
0.00953777
0.00952617
0.00951537
0.00950522
0.00949556
0.00948646
0.00947785
0.0094697
0.00946206
0.00945504
0.00944867
0.00944305
0.00943844
0.00943488
0.00943227
0.00943035
0.00942886
0.00942781
0.00942727
0.00942742
0.00942842
0.0094302
0.00943225
0.00943424
0.00943613
0.00943795
0.00943936
0.00943986
0.00944016
0.00944106
0.00944256
0.0094446
0.00944709
0.00945006
0.00945361
0.00945767
0.00946202
0.00946648
0.00947084
0.00947516
0.00947843
0.00948127
0.00948604
0.00949207
0.00949881
0.00950588
0.00951212
0.00951723
0.00952473
0.00953131
0.00953642
0.00954089
0.00954622
0.00955351
0.00956081
0.00956725
0.00957334
0.00957919
0.00958469
0.00959007
0.00959587
0.00960591
0.00961058
0.00961
0.00961651
0.00962373
0.00963093
0.00963806
0.00964527
0.0096527
0.00966029
0.00966774
0.00967481
0.00968117
0.0096873
0.00969495
0.0097043
0.00971211
0.00972239
0.00973851
0.00975466
0.00976457
0.00977298
0.00978105
0.00978996
0.00979895
0.00980629
0.00981495
0.00982352
0.00983313
0.00984018
0.00983609
0.00982646
0.00982103
0.00982652
0.00984602
0.0098654
0.00987794
0.00988714
0.00989453
0.00989968
0.00990355
0.00990073
0.00989965
0.00990216
0.00991037
0.00993103
0.00995173
0.00997029
0.00998814
0.0100066
0.0100011
0.010002
0.0100183
0.0100274
0.0100387
0.0100496
0.0100618
0.0100638
0.0100725
0.0100737
0.0100724
0.0100529
0.0100831
0.0101011
0.0100692
0.0100932
0.0101128
0.0100582
0.00994739
0.0100644
0.0101143
0.0101192
0.0100491
0.0100082
0.0100516
0.0101042
0.0101378
0.0100664
0.00997627
0.0100448
0.0101374
0.0101493
0.010179
0.0102334
0.0102411
0.010224
0.0101064
0.0100536
0.0101643
0.0102489
0.0103149
0.0103474
0.0103475
0.0103242
0.0102615
0.0100826
0.00992432
0.00978456
0.00958779
0.00948795
0.00949484
0.0096733
0.0100184
0.0101612
0.0100444
0.010092
0.0102378
0.0102817
0.0102167
0.010159
0.0100667
0.00980968
0.0096195
0.00965518
0.00974293
0.00976838
0.00950572
0.00918959
0.00894691
0.00888172
0.00889209
0.00892773
0.00887054
0.00860549
0.00998679
0.00996575
0.00994696
0.00992924
0.00991333
0.00989919
0.00988615
0.00987352
0.00986082
0.00984777
0.0098343
0.00982046
0.00980638
0.00979226
0.00977822
0.00976432
0.00975064
0.00973726
0.00972423
0.00971162
0.00969953
0.00968799
0.00967705
0.0096668
0.00965727
0.00964849
0.00964051
0.00963334
0.00962702
0.00962152
0.00961677
0.00961269
0.00960926
0.00960644
0.00960426
0.0096027
0.00960169
0.00960115
0.00960102
0.00960123
0.00960171
0.00960239
0.00960317
0.00960417
0.00960549
0.00960703
0.00960871
0.00961053
0.0096125
0.0096147
0.00961713
0.00961979
0.00962268
0.00962578
0.00962899
0.00963223
0.00963532
0.00963861
0.0096422
0.00964614
0.00965009
0.00965395
0.00965777
0.00966227
0.00966698
0.00967126
0.00967503
0.00967876
0.00968371
0.00968932
0.00969496
0.00970063
0.00970631
0.00971183
0.00971753
0.00972342
0.00972976
0.00973551
0.00973997
0.00974578
0.00975183
0.009758
0.00976432
0.00977081
0.00977741
0.00978414
0.00979094
0.00979782
0.00980471
0.00981169
0.00981887
0.00982624
0.00983383
0.00984156
0.0098501
0.0098589
0.00986712
0.00987496
0.00988271
0.00989054
0.00989828
0.00990569
0.0099134
0.00992102
0.00992809
0.00993487
0.00994025
0.00994625
0.0099525
0.0099591
0.00996564
0.00996925
0.00997265
0.00997793
0.00998363
0.00999132
0.0100043
0.0100143
0.0100208
0.0100263
0.010033
0.010042
0.0100517
0.010062
0.0100689
0.0100794
0.0100884
0.0100961
0.0101024
0.0101098
0.0101181
0.0101253
0.0101305
0.0101341
0.010129
0.0101401
0.0101464
0.0101303
0.0101295
0.0101596
0.010171
0.0101581
0.0101698
0.01018
0.0101398
0.00997068
0.00990454
0.00978518
0.00976175
0.00979167
0.00980249
0.00976028
0.00971287
0.0096763
0.00978559
0.0100583
0.0102134
0.0102586
0.0102845
0.0103197
0.0103344
0.0103179
0.01032
0.0103369
0.0103207
0.01033
0.0103637
0.0103845
0.0103746
0.0102942
0.0100725
0.0100235
0.0099911
0.00991014
0.0097903
0.00975389
0.0097908
0.00977568
0.00993106
0.0101771
0.0101475
0.0101267
0.0103081
0.0103571
0.0103426
0.0103456
0.010126
0.00967675
0.00935387
0.00932973
0.00944365
0.00949388
0.00937866
0.00933791
0.00946205
0.00934126
0.00937168
0.00946894
0.00954532
0.0093584
0.00999349
0.00998613
0.00997895
0.00997079
0.00996193
0.00995261
0.00994281
0.0099325
0.00992161
0.00991014
0.00989814
0.00988568
0.00987287
0.00985983
0.00984669
0.00983352
0.00982045
0.00980757
0.00979497
0.00978276
0.009771
0.00975979
0.00974916
0.00973918
0.0097299
0.00972134
0.00971351
0.00970643
0.00970009
0.00969448
0.00968956
0.0096853
0.00968168
0.00967864
0.00967617
0.00967423
0.00967276
0.00967174
0.00967111
0.00967084
0.00967087
0.00967118
0.00967175
0.00967257
0.00967364
0.0096749
0.00967632
0.00967788
0.0096796
0.00968147
0.00968351
0.00968572
0.00968811
0.00969066
0.00969336
0.0096963
0.0096993
0.00970235
0.00970544
0.00970861
0.00971182
0.00971514
0.00971863
0.00972217
0.00972567
0.00972918
0.00973283
0.00973653
0.00974051
0.00974508
0.00975009
0.00975528
0.00976048
0.00976565
0.00977081
0.00977596
0.00978127
0.00978655
0.00979186
0.00979736
0.00980302
0.00980878
0.00981467
0.00982064
0.00982673
0.00983294
0.00983936
0.00984592
0.00985261
0.00985938
0.00986624
0.00987313
0.00988021
0.00988744
0.00989479
0.00990209
0.00990934
0.0099165
0.00992367
0.00993075
0.00993764
0.00994427
0.00995081
0.00995731
0.00996375
0.00997009
0.00997623
0.00998231
0.00998841
0.00999435
0.01
0.0100056
0.0100112
0.0100169
0.0100228
0.0100293
0.0100364
0.010043
0.0100486
0.0100524
0.0100559
0.0100624
0.0100719
0.0100817
0.01009
0.0100975
0.0101043
0.010111
0.0101172
0.0101232
0.0101284
0.0101323
0.0101358
0.0101364
0.0101162
0.010118
0.0101235
0.0101083
0.0101055
0.0101363
0.0101679
0.0101815
0.0101885
0.0101963
0.0101827
0.0100993
0.0100954
0.010089
0.0100765
0.0100563
0.0100723
0.0100722
0.0100276
0.00993533
0.0098112
0.0100239
0.0101619
0.0101785
0.010196
0.0102533
0.0102947
0.0102741
0.010235
0.0103127
0.010344
0.0103167
0.0102676
0.0102663
0.0102552
0.0102533
0.0101756
0.00999611
0.00994774
0.00997708
0.00993924
0.00992743
0.0100216
0.010089
0.010081
0.0101071
0.0101567
0.0100769
0.0101216
0.0100857
0.0100942
0.0101222
0.00984792
0.00935379
0.0090103
0.0090662
0.00930295
0.0094449
0.00952283
0.00971247
0.00978563
0.00971916
0.00980723
0.00990296
0.00974932
0.00976087
0.00999463
0.0099903
0.0099858
0.00997994
0.0099729
0.00996494
0.0099562
0.00994676
0.00993666
0.00992597
0.00991476
0.00990309
0.00989108
0.00987882
0.00986642
0.00985398
0.00984162
0.00982943
0.0098175
0.00980594
0.00979482
0.00978422
0.00977419
0.00976478
0.00975603
0.00974796
0.00974059
0.00973391
0.00972793
0.00972261
0.00971795
0.00971392
0.00971047
0.00970758
0.00970522
0.00970333
0.00970187
0.00970082
0.00970014
0.00969978
0.00969971
0.00969992
0.00970041
0.00970115
0.0097021
0.00970325
0.00970457
0.00970605
0.00970768
0.00970947
0.0097114
0.00971349
0.00971574
0.00971813
0.00972067
0.00972334
0.00972612
0.00972901
0.00973199
0.00973505
0.00973819
0.00974141
0.00974471
0.00974811
0.0097516
0.0097552
0.00975892
0.00976274
0.00976667
0.00977082
0.00977515
0.00977962
0.00978418
0.00978882
0.0097935
0.00979827
0.00980319
0.00980823
0.00981337
0.0098186
0.00982393
0.00982926
0.00983462
0.00983996
0.00984531
0.00985079
0.00985674
0.00986314
0.00986977
0.00987652
0.00988343
0.00989041
0.00989736
0.00990436
0.00991135
0.00991839
0.00992532
0.00993218
0.00993886
0.00994534
0.00995142
0.00995725
0.00996269
0.00996814
0.009974
0.00998004
0.00998589
0.0099918
0.00999752
0.0100028
0.0100078
0.0100126
0.0100175
0.0100228
0.0100289
0.0100352
0.0100424
0.0100485
0.0100511
0.0100478
0.0100439
0.0100439
0.0100527
0.0100731
0.0100879
0.0100974
0.0101045
0.0101106
0.0101153
0.0101171
0.010111
0.010098
0.0100931
0.0100814
0.0100009
0.00999825
0.0100569
0.0101064
0.01013
0.0101522
0.0101697
0.0101725
0.0101605
0.0101661
0.0101716
0.0101202
0.00996734
0.0099267
0.0100131
0.0100927
0.010125
0.0101189
0.0100506
0.00992525
0.00995337
0.0101265
0.0101755
0.0102517
0.0102864
0.0102719
0.0102138
0.0102131
0.0102581
0.0103046
0.0103353
0.010315
0.0103036
0.0102485
0.010231
0.0101843
0.0101285
0.0101073
0.0101687
0.010259
0.0102657
0.0102054
0.0101454
0.0101978
0.01015
0.010037
0.0101295
0.0101945
0.010063
0.0100488
0.0101078
0.0099989
0.00968746
0.00930061
0.00909695
0.0091641
0.00943757
0.00958612
0.00953369
0.00953539
0.0095845
0.00968299
0.00975806
0.00969166
0.00949734
0.00930684
0.0099943
0.00999001
0.00998564
0.00997986
0.00997286
0.00996493
0.0099562
0.00994677
0.0099367
0.00992604
0.00991489
0.0099033
0.00989137
0.00987921
0.00986692
0.0098546
0.00984237
0.00983033
0.00981857
0.00980718
0.00979623
0.00978582
0.00977597
0.00976675
0.00975819
0.00975029
0.00974309
0.00973656
0.00973071
0.00972552
0.00972096
0.009717
0.00971362
0.00971078
0.00970844
0.00970656
0.0097051
0.00970403
0.00970331
0.00970289
0.00970276
0.00970293
0.00970339
0.00970411
0.00970504
0.00970617
0.00970749
0.00970898
0.00971062
0.00971241
0.00971435
0.00971644
0.00971867
0.00972104
0.00972354
0.00972617
0.00972893
0.00973179
0.00973475
0.0097378
0.00974094
0.00974416
0.00974747
0.00975087
0.00975437
0.00975797
0.00976165
0.00976541
0.00976926
0.00977324
0.00977732
0.00978154
0.00978582
0.00979017
0.00979457
0.00979905
0.00980373
0.00980845
0.00981305
0.00981766
0.00982227
0.00982659
0.00983051
0.00983376
0.00983667
0.00983982
0.00984389
0.00984881
0.00985434
0.00986036
0.00986697
0.00987451
0.00988208
0.00988961
0.00989791
0.00990663
0.00991454
0.00992263
0.00992961
0.00993585
0.00994206
0.00994861
0.00995297
0.00995557
0.00995922
0.00996417
0.00996969
0.00997603
0.0099832
0.00998902
0.00999442
0.0100007
0.0100086
0.0100169
0.0100242
0.0100299
0.0100374
0.010044
0.0100446
0.0100372
0.0100371
0.0100395
0.0100406
0.0100454
0.0100622
0.0100833
0.0100968
0.0101038
0.0101049
0.0100926
0.0100651
0.0100308
0.00997664
0.00991145
0.00995984
0.0100418
0.0101067
0.0101354
0.0101429
0.0101539
0.0101661
0.0101548
0.0101058
0.0101121
0.0101007
0.00999199
0.00988185
0.00995501
0.0100859
0.0101563
0.010174
0.0101588
0.0101048
0.0100543
0.0101431
0.0102277
0.0102741
0.0103058
0.0103251
0.0103329
0.0103348
0.010343
0.0103498
0.0103612
0.0103695
0.0103595
0.0103171
0.0102608
0.0102048
0.0101349
0.0100899
0.0101576
0.0102615
0.0103228
0.0103398
0.0103114
0.0102875
0.0103035
0.0102504
0.0101282
0.0101022
0.0102038
0.010257
0.0101992
0.0101143
0.0100335
0.00995297
0.00977649
0.00959791
0.00948181
0.00939556
0.00930041
0.00920055
0.00923945
0.00942776
0.00963019
0.00957552
0.00936079
0.00885028
0.00849359
0.00999254
0.00998545
0.00997885
0.00997113
0.00996258
0.00995345
0.00994378
0.00993356
0.00992279
0.0099115
0.00989974
0.00988758
0.0098751
0.00986242
0.00984962
0.00983682
0.00982413
0.00981167
0.00979952
0.00978778
0.00977652
0.00976582
0.00975574
0.0097463
0.00973755
0.0097295
0.00972216
0.00971552
0.00970957
0.00970429
0.00969965
0.00969561
0.00969215
0.00968924
0.00968684
0.0096849
0.00968339
0.00968226
0.00968146
0.00968097
0.00968079
0.00968095
0.00968143
0.00968219
0.00968317
0.00968437
0.00968578
0.00968738
0.00968915
0.00969109
0.00969317
0.0096954
0.00969774
0.00970021
0.0097028
0.00970554
0.00970843
0.00971142
0.00971451
0.00971769
0.00972096
0.00972432
0.00972777
0.00973132
0.00973495
0.00973866
0.00974239
0.00974612
0.00974987
0.00975372
0.00975769
0.009762
0.00976618
0.00977019
0.00977397
0.00977787
0.00978229
0.00978705
0.0097919
0.00979696
0.00980189
0.00980671
0.00981117
0.00981567
0.00982032
0.00982596
0.00983275
0.00983984
0.00984706
0.00985436
0.00986171
0.00986908
0.0098765
0.00988379
0.00989105
0.00989823
0.00990526
0.0099123
0.0099194
0.00992635
0.00993304
0.00993912
0.0099443
0.00994867
0.00995344
0.00995938
0.00996575
0.009972
0.00997788
0.00998239
0.00998435
0.00998387
0.00998703
0.00999367
0.0100002
0.0100086
0.0100177
0.0100262
0.0100288
0.0100185
0.0100211
0.0100301
0.0100367
0.0100428
0.0100557
0.0100716
0.0100845
0.0100923
0.0100952
0.0100831
0.0100601
0.0100245
0.00996544
0.00996373
0.0100162
0.0100712
0.0100993
0.0101046
0.0100938
0.0100893
0.0101091
0.010071
0.0100132
0.00996629
0.00988283
0.00978371
0.00983782
0.0100431
0.0101416
0.0101779
0.0101645
0.0100897
0.00996358
0.00996698
0.010083
0.0101939
0.0102577
0.0103057
0.010332
0.0103262
0.0103202
0.0103345
0.0103148
0.0103295
0.0103491
0.0103678
0.0103508
0.0102121
0.0100303
0.00991815
0.0100278
0.0101823
0.0102674
0.0103095
0.0103469
0.0103641
0.010358
0.0103287
0.0103051
0.0102876
0.0102246
0.0101154
0.0100597
0.0100722
0.00994038
0.00974856
0.0096713
0.00964981
0.00963431
0.0095786
0.00953702
0.00961242
0.00955083
0.00953093
0.00952807
0.00950064
0.00928023
0.00880388
0.00832668
0.00867459
0.00998558
0.00996584
0.00994909
0.00993316
0.0099187
0.00990553
0.00989311
0.00988097
0.00986881
0.00985644
0.00984381
0.00983092
0.0098178
0.00980454
0.00979122
0.00977792
0.00976478
0.00975191
0.0097394
0.00972734
0.0097158
0.00970487
0.0096946
0.00968502
0.00967616
0.00966806
0.00966074
0.00965418
0.00964834
0.00964319
0.00963869
0.0096348
0.00963149
0.00962873
0.00962648
0.00962472
0.00962337
0.00962241
0.00962175
0.00962138
0.00962137
0.00962171
0.00962237
0.00962329
0.00962445
0.0096259
0.00962768
0.00962977
0.00963207
0.0096346
0.00963729
0.00964008
0.00964294
0.00964586
0.00964885
0.00965216
0.00965554
0.00965907
0.0096626
0.00966629
0.00967009
0.0096739
0.00967783
0.00968189
0.00968609
0.00969026
0.00969412
0.00969745
0.00970053
0.00970392
0.00970728
0.00971107
0.00971412
0.00971632
0.00971919
0.00972277
0.00972703
0.00973139
0.00973576
0.00974062
0.00974545
0.00974998
0.00975385
0.00975744
0.00976097
0.00976542
0.00977116
0.00977759
0.00978454
0.00979194
0.00979954
0.0098077
0.00981562
0.00982336
0.00983065
0.00983789
0.00984493
0.00985208
0.00985931
0.00986681
0.00987416
0.00988011
0.00988432
0.00988592
0.00988927
0.00989509
0.00990208
0.00990935
0.009916
0.00991936
0.00990636
0.00985291
0.00983497
0.00984165
0.0098551
0.00989219
0.00992966
0.00995709
0.00995679
0.00990195
0.00986202
0.00988889
0.00985992
0.00987013
0.00994712
0.0100065
0.0100359
0.0100509
0.010044
0.010009
0.010015
0.00994343
0.00989754
0.00988975
0.00985929
0.00987135
0.0099345
0.00990541
0.00992661
0.0100327
0.0100672
0.0100345
0.00993059
0.00989486
0.00986159
0.00984261
0.00992616
0.0100352
0.0100745
0.0100488
0.0100568
0.0101302
0.0101367
0.0100479
0.0100631
0.0101218
0.0102119
0.0102417
0.0102853
0.0103276
0.0103505
0.0103672
0.0103623
0.0103391
0.0102753
0.0102928
0.0103289
0.0103111
0.0102142
0.010126
0.00999954
0.00991694
0.00993125
0.00999344
0.0101535
0.0102624
0.0101656
0.0100667
0.00995047
0.00989442
0.00988339
0.00986359
0.00980648
0.00978252
0.00972545
0.00974012
0.00977326
0.00988255
0.00999022
0.00997129
0.00979993
0.00965828
0.00966606
0.00972433
0.0094017
0.00912365
0.00879552
0.00891554
0.00909877
0.00932845
0.00995725
0.00988659
0.00982992
0.00978372
0.00974885
0.00972283
0.00970273
0.00968627
0.00967196
0.00965887
0.00964642
0.00963427
0.00962238
0.00961064
0.00959909
0.00958771
0.00957651
0.00956556
0.00955496
0.00954479
0.00953509
0.00952594
0.00951738
0.00950946
0.00950224
0.00949578
0.0094902
0.0094855
0.00948157
0.00947832
0.00947567
0.00947358
0.00947198
0.00947085
0.00947017
0.0094699