# vtk DataFile Version 2.0
track0
ASCII
DATASET POLYDATA
POINTS 12030 float
-0.0205 0.001 1e-005
-0.0203851 0.00100536 1.50229e-005
-0.0202701 0.00101048 1.96614e-005
-0.0201552 0.00101536 2.39682e-005
-0.0200402 0.00102001 2.79387e-005
-0.0198627 0.00102682 3.35394e-005
-0.0196936 0.00103277 3.80896e-005
-0.0195244 0.00103811 4.16071e-005
-0.0193553 0.00104284 4.4101e-005
-0.019186 0.00104696 4.55808e-005
-0.0190172 0.00105047 4.60548e-005
-0.0187132 0.00105601 4.60548e-005
-0.0184093 0.0010609 4.60548e-005
-0.0181054 0.00106528 4.60548e-005
-0.0178014 0.00106914 4.60548e-005
-0.0174976 0.00107248 4.60548e-005
-0.0172058 0.00107541 4.60548e-005
-0.016914 0.00107825 4.60548e-005
-0.0166222 0.00108104 4.60548e-005
-0.0163305 0.00108376 4.60548e-005
-0.0160387 0.00108641 4.60548e-005
-0.0157586 0.00108887 4.60548e-005
-0.0154784 0.00109126 4.60548e-005
-0.0151983 0.00109356 4.60548e-005
-0.0149182 0.00109578 4.60548e-005
-0.0146381 0.00109792 4.60548e-005
-0.0143692 0.00109985 4.60548e-005
-0.0141002 0.00110169 4.60548e-005
-0.0138313 0.00110345 4.60548e-005
-0.0135624 0.00110514 4.60548e-005
-0.0132934 0.00110676 4.60548e-005
-0.0130353 0.00110825 4.60548e-005
-0.0127771 0.00110967 4.60548e-005
-0.0125189 0.00111107 4.60548e-005
-0.0122607 0.00111243 4.60548e-005
-0.0120025 0.00111376 4.60548e-005
-0.0117547 0.001115 4.60548e-005
-0.0115068 0.00111622 4.60548e-005
-0.0112589 0.00111743 4.60548e-005
-0.0110111 0.00111863 4.60548e-005
-0.0107632 0.00111982 4.60548e-005
-0.0105252 0.00112094 4.60548e-005
-0.0102873 0.00112206 4.60548e-005
-0.0100493 0.00112317 4.60548e-005
-0.00981133 0.00112427 4.60548e-005
-0.00957337 0.00112537 4.60548e-005
-0.00934491 0.00112642 4.60548e-005
-0.00911645 0.00112746 4.60548e-005
-0.00888799 0.0011285 4.60548e-005
-0.00865954 0.00112954 4.60548e-005
-0.00843108 0.00113057 4.60548e-005
-0.00821175 0.00113157 4.60548e-005
-0.00799242 0.00113256 4.60548e-005
-0.00777309 0.00113356 4.60548e-005
-0.00755376 0.00113456 4.60548e-005
-0.00733443 0.00113556 4.60548e-005
-0.00712387 0.00113652 4.60548e-005
-0.0069133 0.00113748 4.60548e-005
-0.00670273 0.00113845 4.60548e-005
-0.00649217 0.00113942 4.60548e-005
-0.0062816 0.0011404 4.60548e-005
-0.00607944 0.00114134 4.60548e-005
-0.00587729 0.00114229 4.60548e-005
-0.00567514 0.00114324 4.60548e-005
-0.00547298 0.0011442 4.60548e-005
-0.00527083 0.00114516 4.60548e-005
-0.00507675 0.0011461 4.60548e-005
-0.00488267 0.00114704 4.60548e-005
-0.0046886 0.00114799 4.60548e-005
-0.00449452 0.00114894 4.60548e-005
-0.00430044 0.00114991 4.60548e-005
-0.00411412 0.00115086 4.60548e-005
-0.0039278 0.00115181 4.60548e-005
-0.00374147 0.00115277 4.60548e-005
-0.00355515 0.00115374 4.60548e-005
-0.00336883 0.00115473 4.60548e-005
-0.00318995 0.0011557 4.60548e-005
-0.00301107 0.00115667 4.60548e-005
-0.00283219 0.00115766 4.60548e-005
-0.00265331 0.00115867 4.60548e-005
-0.00247443 0.00115969 4.60548e-005
-0.0023027 0.0011607 4.60548e-005
-0.00213097 0.00116172 4.60548e-005
-0.00195924 0.00116276 4.60548e-005
-0.00178751 0.00116382 4.60548e-005
-0.00161577 0.0011649 4.60548e-005
-0.0014509 0.00116596 4.60548e-005
-0.00128603 0.00116704 4.60548e-005
-0.00112116 0.00116814 4.60548e-005
-0.00095629 0.00116927 4.60548e-005
-0.000791418 0.00117043 4.60548e-005
-0.000633135 0.00117158 4.60548e-005
-0.000474851 0.00117276 4.60548e-005
-0.000316568 0.00117397 4.60548e-005
-0.000158285 0.00117521 4.60548e-005
0 0.0011765 4.60548e-005
0.000105677 0.00117739 4.60548e-005
0.000211355 0.0011783 4.60548e-005
0.000317032 0.00117923 4.60548e-005
0.000422709 0.00118019 4.60548e-005
0.000528387 0.00118118 4.60548e-005
0.000634886 0.00118221 4.60548e-005
0.000741385 0.00118326 4.60548e-005
0.000847884 0.00118433 4.60548e-005
0.000954382 0.00118543 4.60548e-005
0.00106088 0.00118657 4.60548e-005
0.00116821 0.00118775 4.60548e-005
0.00127554 0.00118896 4.60548e-005
0.00138286 0.00119019 4.60548e-005
0.00149019 0.00119144 4.60548e-005
0.00159752 0.00119274 4.60548e-005
0.00170568 0.00119409 4.60548e-005
0.00181384 0.00119548 4.60548e-005
0.001922 0.00119689 4.60548e-005
0.00203016 0.00119834 4.60548e-005
0.00213833 0.00119983 4.60548e-005
0.00224733 0.00120139 4.60548e-005
0.00235633 0.001203 4.60548e-005
0.00246533 0.00120465 4.60548e-005
0.00257433 0.00120635 4.60548e-005
0.00268334 0.00120811 4.60548e-005
0.00279319 0.00120993 4.60548e-005
0.00290304 0.00121182 4.60548e-005
0.00301288 0.00121376 4.60548e-005
0.00312273 0.00121578 4.60548e-005
0.00323259 0.00121785 4.60548e-005
0.00334329 0.00121999 4.60548e-005
0.00345399 0.00122221 4.60548e-005
0.00356469 0.00122449 4.60548e-005
0.00367539 0.00122685 4.60548e-005
0.00378611 0.00122929 4.60548e-005
0.00389767 0.0012318 4.60548e-005
0.00400923 0.0012344 4.60548e-005
0.0041208 0.00123706 4.60548e-005
0.00423236 0.00123981 4.60548e-005
0.00434393 0.00124264 4.60548e-005
0.00445636 0.00124556 4.60548e-005
0.00456879 0.00124856 4.60548e-005
0.00468122 0.00125164 4.60548e-005
0.00479365 0.0012548 4.60548e-005
0.00490609 0.00125805 4.60548e-005
0.0050194 0.00126141 4.60548e-005
0.0051327 0.00126484 4.60548e-005
0.005246 0.00126835 4.60548e-005
0.0053593 0.00127195 4.60548e-005
0.00547262 0.00127564 4.60548e-005
0.00558681 0.00127944 4.60548e-005
0.00570099 0.00128333 4.60548e-005
0.00581517 0.00128731 4.60548e-005
0.00592935 0.00129136 4.60548e-005
0.00604356 0.00129551 4.60548e-005
0.00615863 0.00129977 4.60548e-005
0.0062737 0.00130413 4.60548e-005
0.00638877 0.00130859 4.60548e-005
0.00650383 0.00131313 4.60548e-005
0.00661893 0.00131774 4.60548e-005
0.0067349 0.00132247 4.60548e-005
0.00685087 0.0013273 4.60548e-005
0.00696683 0.00133225 4.60548e-005
0.00708278 0.00133728 4.60548e-005
0.00719878 0.00134236 4.60548e-005
0.00731565 0.00134754 4.60548e-005
0.00743252 0.00135285 4.60548e-005
0.00754938 0.00135828 4.60548e-005
0.00766623 0.00136379 4.60548e-005
0.00778313 0.00136934 4.60548e-005
0.00790091 0.00137496 4.60548e-005
0.00801869 0.00138072 4.60548e-005
0.00813645 0.00138661 4.60548e-005
0.00825422 0.00139258 4.60548e-005
0.00837203 0.00139857 4.60548e-005
0.00849073 0.00140461 4.60548e-005
0.00860942 0.0014108 4.60548e-005
0.0087281 0.00141712 4.60548e-005
0.00884678 0.0014235 4.60548e-005
0.00896551 0.00142991 4.60548e-005
0.00908513 0.00143636 4.60548e-005
0.00920474 0.00144295 4.60548e-005
0.00932434 0.00144965 4.60548e-005
0.00944394 0.00145641 4.60548e-005
0.0095636 0.00146321 4.60548e-005
0.00968415 0.00147003 4.60548e-005
0.00980469 0.00147699 4.60548e-005
0.00992523 0.00148403 4.60548e-005
0.0100458 0.00149111 4.60548e-005
0.0101663 0.00149826 4.60548e-005
0.0102878 0.00150542 4.60548e-005
0.0104093 0.0015127 4.60548e-005
0.0105308 0.00152003 4.60548e-005
0.0106523 0.0015274 4.60548e-005
0.0107738 0.00153483 4.60548e-005
0.0108962 0.00154229 4.60548e-005
0.0110186 0.00154984 4.60548e-005
0.0111411 0.00155743 4.60548e-005
0.0112635 0.00156505 4.60548e-005
0.0113859 0.00157272 4.60548e-005
0.0114604 0.00157739 4.60548e-005
0.0115349 0.00158208 4.60548e-005
0.0116094 0.00158679 4.60548e-005
0.0116839 0.0015915 4.60548e-005
0.0117556 0.00159604 4.60548e-005
0.011805 0.00159919 4.60548e-005
0.0118545 0.00160233 4.60548e-005
0.0119039 0.00160549 4.60548e-005
0.0119534 0.00160864 4.60548e-005
0.0120028 0.0016118 4.60548e-005
0.0121272 0.00161976 4.60548e-005
0.0122515 0.00162775 4.60548e-005
0.0123759 0.00163576 4.60548e-005
0.0125002 0.00164378 4.60548e-005
0.0126245 0.00165184 4.60548e-005
0.0127498 0.00165993 4.60548e-005
0.0128752 0.00166809 4.60548e-005
0.0130005 0.00167626 4.60548e-005
0.0131258 0.00168444 4.60548e-005
0.0132511 0.00169264 4.60548e-005
0.0133774 0.00170083 4.60548e-005
0.0135036 0.00170912 4.60548e-005
0.0136299 0.00171741 4.60548e-005
0.0137562 0.0017257 4.60548e-005
0.0138825 0.00173399 4.60548e-005
0.0140098 0.00174224 4.60548e-005
0.014137 0.00175059 4.60548e-005
0.0142643 0.00175895 4.60548e-005
0.0143915 0.00176731 4.60548e-005
0.0145188 0.00177562 4.60548e-005
0.0146471 0.0017839 4.60548e-005
0.0147753 0.00179225 4.60548e-005
0.0149036 0.00180063 4.60548e-005
0.0150318 0.001809 4.60548e-005
0.0151601 0.0018173 4.60548e-005
0.0152893 0.00182557 4.60548e-005
0.0154186 0.00183388 4.60548e-005
0.0155478 0.00184223 4.60548e-005
0.0156771 0.00185055 4.60548e-005
0.0158063 0.0018588 4.60548e-005
0.0159366 0.00186703 4.60548e-005
0.0160668 0.00187527 4.60548e-005
0.0161971 0.00188352 4.60548e-005
0.0163273 0.00189174 4.60548e-005
0.0164576 0.0018999 4.60548e-005
0.0165889 0.00190806 4.60548e-005
0.0167201 0.0019162 4.60548e-005
0.0168514 0.00192431 4.60548e-005
0.0169827 0.00193239 4.60548e-005
0.0171139 0.00194042 4.60548e-005
0.0172462 0.00194847 4.60548e-005
0.0173785 0.00195646 4.60548e-005
0.0175108 0.0019644 4.60548e-005
0.0176431 0.0019723 4.60548e-005
0.0177754 0.00198017 4.60548e-005
0.0179087 0.00198807 4.60548e-005
0.018042 0.00199589 4.60548e-005
0.0181754 0.00200363 4.60548e-005
0.0183087 0.00201132 4.60548e-005
0.018442 0.00201899 4.60548e-005
0.0185763 0.0020267 4.60548e-005
0.0187107 0.00203431 4.60548e-005
0.0188451 0.00204184 4.60548e-005
0.0189794 0.0020493 4.60548e-005
0.0191137 0.00205673 4.60548e-005
0.0192491 0.00206422 4.60548e-005
0.0193845 0.00207159 4.60548e-005
0.01952 0.00207888 4.60548e-005
0.0196554 0.0020861 4.60548e-005
0.0197907 0.00209326 4.60548e-005
0.0199272 0.00210049 4.60548e-005
0.0200636 0.00210758 4.60548e-005
0.0202001 0.0021146 4.60548e-005
0.0203366 0.00212155 4.60548e-005
0.020473 0.00212842 4.60548e-005
0.0206105 0.00213535 4.60548e-005
0.020748 0.00214215 4.60548e-005
0.0208855 0.00214887 4.60548e-005
0.0210231 0.00215552 4.60548e-005
0.0211606 0.00216208 4.60548e-005
0.0212991 0.00216867 4.60548e-005
0.0214377 0.00217515 4.60548e-005
0.0215763 0.00218154 4.60548e-005
0.0217149 0.00218785 4.60548e-005
0.0218535 0.00219407 4.60548e-005
0.0219931 0.00220029 4.60548e-005
0.0221328 0.00220641 4.60548e-005
0.0222724 0.00221244 4.60548e-005
0.0224121 0.00221837 4.60548e-005
0.0225517 0.00222422 4.60548e-005
0.0226925 0.00223004 4.60548e-005
[...]
POINT_DATA 12030
 FIELD attributes 1
U 3 12030 float
99.9371 	4.66437 	4.36822 99.8207 	4.43909 	4.02823 99.699 	4.23319 	3.73492 99.5775 	4.02594 	3.4384 99.4565 	3.81732 	3.13863 99.2702 	3.49327 	2.671 99.1122 	3.12948 	2.061 98.9533 	2.76746 	1.45863 98.7934 	2.40724 	0.863896 98.6325 	2.04881 	0.276831 98.4473 	1.79292 	0 98.0654 	1.57822 	0 97.7032 	1.40721 	0 97.3412 	1.23654 	0 96.9793 	1.0662 	0 96.6713 	0.969832 	0 96.3732 	0.94036 	0 96.1596 	0.917568 	0 95.9461 	0.894726 	0 95.7326 	0.871834 	0 95.6159 	0.839114 	0 95.4262 	0.81187 	0 95.3197 	0.783377 	0 95.2132 	0.75483 	0 95.1068 	0.72623 	0 95.0796 	0.684415 	0 94.9241 	0.648476 	0 94.8351 	0.621993 	0 94.7461 	0.595486 	0 94.6572 	0.568953 	0 94.6373 	0.544074 	0 94.4849 	0.523145 	0 94.3901 	0.509812 	0 94.2976 	0.49677 	0 94.2113 	0.483893 	0 94.1872 	0.47279 	0 94.0536 	0.464172 	0 93.9634 	0.458662 	0 93.8794 	0.453594 	0 93.8058 	0.448518 	0 93.7837 	0.443414 	0 93.6789 	0.439059 	0 93.6019 	0.436211 	0 93.5321 	0.433744 	0 93.4736 	0.431275 	0 93.4514 	0.428807 	0 93.3717 	0.426058 	0 93.3072 	0.424735 	0 93.2484 	0.423945 	0 93.1993 	0.423321 	0 93.1727 	0.423076 	0 93.1094 	0.422 	0 93.0534 	0.422131 	0 93.0012 	0.42288 	0 92.9567 	0.423861 	0 92.9254 	0.42524 	0 92.8734 	0.425273 	0 92.8242 	0.426329 	0 92.7769 	0.428073 	0 92.7352 	0.430274 	0 92.7008 	0.433084 	0 92.6573 	0.433722 	0 92.6138 	0.435452 	0 92.5705 	0.438128 	0 92.5306 	0.44181 	0 92.4944 	0.446543 	0 92.457 	0.44804 	0 92.4181 	0.450785 	0 92.3778 	0.454911 	0 92.3389 	0.460722 	0 92.3013 	0.467919 	0 92.2677 	0.47086 	0 92.232 	0.475039 	0 92.1933 	0.480978 	0 92.1544 	0.489146 	0 92.1153 	0.498747 	0 92.0831 	0.503169 	0 92.0488 	0.508841 	0 92.0108 	0.516827 	0 91.9712 	0.52782 	0 91.931 	0.54029 	0 91.8985 	0.546721 	0 91.8641 	0.554163 	0 91.8248 	0.564135 	0 91.783 	0.577907 	0 91.7405 	0.593053 	0 91.7053 	0.601438 	0 91.6691 	0.611054 	0 91.6286 	0.625109 	0 91.5866 	0.645276 	0 91.5442 	0.666951 	0 91.5072 	0.681604 	0 91.4698 	0.697023 	1.38243e-020 91.4291 	0.716997 	1.10345e-019 91.3894 	0.742955 	5.24459e-020 91.3498 	0.769768 	-2.74059e-020 91.3155 	0.786985 	1.67428e-018 91.2812 	0.804828 	3.18769e-018 91.2458 	0.828029 	3.08019e-018 91.2139 	0.855186 	1.38195e-018 91.1826 	0.882847 	-5.15794e-019 91.1552 	0.898857 	-1.04056e-018 91.1273 	0.916024 	-1.51047e-018 91.096 	0.941108 	-1.60382e-018 91.0656 	0.973186 	-9.39286e-019 91.0355 	1.00634 	-1.58729e-019 91.0088 	1.02223 	-1.41668e-019 90.9815 	1.03937 	-1.13001e-019 90.9502 	1.06404 	-1.4296e-020 90.9203 	1.09962 	1.55825e-019 90.8908 	1.13707 	3.38131e-019 90.8664 	1.16105 	1.55658e-019 90.8412 	1.186 	-4.30732e-020 90.8101 	1.21659 	-3.36686e-019 90.7794 	1.25639 	-7.98337e-019 90.7488 	1.29779 	-1.28889e-018 90.7287 	1.33659 	-2.34377e-018 90.7074 	1.37575 	-3.22579e-018 90.6784 	1.41703 	-3.04385e-018 90.6474 	1.46024 	-1.77679e-018 90.6161 	1.50376 	-3.38279e-019 90.6013 	1.55447 	1.28999e-018 90.5852 	1.60534 	2.75418e-018 90.5591 	1.65737 	2.98329e-018 90.5287 	1.70569 	1.82529e-018 90.4979 	1.75358 	4.95858e-019 90.4899 	1.81123 	-1.92754e-018 90.481 	1.86914 	-4.17737e-018 90.4583 	1.92996 	-4.31885e-018 90.4293 	1.98545 	-2.24023e-018 90.3999 	2.04059 	-7.25062e-021 90.4052 	2.10049 	2.19491e-018 90.4103 	2.16049 	4.36755e-018 90.3909 	2.22627 	4.30813e-018 90.3596 	2.28911 	2.27036e-018 90.3285 	2.35195 	2.32635e-019 90.3578 	2.41218 	-1.37565e-018 90.3873 	2.47241 	-2.98358e-018 90.3701 	2.53963 	-3.29728e-018 90.3257 	2.60818 	-1.97091e-018 90.2814 	2.67674 	-6.43524e-019 90.3488 	2.73944 	-1.91917e-018 90.4165 	2.80214 	-3.19408e-018 90.4001 	2.86942 	-3.03251e-018 90.323 	2.93899 	-1.52717e-018 90.2461 	3.00856 	-2.08891e-020 90.3687 	3.07857 	-5.33182e-020 90.4915 	3.14857 	-8.51472e-020 90.4768 	3.21548 	5.77594e-020 90.344 	3.27919 	2.31022e-019 90.2114 	3.34291 	4.04499e-019 90.4092 	3.42538 	2.42221e-019 90.6074 	3.50785 	8.01417e-020 90.6002 	3.57417 	0 90.3871 	3.62427 	0 90.1743 	3.67438 	0 90.4675 	3.77271 	0 90.7613 	3.87103 	0 90.7714 	3.93647 	-2.02384e-019 90.4534 	3.96567 	-6.39354e-019 90.1357 	3.99489 	-1.07642e-018 90.5395 	4.11055 	-2.02589e-018 90.944 	4.2262 	-2.9752e-018 90.9845 	4.29152 	-2.97117e-018 90.5425 	4.29514 	-2.01974e-018 90.1007 	4.29877 	-1.06788e-018 90.6214 	4.4319 	7.39151e-019 91.0918 	4.55742 	2.36867e-018 91.1246 	4.61786 	2.48175e-018 90.6524 	4.60849 	1.51466e-018 90.0763 	4.58475 	3.24926e-019 90.7085 	4.73359 	1.52306e-018 91.1286 	4.84966 	2.27314e-018 91.1548 	4.90515 	2.19568e-018 90.7787 	4.90195 	1.49592e-018 90.072 	4.8506 	2.85443e-019 90.7971 	5.00879 	9.42619e-020 91.0857 	5.09983 	1.53638e-020 91.1018 	5.1489 	6.60626e-021 90.914 	5.16765 	0 90.0973 	5.09306 	0 90.8814 	5.25268 	0 90.9651 	5.30695 	-8.60904e-021 90.968 	5.34901 	-1.82203e-020 90.9712 	5.39105 	-2.78371e-020 90.1518 	5.31134 	-1.8609e-019 90.7948 	5.44213 	-1.1033e-018 90.7823 	5.47656 	-8.30897e-019 90.7701 	5.51099 	-5.5765e-019 90.7584 	5.54543 	-2.83564e-019 90.2244 	5.50324 	5.89752e-019 90.5939 	5.58578 	1.23315e-018 90.5666 	5.61226 	9.89244e-019 90.5396 	5.63875 	7.44815e-019 90.5131 	5.66526 	4.99858e-019 90.2972 	5.66479 	-1.46378e-020 90.4093 	5.69429 	-7.08925e-020 90.3845 	5.70567 	-1.82809e-019 90.3599 	5.71705 	-2.94746e-019 90.3355 	5.72845 	-4.06703e-019 90.3121 	5.73942 	-5.14403e-019 90.2953 	5.74716 	-6.1544e-019 90.2785 	5.7549 	-7.16539e-019 90.2618 	5.76264 	-8.17701e-019 90.2452 	5.7704 	-9.18926e-019 90.1703 	5.76842 	-8.40988e-019 90.2081 	5.7953 	-6.56175e-019 90.1534 	5.8068 	-4.72311e-019 90.099 	5.81832 	-2.88411e-019 90.045 	5.82988 	-1.04474e-019 89.7447 	5.79932 	0 90.0431 	5.86303 	-8.40975e-020 89.9804 	5.86679 	-2.49706e-019 89.9178 	5.87059 	-4.15293e-019 89.8554 	5.8744 	-5.80857e-019 89.3143 	5.79712 	-7.46863e-019 89.8952 	5.89961 	-5.82374e-019 89.8283 	5.89643 	-5.57717e-019 89.7615 	5.89326 	-5.33054e-019 89.6536 	5.8833 	-5.42244e-019 88.9058 	5.76769 	-1.07882e-018 89.5802 	5.87605 	-5.65508e-019 89.6694 	5.8917 	-6.98676e-019 89.6015 	5.88249 	-1.00511e-018 89.2798 	5.83281 	-1.52801e-018 88.5347 	5.71561 	-2.41189e-018 89.1465 	5.80297 	-4.35743e-018 89.4673 	5.8467 	-5.44931e-018 89.4007 	5.83244 	-5.4077e-018 88.9024 	5.75314 	-3.40633e-018 88.2061 	5.64409 	-5.12008e-019 88.7202 	5.70499 	-4.59763e-019 89.1915 	5.75999 	-3.5758e-019 89.1282 	5.74179 	3.54879e-019 88.5248 	5.64869 	1.07087e-018 87.9168 	5.55502 	1.78697e-018 88.3089 	5.58661 	1.07246e-018 88.7012 	5.61822 	3.57964e-019 88.6379 	5.59555 	1.20935e-019 88.1491 	5.5213 	2.87304e-019 87.6591 	5.44694 	4.53793e-019 87.922 	5.44882 	2.65396e-019 88.1845 	5.45067 	7.7038e-020 88.1427 	5.42498 	-1.31584e-019 87.7849 	5.37148 	-4.66414e-019 87.4261 	5.31789 	-8.01384e-019 87.5691 	5.29193 	-3.30218e-018 87.711 	5.26586 	-5.80322e-018 87.6729 	5.23362 	-5.78568e-018 87.4418 	5.20045 	-3.23533e-018 87.2102 	5.16723 	-6.8562e-019 87.253 	5.11753 	-3.0991e-019 87.2802 	5.06954 	6.94357e-021 87.2294 	5.03159 	1.30901e-021 87.1255 	5.01051 	0 87.0056 	4.99454 	0 86.9734 	4.92673 	0 86.9327 	4.86965 	-4.03328e-021 86.8814 	4.82762 	-1.36811e-020 86.8396 	4.80395 	5.98556e-020 86.8088 	4.80032 	2.23787e-019 86.7273 	4.72033 	2.90078e-018 86.6674 	4.66351 	3.69606e-018 86.6178 	4.61811 	3.56131e-018 86.5849 	4.5828 	2.82421e-018 86.6195 	4.58617 	-2.02233e-019 86.5105 	4.49937 	-2.87351e-018 86.4599 	4.4475 	-2.98678e-018 86.4141 	4.39916 	-2.83523e-018 86.3667 	4.35068 	-2.6858e-018 86.44 	4.35354 	-2.55839e-019 86.3305 	4.26897 	5.37563e-020 86.2919 	4.21807 	3.73434e-020 86.2518 	4.16706 	2.09165e-020 86.2101 	4.11591 	4.47552e-021 86.276 	4.10393 	1.16631e-019 86.1852 	4.02683 	6.15911e-020 86.1538 	3.97346 	2.47195e-019 86.1208 	3.91997 	4.32652e-019 86.0861 	3.86637 	6.17964e-019 86.133 	3.839 	8.92558e-019 86.0654 	3.76838 	1.48614e-018 86.0418 	3.71258 	1.64571e-018 86.0166 	3.65668 	1.80606e-018 85.9898 	3.60068 	1.96719e-018 86.016 	3.55978 	1.7262e-018 85.9718 	3.49325 	1.34237e-018 85.9562 	3.43476 	1.59008e-018 85.939 	3.37618 	1.83559e-018 85.9202 	3.31751 	2.0789e-018 85.9282 	3.26568 	2.6842e-018 85.9055 	3.20067 	2.78232e-018 85.8972 	3.13911 	2.51722e-018 85.8873 	3.07749 	2.25404e-018 85.8756 	3.01579 	1.99278e-018 85.8693 	2.95551 	1.65899e-018 85.865 	2.93001 	1.60172e-018 85.8645 	2.90526 	1.44539e-018 85.8638 	2.8805 	1.28946e-018 85.8629 	2.85573 	1.13391e-018 85.8615 	2.82608 	9.48253e-019 85.8581 	2.78719 	6.97898e-019 85.8541 	2.74828 	4.48745e-019 85.8495 	2.70935 	2.00794e-019 85.8443 	2.6704 	-4.59555e-020 85.8392 	2.63282 	-8.66201e-020 85.8382 	2.56294 	-8.70312e-020 85.8395 	2.49511 	-6.45391e-020 85.839 	2.42724 	-4.20702e-020 85.8369 	2.35931 	-1.96243e-020 85.8366 	2.2946 	5.0194e-020 85.833 	2.21838 	0 85.8382 	2.1467 	0 85.8417 	2.07499 	0 85.8435 	2.00323 	0 85.8499 	1.93558 	0 85.8442 	1.85473 	-5.94638e-019 85.852 	1.77965 	-1.31228e-018 85.858 	1.70454 	-2.0308e-018 85.8623 	1.6294 	-2.75019e-018 85.8727 	1.55835 	-3.53922e-018 85.8662 	1.47486 	-3.86784e-018 85.8751 	1.39683 	-3.84249e-018 85.8822 	1.31877 	-3.81519e-018 85.8875 	1.24069 	-3.78596e-018 85.8988 	1.16579 	-3.37179e-018 85.8944 	1.07938 	-1.88151e-018 85.9045 	0.997226 	-8.32913e-019 85.9129 	0.915063 	2.11364e-019 85.9194 	0.832886 	1.25132e-018 85.9304 	0.752659 	1.88537e-018 85.9314 	0.662646 	1.42969e-018 85.9414 	0.575371 	1.01436e-018 85.9496 	0.48809 	5.995e-019 85.9559 	0.400804 	1.85101e-019 85.9622 	0.314081 	-2.43196e-019 85.9624 	0.277217 	-5.1886e-019 85.9657 	0.241115 	-6.02586e-019 85.9687 	0.205013 	-6.85073e-019 85.9714 	0.168911 	-7.66323e-019 85.9732 	0.142076 	-8.25797e-019 85.9759 	0.0839758 	-9.85114e-019 85.9777 	0.0258796 	-1.1425e-018 85.9788 	-0.0322125 	-1.29796e-018 85.979 	-0.0903007 	-1.45148e-018 85.9874 	-0.147533 	-1.83163e-018 85.9855 	-0.24516 	-2.03345e-018 85.9874 	-0.342212 	-2.04002e-018 85.9873 	-0.439248 	-2.04991e-018 85.9851 	-0.536266 	-2.06314e-018 86.006 	-0.630992 	-1.59302e-018 85.988 	-0.733957 	-2.46564e-018 85.985 	-0.835377 	-2.93248e-018 85.9798 	-0.936773 	-3.40228e-018 85.9725 	-1.03814 	-3.87504e-018 86.0067 	-1.1358 	-3.26905e-018 85.9697 	-1.24396 	-2.69801e-018 85.9609 	-1.34957 	-2.30458e-018 85.9498 	-1.45516 	-1.90921e-018 85.9365 	-1.56072 	-1.51189e-018 85.9852 	-1.66123 	-1.61009e-018 85.9265 	-1.77436 	-1.13453e-018 85.911 	-1.88412 	-4.33364e-019 85.8931 	-1.99383 	2.67875e-019 85.8731 	-2.10351 	9.69186e-019 85.9371 	-2.20712 	1.67188e-018 85.8567 	-2.32482 	6.58722e-018 85.8307 	-2.43888 	7.46271e-018 85.8053 	-2.55271 	8.13078e-018 85.7987 	-2.6652 	7.58051e-018 85.8584 	-2.77346 	3.02914e-018 85.7713 	-2.89441 	4.77512e-018 85.7153 	-3.01363 	5.611e-018 85.6817 	-3.13157 	5.77165e-018 85.6963 	-3.24684 	4.6077e-018 85.7451 	-3.36023 	2.48423e-018 85.6502 	-3.48422 	4.5399e-018 85.5606 	-3.6079 	6.25022e-018 85.5186 	-3.72999 	5.74878e-018 85.556 	-3.84876 	2.75302e-018 85.5941 	-3.96741 	-3.31877e-019 85.4898 	-4.094 	-6.068e-018 85.3831 	-4.22052 	-1.18042e-017 85.3436 	-4.34608 	-1.20664e-017 85.3745 	-4.47029 	-6.73212e-018 85.4031 	-4.59452 	-1.39413e-018 85.2878 	-4.723 	-8.22702e-019 85.1699 	-4.8514 	-2.51114e-019 85.1248 	-4.97969 	7.26883e-020 85.1486 	-5.11 	8.46554e-019 85.1699 	-5.24035 	1.61927e-018 85.0416 	-5.37002 	3.78186e-018 84.9425 	-5.50043 	5.16748e-018 84.8958 	-5.63215 	5.21405e-018 84.8737 	-5.76593 	4.31462e-018 84.8907 	-5.90302 	1.97365e-018 84.7478 	-6.03332 	1.19329e-018 84.6862 	-6.16837 	1.5659e-018 84.6299 	-6.30376 	2.04651e-018 84.5711 	-6.43906 	2.52986e-018 84.5604 	-6.58061 	2.99095e-018 84.4636 	-6.68977 	2.87358e-018 84.4139 	-6.80308 	2.70867e-018 84.3625 	-6.91633 	2.54564e-018 84.3093 	-7.02949 	2.38449e-018 84.2622 	-7.12676 	2.24751e-018 84.246 	-7.15604 	2.2332e-018 84.2298 	-7.18531 	2.21911e-018 84.2134 	-7.21457 	2.20525e-018 84.1969 	-7.24383 	2.19162e-018 84.1908 	-7.27351 	1.8416e-018 84.1053 	-7.41519 	1.40891e-018 84.0304 	-7.55849 	1.01865e-018 83.9525 	-7.70163 	6.27265e-019 83.8718 	-7.84461 	2.3476e-019 83.8552 	-7.99243 	-2.26509e-020 83.6963 	-8.1267 	-3.17368e-018 83.6026 	-8.2731 	-3.9055e-018 83.5211 	-8.42206 	-4.10323e-018 83.4884 	-8.57641 	-2.30967e-018 83.4908 	-8.73494 	9.46977e-019 83.3155 	-8.87004 	6.34498e-019 83.1373 	-9.00496 	3.19305e-019 83.0627 	-9.16022 	1.07979e-019 83.0803 	-9.33097 	-9.64349e-021 83.0945 	-9.5018 	-1.30646e-019 82.9093 	-9.64044 	-4.11998e-018 82.7418 	-9.78226 	-7.26376e-018 82.6635 	-9.93912 	-6.63723e-018 82.6335 	-10.1086 	-4.61771e-018 82.6601 	-10.2934 	-9.66885e-019 82.4847 	-10.4417 	2.40285e-018 82.415 	-10.6098 	1.89175e-018 82.342 	-10.7775 	1.3662e-018 82.2656 	-10.945 	8.26182e-019 82.192 	-11.1144 	6.64717e-020 82.1859 	-11.121 	-8.51242e-020 82.1835 	-11.1283 	-4.99256e-020 82.1811 	-11.1357 	-1.47036e-020 82.1787 	-11.143 	2.05419e-020 82.1763 	-11.1502 	5.55943e-020 82.1008 	-11.319 	8.59019e-019 82.0214 	-11.4873 	1.675e-018 81.9383 	-11.6552 	2.50355e-018 81.8513 	-11.8225 	3.34469e-018 81.8632 	-12.0118 	4.82389e-019 81.6836 	-12.1684 	1.26418e-019 81.5405 	-12.3375 	-1.36641e-019 81.4547 	-12.5256 	-2.59674e-019 81.4738 	-12.7377 	-4.67864e-019 81.4908 	-12.9504 	-6.77712e-019 81.3325 	-13.1275 	-2.35317e-018 81.1752 	-13.3052 	-3.90363e-018 81.1036 	-13.5019 	-3.34897e-018 81.0646 	-13.7102 	-2.16736e-018 81.0578 	-13.9309 	-3.53356e-019 80.9667 	-14.0765 	-1.07549e-019 80.9099 	-14.2276 	-6.67728e-020 80.8566 	-14.3793 	-6.00827e-020 80.8009 	-14.5305 	-5.34557e-020 80.7486 	-14.6659 	-4.75679e-020 80.7174 	-14.726 	-3.99414e-020 80.6857 	-14.7861 	-3.23052e-020 80.6535 	-14.8461 	-2.46594e-020 80.6276 	-14.9078 	2.921e-021 80.6239 	-14.9757 	9.92274e-020 80.4888 	-15.1795 	1.59258e-018 80.385 	-15.3956 	2.25691e-018 80.2757 	-15.6108 	2.93083e-018 80.2093 	-15.837 	2.17503e-018 80.1675 	-16.071 	5.2128e-019 80.0377 	-16.2959 	3.70269e-019 79.9022 	-16.5197 	2.20713e-019 79.8019 	-16.749 	6.35373e-020 79.7043 	-16.9789 	0 79.6036 	-17.21 	0 79.5388 	-17.3414 	0 79.4742 	-17.4702 	0 79.4091 	-17.5972 	0 79.3424 	-17.724 	0 79.2791 	-17.8409 	0 79.2126 	-17.9516 	0 79.1448 	-18.0621 	0 79.0756 	-18.1722 	0 79.0159 	-18.2855 	0 78.968 	-18.4029 	0 78.8273 	-18.6523 	0 78.6756 	-18.8984 	0 78.5105 	-19.1391 	-2.996e-020 78.354 	-19.3803 	-2.03935e-019 78.1903 	-19.6224 	-3.79941e-019 78.0619 	-19.8453 	-3.24057e-019 77.9229 	-20.0631 	-3.34098e-019 77.7722 	-20.2748 	-4.21815e-019 77.6168 	-20.4857 	-5.10606e-019 77.4755 	-20.6713 	-5.90065e-019 77.4404 	-20.7167 	-6.54539e-019 77.4052 	-20.762 	-7.19173e-019 77.3697 	-20.8073 	-7.8397e-019 77.3336 	-20.8525 	-7.00864e-019 77.2968 	-20.8977 	-5.34845e-019 77.124 	-21.1715 	5.51748e-019 76.908 	-21.4275 	1.16413e-018 76.6857 	-21.6824 	1.78487e-018 76.4205 	-21.9209 	1.16657e-018 76.1448 	-22.1601 	5.00736e-019 75.9902 	-22.3732 	5.42266e-019 75.818 	-22.5797 	6.97294e-019 75.605 	-22.7697 	1.15862e-018 75.3878 	-22.9588 	1.62281e-018 75.1894 	-23.1275 	2.04156e-018 75.1268 	-23.1966 	2.26394e-018 75.0637 	-23.2656 	2.48687e-018 75.0002 	-23.3344 	2.71036e-018 74.9246 	-23.4 	2.39191e-018 74.844 	-23.4644 	1.87236e-018 74.6323 	-23.7561 	3.11104e-018 74.3837 	-24.0324 	3.89574e-018 74.078 	-24.286 	3.63869e-018 73.6944 	-24.5133 	1.26011e-018 73.2988 	-24.7426 	-1.15115e-018 73.1539 	-24.8915 	-2.50356e-018 72.9976 	-25.0363 	-3.49733e-018 72.7925 	-25.1619 	-2.69318e-018 72.5853 	-25.2871 	-1.88419e-018 72.3908 	-25.4031 	-1.12805e-018 72.2341 	-25.5314 	-4.16904e-019 72.0759 	-25.6595 	2.98136e-019 71.9161 	-25.7873 	1.01709e-018 71.7219 	-25.9008 	7.06131e-019 71.5171 	-26.0117 	1.58756e-019 71.2008 	-26.2972 	1.86925e-018 70.8768 	-26.5812 	3.5818e-018 70.4706 	-26.8287 	3.89172e-018 69.9979 	-27.044 	3.37766e-018 69.4817 	-27.2468 	2.59359e-018 69.4097 	-27.2942 	2.31649e-018 69.3363 	-27.341 	2.0611e-018 69.2436 	-27.3784 	2.16395e-018 69.1506 	-27.4157 	2.26745e-018 69.0596 	-27.4521 	2.36906e-018 68.7124 	-27.6547 	3.93766e-018 68.3607 	-27.8569 	5.53154e-018 68.0045 	-28.0586 	7.15093e-018 67.5688 	-28.2204 	4.3979e-018 67.1119 	-28.3798 	1.08775e-018 66.7756 	-28.5725 	-1.20673e-018 66.4313 	-28.7627 	-3.33695e-018 66.002 	-28.9076 	-1.89993e-018 65.568 	-29.0518 	-4.43667e-019 65.1727 	-29.181 	8.85827e-019 65.0469 	-29.2427 	1.64824e-018 64.9206 	-29.3044 	2.41387e-018 64.7938 	-29.3659 	3.18272e-018 64.6411 	-29.4125 	1.88371e-018 64.4856 	-29.4585 	4.79444e-019 63.9932 	-29.6998 	2.83173e-019 63.4924 	-29.9399 	9.11913e-020 62.9047 	-30.1273 	2.00562e-019 62.2314 	-30.2628 	6.27856e-019 61.5318 	-30.402 	1.0733e-018 61.4043 	-30.4449 	1.18236e-018 61.2765 	-30.4879 	1.29171e-018 61.1267 	-30.5159 	1.39151e-018 60.9746 	-30.5426 	1.49072e-018 60.8264 	-30.5685 	1.58739e-018 60.3549 	-30.7132 	2.61602e-018 59.879 	-30.858 	3.65529e-018 59.3962 	-31.0011 	4.61505e-018 58.8288 	-31.0837 	2.62661e-018 58.2418 	-31.1685 	5.88791e-019 57.8449 	-31.2733 	1.61909e-018 57.4447 	-31.3781 	2.6453e-018 56.9835 	-31.4368 	2.11836e-018 56.5124 	-31.4902 	1.40917e-018 56.0755 	-31.5391 	7.49167e-019 55.8154 	-31.5995 	8.10099e-019 55.5541 	-31.66 	8.70514e-019 55.2883 	-31.7176 	9.27789e-019 54.9861 	-31.7441 	9.56414e-019 54.6777 	-31.771 	9.84951e-019 54.0097 	-31.8989 	5.22122e-019 53.3331 	-32.0265 	5.79094e-020 52.5683 	-32.0769 	-8.25381e-019 51.7834 	-32.1159 	-1.7707e-018 51.0857 	-32.1497 	-2.60413e-018 51.0422 	-32.1567 	-2.61221e-018 50.9987 	-32.1637 	-2.62026e-018 50.9543 	-32.1699 	-2.62845e-018 50.9055 	-32.1711 	-2.63766e-018 50.8564 	-32.1723 	-2.64687e-018 50.1193 	-32.2529 	-4.61383e-018 49.3477 	-32.311 	-5.98579e-018 48.5466 	-32.337 	-6.26603e-018 47.6831 	-32.2807 	-3.78287e-018 46.7675 	-32.2227 	-1.18664e-018 46.6037 	-32.2239 	-1.11071e-018 46.4396 	-32.2252 	-1.03491e-018 46.267 	-32.2043 	-1.15996e-018 46.0911 	-32.1751 	-1.35955e-018 45.919 	-32.1467 	-1.55466e-018 45.283 	-32.1186 	-2.56834e-018 44.642 	-32.0916 	-3.58817e-018 43.9896 	-32.0355 	-4.16782e-018 43.3081 	-31.8637 	-3.02577e-018 42.5926 	-31.685 	-1.83599e-018 42.2584 	-31.6274 	-1.88037e-018 41.9228 	-31.5699 	-1.92406e-018 41.5823 	-31.4586 	-1.63799e-018 41.2395 	-31.3257 	-1.21942e-018 40.9083 	-31.1977 	-8.15578e-019 40.4608 	-31.074 	-3.80007e-020 40.0112 	-30.9506 	7.42057e-019 39.5611 	-30.8029 	1.26811e-018 39.1142 	-30.5712 	9.26534e-019 38.655 	-30.334 	5.77454e-019 38.2027 	-30.1396 	5.63842e-019 37.7487 	-29.9455 	5.5103e-019 37.2946 	-29.6896 	5.29157e-019 36.8401 	-29.4108 	5.04121e-019 36.3984 	-29.1405 	4.8025e-019 36.1486 	-28.9986 	3.08527e-019 35.8985 	-28.8567 	1.36784e-019 35.6502 	-28.7055 	2.55814e-021 35.4101 	-28.5172 	1.51211e-020 35.1683 	-28.3277 	2.77713e-020 34.627 	-27.9624 	2.44448e-020 34.0846 	-27.5973 	2.11558e-020 33.5491 	-27.1772 	3.09288e-020 33.0156 	-26.7415 	4.44237e-020 32.4885 	-26.3109 	5.77574e-020 32.4218 	-26.2543 	6.80393e-020 32.3552 	-26.1977 	7.83204e-020 32.2897 	-26.1401 	8.44289e-020 32.2315 	-26.0759 	6.33521e-020 32.1734 	-26.0117 	4.22853e-020 31.6577 	-25.559 	-4.25237e-020 31.1411 	-25.1033 	-1.22895e-019 30.6385 	-24.6192 	-1.02447e-019 30.1678 	-24.1108 	4.00048e-020 29.7036 	-23.6063 	1.81522e-019 29.5969 	-23.5103 	2.29941e-019 29.4903 	-23.4144 	2.7837e-019 29.3911 	-23.3138 	2.53737e-019 29.293 	-23.2126 	2.17921e-019 29.1947 	-23.111 	1.81987e-019 28.8512 	-22.7451 	1.37824e-019 28.5092 	-22.379 	9.37749e-020 28.1755 	-22.0121 	6.30521e-020 27.8751 	-21.642 	9.2002e-020 27.5818 	-21.2781 	1.20597e-019 27.3627 	-21.0514 	8.50862e-020 27.1442 	-20.8246 	4.95614e-020 26.9448 	-20.5984 	5.47114e-020 26.7496 	-20.3722 	6.76905e-020 26.5514 	-20.1415 	8.08926e-020 26.3897 	-19.9375 	1.15181e-019 26.2287 	-19.7334 	1.49378e-019 26.0706 	-19.5294 	1.72057e-019 25.9259 	-19.3264 	1.24618e-019 25.7843 	-19.1264 	7.78258e-020 25.4924 	-18.7777 	4.96498e-020 25.2029 	-18.429 	2.1413e-020 24.9371 	-18.0834 	6.01657e-020 24.6771 	-17.7383 	1.08428e-019 24.4068 	-17.3755 	1.59016e-019 24.3786 	-17.3338 	1.57477e-019 24.3505 	-17.2922 	1.55942e-019 24.3226 	-17.2505 	1.5464e-019 24.2972 	-1