# vtk DataFile Version 2.0
track0
ASCII
DATASET POLYDATA
POINTS 11930 float
-0.0205 0.001 1e-005
-0.0203851 0.00100536 1.50239e-005
-0.0202701 0.00101047 1.96632e-005
-0.0201551 0.00101536 2.39708e-005
-0.0200401 0.00102 2.79419e-005
-0.0198625 0.00102682 3.35467e-005
-0.0196934 0.00103276 3.80949e-005
-0.0195243 0.0010381 4.16111e-005
-0.0193552 0.00104282 4.41043e-005
-0.019186 0.00104694 4.55838e-005
-0.0190172 0.00105044 4.6058e-005
-0.0187132 0.00105597 4.6058e-005
-0.0184093 0.00106084 4.6058e-005
-0.0181054 0.0010652 4.6058e-005
-0.0178014 0.00106903 4.6058e-005
-0.0174976 0.00107234 4.6058e-005
-0.0172058 0.00107523 4.6058e-005
-0.016914 0.00107803 4.6058e-005
-0.0166222 0.00108077 4.6058e-005
-0.0163305 0.00108344 4.6058e-005
-0.0160387 0.00108605 4.6058e-005
-0.0157586 0.00108846 4.6058e-005
-0.0154784 0.00109079 4.6058e-005
-0.0151983 0.00109304 4.6058e-005
-0.0149182 0.0010952 4.6058e-005
-0.0146381 0.00109729 4.6058e-005
-0.0143692 0.00109917 4.6058e-005
-0.0141002 0.00110095 4.6058e-005
-0.0138313 0.00110265 4.6058e-005
-0.0135624 0.00110428 4.6058e-005
-0.0132934 0.00110583 4.6058e-005
-0.0130353 0.00110724 4.6058e-005
-0.0127771 0.00110859 4.6058e-005
-0.0125189 0.00110991 4.6058e-005
-0.0122607 0.00111118 4.6058e-005
-0.0120025 0.00111242 4.6058e-005
-0.0117547 0.00111357 4.6058e-005
-0.0115068 0.0011147 4.6058e-005
-0.0112589 0.0011158 4.6058e-005
-0.0110111 0.00111689 4.6058e-005
-0.0107632 0.00111796 4.6058e-005
-0.0105252 0.00111896 4.6058e-005
-0.0102873 0.00111996 4.6058e-005
-0.0100493 0.00112094 4.6058e-005
-0.00981133 0.00112191 4.6058e-005
-0.00957337 0.00112286 4.6058e-005
-0.00934491 0.00112377 4.6058e-005
-0.00911645 0.00112466 4.6058e-005
-0.00888799 0.00112555 4.6058e-005
-0.00865954 0.00112643 4.6058e-005
-0.00843108 0.0011273 4.6058e-005
-0.00821175 0.00112813 4.6058e-005
-0.00799242 0.00112895 4.6058e-005
-0.00777309 0.00112976 4.6058e-005
-0.00755376 0.00113057 4.6058e-005
-0.00733443 0.00113138 4.6058e-005
-0.00712387 0.00113215 4.6058e-005
-0.0069133 0.00113291 4.6058e-005
-0.00670273 0.00113367 4.6058e-005
-0.00649216 0.00113443 4.6058e-005
-0.0062816 0.00113519 4.6058e-005
-0.00607944 0.00113592 4.6058e-005
-0.00587729 0.00113664 4.6058e-005
-0.00567514 0.00113736 4.6058e-005
-0.00547298 0.00113808 4.6058e-005
-0.00527083 0.00113879 4.6058e-005
-0.00507675 0.00113949 4.6058e-005
-0.00488267 0.00114017 4.6058e-005
-0.0046886 0.00114086 4.6058e-005
-0.00449452 0.00114154 4.6058e-005
-0.00430044 0.00114223 4.6058e-005
-0.00411412 0.00114289 4.6058e-005
-0.0039278 0.00114355 4.6058e-005
-0.00374147 0.00114421 4.6058e-005
-0.00355515 0.00114486 4.6058e-005
-0.00336883 0.00114552 4.6058e-005
-0.00318995 0.00114616 4.6058e-005
-0.00301107 0.00114679 4.6058e-005
-0.00283219 0.00114743 4.6058e-005
-0.00265331 0.00114806 4.6058e-005
-0.00247443 0.0011487 4.6058e-005
-0.0023027 0.00114931 4.6058e-005
-0.00213097 0.00114993 4.6058e-005
-0.00195924 0.00115054 4.6058e-005
-0.0017875 0.00115115 4.6058e-005
-0.00161577 0.00115177 4.6058e-005
-0.0014509 0.00115238 4.6058e-005
-0.00128603 0.00115298 4.6058e-005
-0.00112116 0.00115357 4.6058e-005
-0.000956289 0.00115417 4.6058e-005
-0.000791418 0.00115478 4.6058e-005
-0.000633135 0.00115538 4.6058e-005
-0.000474851 0.00115598 4.6058e-005
-0.000316567 0.00115657 4.6058e-005
-0.000158284 0.00115717 4.6058e-005
0 0.00115777 4.6058e-005
0.000105677 0.00115819 4.6058e-005
0.000211355 0.0011586 4.6058e-005
0.000317032 0.00115901 4.6058e-005
0.00042271 0.00115942 4.6058e-005
0.000528387 0.00115984 4.6058e-005
0.000634886 0.00116027 4.6058e-005
0.000741385 0.0011607 4.6058e-005
0.000847885 0.00116112 4.6058e-005
0.000954384 0.00116156 4.6058e-005
0.00106088 0.001162 4.6058e-005
0.00116821 0.00116246 4.6058e-005
0.00127554 0.00116291 4.6058e-005
0.00138286 0.00116336 4.6058e-005
0.00149019 0.00116382 4.6058e-005
0.00159752 0.00116428 4.6058e-005
0.00170568 0.00116476 4.6058e-005
0.00181384 0.00116524 4.6058e-005
0.001922 0.00116571 4.6058e-005
0.00203016 0.00116619 4.6058e-005
0.00213833 0.00116667 4.6058e-005
0.00224733 0.00116716 4.6058e-005
0.00235633 0.00116766 4.6058e-005
0.00246533 0.00116815 4.6058e-005
0.00257434 0.00116864 4.6058e-005
0.00268334 0.00116914 4.6058e-005
0.00279319 0.00116963 4.6058e-005
0.00290304 0.00117014 4.6058e-005
0.00301289 0.00117065 4.6058e-005
0.00312274 0.00117115 4.6058e-005
0.00323259 0.00117166 4.6058e-005
0.00334329 0.00117216 4.6058e-005
0.003454 0.00117267 4.6058e-005
0.0035647 0.00117319 4.6058e-005
0.0036754 0.00117371 4.6058e-005
0.00378611 0.00117423 4.6058e-005
0.00389767 0.00117473 4.6058e-005
0.00400924 0.00117526 4.6058e-005
0.0041208 0.00117579 4.6058e-005
0.00423237 0.00117632 4.6058e-005
0.00434393 0.00117684 4.6058e-005
0.00445636 0.00117735 4.6058e-005
0.00456879 0.00117788 4.6058e-005
0.00468123 0.00117842 4.6058e-005
0.00479366 0.00117896 4.6058e-005
0.00490609 0.00117949 4.6058e-005
0.0050194 0.00118 4.6058e-005
0.0051327 0.00118054 4.6058e-005
0.00524601 0.00118108 4.6058e-005
0.00535931 0.00118162 4.6058e-005
0.00547262 0.00118215 4.6058e-005
0.00558681 0.00118267 4.6058e-005
0.005701 0.00118321 4.6058e-005
0.00581518 0.00118375 4.6058e-005
0.00592937 0.00118429 4.6058e-005
0.00604356 0.00118483 4.6058e-005
0.00615863 0.00118535 4.6058e-005
0.00627371 0.00118589 4.6058e-005
0.00638878 0.00118643 4.6058e-005
0.00650386 0.00118697 4.6058e-005
0.00661893 0.00118751 4.6058e-005
0.0067349 0.00118803 4.6058e-005
0.00685087 0.00118857 4.6058e-005
0.00696684 0.00118911 4.6058e-005
0.00708281 0.00118965 4.6058e-005
0.00719878 0.00119019 4.6058e-005
0.00731565 0.00119071 4.6058e-005
0.00743252 0.00119125 4.6058e-005
0.00754939 0.00119178 4.6058e-005
0.00766626 0.00119232 4.6058e-005
0.00778313 0.00119285 4.6058e-005
0.00790091 0.00119337 4.6058e-005
0.00801869 0.0011939 4.6058e-005
0.00813647 0.00119443 4.6058e-005
0.00825425 0.00119496 4.6058e-005
0.00837203 0.00119549 4.6058e-005
0.00849073 0.00119601 4.6058e-005
0.00860942 0.00119654 4.6058e-005
0.00872812 0.00119707 4.6058e-005
0.00884682 0.00119759 4.6058e-005
0.00896551 0.00119811 4.6058e-005
0.00908513 0.00119863 4.6058e-005
0.00920475 0.00119915 4.6058e-005
0.00932437 0.00119968 4.6058e-005
0.00944398 0.00120019 4.6058e-005
0.0095636 0.00120071 4.6058e-005
0.00968415 0.00120122 4.6058e-005
0.0098047 0.00120174 4.6058e-005
0.00992525 0.00120226 4.6058e-005
0.0100458 0.00120277 4.6058e-005
0.0101663 0.00120328 4.6058e-005
0.0102878 0.00120378 4.6058e-005
0.0104093 0.00120429 4.6058e-005
0.0105308 0.0012048 4.6058e-005
0.0106523 0.00120531 4.6058e-005
0.0107738 0.00120581 4.6058e-005
0.0108962 0.00120631 4.6058e-005
0.0110186 0.00120681 4.6058e-005
0.0111411 0.00120731 4.6058e-005
0.0112635 0.0012078 4.6058e-005
0.0113859 0.0012083 4.6058e-005
0.0115093 0.00120878 4.6058e-005
0.0116327 0.00120928 4.6058e-005
0.0117561 0.00120977 4.6058e-005
0.0118795 0.00121025 4.6058e-005
0.0120028 0.00121073 4.6058e-005
0.0121272 0.00121121 4.6058e-005
0.0122515 0.00121169 4.6058e-005
0.0123759 0.00121217 4.6058e-005
0.0125002 0.00121264 4.6058e-005
0.0126245 0.00121312 4.6058e-005
0.0127498 0.00121358 4.6058e-005
0.0128752 0.00121405 4.6058e-005
0.0130005 0.00121451 4.6058e-005
0.0131258 0.00121497 4.6058e-005
0.0132511 0.00121543 4.6058e-005
0.0133774 0.00121588 4.6058e-005
0.0135036 0.00121633 4.6058e-005
0.0136299 0.00121678 4.6058e-005
0.0137562 0.00121723 4.6058e-005
0.0138825 0.00121767 4.6058e-005
0.0140098 0.0012181 4.6058e-005
0.014137 0.00121854 4.6058e-005
0.0142643 0.00121897 4.6058e-005
0.0143915 0.0012194 4.6058e-005
0.0145188 0.00121983 4.6058e-005
0.0146471 0.00122024 4.6058e-005
0.0147753 0.00122066 4.6058e-005
0.0149036 0.00122107 4.6058e-005
0.0150318 0.00122148 4.6058e-005
0.0151601 0.00122189 4.6058e-005
0.0152893 0.00122228 4.6058e-005
0.0154186 0.00122268 4.6058e-005
0.0155478 0.00122307 4.6058e-005
0.0156771 0.00122346 4.6058e-005
0.0158063 0.00122384 4.6058e-005
0.0159366 0.00122421 4.6058e-005
0.0160668 0.00122459 4.6058e-005
0.0161971 0.00122496 4.6058e-005
0.0163274 0.00122532 4.6058e-005
0.0164576 0.00122568 4.6058e-005
0.0165889 0.00122603 4.6058e-005
0.0167201 0.00122638 4.6058e-005
0.0168514 0.00122672 4.6058e-005
0.0169827 0.00122706 4.6058e-005
0.0171139 0.00122739 4.6058e-005
0.0172145 0.00122764 4.6058e-005
0.0173151 0.00122788 4.6058e-005
0.0174156 0.00122813 4.6058e-005
0.0175162 0.00122836 4.6058e-005
0.0176134 0.00122859 4.6058e-005
0.0176458 0.00122866 4.6058e-005
0.0176782 0.00122874 4.6058e-005
0.0177106 0.00122881 4.6058e-005
0.017743 0.00122888 4.6058e-005
0.0177754 0.00122896 4.6058e-005
0.0179087 0.00122925 4.6058e-005
0.018042 0.00122954 4.6058e-005
0.0181753 0.00122983 4.6058e-005
0.0183087 0.0012301 4.6058e-005
0.018442 0.00123037 4.6058e-005
0.0185763 0.00123063 4.6058e-005
0.0187107 0.00123089 4.6058e-005
0.018845 0.00123114 4.6058e-005
0.0189794 0.00123138 4.6058e-005
0.0191137 0.00123161 4.6058e-005
0.0192491 0.00123184 4.6058e-005
0.0193845 0.00123206 4.6058e-005
0.0195199 0.00123227 4.6058e-005
0.0196553 0.00123247 4.6058e-005
0.0197907 0.00123266 4.6058e-005
0.0199272 0.00123285 4.6058e-005
0.0200636 0.00123303 4.6058e-005
0.0202001 0.0012332 4.6058e-005
0.0203365 0.00123336 4.6058e-005
0.020473 0.00123351 4.6058e-005
0.0206105 0.00123365 4.6058e-005
0.020748 0.00123379 4.6058e-005
0.0208855 0.00123391 4.6058e-005
0.021023 0.00123403 4.6058e-005
0.0211606 0.00123413 4.6058e-005
0.0212991 0.00123423 4.6058e-005
0.0214377 0.00123432 4.6058e-005
0.0215763 0.00123439 4.6058e-005
0.0217149 0.00123446 4.6058e-005
0.0218535 0.00123452 4.6058e-005
0.0219931 0.00123457 4.6058e-005
0.0221328 0.0012346 4.6058e-005
0.0222724 0.00123463 4.6058e-005
0.0224121 0.00123465 4.6058e-005
0.0225517 0.00123465 4.6058e-005
0.0226925 0.00123465 4.6058e-005
0.0228332 0.00123463 4.6058e-005
0.022974 0.0012346 4.6058e-005
0.0231147 0.00123456 4.6058e-005
0.0232555 0.00123451 4.6058e-005
0.0233973 0.00123446 4.6058e-005
0.0235391 0.00123439 4.6058e-005
0.023681 0.0012343 4.6058e-005
0.0238228 0.0012342 4.6058e-005
[...]
POINT_DATA 11930
 FIELD attributes 2
p 1 11930 float
-1547.87 -1535.28 -1521.48 -1507.82 -1494.32 -1473.71 -1459.04 -1444.31 -1429.49 -1414.6 -1393.84 -1345.72 -1297.7 -1249.73 -1201.84 -1159.42 -1127.82 -1102.42 -1077.04 -1051.67 -1034.94 -1023.22 -1013.78 -1004.35 -994.92 -987.332 -980.572 -972.674 -964.776 -956.878 -947.851 -939.389 -930.742 -922.09 -913.457 -905.053 -897.063 -889.854 -882.739 -875.78 -869.737 -863.934 -858.708 -853.604 -848.657 -844.308 -840.114 -836.145 -832.246 -828.439 -824.884 -821.448 -818.142 -814.891 -811.715 -808.702 -805.781 -802.987 -800.258 -797.615 -795.119 -792.688 -790.37 -788.123 -785.964 -783.927 -781.932 -780.019 -778.17 -776.397 -774.712 -773.047 -771.443 -769.896 -768.415 -767.003 -765.585 -764.214 -762.892 -761.634 -760.43 -759.198 -758.006 -756.868 -755.8 -754.781 -753.708 -752.662 -751.657 -750.724 -749.836 -748.871 -747.956 -747.13 -746.423 -745.777 -745.064 -744.413 -743.877 -743.476 -743.155 -742.666 -742.219 -741.834 -741.539 -741.314 -740.905 -740.595 -740.398 -740.316 -740.341 -740.186 -740.11 -740.106 -740.166 -740.301 -740.402 -740.493 -740.575 -740.648 -740.709 -740.985 -741.158 -741.269 -741.318 -741.253 -741.644 -741.859 -741.99 -742.034 -741.87 -742.333 -742.573 -742.73 -742.799 -742.59 -743.083 -743.316 -743.477 -743.562 -743.322 -743.781 -743.963 -744.09 -744.165 -743.905 -744.285 -744.411 -744.506 -744.572 -744.338 -744.634 -744.726 -744.805 -744.876 -744.702 -744.92 -744.986 -745.05 -745.115 -745.009 -745.148 -745.195 -745.242 -745.289 -745.244 -745.323 -745.363 -745.403 -745.442 -745.451 -745.5 -745.546 -745.591 -745.637 -745.69 -745.73 -745.784 -745.838 -745.893 -745.974 -746.018 -746.08 -746.143 -746.206 -746.302 -746.36 -746.432 -746.504 -746.576 -746.675 -746.757 -746.84 -746.923 -747.005 -747.103 -747.213 -747.309 -747.405 -747.501 -747.596 -747.734 -747.844 -747.954 -748.064 -748.158 -748.319 -748.442 -748.564 -748.687 -748.782 -748.962 -749.096 -749.23 -749.364 -749.462 -749.656 -749.801 -749.947 -750.092 -750.199 -750.402 -750.559 -750.716 -750.873 -750.995 -751.202 -751.37 -751.538 -751.706 -751.845 -752.056 -752.238 -752.42 -752.601 -752.764 -752.98 -753.178 -753.377 -753.575 -753.765 -753.934 -754.095 -754.257 -754.419 -754.576 -754.628 -754.68 -754.732 -754.784 -754.844 -755.062 -755.288 -755.513 -755.739 -756.007 -756.208 -756.447 -756.687 -756.926 -757.239 -757.429 -757.682 -757.935 -758.188 -758.541 -758.724 -758.99 -759.257 -759.524 -759.907 -760.091 -760.37 -760.65 -760.929 -761.336 -761.528 -761.82 -762.111 -762.403 -762.823 -763.031 -763.334 -763.637 -763.941 -764.364 -764.595 -764.908 -765.222 -765.536 -765.954 -766.213 -766.536 -766.859 -767.183 -767.586 -767.878 -768.209 -768.541 -768.873 -769.255 -769.583 -769.922 -770.262 -770.601 -770.957 -771.323 -771.668 -772.014 -772.36 -772.687 -773.088 -773.442 -773.794 -774.14 -774.441 -774.87 -775.237 -775.594 -775.936 -776.218 -776.667 -777.052 -777.413 -777.746 -778.015 -778.478 -778.88 -779.247 -779.569 -779.83 -780.303 -780.724 -781.096 -781.409 -781.669 -782.15 -782.589 -782.967 -783.27 -783.531 -784.018 -784.475 -784.857 -785.149 -785.41 -785.898 -786.37 -786.754 -787.032 -787.294 -787.777 -788.257 -788.64 -788.909 -789.176 -789.649 -790.123 -790.501 -790.778 -791.056 -791.517 -791.978 -792.355 -792.645 -792.934 -793.382 -793.83 -794.207 -794.511 -794.814 -795.248 -795.682 -796.059 -796.376 -796.693 -797.113 -797.533 -797.908 -798.238 -798.568 -798.974 -799.38 -799.753 -800.093 -800.434 -800.826 -801.218 -801.588 -801.937 -802.287 -802.665 -803.043 -803.41 -803.766 -804.122 -804.488 -804.853 -805.216 -805.577 -805.936 -806.29 -806.645 -807.002 -807.362 -807.723 -808.065 -808.411 -808.763 -809.118 -809.477 -809.807 -810.145 -810.489 -810.837 -811.191 -811.508 -811.838 -812.172 -812.509 -812.855 -813.16 -813.48 -813.803 -814.126 -814.46 -814.751 -815.058 -815.366 -815.673 -815.991 -816.266 -816.556 -816.845 -817.135 -817.433 -817.69 -817.961 -818.231 -818.501 -818.779 -819.018 -819.268 -819.519 -819.769 -820.025 -820.246 -820.475 -820.704 -820.933 -821.165 -821.367 -821.572 -821.777 -821.983 -822.189 -822.2 -822.211 -822.223 -822.234 -822.245 -822.414 -822.583 -822.752 -822.922 -823.089 -823.242 -823.393 -823.544 -823.694 -823.841 -823.965 -824.083 -824.201 -824.32 -824.431 -824.525 -824.609 -824.692 -824.776 -824.85 -824.911 -824.958 -825.004 -825.051 -825.082 -825.11 -825.116 -825.122 -825.126 -825.114 -825.101 -825.068 -825.032 -824.989 -824.933 -824.875 -824.804 -824.722 -824.629 -824.526 -824.423 -824.31 -824.181 -824.035 -823.882 -823.73 -823.576 -823.396 -823.193 -822.989 -822.786 -822.584 -822.351 -822.092 -821.834 -821.578 -821.321 -821.035 -820.72 -820.405 -820.093 -819.781 -819.439 -819.065 -818.692 -818.321 -817.951 -817.551 -817.116 -816.682 -816.251 -815.817 -815.354 -814.862 -814.365 -813.87 -813.366 -812.838 -812.291 -811.728 -811.169 -810.589 -809.995 -809.391 -808.761 -808.134 -807.477 -806.814 -806.15 -805.451 -804.75 -804.016 -803.281 -802.547 -801.787 -801.003 -800.195 -799.387 -798.579 -797.757 -796.887 -796.003 -795.12 -794.236 -793.35 -793.072 -792.79 -792.508 -792.226 -791.95 -791.273 -790.597 -789.92 -789.244 -788.557 -787.533 -786.498 -785.463 -784.428 -783.367 -782.278 -781.162 -780.046 -778.931 -777.77 -776.617 -775.418 -774.22 -773.014 -771.759 -770.525 -769.257 -767.974 -766.665 -765.324 -764.005 -762.67 -761.301 -759.886 -758.458 -757.051 -755.645 -754.185 -752.669 -751.152 -749.657 -748.163 -746.613 -745.007 -743.401 -741.816 -740.232 -738.59 -736.893 -735.196 -733.521 -731.835 -730.096 -728.322 -726.534 -724.767 -722.965 -721.133 -719.289 -717.408 -715.548 -713.628 -711.704 -709.78 -707.814 -705.841 -703.822 -701.803 -699.785 -697.748 -696.111 -694.454 -692.797 -691.14 -689.567 -689.097 -688.627 -688.157 -687.687 -687.212 -685.022 -682.827 -680.632 -678.439 -676.211 -673.95 -671.661 -669.372 -667.084 -664.732 -662.391 -660.017 -657.634 -655.222 -652.775 -650.339 -647.896 -645.418 -642.881 -640.339 -637.81 -635.281 -632.699 -630.063 -627.427 -624.803 -622.18 -619.498 -616.769 -614.039 -611.322 -608.578 -605.797 -603.001 -600.178 -597.368 -594.498 -591.624 -588.75 -585.847 -582.916 -579.95 -576.984 -574.018 -571.052 -570.975 -570.897 -570.819 -570.741 -570.664 -567.691 -564.719 -561.748 -558.777 -555.782 -552.658 -549.52 -546.382 -543.242 -540.059 -536.855 -533.638 -530.413 -527.161 -523.892 -520.601 -517.311 -513.995 -510.641 -507.287 -503.911 -500.536 -497.127 -493.69 -490.253 -486.795 -483.323 -479.824 -476.318 -472.801 -469.262 -465.686 -462.107 -458.529 -454.941 -452.29 -449.622 -446.954 -444.286 -441.724 -440.717 -439.71 -438.703 -437.696 -436.681 -432.96 -429.235 -425.511 -421.787 -418.029 -414.248 -410.451 -406.655 -402.842 -399.004 -395.152 -391.298 -387.43 -383.525 -379.619 -375.698 -371.778 -367.829 -363.859 -359.888 -355.902 -351.904 -347.883 -343.859 -339.827 -335.777 -331.695 -327.614 -323.534 -319.449 -317.8 -316.142 -314.484 -312.827 -311.203 -308.717 -306.232 -303.747 -301.262 -298.762 -294.578 -290.388 -286.2 -282.008 -277.786 -273.553 -269.317 -265.077 -260.813 -256.542 -252.259 -247.977 -243.678 -239.363 -235.046 -230.718 -226.384 -222.03 -217.675 -213.317 -208.946 -204.552 -200.158 -195.765 -191.37 -189.864 -188.352 -186.841 -185.329 -183.842 -180.918 -177.995 -175.071 -172.148 -169.212 -164.749 -160.286 -155.822 -151.354 -146.867 -142.373 -137.879 -133.385 -128.872 -124.357 -119.834 -115.312 -110.776 -106.236 -101.695 -97.1452 -92.5874 -88.0247 -83.4624 -78.9008 -75.5666 -72.2276 -68.8888 -65.5503 -62.3178 -61.0551 -59.7925 -58.5299 -57.2673 -56.0019 -51.4037 -46.8069 -42.2107 -37.6145 -33.0045 -28.3894 -23.777 -19.1676 -14.5499 -9.92893 -5.30219 -0.676031 3.95295 8.57828 13.2057 17.8395 22.4749 27.1115 31.7477 36.3789 39.4909 42.6036 45.716 48.8282 51.856 53.4008 54.9456 56.4904 58.0351 59.5811 64.2287 68.872 73.5149 78.1576 82.8034 87.4526 92.0993 96.7376 101.375 106.014 110.657 115.299 119.938 124.567 129.196 133.83 138.458 143.085 147.711 152.336 153.489 154.64 155.792 156.943 158.084 161.555 165.026 168.498 171.968 175.436 180.056 184.664 189.27 193.871 198.471 203.072 207.672 212.262 216.838 221.418 225.998 230.571 235.139 239.706 244.264 246.67 249.069 251.469 253.868 256.223 258.382 260.54 262.698 264.856 267.009 271.548 276.077 280.605 285.127 289.643 294.157 298.671 303.168 307.652 312.138 316.621 321.096 325.562 330.027 334.48 336.895 339.299 341.703 344.107 346.47 348.513 350.555 352.598 354.64 356.675 361.097 365.508 369.919 374.32 378.714 383.102 387.489 391.859 396.212 400.568 404.916 409.252 413.578 417.904 422.225 423.615 424.999 426.383 427.767 429.138 432.053 434.969 437.885 440.799 443.701 447.974 452.237 456.495 460.736 464.974 469.202 473.429 477.635 481.828 486.02 489.769 493.498 497.225 500.951 504.598 505.045 505.492 505.939 506.386 506.831 510.96 515.086 519.212 523.332 527.436 531.524 535.613 539.681 543.73 547.781 551.816 555.837 559.845 563.853 567.854 568.924 569.987 571.049 572.111 573.168 576.076 578.983 581.89 584.794 587.681 591.613 595.54 599.453 603.339 607.226 611.096 614.958 618.796 622.634 626.457 628.049 629.63 631.208 632.786 634.357 636.569 638.78 640.991 643.198 645.39 649.14 652.878 656.608 660.304 663.999 667.676 671.345 674.981 678.614 682.224 683.82 685.404 686.985 688.566 690.154 692.148 694.143 696.137 698.127 700.104 703.644 707.152 710.637 714.036 717.429 720.801 724.202 727.717 731.238 734.811 736.398 737.689 738.885 740.081 741.303 743.028 744.753 746.478 748.095 749.355 751.604 754.43 757.548 762.19 766.988 771.669 775.69 778.152 780.619 782.803 782.933 783.092 783.297 783.501 783.706 785.582 787.459 789.338 791.721 794.427 797.398 800.354 803.175 805.997 808.761 809.24 809.709 810.16 810.611 811.069 813.353 815.635 817.916 820.122 822.281 824.904 827.525 830.043 832.556 835.008 835.561 836.101 836.617 837.133 837.665 839.564 841.461 843.355 845.176 846.95 849.228 851.502 853.604 855.643 857.62 858.241 858.834 859.38 859.926 860.504 861.805 863.102 864.396 865.604 866.746 868.376 870 871.426 872.637 873.839 874.463 875.003 875.446 875.886 876.382 876.834 877.285 877.733 878.12 878.436 879.058 879.583 879.964 880.011 880.047 879.947 879.628 879.091 878.546 877.925 877.823 877.688 877.533 877.379 877.22 876.231 875.229 874.214 873.061 871.615 869.774 867.92 865.628 862.92 860.199 857.218 853.827 850.198 846.562 842.768 841.939 841.003 840.049 839.095 838.081 834.339 830.586 826.821 823.004 818.734 813.032 807.051 800.777 793.741 786.619 779.026 771.42 763.228 754.586 745.868 736.625 726.184 715.476 704.766 693.58 689.085 684.583 680.08 675.576 670.49 662.768 655.042 647.31 639.574 631.798 617.987 602.246 586.472 569.697 550.331 529.991 510.204 492.622 478.675 464.756 450.088 435.422 407.935 368.092 328.215 286.542 253.821 237.408 228.582 231.538 234.304 177.257 119.83 62.1078 0