# vtk DataFile Version 2.0
track0
ASCII
DATASET POLYDATA
POINTS 11930 float
-0.0205 0.001 1e-005
-0.0203851 0.00100536 1.50243e-005
-0.0202701 0.00101047 1.96641e-005
-0.0201551 0.00101535 2.3972e-005
-0.0200401 0.00102 2.79434e-005
-0.0198624 0.00102682 3.35514e-005
-0.0196933 0.00103276 3.80983e-005
-0.0195242 0.00103809 4.16135e-005
-0.0193551 0.00104281 4.41061e-005
-0.019186 0.00104693 4.55854e-005
-0.0190172 0.00105042 4.60598e-005
-0.0187132 0.00105593 4.60598e-005
-0.0184093 0.0010608 4.60598e-005
-0.0181054 0.00106514 4.60598e-005
-0.0178014 0.00106895 4.60598e-005
-0.0174976 0.00107224 4.60598e-005
-0.0172058 0.00107511 4.60598e-005
-0.016914 0.00107789 4.60598e-005
-0.0166222 0.00108061 4.60598e-005
-0.0163305 0.00108326 4.60598e-005
-0.0160387 0.00108585 4.60598e-005
-0.0157586 0.00108824 4.60598e-005
-0.0154784 0.00109056 4.60598e-005
-0.0151983 0.0010928 4.60598e-005
-0.0149182 0.00109496 4.60598e-005
-0.0146381 0.00109704 4.60598e-005
-0.0143692 0.00109891 4.60598e-005
-0.0141002 0.00110068 4.60598e-005
-0.0138313 0.00110238 4.60598e-005
-0.0135624 0.00110401 4.60598e-005
-0.0132934 0.00110555 4.60598e-005
-0.0130353 0.00110696 4.60598e-005
-0.0127771 0.00110831 4.60598e-005
-0.0125189 0.00110963 4.60598e-005
-0.0122607 0.00111091 4.60598e-005
-0.0120025 0.00111215 4.60598e-005
-0.0117547 0.0011133 4.60598e-005
-0.0115068 0.00111443 4.60598e-005
-0.0112589 0.00111555 4.60598e-005
-0.0110111 0.00111665 4.60598e-005
-0.0107632 0.00111773 4.60598e-005
-0.0105252 0.00111874 4.60598e-005
-0.0102873 0.00111974 4.60598e-005
-0.0100493 0.00112073 4.60598e-005
-0.00981133 0.00112171 4.60598e-005
-0.00957337 0.00112268 4.60598e-005
-0.00934491 0.00112359 4.60598e-005
-0.00911645 0.00112449 4.60598e-005
-0.00888799 0.00112538 4.60598e-005
-0.00865954 0.00112627 4.60598e-005
-0.00843108 0.00112714 4.60598e-005
-0.00821175 0.00112797 4.60598e-005
-0.00799242 0.0011288 4.60598e-005
-0.00777309 0.00112961 4.60598e-005
-0.00755376 0.00113042 4.60598e-005
-0.00733443 0.00113123 4.60598e-005
-0.00712387 0.001132 4.60598e-005
-0.0069133 0.00113277 4.60598e-005
-0.00670273 0.00113353 4.60598e-005
-0.00649216 0.00113429 4.60598e-005
-0.0062816 0.00113504 4.60598e-005
-0.00607944 0.00113577 4.60598e-005
-0.00587729 0.00113649 4.60598e-005
-0.00567514 0.0011372 4.60598e-005
-0.00547298 0.00113792 4.60598e-005
-0.00527083 0.00113864 4.60598e-005
-0.00507675 0.00113933 4.60598e-005
-0.00488267 0.00114001 4.60598e-005
-0.0046886 0.00114069 4.60598e-005
-0.00449452 0.00114137 4.60598e-005
-0.00430044 0.00114206 4.60598e-005
-0.00411412 0.00114272 4.60598e-005
-0.0039278 0.00114337 4.60598e-005
-0.00374147 0.00114402 4.60598e-005
-0.00355515 0.00114468 4.60598e-005
-0.00336883 0.00114533 4.60598e-005
-0.00318995 0.00114597 4.60598e-005
-0.00301107 0.0011466 4.60598e-005
-0.00283219 0.00114723 4.60598e-005
-0.00265331 0.00114785 4.60598e-005
-0.00247443 0.00114849 4.60598e-005
-0.0023027 0.0011491 4.60598e-005
-0.00213097 0.00114971 4.60598e-005
-0.00195924 0.00115032 4.60598e-005
-0.0017875 0.00115093 4.60598e-005
-0.00161577 0.00115155 4.60598e-005
-0.0014509 0.00115215 4.60598e-005
-0.00128603 0.00115274 4.60598e-005
-0.00112116 0.00115333 4.60598e-005
-0.000956289 0.00115393 4.60598e-005
-0.000791418 0.00115453 4.60598e-005
-0.000633135 0.00115513 4.60598e-005
-0.000474851 0.00115572 4.60598e-005
-0.000316567 0.0011563 4.60598e-005
-0.000158284 0.0011569 4.60598e-005
0 0.0011575 4.60598e-005
0.000105677 0.00115791 4.60598e-005
0.000211355 0.00115832 4.60598e-005
0.000317032 0.00115873 4.60598e-005
0.00042271 0.00115914 4.60598e-005
0.000528387 0.00115956 4.60598e-005
0.000634886 0.00115999 4.60598e-005
0.000741385 0.00116042 4.60598e-005
0.000847885 0.00116085 4.60598e-005
0.000954384 0.00116128 4.60598e-005
0.00106088 0.00116173 4.60598e-005
0.00116821 0.00116218 4.60598e-005
0.00127554 0.00116264 4.60598e-005
0.00138286 0.00116309 4.60598e-005
0.00149019 0.00116355 4.60598e-005
0.00159752 0.00116401 4.60598e-005
0.00170568 0.00116449 4.60598e-005
0.00181384 0.00116496 4.60598e-005
0.001922 0.00116544 4.60598e-005
0.00203016 0.00116591 4.60598e-005
0.00213833 0.00116639 4.60598e-005
0.00224733 0.00116688 4.60598e-005
0.00235633 0.00116737 4.60598e-005
0.00246533 0.00116786 4.60598e-005
0.00257434 0.00116835 4.60598e-005
0.00268334 0.00116884 4.60598e-005
0.00279319 0.00116934 4.60598e-005
0.00290304 0.00116984 4.60598e-005
0.00301289 0.00117035 4.60598e-005
0.00312274 0.00117085 4.60598e-005
0.00323259 0.00117135 4.60598e-005
0.00334329 0.00117185 4.60598e-005
0.003454 0.00117237 4.60598e-005
0.0035647 0.00117289 4.60598e-005
0.0036754 0.0011734 4.60598e-005
0.00378611 0.00117392 4.60598e-005
0.00389767 0.00117442 4.60598e-005
0.00400924 0.00117495 4.60598e-005
0.0041208 0.00117548 4.60598e-005
0.00423237 0.001176 4.60598e-005
0.00434393 0.00117653 4.60598e-005
0.00445636 0.00117704 4.60598e-005
0.00456879 0.00117757 4.60598e-005
0.00468123 0.0011781 4.60598e-005
0.00479366 0.00117863 4.60598e-005
0.00490609 0.00117916 4.60598e-005
0.0050194 0.00117968 4.60598e-005
0.0051327 0.00118021 4.60598e-005
0.00524601 0.00118075 4.60598e-005
0.00535931 0.00118129 4.60598e-005
0.00547262 0.00118182 4.60598e-005
0.00558681 0.00118234 4.60598e-005
0.005701 0.00118287 4.60598e-005
0.00581518 0.00118342 4.60598e-005
0.00592937 0.00118396 4.60598e-005
0.00604356 0.00118449 4.60598e-005
0.00615863 0.00118501 4.60598e-005
0.00627371 0.00118555 4.60598e-005
0.00638878 0.00118609 4.60598e-005
0.00650386 0.00118663 4.60598e-005
0.00661893 0.00118717 4.60598e-005
0.0067349 0.00118769 4.60598e-005
0.00685087 0.00118823 4.60598e-005
0.00696684 0.00118877 4.60598e-005
0.00708281 0.00118931 4.60598e-005
0.00719878 0.00118985 4.60598e-005
0.00731565 0.00119037 4.60598e-005
0.00743252 0.0011909 4.60598e-005
0.00754939 0.00119144 4.60598e-005
0.00766626 0.00119197 4.60598e-005
0.00778313 0.00119251 4.60598e-005
0.00790091 0.00119303 4.60598e-005
0.00801869 0.00119356 4.60598e-005
0.00813647 0.00119409 4.60598e-005
0.00825425 0.00119462 4.60598e-005
0.00837203 0.00119515 4.60598e-005
0.00849073 0.00119567 4.60598e-005
0.00860942 0.00119619 4.60598e-005
0.00872812 0.00119672 4.60598e-005
0.00884682 0.00119724 4.60598e-005
0.00896551 0.00119777 4.60598e-005
0.00908513 0.00119828 4.60598e-005
0.00920475 0.0011988 4.60598e-005
0.00932437 0.00119932 4.60598e-005
0.00944398 0.00119984 4.60598e-005
0.0095636 0.00120036 4.60598e-005
0.00968415 0.00120087 4.60598e-005
0.0098047 0.00120138 4.60598e-005
0.00992525 0.0012019 4.60598e-005
0.0100458 0.00120241 4.60598e-005
0.0101663 0.00120292 4.60598e-005
0.0102878 0.00120342 4.60598e-005
0.0104093 0.00120393 4.60598e-005
0.0105308 0.00120443 4.60598e-005
0.0106523 0.00120494 4.60598e-005
0.0107738 0.00120544 4.60598e-005
0.0108962 0.00120593 4.60598e-005
0.0110186 0.00120643 4.60598e-005
0.0111411 0.00120693 4.60598e-005
0.0112635 0.00120742 4.60598e-005
0.0113859 0.00120791 4.60598e-005
0.0115093 0.0012084 4.60598e-005
0.0116327 0.00120889 4.60598e-005
0.0117561 0.00120937 4.60598e-005
0.0118795 0.00120986 4.60598e-005
0.0120028 0.00121034 4.60598e-005
0.0121272 0.00121081 4.60598e-005
0.0122515 0.00121129 4.60598e-005
0.0123759 0.00121177 4.60598e-005
0.0125002 0.00121224 4.60598e-005
0.0126245 0.00121271 4.60598e-005
0.0127498 0.00121317 4.60598e-005
0.0128752 0.00121363 4.60598e-005
0.0130005 0.0012141 4.60598e-005
0.0131258 0.00121455 4.60598e-005
0.0132511 0.00121501 4.60598e-005
0.0133774 0.00121546 4.60598e-005
0.0135036 0.00121591 4.60598e-005
0.0136299 0.00121636 4.60598e-005
0.0137562 0.0012168 4.60598e-005
0.0138825 0.00121724 4.60598e-005
0.0140098 0.00121767 4.60598e-005
0.014137 0.00121811 4.60598e-005
0.0142643 0.00121854 4.60598e-005
0.0143915 0.00121896 4.60598e-005
0.0145188 0.00121938 4.60598e-005
0.0146471 0.0012198 4.60598e-005
0.0147753 0.00122021 4.60598e-005
0.0149036 0.00122063 4.60598e-005
0.0150318 0.00122103 4.60598e-005
0.0151601 0.00122144 4.60598e-005
0.0152893 0.00122183 4.60598e-005
0.0154186 0.00122222 4.60598e-005
0.0155478 0.00122262 4.60598e-005
0.0156771 0.001223 4.60598e-005
0.0158063 0.00122338 4.60598e-005
0.0159366 0.00122375 4.60598e-005
0.0160668 0.00122412 4.60598e-005
0.0161971 0.00122449 4.60598e-005
0.0163274 0.00122485 4.60598e-005
0.0164576 0.0012252 4.60598e-005
0.0165889 0.00122555 4.60598e-005
0.0167201 0.0012259 4.60598e-005
0.0168514 0.00122624 4.60598e-005
0.0169827 0.00122657 4.60598e-005
0.0171139 0.0012269 4.60598e-005
0.0172032 0.00122711 4.60598e-005
0.0172925 0.00122733 4.60598e-005
0.0173818 0.00122754 4.60598e-005
0.0174711 0.00122775 4.60598e-005
0.0175577 0.00122795 4.60598e-005
0.0176012 0.00122805 4.60598e-005
0.0176448 0.00122815 4.60598e-005
0.0176883 0.00122825 4.60598e-005
0.0177319 0.00122834 4.60598e-005
0.0177754 0.00122844 4.60598e-005
0.0179087 0.00122873 4.60598e-005
0.018042 0.00122901 4.60598e-005
0.0181753 0.00122929 4.60598e-005
0.0183087 0.00122956 4.60598e-005
0.018442 0.00122982 4.60598e-005
0.0185763 0.00123008 4.60598e-005
0.0187107 0.00123032 4.60598e-005
0.018845 0.00123056 4.60598e-005
0.0189794 0.0012308 4.60598e-005
0.0191137 0.00123102 4.60598e-005
0.0192491 0.00123124 4.60598e-005
0.0193845 0.00123145 4.60598e-005
0.0195199 0.00123165 4.60598e-005
0.0196553 0.00123184 4.60598e-005
0.0197907 0.00123202 4.60598e-005
0.0199272 0.0012322 4.60598e-005
0.0200636 0.00123236 4.60598e-005
0.0202001 0.00123252 4.60598e-005
0.0203365 0.00123267 4.60598e-005
0.020473 0.00123281 4.60598e-005
0.0206105 0.00123294 4.60598e-005
0.020748 0.00123306 4.60598e-005
0.0208855 0.00123317 4.60598e-005
0.021023 0.00123328 4.60598e-005
0.0211606 0.00123337 4.60598e-005
0.0212991 0.00123345 4.60598e-005
0.0214377 0.00123352 4.60598e-005
0.0215763 0.00123359 4.60598e-005
0.0217149 0.00123364 4.60598e-005
0.0218535 0.00123368 4.60598e-005
0.0219931 0.00123372 4.60598e-005
0.0221328 0.00123374 4.60598e-005
0.0222724 0.00123375 4.60598e-005
0.0224121 0.00123375 4.60598e-005
0.0225517 0.00123374 4.60598e-005
0.0226925 0.00123372 4.60598e-005
[...]
POINT_DATA 11930
 FIELD attributes 2
p 1 11930 float
-1546.57 -1533.99 -1520.21 -1506.57 -1493.08 -1472.48 -1457.84 -1443.12 -1428.33 -1413.46 -1392.73 -1344.64 -1296.63 -1248.68 -1200.8 -1158.34 -1126.71 -1101.25 -1075.79 -1050.35 -1033.52 -1021.75 -1012.27 -1002.78 -993.307 -985.681 -978.915 -971 -963.086 -955.171 -946.116 -937.647 -928.986 -920.321 -911.674 -903.253 -895.266 -888.064 -880.952 -873.992 -867.949 -862.164 -856.955 -851.868 -846.935 -842.597 -838.43 -834.486 -830.611 -826.824 -823.282 -819.874 -816.594 -813.366 -810.21 -807.209 -804.312 -801.539 -798.83 -796.203 -793.716 -791.302 -788.999 -786.766 -784.618 -782.588 -780.603 -778.699 -776.859 -775.092 -773.412 -771.751 -770.15 -768.606 -767.129 -765.719 -764.3 -762.928 -761.606 -760.349 -759.147 -757.91 -756.715 -755.574 -754.504 -753.485 -752.404 -751.351 -750.34 -749.403 -748.513 -747.538 -746.614 -745.779 -745.064 -744.414 -743.691 -743.031 -742.485 -742.076 -741.749 -741.252 -740.797 -740.403 -740.101 -739.869 -739.452 -739.137 -738.938 -738.855 -738.882 -738.722 -738.644 -738.638 -738.697 -738.833 -738.928 -739.01 -739.085 -739.152 -739.207 -739.474 -739.642 -739.751 -739.802 -739.743 -740.133 -740.352 -740.494 -740.551 -740.403 -740.871 -741.113 -741.274 -741.347 -741.141 -741.631 -741.851 -742 -742.075 -741.822 -742.271 -742.436 -742.548 -742.609 -742.335 -742.709 -742.827 -742.914 -742.975 -742.734 -743.032 -743.124 -743.205 -743.278 -743.103 -743.329 -743.401 -743.473 -743.544 -743.441 -743.592 -743.648 -743.705 -743.761 -743.721 -743.814 -743.864 -743.914 -743.965 -743.979 -744.041 -744.097 -744.153 -744.208 -744.266 -744.318 -744.38 -744.442 -744.504 -744.589 -744.641 -744.709 -744.777 -744.844 -744.941 -745.006 -745.08 -745.154 -745.229 -745.327 -745.413 -745.496 -745.579 -745.663 -745.758 -745.87 -745.965 -746.061 -746.156 -746.25 -746.388 -746.497 -746.606 -746.716 -746.808 -746.97 -747.092 -747.214 -747.336 -747.43 -747.609 -747.743 -747.877 -748.011 -748.109 -748.302 -748.447 -748.592 -748.738 -748.845 -749.047 -749.204 -749.361 -749.518 -749.641 -749.847 -750.015 -750.184 -750.352 -750.493 -750.703 -750.885 -751.067 -751.249 -751.413 -751.628 -751.827 -752.025 -752.224 -752.415 -752.565 -752.709 -752.852 -752.996 -753.135 -753.205 -753.275 -753.345 -753.415 -753.496 -753.71 -753.935 -754.159 -754.384 -754.655 -754.85 -755.087 -755.324 -755.561 -755.875 -756.058 -756.308 -756.557 -756.807 -757.158 -757.333 -757.595 -757.856 -758.117 -758.497 -758.672 -758.945 -759.217 -759.49 -759.891 -760.073 -760.357 -760.64 -760.924 -761.337 -761.534 -761.828 -762.122 -762.416 -762.831 -763.051 -763.355 -763.659 -763.964 -764.372 -764.621 -764.935 -765.249 -765.562 -765.956 -766.239 -766.562 -766.885 -767.208 -767.581 -767.901 -768.233 -768.565 -768.897 -769.245 -769.604 -769.943 -770.283 -770.622 -770.943 -771.339 -771.689 -772.036 -772.377 -772.675 -773.099 -773.465 -773.82 -774.158 -774.439 -774.886 -775.272 -775.633 -775.965 -776.235 -776.699 -777.104 -777.473 -777.797 -778.062 -778.538 -778.964 -779.341 -779.658 -779.924 -780.411 -780.858 -781.243 -781.552 -781.821 -782.316 -782.783 -783.174 -783.473 -783.744 -784.243 -784.725 -785.12 -785.408 -785.682 -786.176 -786.668 -787.063 -787.344 -787.625 -788.11 -788.596 -788.987 -789.279 -789.57 -790.044 -790.519 -790.909 -791.212 -791.516 -791.977 -792.438 -792.828 -793.144 -793.46 -793.907 -794.353 -794.741 -795.07 -795.398 -795.83 -796.261 -796.646 -796.986 -797.326 -797.742 -798.157 -798.539 -798.888 -799.237 -799.637 -800.038 -800.416 -800.772 -801.127 -801.512 -801.897 -802.27 -802.631 -802.991 -803.361 -803.731 -804.098 -804.461 -804.823 -805.179 -805.537 -805.896 -806.257 -806.618 -806.96 -807.306 -807.658 -808.012 -808.369 -808.697 -809.033 -809.374 -809.718 -810.068 -810.382 -810.707 -811.037 -811.368 -811.708 -812.007 -812.321 -812.637 -812.954 -813.28 -813.565 -813.865 -814.165 -814.465 -814.775 -815.043 -815.325 -815.607 -815.89 -816.181 -816.431 -816.694 -816.957 -817.22 -817.492 -817.723 -817.965 -818.207 -818.45 -818.699 -818.911 -819.131 -819.351 -819.571 -819.794 -819.986 -820.182 -820.377 -820.573 -820.769 -820.772 -820.775 -820.778 -820.781 -820.783 -820.951 -821.118 -821.285 -821.453 -821.619 -821.761 -821.901 -822.041 -822.181 -822.317 -822.431 -822.539 -822.647 -822.754 -822.855 -822.939 -823.013 -823.086 -823.16 -823.224 -823.276 -823.313 -823.349 -823.387 -823.409 -823.428 -823.425 -823.423 -823.419 -823.399 -823.377 -823.338 -823.293 -823.243 -823.18 -823.116 -823.038 -822.95 -822.85 -822.742 -822.632 -822.515 -822.38 -822.228 -822.072 -821.915 -821.756 -821.572 -821.366 -821.158 -820.952 -820.746 -820.511 -820.25 -819.99 -819.731 -819.473 -819.185 -818.87 -818.554 -818.241 -817.928 -817.585 -817.212 -816.839 -816.469 -816.098 -815.699 -815.266 -814.833 -814.403 -813.97 -813.508 -813.019 -812.524 -812.031 -811.528 -811.003 -810.458 -809.899 -809.342 -808.765 -808.174 -807.573 -806.947 -806.323 -805.67 -805.011 -804.352 -803.657 -802.96 -802.23 -801.5 -800.771 -800.016 -799.237 -798.434 -797.632 -796.83 -796.013 -795.149 -794.271 -793.393 -792.516 -791.636 -791.404 -791.17 -790.935 -790.701 -790.47 -789.753 -789.036 -788.319 -787.603 -786.875 -785.858 -784.83 -783.802 -782.774 -781.719 -780.639 -779.53 -778.421 -777.312 -776.158 -775.013 -773.822 -772.631 -771.431 -770.184 -768.958 -767.697 -766.422 -765.12 -763.786 -762.475 -761.147 -759.786 -758.378 -756.957 -755.558 -754.16 -752.707 -751.198 -749.689 -748.201 -746.714 -745.172 -743.573 -741.974 -740.396 -738.819 -737.185 -735.495 -733.804 -732.136 -730.456 -728.724 -726.957 -725.175 -723.414 -721.617 -719.792 -717.954 -716.079 -714.225 -712.31 -710.391 -708.472 -706.512 -704.544 -702.529 -700.515 -698.502 -696.47 -694.877 -693.263 -691.649 -690.036 -688.502 -687.994 -687.485 -686.977 -686.469 -685.954 -683.768 -681.576 -679.385 -677.194 -674.969 -672.711 -670.424 -668.138 -665.852 -663.502 -661.163 -658.791 -656.409 -653.998 -651.552 -649.118 -646.676 -644.2 -641.662 -639.12 -636.591 -634.063 -631.481 -628.845 -626.208 -623.584 -620.961 -618.278 -615.548 -612.818 -610.1 -607.355 -604.573 -601.776 -598.952 -596.141 -593.269 -590.394 -587.519 -584.615 -581.682 -578.714 -575.747 -572.78 -569.813 -569.776 -569.738 -569.7 -569.662 -569.624 -566.61 -563.597 -560.584 -557.572 -554.536 -551.411 -548.271 -545.132 -541.991 -538.807 -535.602 -532.383 -529.158 -525.905 -522.635 -519.343 -516.053 -512.736 -509.382 -506.028 -502.652 -499.277 -495.867 -492.431 -488.995 -485.538 -482.066 -478.568 -475.064 -471.549 -468.011 -464.437 -460.86 -457.285 -453.699 -451.091 -448.465 -445.841 -443.216 -440.693 -439.647 -438.601 -437.555 -436.509 -435.455 -431.738 -428.017 -424.297 -420.578 -416.824 -413.048 -409.257 -405.466 -401.658 -397.827 -393.98 -390.133 -386.271 -382.374 -378.475 -374.561 -370.648 -366.707 -362.745 -358.783 -354.805 -350.815 -346.803 -342.788 -338.765 -334.724 -330.652 -326.581 -322.51 -318.434 -316.798 -315.154 -313.509 -311.865 -310.253 -307.765 -305.277 -302.789 -300.301 -297.799 -293.625 -289.446 -285.268 -281.087 -276.875 -272.653 -268.427 -264.198 -259.945 -255.685 -251.413 -247.142 -242.853 -238.549 -234.243 -229.925 -225.601 -221.257 -216.913 -212.564 -208.203 -203.819 -199.434 -195.051 -190.664 -189.115 -187.56 -186.006 -184.451 -182.922 -180.049 -177.177 -174.305 -171.433 -168.549 -164.093 -159.636 -155.18 -150.718 -146.237 -141.749 -137.261 -132.772 -128.263 -123.752 -119.233 -114.714 -110.181 -105.643 -101.103 -96.554 -91.9968 -87.4338 -82.8712 -78.3083 -74.8862 -71.4577 -68.0294 -64.6015 -61.2871 -60.1091 -58.9312 -57.7534 -56.5755 -55.3945 -50.7904 -46.1872 -41.5846 -36.9822 -32.363 -27.7393 -23.1176 -18.498 -13.868 -9.23405 -4.59496 0.043559 4.68694 9.32921 13.9737 18.6238 23.2771 27.9329 32.5883 37.2404 40.4417 43.6453 46.8488 50.052 53.1632 54.6415 56.1197 57.598 59.0761 60.5563 65.2294 69.8993 74.5687 79.2382 83.9132 88.5911 93.2667 97.9356 102.605 107.278 111.953 116.628 121.301 125.966 130.632 135.302 139.968 144.633 149.297 153.96 155.121 156.28 157.44 158.599 159.747 163.251 166.755 170.258 173.762 177.263 181.924 186.574 191.223 195.867 200.511 205.156 209.8 214.433 219.055 223.679 228.305 232.923 237.536 242.148 246.752 249.058 251.356 253.654 255.952 258.21 260.515 262.819 265.124 267.428 269.727 274.313 278.887 283.461 288.027 292.589 297.148 301.707 306.249 310.777 315.307 319.834 324.352 328.86 333.367 337.865 340.043 342.211 344.379 346.546 348.681 351 353.319 355.639 357.957 360.268 364.731 369.181 373.63 378.068 382.499 386.924 391.348 395.754 400.141 404.53 408.912 413.278 417.635 421.993 426.346 427.379 428.406 429.433 430.46 431.481 434.781 438.082 441.383 444.682 447.965 452.264 456.554 460.836 465.097 469.356 473.605 477.854 482.075 486.288 490.497 493.82 497.124 500.426 503.727 506.969 507.853 508.737 509.622 510.505 511.384 515.528 519.664 523.8 527.927 532.038 536.133 540.228 544.302 548.353 552.407 556.444 560.461 564.469 568.476 572.479 573.103 573.722 574.34 574.958 575.575 578.924 582.273 585.623 588.967 592.29 596.216 600.139 604.04 607.915 611.791 615.65 619.496 623.321 627.146 630.958 632.121 633.276 634.428 635.58 636.73 639.353 641.977 644.6 647.218 649.817 653.55 657.275 660.982 664.656 668.33 671.986 675.628 679.241 682.854 686.445 687.658 688.863 690.065 691.267 692.474 694.826 697.179 699.532 701.879 704.21 707.725 711.221 714.673 718.041 721.407 724.752 728.142 731.629 735.115 738.651 739.895 740.905 741.841 742.778 743.73 745.731 747.732 749.732 751.609 753.066 755.288 757.899 761.012 765.783 770.549 775.198 778.98 781.417 783.857 786.213 786.252 786.299 786.359 786.42 786.48 788.441 790.403 792.366 794.859 797.696 800.633 803.544 806.333 809.123 811.868 812.218 812.56 812.888 813.217 813.55 815.929 818.308 820.685 822.983 825.231 827.819 830.399 832.883 835.366 837.791 838.248 838.695 839.122 839.549 839.987 841.948 843.906 845.862 847.741 849.57 851.813 854.052 856.111 858.129 860.072 860.629 861.159 861.648 862.136 862.649 863.982 865.311 866.636 867.872 869.038 870.634 872.224 873.619 874.799 875.969 876.552 877.054 877.463 877.87 878.326 878.787 879.246 879.703 880.095 880.413 881.003 881.508 881.848 881.864 881.871 881.741 881.382 880.815 880.242 879.602 879.513 879.394 879.26 879.126 878.988 877.955 876.909 875.85 874.651 873.153 871.283 869.401 867.083 864.347 861.6 858.592 855.165 851.51 847.848 844.037 843.253 842.367 841.464 840.562 839.606 835.79 831.961 828.121 824.229 819.876 814.147 808.15 801.849 794.777 787.628 780.008 772.375 764.149 755.484 746.737 737.465 726.983 716.246 705.508 694.305 689.901 685.489 681.076 676.662 671.692 663.843 655.989 648.131 640.268 632.361 618.539 602.764 586.957 570.131 550.739 530.373 510.536 492.917 478.937 464.964 450.242 435.52 408.014 368.184 328.321 286.662 254.021 237.546 228.549 231.389 233.951 176.926 119.592 61.9624 0