/*--------------------------------*- C++ -*----------------------------------*\
| =========                 |                                                 |
| \\      /  F ield         | OpenFOAM: The Open Source CFD Toolbox           |
|  \\    /   O peration     | Version:  5.x                                   |
|   \\  /    A nd           | Web:      www.OpenFOAM.org                      |
|    \\/     M anipulation  |                                                 |
\*---------------------------------------------------------------------------*/
/*   Windows 32 and 64 bit porting by blueCAPE: http://www.bluecape.com.pt   *\
|  Based on Windows porting (2.0.x v4) by Symscape: http://www.symscape.com   |
\*---------------------------------------------------------------------------*/
FoamFile
{
    version     2.0;
    format      ascii;
    class       surfaceScalarField;
    location    "31";
    object      phi;
}
// * * * * * * * * * * * * * * * * * * * * * * * * * * * * * * * * * * * * * //

dimensions      [0 3 -1 0 0 0 0];

internalField   nonuniform List<scalar> 
7780
(
4.99375e-005
6.40574e-008
4.97773e-005
1.82756e-007
4.95539e-005
2.29639e-007
4.92926e-005
2.38908e-007
4.9018e-005
2.35411e-007
4.87459e-005
2.25699e-007
4.84851e-005
2.13052e-007
4.82408e-005
2.00448e-007
4.80133e-005
1.88665e-007
4.78028e-005
1.78714e-007
4.76091e-005
1.6918e-007
4.74298e-005
1.59961e-007
4.7264e-005
1.49575e-007
4.71071e-005
1.3847e-007
4.69587e-005
1.25714e-007
4.68194e-005
1.16019e-007
4.66856e-005
1.07199e-007
4.6558e-005
1.01093e-007
4.64354e-005
9.67587e-008
4.63164e-005
9.38706e-008
4.62012e-005
9.18379e-008
4.60893e-005
9.05936e-008
4.59792e-005
8.87192e-008
4.58729e-005
8.78041e-008
4.57711e-005
8.70344e-008
4.56724e-005
8.5365e-008
4.55759e-005
8.26126e-008
4.54812e-005
8.21106e-008
4.53861e-005
8.15401e-008
4.52898e-005
8.13217e-008
4.51941e-005
8.24498e-008
4.50974e-005
8.32708e-008
4.50065e-005
8.43663e-008
4.49208e-005
8.33736e-008
4.48474e-005
8.22055e-008
4.4775e-005
8.12582e-008
4.46872e-005
8.38704e-008
4.46081e-005
9.03597e-008
4.45617e-005
8.50635e-008
4.46479e-005
8.70562e-008
4.47637e-005
7.03831e-008
4.49511e-005
6.72641e-008
4.50824e-005
5.63596e-008
4.52263e-005
6.5688e-008
4.52822e-005
6.7204e-008
4.53487e-005
8.64329e-008
4.53366e-005
8.64953e-008
4.53553e-005
1.02569e-007
4.53081e-005
9.96073e-008
4.53081e-005
1.12869e-007
4.52464e-005
1.06435e-007
4.52411e-005
1.17963e-007
4.51719e-005
1.08696e-007
4.51642e-005
1.18808e-007
4.50908e-005
1.09157e-007
4.50779e-005
1.21357e-007
4.49971e-005
1.15649e-007
4.49761e-005
1.34962e-007
4.48785e-005
1.31625e-007
4.48433e-005
1.55932e-007
4.47291e-005
1.51735e-007
4.46842e-005
1.70889e-007
4.45665e-005
1.56914e-007
4.45292e-005
1.62386e-007
4.44213e-005
1.4273e-007
4.43967e-005
1.5226e-007
4.42958e-005
1.38502e-007
4.42803e-005
1.49768e-007
4.41852e-005
1.34181e-007
4.41786e-005
1.46767e-007
4.40873e-005
1.31717e-007
4.4084e-005
1.49181e-007
4.39911e-005
1.37693e-007
4.39849e-005
1.60593e-007
4.38798e-005
1.49945e-007
4.38637e-005
1.7236e-007
4.37492e-005
1.60038e-007
4.37301e-005
1.80215e-007
4.36097e-005
1.64347e-007
4.35911e-005
1.81954e-007
4.34703e-005
1.63599e-007
4.34568e-005
1.79646e-007
4.33392e-005
1.60615e-007
4.3332e-005
1.77549e-007
4.32158e-005
1.59489e-007
4.32108e-005
1.79473e-007
4.30946e-005
1.62115e-007
4.30931e-005
1.80896e-007
4.29763e-005
1.59267e-007
4.29801e-005
1.73791e-007
4.28706e-005
1.48967e-007
4.28855e-005
1.62432e-007
4.27823e-005
1.38164e-007
4.28094e-005
1.57345e-007
4.27116e-005
1.34824e-007
4.27438e-005
1.53848e-007
4.26493e-005
1.31493e-007
4.26913e-005
1.51568e-007
4.26017e-005
1.25761e-007
4.26528e-005
1.44764e-007
4.25658e-005
1.18679e-007
4.26197e-005
1.43755e-007
4.25263e-005
1.22624e-007
4.25691e-005
1.61344e-007
4.24522e-005
1.44575e-007
4.24646e-005
1.93021e-007
4.23047e-005
1.8224e-007
4.22808e-005
2.30453e-007
4.20807e-005
2.17629e-007
4.20219e-005
2.58422e-007
4.17945e-005
2.39938e-007
4.17261e-005
2.69992e-007
4.14924e-005
2.43737e-007
4.14259e-005
2.68645e-007
4.11957e-005
2.42783e-007
4.11311e-005
2.6968e-007
4.08974e-005
2.4667e-007
4.08348e-005
2.73632e-007
4.05988e-005
2.47245e-007
4.05427e-005
2.6916e-007
4.0317e-005
2.39652e-007
4.02788e-005
2.56526e-007
4.00699e-005
2.24105e-007
4.00575e-005
2.40951e-007
3.98722e-005
2.08289e-007
3.98888e-005
2.23895e-007
3.97347e-005
1.84812e-007
3.97891e-005
1.89437e-007
3.96702e-005
1.42999e-007
3.97788e-005
1.18898e-007
3.97283e-005
4.51273e-008
3.98683e-005
4.28237e-008
3.97587e-005
8.06653e-008
3.97293e-005
2.41288e-007
3.94289e-005
3.14671e-007
3.92768e-005
3.84975e-007
3.89195e-005
3.67041e-007
3.87723e-005
3.82303e-007
3.84402e-005
3.48066e-007
3.83227e-005
3.63682e-007
3.80012e-005
3.4033e-007
3.78936e-005
3.55962e-007
3.75889e-005
3.17059e-007
3.75194e-005
3.13762e-007
3.72567e-005
2.68627e-007
3.72299e-005
2.79447e-007
3.69933e-005
2.47955e-007
3.69863e-005
2.70834e-007
3.67575e-005
2.43832e-007
3.67571e-005
2.71384e-007
3.65241e-005
2.46789e-007
3.65169e-005
2.84042e-007
3.62621e-005
2.66747e-007
3.62335e-005
3.13633e-007
3.59531e-005
2.94415e-007
3.59095e-005
3.27987e-007
3.56163e-005
2.98338e-007
3.55721e-005
3.26197e-007
3.52775e-005
2.96573e-007
3.52448e-005
3.17483e-007
3.49679e-005
2.77997e-007
3.49727e-005
2.83398e-007
3.47503e-005
2.25681e-007
3.48306e-005
2.1067e-007
3.46918e-005
1.32452e-007
3.48494e-005
1.20834e-007
3.47764e-005
5.6335e-008
3.50021e-005
3.47632e-008
3.50415e-005
-5.67906e-008
3.54162e-005
-1.13328e-007
3.56237e-005
-2.3765e-007
3.6139e-005
-2.99886e-007
3.64582e-005
-3.83771e-007
3.69273e-005
-3.32825e-007
3.70038e-005
-1.69271e-007
3.71297e-005
4.72016e-008
3.69514e-005
1.08315e-007
3.69819e-005
1.62298e-007
3.68856e-005
7.33345e-008
3.71878e-005
-4.25978e-008
3.74275e-005
-2.40015e-007
3.80334e-005
-3.6853e-007
3.84765e-005
-5.03084e-007
3.91761e-005
-5.32567e-007
3.95969e-005
-5.65341e-007
3.99419e-005
-2.6487e-007
3.93917e-005
3.30674e-007
3.81718e-005
1.38723e-006
3.60237e-005
2.24207e-006
3.38673e-005
2.31618e-006
3.16935e-005
1.85297e-006
3.02824e-005
1.23697e-006
2.91204e-005
7.4555e-007
2.85397e-005
6.12181e-007
2.76815e-005
6.41061e-007
2.69742e-005
8.69088e-007
2.58872e-005
9.20329e-007
2.48462e-005
8.87914e-007
2.37109e-005
7.31353e-007
5.8416e-007
5.00388e-005
2.90625e-008
5.0059e-005
1.38344e-007
5.00521e-005
1.8522e-007
5.00232e-005
2.02411e-007
4.99786e-005
2.09179e-007
4.9924e-005
2.08261e-007
4.98627e-005
2.02188e-007
4.97988e-005
1.94948e-007
4.97334e-005
1.87049e-007
4.96662e-005
1.78991e-007
4.95988e-005
1.71173e-007
4.95297e-005
1.63517e-007
4.94624e-005
1.56944e-007
4.93954e-005
1.49111e-007
4.93322e-005
1.42073e-007
4.92699e-005
1.34563e-007
4.92097e-005
1.28831e-007
4.91496e-005
1.24665e-007
4.90906e-005
1.22042e-007
4.90314e-005
1.19737e-007
4.89723e-005
1.18769e-007
4.89127e-005
1.1732e-007
4.88543e-005
1.16284e-007
4.87975e-005
1.15252e-007
4.87419e-005
1.12944e-007
4.86869e-005
1.10373e-007
4.86348e-005
1.08898e-007
4.85808e-005
1.06653e-007
4.85256e-005
1.05856e-007
4.84676e-005
1.04816e-007
4.84079e-005
1.05115e-007
4.83467e-005
1.0518e-007
4.82899e-005
1.0554e-007
4.82425e-005
1.04379e-007
4.82095e-005
1.02565e-007
4.81794e-005
1.0173e-007
4.81235e-005
1.03906e-007
4.80712e-005
1.10052e-007
4.80714e-005
1.04968e-007
4.8183e-005
9.25641e-008
4.83606e-005
6.83048e-008
4.85647e-005
6.21141e-008
4.86919e-005
5.82908e-008
4.87769e-005
7.07069e-008
4.88026e-005
7.35869e-008
4.88257e-005
8.93018e-008
4.88145e-005
9.00098e-008
4.88188e-005
1.03626e-007
4.87957e-005
1.02098e-007
4.87927e-005
1.1271e-007
4.87645e-005
1.08857e-007
4.87576e-005
1.16266e-007
4.87264e-005
1.09931e-007
4.8719e-005
1.14956e-007
4.86873e-005
1.0834e-007
4.86791e-005
1.15985e-007
4.86403e-005
1.13807e-007
4.86208e-005
1.30345e-007
4.85657e-005
1.38928e-007
4.85239e-005
1.65131e-007
4.84486e-005
1.72832e-007
4.83987e-005
1.86589e-007
4.83334e-005
1.73027e-007
4.83025e-005
1.58758e-007
4.82504e-005
1.32443e-007
4.82347e-005
1.31328e-007
4.81965e-005
1.21997e-007
4.81942e-005
1.28588e-007
4.81644e-005
1.21205e-007
4.81652e-005
1.31343e-007
4.81344e-005
1.27335e-007
4.81324e-005
1.42372e-007
4.80934e-005
1.39704e-007
4.80825e-005
1.6105e-007
4.80323e-005
1.59945e-007
4.80143e-005
1.80208e-007
4.79587e-005
1.73495e-007
4.79369e-005
1.86821e-007
4.78784e-005
1.76485e-007
4.78553e-005
1.8607e-007
4.77987e-005
1.7407e-007
4.77813e-005
1.80801e-007
4.77283e-005
1.65686e-007
4.7715e-005
1.73081e-007
4.76628e-005
1.61904e-007
4.7649e-005
1.75254e-007
4.75952e-005
1.66322e-007
4.75809e-005
1.77703e-007
4.7528e-005
1.6349e-007
4.75174e-005
1.66011e-007
4.74718e-005
1.45894e-007
4.74725e-005
1.46345e-007
4.74323e-005
1.2706e-007
4.74353e-005
1.32961e-007
4.73996e-005
1.176e-007
4.74143e-005
1.27549e-007
4.73867e-005
1.14316e-007
4.74077e-005
1.22937e-007
4.73889e-005
1.03773e-007
4.74228e-005
1.07645e-007
4.74135e-005
9.04678e-008
4.74469e-005
1.06083e-007
4.74264e-005
1.01999e-007
4.74452e-005
1.35308e-007
4.74014e-005
1.34775e-007
4.73919e-005
1.76257e-007
4.73132e-005
1.76602e-007
4.7277e-005
2.16671e-007
4.71742e-005
2.10445e-007
4.71243e-005
2.44623e-007
4.70112e-005
2.30241e-007
4.69624e-005
2.54214e-007
4.68466e-005
2.32047e-007
4.67942e-005
2.54737e-007
4.66708e-005
2.34504e-007
4.66115e-005
2.62723e-007
4.64805e-005
2.4253e-007
4.64272e-005
2.6642e-007
4.6311e-005
2.36436e-007
4.62738e-005
2.52008e-007
4.6166e-005
2.18287e-007
4.61416e-005
2.32632e-007
4.60491e-005
1.9478e-007
4.60518e-005
2.09391e-007
4.59854e-005
1.70611e-007
4.60198e-005
1.81421e-007
4.59868e-005
1.27628e-007
4.60562e-005
1.16086e-007
4.60859e-005
3.15228e-008
4.6282e-005
-3.65441e-008
4.64024e-005
-1.62497e-007
4.65439e-005
-1.63179e-007
4.64419e-005
-6.70785e-008
4.64141e-005
2.18682e-007
4.64289e-005
3.0327e-007
4.65971e-005
3.95197e-007
4.65049e-005
3.95965e-007
4.62733e-005
4.40785e-007
4.58059e-005
4.09036e-007
4.54584e-005
4.33409e-007
4.51148e-005
4.01868e-007
4.49621e-005
4.31284e-007
4.47606e-005
3.65463e-007
4.47167e-005
3.49339e-007
4.45921e-005
2.72077e-007
4.45929e-005
2.94672e-007
4.44853e-005
2.51448e-007
4.44943e-005
2.91356e-007
4.43891e-005
2.52487e-007
4.43972e-005
2.96611e-007
4.42835e-005
2.60624e-007
4.42786e-005
3.20183e-007
4.41395e-005
3.03197e-007
4.41038e-005
3.89369e-007
4.39326e-005
3.6604e-007
4.38925e-005
4.12324e-007
4.37304e-005
3.59849e-007
4.36982e-005
4.06623e-007
4.35394e-005
3.635e-007
4.35084e-005
4.02101e-007
4.33533e-005
3.42288e-007
4.3341e-005
3.57411e-007
4.32271e-005
2.59102e-007
4.32989e-005
2.22281e-007
4.32851e-005
8.24453e-008
4.34673e-005
4.59702e-008
4.36511e-005
-6.85636e-008
4.43582e-005
-1.07809e-007
4.4936e-005
-2.12328e-007
4.5263e-005
-2.69807e-007
4.54467e-005
-4.50898e-007
4.57379e-005
-5.6061e-007
4.56471e-005
-6.81733e-007
4.53825e-005
-5.97903e-007
4.51431e-005
-3.8381e-007
4.52718e-005
-8.43484e-008
4.51977e-005
1.87159e-008
4.54421e-005
8.67443e-008
4.58546e-005
-3.43836e-008
4.61343e-005
-1.15309e-007
4.63115e-005
-2.97058e-007
4.64133e-005
-5.07874e-007
4.62971e-005
-7.4214e-007
4.64676e-005
-8.66006e-007
4.67176e-005
-8.89188e-007
4.68587e-005
-4.23891e-007
4.62348e-005
5.39953e-007
4.48978e-005
2.23268e-006
4.35839e-005
3.25306e-006
4.2924e-005
2.89324e-006
4.26021e-005
2.02516e-006
4.21616e-005
1.33633e-006
4.1036e-005
1.1428e-006
3.98753e-005
1.35696e-006
3.86288e-005
1.705e-006
3.74738e-005
2.08882e-006
3.63204e-005
2.13786e-006
3.52609e-005
1.87308e-006
3.41708e-005
1.5697e-006
1.26111e-006
5.00221e-005
-1.69456e-009
5.00481e-005
8.3482e-008
5.00688e-005
1.29142e-007
5.00789e-005
1.53308e-007
5.00767e-005
1.66108e-007
5.0065e-005
1.70064e-007
5.00481e-005
1.68025e-007
5.00286e-005
1.6287e-007
5.00067e-005
1.5656e-007
4.99825e-005
1.49662e-007
4.99573e-005
1.43119e-007
4.9931e-005
1.36952e-007
4.99046e-005
1.32138e-007
4.98802e-005
1.27712e-007
4.98573e-005
1.23398e-007
4.98369e-005
1.19421e-007
4.98175e-005
1.16386e-007
4.97977e-005
1.147e-007
4.97783e-005
1.14078e-007
4.97594e-005
1.14135e-007
4.97389e-005
1.14295e-007
4.97192e-005
1.14774e-007
4.96991e-005
1.14634e-007
4.96782e-005
1.14662e-007
4.96585e-005
1.14185e-007
4.96388e-005
1.13538e-007
4.96165e-005
1.12626e-007
4.95921e-005
1.12417e-007
4.95654e-005
1.11977e-007
4.95381e-005
1.1149e-007
4.95099e-005
1.11234e-007
4.94829e-005
1.10958e-007
4.94608e-005
1.10982e-007
4.94469e-005
1.10566e-007
4.94395e-005
1.09165e-007
4.94289e-005
1.09823e-007
4.94045e-005
1.13714e-007
4.93954e-005
1.18753e-007
4.9438e-005
1.14684e-007
4.95479e-005
1.01161e-007
4.96965e-005
7.88767e-008
4.98454e-005
6.84182e-008
4.99413e-005
6.66115e-008
4.99896e-005
7.0259e-008
5.00121e-005
7.24768e-008
5.00295e-005
7.67802e-008
5.00412e-005
7.86916e-008
5.00541e-005
8.34788e-008
5.00623e-005
8.61168e-008
5.00725e-005
9.01342e-008
5.00775e-005
9.01293e-008
5.00853e-005
9.12889e-008
5.00892e-005
8.81975e-008
5.00983e-005
8.65685e-008
5.01034e-005
8.1502e-008
5.0114e-005
8.06512e-008
5.01193e-005
8.09834e-008
5.01281e-005
8.96248e-008
5.01137e-005
1.03245e-007
5.00891e-005
1.26541e-007
5.00537e-005
1.4646e-007
5.00301e-005
1.55837e-007
5.00154e-005
1.43946e-007
5.00162e-005
1.12544e-007
5.00121e-005
8.20871e-008
5.00117e-005
6.64527e-008
5.00158e-005
6.37687e-008
5.00292e-005
6.49335e-008
5.00316e-005
7.11754e-008
5.00216e-005
7.87144e-008
4.99895e-005
8.98664e-008
4.99438e-005
9.95683e-008
4.98849e-005
1.12725e-007
4.98393e-005
1.2346e-007
4.9804e-005
1.33893e-007
4.9781e-005
1.38143e-007
4.97597e-005
1.43025e-007
4.97427e-005
1.40383e-007
4.97218e-005
1.39949e-007
4.97061e-005
1.35208e-007
4.96872e-005
1.32083e-007
4.96733e-005
1.23446e-007
4.96558e-005
1.17762e-007
4.96421e-005
1.10121e-007
4.96228e-005
1.11095e-007
4.96074e-005
1.11474e-007
4.9588e-005
1.17447e-007
4.95762e-005
1.15807e-007
4.95617e-005
1.13282e-007
4.95548e-005
9.90032e-008
4.9545e-005
8.64911e-008
4.95403e-005
6.93416e-008
4.95279e-005
5.93357e-008
4.95212e-005
4.86122e-008
4.95181e-005
4.67398e-008
4.95294e-005
4.79952e-008
4.95393e-005
5.32465e-008
4.95574e-005
4.27746e-008
4.95762e-005
3.43715e-008
4.96069e-005
1.86639e-008
4.96324e-005
1.76402e-008
4.9657e-005
1.84095e-008
4.96667e-005
3.62101e-008
4.96756e-005
4.54336e-008
4.96734e-005
6.15268e-008
4.96627e-005
6.31818e-008
4.9636e-005
7.78393e-008
4.96112e-005
8.0064e-008
4.95896e-005
9.71935e-008
4.95668e-005
9.62446e-008
4.955e-005
1.09931e-007
4.95268e-005
9.98824e-008
4.95002e-005
1.0733e-007
4.94563e-005
9.52924e-008
4.94131e-005
1.10035e-007
4.9354e-005
1.00803e-007
4.93114e-005
1.14396e-007
4.92681e-005
9.37133e-008
4.92487e-005
9.37066e-008
4.92153e-005
6.26436e-008
4.91973e-005
6.53041e-008
4.91709e-005
3.59022e-008
4.91757e-005
3.58319e-008
4.91799e-005
5.18056e-009
4.92161e-005
5.7782e-009
4.92568e-005
-3.45635e-008
4.93531e-005
-5.92268e-008
4.96286e-005
-1.39059e-007
5.01677e-005
-2.01835e-007
5.0562e-005
-2.99208e-007
5.07577e-005
-3.87685e-007
5.05839e-005
-3.94018e-007
5.01222e-005
-2.45731e-007
4.99077e-005
-1.91673e-008
5.00845e-005
9.53503e-008
5.03093e-005
1.61234e-007
5.03394e-005
2.29358e-007
5.01307e-005
2.20263e-007
4.98287e-005
2.20306e-007
4.94208e-005
2.10004e-007
4.90639e-005
2.66695e-007
4.8809e-005
2.56454e-007
4.87058e-005
2.24729e-007
4.86484e-005
1.13192e-007
4.8666e-005
8.4133e-008
4.86557e-005
5.13958e-008
4.8681e-005
7.80437e-008
4.86675e-005
5.85424e-008
4.86863e-005
8.9797e-008
4.86653e-005
6.85681e-008
4.86781e-005
1.00405e-007
4.86366e-005
9.39561e-008
4.86037e-005
1.65534e-007
4.84972e-005
2.10033e-007
4.84292e-005
2.66144e-007
4.83397e-005
2.26954e-007
4.83079e-005
2.44676e-007
4.82468e-005
2.28901e-007
4.82283e-005
2.61898e-007
4.81592e-005
2.30638e-007
4.81241e-005
2.44414e-007
4.80409e-005
1.88254e-007
4.80348e-005
1.47885e-007
4.8038e-005
1.94402e-008
4.81678e-005
-9.25794e-008
4.8374e-005
-2.18376e-007
4.88793e-005
-2.51605e-007
4.95074e-005
-3.15774e-007
4.99283e-005
-3.19687e-007
5.00383e-005
-4.38936e-007
5.01136e-005
-5.90586e-007
5.01009e-005
-7.9466e-007
4.99215e-005
-9.5835e-007
4.95527e-005
-1.01875e-006
4.92495e-005
-8.63749e-007
4.92566e-005
-5.71496e-007
4.93677e-005
-4.06964e-007
4.97422e-005
-2.47665e-007
5.02177e-005
-6.41363e-008
5.03626e-005
1.0173e-007
5.02664e-005
-4.83755e-009
4.99844e-005
-4.8559e-007
4.95808e-005
-1.01225e-006
4.9466e-005
-1.2392e-006
4.97599e-005
-1.1882e-006
4.9938e-005
-6.93783e-007
4.92967e-005
8.95209e-008
4.81153e-005
1.46168e-006
4.77175e-005
2.55792e-006
4.82971e-005
2.50097e-006
4.87599e-005
1.88953e-006
4.87038e-005
1.51522e-006
4.78674e-005
1.81331e-006
4.65369e-005
2.43032e-006
4.50001e-005
2.97429e-006
4.34411e-005
3.285e-006
4.2073e-005
3.10291e-006
4.11299e-005
2.53282e-006
4.02708e-005
2.09875e-006
1.75697e-006
5.00183e-005
-2.5009e-008
5.00414e-005
4.40185e-008
5.00644e-005
8.56481e-008
5.00826e-005
1.13581e-007
5.00937e-005
1.30216e-007
5.00985e-005
1.37129e-007
5.00991e-005
1.37123e-007
5.0097e-005
1.33681e-007
5.00925e-005
1.29001e-007
5.00863e-005
1.24323e-007
5.0079e-005
1.20229e-007
5.00712e-005
1.1702e-007
5.00628e-005
1.14651e-007
5.0055e-005
1.12839e-007
5.00489e-005
1.11859e-007
5.00444e-005
1.11296e-007
5.0041e-005
1.11188e-007
5.0038e-005
1.11759e-007
5.00359e-005
1.13034e-007
5.0034e-005
1.14298e-007
5.0032e-005
1.1579e-007
5.00303e-005
1.17654e-007
5.00289e-005
1.18966e-007
5.0027e-005
1.20053e-007
5.00258e-005
1.21494e-007
5.00242e-005
1.22423e-007
5.00217e-005
1.23291e-007
5.00171e-005
1.24246e-007
5.00111e-005
1.25513e-007
5.00052e-005
1.27003e-007
4.99994e-005
1.28117e-007
4.99952e-005
1.28962e-007
4.99942e-005
1.29741e-007
4.9997e-005
1.30058e-007
5.00031e-005
1.30589e-007
5.00068e-005
1.32536e-007
5.00059e-005
1.37389e-007
5.00141e-005
1.42846e-007
5.00494e-005
1.43697e-007
5.01148e-005
1.34196e-007
5.02053e-005
1.18388e-007
5.02966e-005
1.03409e-007
5.03591e-005
9.64799e-008
5.03941e-005
9.5606e-008
5.04152e-005
9.49874e-008
5.04342e-005
9.39701e-008
5.04539e-005
9.30329e-008
5.04761e-005
9.37687e-008
5.04985e-005
9.4788e-008
5.05217e-005
9.57909e-008
5.05435e-005
9.43486e-008
5.05658e-005
9.24182e-008
5.05867e-005
8.7827e-008
5.06082e-005
8.29506e-008
5.06296e-005
7.58151e-008
5.06556e-005
7.02178e-008
5.06841e-005
6.42376e-008
5.07157e-005
6.64758e-008
5.0739e-005
7.52039e-008
5.07531e-005
9.52381e-008
5.07533e-005
1.1301e-007
5.07546e-005
1.26991e-007
5.0759e-005
1.21764e-007
5.07809e-005
1.01732e-007
5.08016e-005
6.92342e-008
5.08254e-005
4.85742e-008
5.08443e-005
3.83543e-008
5.087e-005
4.07945e-008
5.08853e-005
4.46393e-008
5.08965e-005
5.50935e-008
5.08889e-005
6.54441e-008
5.08759e-005
8.15963e-008
5.08481e-005
9.55789e-008
5.08349e-005
1.09119e-007
5.08236e-005
1.14669e-007
5.08308e-005
1.21306e-007
5.08305e-005
1.20992e-007
5.08424e-005
1.22006e-007
5.08438e-005
1.16643e-007
5.08564e-005
1.14139e-007
5.08586e-005
1.04068e-007
5.08743e-005
9.76752e-008
5.08801e-005
8.48691e-008
5.08994e-005
8.0743e-008
5.09048e-005
7.44641e-008
5.09218e-005
8.00775e-008
5.0923e-005
8.00774e-008
5.09391e-005
8.43392e-008
5.09429e-005
7.24797e-008
5.09661e-005
6.26628e-008
5.09776e-005
3.97025e-008
5.10042e-005
2.54648e-008
5.10118e-005
5.48979e-009
5.10231e-005
6.00336e-009
5.09346e-005
2.65149e-009
5.08168e-005
1.79384e-008
5.07565e-005
1.48099e-008
5.07813e-005
1.30314e-008
5.07968e-005
-1.05364e-008
5.08378e-005
-1.45482e-008
5.08451e-005
-2.63135e-008
5.08689e-005
-1.00685e-008
5.08628e-005
-7.33544e-009
5.08939e-005
9.45011e-009
5.08958e-005
-2.72587e-009
5.09178e-005
2.90318e-009
5.08962e-005
-5.73584e-009
5.09157e-005
1.5805e-008
5.09065e-005
1.58537e-008
5.09374e-005
3.6534e-008
5.0929e-005
2.6409e-008
5.09559e-005
3.69e-008
5.09305e-005
1.80775e-008
5.09359e-005
2.68179e-008
5.0887e-005
1.16269e-008
5.08831e-005
2.69117e-008
5.084e-005
7.09776e-009
5.086e-005
1.02524e-008
5.08333e-005
-2.61081e-008
5.08539e-005
-3.10395e-008
5.0832e-005
-6.52807e-008
5.08769e-005
-6.00176e-008
5.08521e-005
-8.91886e-008
5.08862e-005
-8.61278e-008
5.08901e-005
-1.25e-007
5.09984e-005
-1.35527e-007
5.11578e-005
-2.05637e-007
5.15551e-005
-2.50975e-007
5.19261e-005
-3.12708e-007
5.21433e-005
-3.43882e-007
5.22154e-005
-4.01674e-007
5.207e-005
-3.65868e-007
5.158e-005
-2.41567e-007
5.10245e-005
-1.15613e-007
5.08298e-005
-1.0597e-007
5.09334e-005
-9.34053e-008
5.09527e-005
-1.08887e-007
5.10221e-005
-1.14995e-007
5.10397e-005
-1.25898e-007
5.09695e-005
-4.5557e-008
5.07539e-005
3.65588e-008
5.0904e-005
9.42179e-008
5.11189e-005
1.93757e-008
5.11151e-005
-2.4574e-008
5.09211e-005
-8.3129e-008
5.08995e-005
-7.35472e-008
5.08583e-005
-9.60122e-008
5.09077e-005
-6.19554e-008
5.08584e-005
-6.72132e-008
5.08598e-005
-3.38244e-008
5.07736e-005
-5.96981e-008
5.07721e-005
-2.90311e-008
5.07154e-005
-1.26177e-008
5.11815e-005
8.21132e-008
5.16387e-005
1.14122e-007
5.13896e-005
1.50105e-007
5.08226e-005
1.55975e-007
5.05667e-005
1.82769e-007
5.0381e-005
1.46238e-007
5.03741e-005
1.31281e-007
5.04472e-005
6.92736e-008
5.10024e-005
4.57414e-008
5.14161e-005
6.22724e-009
5.11046e-005
-3.3742e-008
5.05163e-005
-1.76002e-007
5.03443e-005
-2.65781e-007
5.02365e-005
-3.00419e-007
5.01611e-005
-2.53569e-007
4.98652e-005
-2.69603e-007
4.95463e-005
-3.73715e-007
4.9282e-005
-5.75771e-007
4.9235e-005
-7.58325e-007
4.93781e-005
-9.92796e-007
4.93891e-005
-1.30125e-006
4.89835e-005
-1.34959e-006
4.83681e-005
-1.22686e-006
4.80534e-005
-1.22824e-006
4.83503e-005
-1.04512e-006
4.89294e-005
-3.07924e-007
4.8767e-005
4.29375e-007
4.81779e-005
2.59638e-007
4.78736e-005
-5.90352e-007
4.78637e-005
-1.52251e-006
4.84188e-005
-1.77511e-006
4.95016e-005
-1.68315e-006
5.04766e-005
-1.33735e-006
5.04568e-005
-8.74927e-007
4.84937e-005
-1.25398e-007
4.63422e-005
1.18981e-006
4.60859e-005
2.00833e-006
4.68e-005
1.96952e-006
4.75181e-005
2.1242e-006
4.76476e-005
2.75561e-006
4.74471e-005
3.23102e-006
4.69216e-005
3.45157e-006
4.6178e-005
3.35148e-006
4.5844e-005
2.89689e-006
4.5691e-005
2.40179e-006
4.49228e-005
2.17949e-006
1.9498e-006
5.0015e-005
-4.54476e-008
5.00347e-005
1.46847e-008
5.00557e-005
5.38798e-008
5.00748e-005
8.45827e-008
5.00899e-005
1.0465e-007
5.01005e-005
1.14028e-007
5.01077e-005
1.16465e-007
5.01122e-005
1.15018e-007
5.01145e-005
1.12386e-007
5.01154e-005
1.09949e-007
5.0115e-005
1.08077e-007
5.01138e-005
1.07046e-007
5.01122e-005
1.06997e-007
5.01113e-005
1.07754e-007
5.0111e-005
1.09333e-007
5.01117e-005
1.11387e-007
5.01134e-005
1.13916e-007
5.01156e-005
1.16585e-007
5.01185e-005
1.19451e-007
5.0122e-005
1.22441e-007
5.0126e-005
1.25448e-007
5.01301e-005
1.28261e-007
5.01346e-005
1.30845e-007
5.01393e-005
1.33269e-007
5.01441e-005
1.35785e-007
5.0149e-005
1.38129e-007
5.01539e-005
1.40595e-007
5.01581e-005
1.42909e-007
5.01617e-005
1.45707e-007
5.01647e-005
1.48762e-007
5.01675e-005
1.51798e-007
5.01714e-005
1.54903e-007
5.01773e-005
1.57396e-007
5.01858e-005
1.5938e-007
5.01964e-005
1.61592e-007
5.02065e-005
1.64593e-007
5.02147e-005
1.68776e-007
5.02269e-005
1.72772e-007
5.02492e-005
1.74732e-007
5.02871e-005
1.75038e-007
5.03379e-005
1.69461e-007
5.03915e-005
1.59995e-007
5.04292e-005
1.52214e-007
5.04517e-005
1.50852e-007
5.04667e-005
1.48596e-007
5.04823e-005
1.45799e-007
5.05015e-005
1.42654e-007
5.05257e-005
1.39969e-007
5.05526e-005
1.36977e-007
5.05808e-005
1.33817e-007
5.06089e-005
1.29667e-007
5.06357e-005
1.24002e-007
5.06605e-005
1.18001e-007
5.06818e-005
1.10588e-007
5.07028e-005
1.02738e-007
5.07255e-005
9.1643e-008
5.0755e-005
8.05716e-008
5.0789e-005
7.16486e-008
5.08254e-005
7.0516e-008
5.08538e-005
7.83959e-008
5.08719e-005
9.33544e-008
5.08796e-005
1.07116e-007
5.08881e-005
1.12731e-007
5.09069e-005
1.08507e-007
5.09335e-005
8.72047e-008
5.09609e-005
6.40553e-008
5.09888e-005
4.84504e-008
5.10181e-005
4.80761e-008
5.1047e-005
5.15455e-008
5.10777e-005
6.16247e-008
5.11102e-005
7.01584e-008
5.11455e-005
8.55368e-008
5.11804e-005
9.89931e-008
5.12172e-005
1.13832e-007
5.12514e-005
1.19399e-007
5.12849e-005
1.24926e-007
5.13163e-005
1.23938e-007
5.13458e-005
1.23278e-007
5.13708e-005
1.20317e-007
5.13939e-005
1.16308e-007
5.14182e-005
1.09074e-007
5.14437e-005
9.97392e-008
5.14726e-005
9.02088e-008
5.15021e-005
8.25802e-008
5.15344e-005
8.06608e-008
5.15643e-005
8.25516e-008
5.15916e-005
8.68873e-008
5.16133e-005
8.4964e-008
5.16388e-005
7.81665e-008
5.16642e-005
6.25844e-008
5.16948e-005
4.58383e-008
5.17222e-005
2.64308e-008
5.17469e-005
1.45327e-008
5.1746e-005
1.4462e-008
5.16917e-005
2.5433e-008
5.15852e-005
4.00571e-008
5.15316e-005
4.86857e-008
5.15353e-005
3.001e-008
5.1559e-005
1.80294e-008
5.15682e-005
5.37615e-009
5.15872e-005
1.15198e-008
5.16129e-005
1.81015e-008
5.16707e-005
2.99034e-008
5.17268e-005
2.00629e-008
5.1799e-005
1.13629e-008
5.18435e-005
-5.44706e-009
5.18795e-005
-2.18826e-009
5.19011e-005
1.29861e-009
5.19369e-005
1.74898e-008
5.1956e-005
2.00662e-008
5.19897e-005
2.80058e-008
5.20055e-005
2.16966e-008
5.20323e-005
2.37112e-008
5.20368e-005
1.55841e-008
5.2054e-005
1.91987e-008
5.20583e-005
1.14255e-008
5.2089e-005
8.19053e-009
5.21059e-005
-1.0294e-008
5.2142e-005
-2.41389e-008
5.21619e-005
-4.96443e-008
5.22093e-005
-5.8953e-008
5.22308e-005
-6.69489e-008
5.22462e-005
-5.90306e-008
5.21894e-005
-6.79449e-008
5.21379e-005
-7.63386e-008
5.20987e-005
-1.11448e-007
5.20901e-005
-1.39512e-007
5.20275e-005
-1.84656e-007
5.19724e-005
-1.99395e-007
5.19246e-005
-2.03521e-007
5.19745e-005
-1.91633e-007
5.20361e-005
-1.65643e-007
5.20754e-005
-1.16274e-007
5.17824e-005
-1.23914e-007
5.13752e-005
-2.13729e-007
5.12786e-005
-3.78803e-007
5.13518e-005
-4.03554e-007
5.142e-005
-3.71841e-007
5.148e-005
-3.01232e-007
5.14546e-005
-2.01862e-007
5.16786e-005
-9.20325e-008
5.23085e-005
-9.13676e-008
5.28991e-005
-7.20336e-008
5.30096e-005
-5.74716e-008
5.27296e-005
-5.71617e-008
5.24656e-005
-7.80476e-008
5.25136e-005
-7.28091e-008
5.26073e-005
-7.07555e-008
5.26609e-005
-2.63636e-008
5.25433e-005
-1.24741e-009
5.23525e-005
1.40799e-008
5.22049e-005
-9.82898e-009
5.25073e-005
-1.03904e-008
5.30921e-005
2.07719e-008
5.34231e-005
9.09226e-008
5.32807e-005
1.5295e-007
5.28919e-005
2.11909e-007
5.25382e-005
2.19681e-007
5.23252e-005
1.8633e-007
5.22474e-005
1.08737e-007
5.2598e-005
3.53099e-008
5.31223e-005
-7.30658e-009
5.3355e-005
3.28609e-009
5.30727e-005
-9.10208e-009
5.23498e-005
-6.19245e-008
5.15789e-005
-1.35462e-007
5.10363e-005
-1.03751e-007
5.04684e-005
-1.36877e-008
4.97725e-005
6.75667e-008
4.91375e-005
-2.88388e-008
4.88217e-005
-2.13493e-007
4.86683e-005
-2.91065e-007
4.86426e-005
-3.31465e-007
4.87204e-005
-5.44752e-007
4.8275e-005
-8.85854e-007
4.74423e-005
-1.35163e-006
4.71808e-005
-1.91117e-006
4.73496e-005
-1.87934e-006
4.74216e-005
-1.17398e-006
4.70535e-005
-2.27959e-007
4.67243e-005
-1.30623e-007
4.71089e-005
-6.3839e-007
4.75533e-005
-1.35233e-006
4.83919e-005
-1.50709e-006
4.97825e-005
-1.58123e-006
5.1025e-005
-1.65139e-006
5.11808e-005
-1.51286e-006
4.94757e-005
-1.16915e-006
4.58626e-005
-7.54995e-007
4.40601e-005
2.80906e-007
4.47319e-005
1.41178e-006
4.60272e-005
2.85976e-006
4.68089e-005
3.82503e-006
4.67669e-005
3.87143e-006
4.6358e-005
3.50652e-006
4.63224e-005
2.65483e-006
4.75055e-005
1.95458e-006
4.86225e-005
1.76032e-006
4.97981e-005
1.96095e-006
1.89994e-006
5.00117e-005
-6.43446e-008
5.00285e-005
-7.95943e-009
5.00473e-005
3.04898e-008
5.00656e-005
6.32919e-008
5.00811e-005
8.62527e-008
5.00935e-005
9.84959e-008
5.01027e-005
1.03218e-007
5.01096e-005
1.03783e-007
5.01146e-005
1.03048e-007
5.01181e-005
1.02098e-007
5.01205e-005
1.01825e-007
5.01221e-005
1.02298e-007
5.01231e-005
1.03729e-007
5.01246e-005
1.06204e-007
5.01262e-005
1.09376e-007
5.01288e-005
1.13374e-007
5.01319e-005
1.1751e-007
5.01355e-005
1.2198e-007
5.01397e-005
1.26492e-007
5.01444e-005
1.31074e-007
5.01493e-005
1.35556e-007
5.01546e-005
1.39944e-007
5.01601e-005
1.44231e-007
5.01658e-005
1.4831e-007
5.01717e-005
1.52501e-007
5.01781e-005
1.56862e-007
5.01842e-005
1.61012e-007
5.01904e-005
1.65306e-007
5.01961e-005
1.69721e-007
5.0201e-005
1.74496e-007
5.02053e-005
1.79552e-007
5.02098e-005
1.84757e-007
5.0216e-005
1.89577e-007
5.02245e-005
1.93965e-007
5.02351e-005
1.9814e-007
5.02463e-005
2.02639e-007
5.0256e-005
2.07373e-007
5.02688e-005
2.11833e-007
5.02914e-005
2.16304e-007
5.03243e-005
2.20612e-007
5.03665e-005
2.21694e-007
5.04055e-005
2.17286e-007
5.04312e-005
2.13211e-007
5.04439e-005
2.13e-007
5.04505e-005
2.1397e-007
5.04573e-005
2.15089e-007
5.04671e-005
2.14243e-007
5.04811e-005
2.11513e-007
5.04966e-005
2.06535e-007
5.05132e-005
2.01453e-007
5.05287e-005
1.95852e-007
5.05433e-005
1.90079e-007
5.05539e-005
1.83651e-007
5.05609e-005
1.77533e-007
5.05629e-005
1.70509e-007
5.05657e-005
1.62211e-007
5.05749e-005
1.50439e-007
5.06021e-005
1.35694e-007
5.06453e-005
1.21521e-007
5.06835e-005
1.11567e-007
5.07071e-005
1.12265e-007
5.07135e-005
1.155e-007
5.07078e-005
1.26523e-007
5.06882e-005
1.3631e-007
5.0672e-005
1.38255e-007
5.06613e-005
1.23792e-007
5.06694e-005
1.12276e-007
5.06827e-005
1.04644e-007
5.07058e-005
1.04823e-007
5.07335e-005
1.03978e-007
5.07855e-005
1.0858e-007
5.08521e-005
1.13119e-007
5.09378e-005
1.21427e-007
5.10236e-005
1.27635e-007
5.11137e-005
1.33852e-007
5.11953e-005
1.35906e-007
5.12673e-005
1.35223e-007
5.13208e-005
1.33788e-007
5.13569e-005
1.31708e-007
5.13853e-005
1.31005e-007
5.14104e-005
1.25677e-007
5.14379e-005
1.23366e-007
5.14648e-005
1.17387e-007
5.14975e-005
1.16922e-007
5.15335e-005
1.13575e-007
5.15753e-005
1.16661e-007
5.16055e-005
1.13517e-007
5.16323e-005
1.14848e-007
5.16515e-005
1.06776e-007
5.16743e-005
1.03205e-007
5.1687e-005
8.83502e-008
5.16994e-005
8.42788e-008
5.17006e-005
7.39117e-008
5.17073e-005
8.76962e-008
5.17004e-005
9.62651e-008
5.17302e-005
1.21799e-007
5.17972e-005
1.11455e-007
5.18613e-005
1.03816e-007
5.1878e-005
9.19124e-008
5.18934e-005
9.97364e-008
5.19251e-005
9.81236e-008
5.2014e-005
1.0988e-007
5.21147e-005
9.4278e-008
5.22188e-005
8.38609e-008
5.23009e-005
5.51222e-008
5.23742e-005
3.9816e-008
5.24201e-005
2.56343e-008
5.24656e-005
3.10744e-008
5.25002e-005
2.90048e-008
5.25383e-005
3.61424e-008
5.25635e-005
3.59975e-008
5.25961e-005
4.11241e-008
5.26209e-005
3.86236e-008
5.26522e-005
4.05414e-008
5.26769e-005
3.55284e-008
5.27114e-005