/*--------------------------------*- C++ -*----------------------------------*\
| =========                 |                                                 |
| \\      /  F ield         | OpenFOAM: The Open Source CFD Toolbox           |
|  \\    /   O peration     | Version:  5.x                                   |
|   \\  /    A nd           | Web:      www.OpenFOAM.org                      |
|    \\/     M anipulation  |                                                 |
\*---------------------------------------------------------------------------*/
/*   Windows 32 and 64 bit porting by blueCAPE: http://www.bluecape.com.pt   *\
|  Based on Windows porting (2.0.x v4) by Symscape: http://www.symscape.com   |
\*---------------------------------------------------------------------------*/
FoamFile
{
    version     2.0;
    format      ascii;
    class       volVectorField;
    location    "31";
    object      U;
}
// * * * * * * * * * * * * * * * * * * * * * * * * * * * * * * * * * * * * * //

dimensions      [0 1 -1 0 0 0 0];

internalField   nonuniform List<vector> 
4000
(
(0.99897 0.000980507 -1.46534e-020)
(0.996801 0.00339997 0)
(0.99242 0.00473429 0)
(0.986896 0.00501187 0)
(0.980936 0.00494266 0)
(0.974924 0.00470876 0)
(0.969088 0.00441074 3.15425e-020)
(0.963557 0.00410099 0)
(0.958379 0.00380721 0)
(0.953545 0.00355317 3.18743e-020)
(0.949055 0.00330851 0)
(0.944883 0.00306508 0)
(0.940996 0.00279004 3.21013e-020)
(0.937341 0.00249795 0)
(0.933846 0.00216633 3.22296e-020)
(0.930529 0.00191196 3.22889e-020)
(0.927368 0.00170935 3.23451e-020)
(0.92432 0.00155741 3.23993e-020)
(0.921387 0.00144246 3.24497e-020)
(0.918544 0.00136864 3.24977e-020)
(0.91577 0.00131871 3.25416e-020)
(0.913074 0.00129491 3.25826e-020)
(0.91043 0.00126559 0)
(0.907833 0.00124553 3.26528e-020)
(0.905328 0.00123956 3.26818e-020)
(0.902909 0.00123375 3.27077e-020)
(0.900543 0.00119051 3.27281e-020)
(0.898219 0.00117936 3.27451e-020)
(0.895916 0.0011793 3.27562e-020)
(0.89359 0.00118651 3.27711e-020)
(0.891253 0.00121455 0)
(0.88891 0.00124114 3.28186e-020)
(0.886602 0.00127462 3.28312e-020)
(0.884408 0.00127762 3.28452e-020)
(0.882402 0.00127142 3.28586e-020)
(0.880631 0.00126402 3.28684e-020)
(0.878651 0.00131078 3.28703e-020)
(0.876481 0.0014428 3.28517e-020)
(0.874394 0.0013622 3.28574e-020)
(0.874204 0.00143825 0)
(0.875993 0.00131382 3.29342e-020)
(0.878901 0.00134046 3.2921e-020)
(0.881807 0.00118913 3.28178e-020)
(0.884127 0.0012627 3.26704e-020)
(0.885621 0.00127694 3.25441e-020)
(0.886337 0.00154517 3.24311e-020)
(0.886368 0.00160305 3.2357e-020)
(0.885963 0.00182922 0)
(0.885215 0.00181099 3.22324e-020)
(0.884305 0.00199129 3.21787e-020)
(0.88326 0.00192913 3.21253e-020)
(0.882173 0.00209042 3.20644e-020)
(0.881017 0.00198439 3.20027e-020)
(0.879828 0.00212673 3.19424e-020)
(0.878624 0.00200951 3.18792e-020)
(0.877356 0.0021635 3.18163e-020)
(0.876023 0.00210322 0)
(0.874621 0.00236708 3.16913e-020)
(0.873056 0.00233081 3.16329e-020)
(0.871335 0.00260669 3.15624e-020)
(0.869455 0.00257957 3.1502e-020)
(0.867467 0.00284135 3.14325e-020)
(0.865452 0.00269463 3.13657e-020)
(0.863507 0.00283204 3.13035e-020)
(0.861686 0.00264464 0)
(0.859986 0.00282367 3.1172e-020)
(0.858367 0.00264062 3.10966e-020)
(0.856816 0.00279679 3.10245e-020)
(0.855343 0.00257378 3.09437e-020)
(0.853942 0.00273258 3.08627e-020)
(0.852604 0.00251428 3.07713e-020)
(0.851276 0.00270961 3.06762e-020)
(0.849952 0.00256286 3.05745e-020)
(0.848592 0.00284007 3.04706e-020)
(0.847128 0.00272344 3.03715e-020)
(0.845534 0.00298344 3.0276e-020)
(0.843869 0.00283892 3.01801e-020)
(0.842162 0.00310611 3.00879e-020)
(0.840425 0.00291709 2.9987e-020)
(0.838662 0.00315837 2.98907e-020)
(0.836929 0.00292125 2.97813e-020)
(0.835214 0.00313828 0)
(0.833574 0.00289205 2.95608e-020)
(0.831959 0.00312693 2.94501e-020)
(0.830402 0.00289096 2.93248e-020)
(0.828822 0.00314841 2.92063e-020)
(0.827279 0.00292185 2.90755e-020)
(0.825735 0.00317818 2.89527e-020)
(0.82423 0.00289202 2.88157e-020)
(0.822716 0.00310673 2.86896e-020)
(0.82133 0.00277432 0)
(0.820013 0.00296708 2.84084e-020)
(0.8188 0.00263172 2.82523e-020)
(0.817651 0.00290702 2.81046e-020)
(0.816627 0.00262003 2.79393e-020)
(0.815579 0.0028876 2.77882e-020)
(0.814618 0.00258768 2.76216e-020)
(0.813692 0.00286984 2.74746e-020)
(0.812894 0.00253116 2.73064e-020)
(0.812104 0.00280073 2.71609e-020)
(0.811426 0.00245835 2.69886e-020)
(0.8107 0.00279705 2.68387e-020)
(0.809991 0.00250831 2.66627e-020)
(0.809117 0.00297048 2.65053e-020)
(0.808084 0.00277067 2.63313e-020)
(0.806703 0.0033368 2.61731e-020)
(0.804955 0.00330788 2.6002e-020)
(0.802782 0.00389125 2.58488e-020)
(0.800318 0.00385246 2.56837e-020)
(0.797417 0.00439513 2.55432e-020)
(0.794336 0.0042466 2.53841e-020)
(0.791086 0.00464212 2.52471e-020)
(0.7879 0.00434381 2.50832e-020)
(0.784621 0.00463032 2.49346e-020)
(0.781497 0.00430016 2.4759e-020)
(0.778298 0.00459786 2.45981e-020)
(0.775157 0.00430512 2.44166e-020)
(0.771936 0.00463347 2.42519e-020)
(0.768805 0.00430941 2.40691e-020)
(0.765612 0.00459195 2.39006e-020)
(0.76264 0.00422422 2.37088e-020)
(0.759729 0.00443907 2.35284e-020)
(0.757091 0.00401275 2.33247e-020)
(0.754574 0.00421313 2.31331e-020)
(0.752421 0.00378235 2.29192e-020)
(0.750395 0.00396851 2.27222e-020)
(0.748814 0.00346112 2.25014e-020)
(0.747443 0.00355606 2.23039e-020)
(0.746553 0.00299598 2.2086e-020)
(0.745969 0.00285149 2.18965e-020)
(0.746361 0.0021665 2.16004e-020)
(0.74698 0.00218686 2.12889e-020)
(0.747246 0.00259714 2.09436e-020)
(0.745551 0.00407488 2.06777e-020)
(0.741987 0.00514778 2.04489e-020)
(0.737199 0.00607928 2.02605e-020)
(0.732026 0.00590168 2.01061e-020)
(0.726867 0.00597445 1.9921e-020)
(0.722106 0.00546574 1.96875e-020)
(0.717491 0.00563484 1.94523e-020)
(0.713128 0.00531495 1.92088e-020)
(0.708711 0.00547106 1.89815e-020)
(0.704562 0.00493658 1.87709e-020)
(0.700675 0.00485736 1.855e-020)
(0.697315 0.00425364 1.8322e-020)
(0.694262 0.00432589 1.80689e-020)
(0.691562 0.00391723 1.78143e-020)
(0.688931 0.0041384 1.75421e-020)
(0.686482 0.00381876 1.72762e-020)
(0.683989 0.00410121 1.69948e-020)
(0.681569 0.00382812 1.67226e-020)
(0.678983 0.00420521 1.64369e-020)
(0.676306 0.00403478 1.61635e-020)
(0.673303 0.00448454 1.58799e-020)
(0.670177 0.00430936 1.56075e-020)
(0.666786 0.00464565 1.53194e-020)
(0.663401 0.00434376 1.50387e-020)
(0.659882 0.00463632 1.47374e-020)
(0.656492 0.00428819 1.4443e-020)
(0.653054 0.00450932 1.41336e-020)
(0.649939 0.00401923 1.38284e-020)
(0.646996 0.00408153 1.3507e-020)
(0.644725 0.0033776 1.31796e-020)
(0.643009 0.00321748 1.28142e-020)
(0.642274 0.00222787 1.24373e-020)
(0.642085 0.0022339 1.20555e-020)
(0.642642 0.00145379 1.16877e-020)
(0.643564 0.00122766 1.1323e-020)
(0.645723 0.000206028 1.09517e-020)
(0.649177 -0.000711127 1.05236e-020)
(0.654336 -0.00208473 1.00898e-020)
(0.66069 -0.00269873 9.63055e-021)
(0.668449 -0.00347738 9.17617e-021)
(0.675868 -0.00291309 8.71e-021)
(0.680712 -0.00120749 8.33547e-021)
(0.682075 0.00160437 8.00499e-021)
(0.680942 0.00254875 7.73859e-021)
(0.678819 0.0032375 7.45692e-021)
(0.677493 0.00228973 7.20171e-021)
(0.6788 0.000501355 6.91531e-021)
(0.683705 -0.00248926 6.58645e-021)
(0.691446 -0.00463333 6.21092e-021)
(0.701047 -0.0064194 5.83286e-021)
(0.711257 -0.00629757 5.46341e-021)
(0.721723 -0.00631464 5.1382e-021)
(0.729717 -0.00283786 4.83536e-021)
(0.729061 0.00389852 4.58875e-021)
(0.713084 0.0153482 4.31746e-021)
(0.680775 0.0255186 4.06595e-021)
(0.638855 0.0313035 3.84595e-021)
(0.596862 0.0288664 3.66798e-021)
(0.563073 0.0217524 3.42639e-021)
(0.539474 0.0133805 3.15265e-021)
(0.524875 0.00814995 2.78785e-021)
(0.512665 0.00656388 2.43066e-021)
(0.498485 0.00861299 2.02438e-021)
(0.482141 0.00900196 1.62901e-021)
(0.461967 0.00903845 1.18911e-021)
(0.443163 0.00763572 7.23216e-022)
(0.41865 0.00618291 2.49098e-022)
(1.00023 0.00188697 -9.34457e-021)
(1.00032 0.00439129 0)
(0.999971 0.00525932 0)
(0.999113 0.00545779 0)
(0.997845 0.00544628 0)
(0.996328 0.00532048 0)
(0.994657 0.00511201 2.24326e-020)
(0.992899 0.00491371 0)
(0.991115 0.00472705 0)
(0.989301 0.00455908 2.25535e-020)
(0.987469 0.00440398 0)
(0.985618 0.00425708 0)
(0.983766 0.00411581 2.25516e-020)
(0.981938 0.00394477 0)
(0.980156 0.00376585 2.25583e-020)
(0.978429 0.0035988 2.25747e-020)
(0.976733 0.0034515 2.26942e-020)
(0.975056 0.00334386 2.2929e-020)
(0.973392 0.00327271 2.31372e-020)
(0.971744 0.00321352 2.33248e-020)
(0.970095 0.00317797 2.34943e-020)
(0.968438 0.00313773 2.3647e-020)
(0.966785 0.00309552 0)
(0.965167 0.00306441 2.39047e-020)
(0.963587 0.00301676 2.40077e-020)
(0.962016 0.00294931 2.41053e-020)
(0.960486 0.00289367 2.41888e-020)
(0.95898 0.00285281 2.4261e-020)
(0.957438 0.00283266 2.43291e-020)
(0.955849 0.00281255 2.44236e-020)
(0.954216 0.00282642 0)
(0.952545 0.00283572 2.46732e-020)
(0.950878 0.00284533 2.47721e-020)
(0.949354 0.00280915 2.48592e-020)
(0.948088 0.00276248 2.49348e-020)
(0.947128 0.00272959 2.49975e-020)
(0.945927 0.00276749 2.5061e-020)
(0.944124 0.00289781 2.5114e-020)
(0.942826 0.00277956 2.51525e-020)
(0.943254 0.00263617 0)
(0.945869 0.00212817 2.50419e-020)
(0.949803 0.0019802 2.47862e-020)
(0.952753 0.00182841 2.43019e-020)
(0.954242 0.00213533 2.39362e-020)
(0.954704 0.00223406 2.37061e-020)
(0.954675 0.00269085 2.35671e-020)
(0.954262 0.00269635 2.35381e-020)
(0.953701 0.00306755 0)
(0.953056 0.00300423 2.35944e-020)
(0.952322 0.0032951 2.36523e-020)
(0.951557 0.00316813 2.36889e-020)
(0.950747 0.00339266 2.37171e-020)
(0.949907 0.00321568 2.37397e-020)
(0.949066 0.0033895 2.37537e-020)
(0.948226 0.0032168 2.37688e-020)
(0.947383 0.0034648 2.37895e-020)
(0.946488 0.00337677 0)
(0.945455 0.00380726 2.38679e-020)
(0.94432 0.0038482 2.39151e-020)
(0.9429 0.00443261 2.39396e-020)
(0.941273 0.00439937 2.39501e-020)
(0.939568 0.00475699 2.39104e-020)
(0.937944 0.00447148 2.38575e-020)
(0.936611 0.00442598 2.3834e-020)
(0.935291 0.00396416 0)
(0.934236 0.00407493 2.38901e-020)
(0.933232 0.00383932 2.38837e-020)
(0.932419 0.00401052 2.38644e-020)
(0.931667 0.00373107 2.38336e-020)
(0.930949 0.00394398 2.37899e-020)
(0.930212 0.00370112 2.37336e-020)
(0.929459 0.00406447 2.36567e-020)
(0.928618 0.00386959 2.35742e-020)
(0.927689 0.00437793 2.34709e-020)
(0.926653 0.00421587 2.33929e-020)
(0.925537 0.00472945 2.33176e-020)
(0.924383 0.00450043 2.32567e-020)
(0.92319 0.00489978 2.31948e-020)
(0.921974 0.00460964 2.31389e-020)
(0.920737 0.00492123 2.30776e-020)
(0.919509 0.00459548 2.30148e-020)
(0.918372 0.00485366 0)
(0.917245 0.00449424 2.28755e-020)
(0.91618 0.00476893 2.28032e-020)
(0.915117 0.0044527 2.27282e-020)
(0.914043 0.00482382 2.2645e-020)
(0.912959 0.00452542 2.25591e-020)
(0.91187 0.00484727 2.24656e-020)
(0.91077 0.00445696 2.23709e-020)
(0.909745 0.00463513 2.22778e-020)
(0.908724 0.00417618 0)
(0.907904 0.00433303 2.2084e-020)
(0.907089 0.00389035 2.19775e-020)
(0.906297 0.00416268 2.1864e-020)
(0.905526 0.00375651 2.17359e-020)
(0.904896 0.00405097 2.15809e-020)
(0.904363 0.00365532 2.14438e-020)
(0.903847 0.00396253 2.13195e-020)
(0.903447 0.00348808 2.11935e-020)
(0.903137 0.00374496 2.10747e-020)
(0.902997 0.00327565 2.095e-020)
(0.902812 0.0037093 2.08239e-020)
(0.902507 0.00340408 2.06998e-020)
(0.902094 0.00426906 2.05634e-020)
(0.901432 0.0040426 2.04507e-020)
(0.90052 0.00520275 2.03186e-020)
(0.899259 0.00505822 2.02065e-020)
(0.8977 0.00621045 2.00798e-020)
(0.895947 0.00596537 1.99814e-020)
(0.894054 0.00688837 1.98798e-020)
(0.892074 0.00648165 1.97898e-020)
(0.890108 0.00713683 1.96916e-020)
(0.888168 0.00657741 1.95908e-020)
(0.886134 0.00716546 1.9478e-020)
(0.884067 0.0066243 1.93579e-020)
(0.881897 0.0072816 1.92287e-020)
(0.879682 0.00677516 1.91002e-020)
(0.877446 0.00738798 1.89716e-020)
(0.875483 0.00676256 1.88429e-020)
(0.873626 0.00722367 1.87103e-020)
(0.871858 0.00652341 1.85679e-020)
(0.870174 0.00688238 1.84277e-020)
(0.86864 0.0060959 1.82726e-020)
(0.867361 0.00645075 1.81107e-020)
(0.866382 0.00564004 1.79402e-020)
(0.8656 0.0059628 1.7772e-020)
(0.865312 0.00495553 1.7596e-020)
(0.865102 0.00493406 1.74367e-020)
(0.865445 0.00364637 1.73053e-020)
(0.867177 0.00270969 1.71391e-020)
(0.87037 0.000494264 1.68563e-020)
(0.872675 0.000535571 1.65958e-020)
(0.87282 0.00181217 1.64191e-020)
(0.869869 0.00686468 1.61887e-020)
(0.869064 0.00845136 1.56172e-020)
(0.871574 0.0103045 1.4876e-020)
(0.872737 0.00993679 1.44215e-020)
(0.869171 0.0108113 1.46269e-020)
(0.861506 0.0102481 1.49713e-020)
(0.852574 0.0108003 1.50799e-020)
(0.845695 0.0100188 1.49464e-020)
(0.840955 0.0103711 1.47732e-020)
(0.837297 0.00915089 1.46314e-020)
(0.834731 0.00900505 1.44678e-020)
(0.832821 0.00769754 1.42666e-020)
(0.831327 0.00808619 1.40594e-020)
(0.829985 0.00719111 1.3845e-020)
(0.828649 0.0079323 1.36263e-020)
(0.82742 0.00712797 1.34054e-020)
(0.826119 0.00799841 1.31769e-020)
(0.824779 0.0072456 1.29476e-020)
(0.823296 0.00841704 1.27128e-020)
(0.821601 0.00786933 1.24851e-020)
(0.819617 0.00940021 1.22561e-020)
(0.817246 0.00873565 1.20508e-020)
(0.814864 0.00976822 1.18254e-020)
(0.812664 0.00880012 1.1578e-020)
(0.810431 0.0096892 1.13208e-020)
(0.808317 0.00879354 1.10658e-020)
(0.806193 0.00947465 1.08132e-020)
(0.804029 0.00832864 1.05625e-020)
(0.802129 0.0085502 1.03185e-020)
(0.800412 0.00682113 1.00666e-020)
(0.799679 0.00636532 9.77045e-021)
(0.799873 0.00403144 9.43529e-021)
(0.800828 0.00350183 9.11805e-021)
(0.803363 0.001412 8.77551e-021)
(0.809157 0.000550298 8.27669e-021)
(0.826678 -0.00207758 6.95972e-021)
(0.831915 -0.0031978 6.68042e-021)
(0.835838 -0.00671145 6.40754e-021)
(0.839849 -0.00835401 6.15192e-021)
(0.843989 -0.0106579 6.00891e-021)
(0.83776 -0.00865456 6.34223e-021)
(0.830812 -0.00385946 6.2158e-021)
(0.830392 0.00145866 5.77289e-021)
(0.833124 0.00296556 5.40735e-021)
(0.828419 0.00416466 5.54284e-021)
(0.839886 0.00151554 4.7521e-021)
(0.844522 -0.00151312 4.58519e-021)
(0.847428 -0.00628182 4.47707e-021)
(0.852482 -0.00910982 4.07127e-021)
(0.848582 -0.0122061 4.1845e-021)
(0.849092 -0.0138165 3.95425e-021)
(0.852424 -0.0150346 3.8888e-021)
(0.857916 -0.0070462 3.79226e-021)
(0.854884 0.0102281 3.77651e-021)
(0.836372 0.0407102 3.54682e-021)
(0.805771 0.0654247 3.10456e-021)
(0.789127 0.0623896 2.57113e-021)
(0.778193 0.0471584 2.29028e-021)
(0.778142 0.0297886 2.11774e-021)
(0.759755 0.019377 2.21747e-021)
(0.737456 0.0185529 2.0529e-021)
(0.715361 0.0210028 1.80199e-021)
(0.69272 0.0267035 1.5197e-021)
(0.672373 0.0286935 1.19936e-021)
(0.650365 0.0267816 8.66855e-022)
(0.63467 0.0227629 5.13833e-022)
(0.607862 0.0183724 1.78481e-022)
(1.00004 0.00144537 1.06794e-020)
(0.999927 0.00329248 0)
(0.999949 0.00424566 0)
(0.99979 0.00470157 0)
(0.99937 0.00494095 0)
(0.998708 0.00499925 0)
(0.997902 0.00495004 -2.35187e-020)
(0.997042 0.00484592 0)
(0.996131 0.00471202 0)
(0.995173 0.0045616 -2.36677e-020)
(0.994183 0.00440949 0)
(0.993176 0.00425601 0)
(0.992151 0.00413144 -2.35408e-020)
(0.991147 0.00400574 0)
(0.990186 0.00389147 -2.33268e-020)
(0.989263 0.00377247 -2.32783e-020)
(0.988386 0.00368004 -2.35085e-020)
(0.987513 0.00362249 -2.41796e-020)
(0.986627 0.00359118 -2.50614e-020)
(0.985769 0.00357089 -2.58762e-020)
(0.984891 0.00356158 -2.66972e-020)
(0.983998 0.00355127 -2.74738e-020)
(0.983125 0.00353856 0)
(0.982232 0.00352858 -2.88673e-020)
(0.981339 0.00349538 -2.95083e-020)
(0.980478 0.00346084 -3.01105e-020)
(0.979587 0.00343509 -3.0718e-020)
(0.978644 0.00340727 -3.13341e-020)
(0.977654 0.00338333 -9.58831e-020)
(0.976635 0.00335567 -3.25655e-020)
(0.975607 0.00334241 0)
(0.974566 0.00332791 -3.37075e-020)
(0.973581 0.00332347 -3.42041e-020)
(0.972735 0.00330643 -3.46104e-020)
(0.972077 0.0032698 -1.04824e-019)
(0.971492 0.00326681 -3.52499e-020)
(0.970687 0.00332496 -3.56531e-020)
(0.969621 0.00342219 -3.59856e-020)
(0.969346 0.0033215 -3.58662e-020)
(0.970321 0.00302235 0)
(0.972511 0.00253382 -1.01375e-019)
(0.975412 0.00239044 -3.10833e-020)
(0.977464 0.00239028 -2.80845e-020)
(0.978252 0.0025575 -2.61987e-020)
(0.978305 0.00261102 -2.58115e-020)
(0.978193 0.00276928 -2.56082e-020)
(0.977975 0.00280792 -7.66878e-020)
(0.977739 0.00296013 0)
(0.97747 0.00299477 -2.57149e-020)
(0.977171 0.00311583 -2.58598e-020)
(0.976843 0.0031015 -2.59936e-020)
(0.976488 0.00317039 -2.61427e-020)
(0.976121 0.00309801 -2.62849e-020)
(0.97577 0.00312299 -2.64004e-020)
(0.975432 0.00302379 -2.65137e-020)
(0.97511 0.0030746 -2.66437e-020)
(0.974793 0.00309216 0)
(0.974474 0.00333334 -2.70033e-020)
(0.974069 0.00362759 -2.72057e-020)
(0.973112 0.00413062 -2.86421e-020)
(0.972042 0.00448478 -2.95471e-020)
(0.970929 0.00468109 -2.97451e-020)
(0.970074 0.00439162 -2.9299e-020)
(0.969502 0.00378935 -2.88582e-020)
(0.96902 0.00316013 0)
(0.968505 0.00295821 -2.98075e-020)
(0.96803 0.00288078 -3.05861e-020)
(0.96779 0.00295608 -3.08202e-020)
(0.967543 0.00300899 -3.10653e-020)
(0.967012 0.00319123 -3.1697e-020)
(0.966144 0.00332578 -3.25983e-020)
(0.964925 0.00353703 -3.37142e-020)
(0.963372 0.00368651 -3.47483e-020)
(0.96179 0.0039502 -3.54191e-020)
(0.960593 0.00407519 -3.561e-020)
(0.959596 0.00426021 -3.56436e-020)
(0.958725 0.00428584 -3.5659e-020)
(0.957911 0.00433066 -3.56937e-020)
(0.957078 0.00425737 -3.57472e-020)
(0.956265 0.0042618 -3.57701e-020)
(0.955466 0.00415455 -3.57864e-020)
(0.954706 0.00409985 0)
(0.953936 0.00392705 -3.58137e-020)
(0.95319 0.00387629 3.58754e-020)
(0.952408 0.00381845 3.59205e-020)
(0.95162 0.00391156 -3.59069e-020)
(0.950823 0.00393367 -3.5875e-020)
(0.950063 0.00399173 -3.57951e-020)
(0.949362 0.00387918 -3.56927e-020)
(0.948705 0.00372053 -3.55977e-020)
(0.948086 0.00343164 7.10825e-020)
(0.94752 0.00322464 -3.54626e-020)
(0.946899 0.00297945 -3.54088e-020)
(0.946234 0.00287254 -3.53107e-020)
(0.945654 0.00272742 -3.50981e-020)
(0.945288 0.0027496 -3.46214e-020)
(0.94507 0.00270747 3.42587e-020)
(0.944879 0.00263929 -3.3987e-020)
(0.944778 0.00240945 -3.37817e-020)
(0.9448 0.00222188 -3.35905e-020)
(0.944923 0.00208223 -3.33976e-020)
(0.944978 0.00218801 -3.32168e-020)
(0.94485 0.00241292 3.30999e-020)
(0.944565 0.00276612 -3.29102e-020)
(0.944202 0.00305808 -3.27929e-020)
(0.943656 0.00339508 -3.2678e-020)
(0.94285 0.00365776 -3.25661e-020)
(0.941804 0.00392701 -3.24917e-020)
(0.94096 0.00408673 -3.24119e-020)
(0.940068 0.0042844 3.23822e-020)
(0.939284 0.00436456 -3.22656e-020)
(0.938477 0.00441403 -3.21793e-020)
(0.937608 0.00436882 -3.20818e-020)
(0.936472 0.00439749 -3.19772e-020)
(0.935198 0.0044672 -3.18452e-020)
(0.933741 0.00458312 3.17325e-020)
(0.932287 0.00462689 -3.15655e-020)
(0.931018 0.00455858 -3.14118e-020)
(0.930039 0.00435238 -3.1251e-020)
(0.929141 0.00409373 -3.10686e-020)
(0.928196 0.00387473 -3.0894e-020)
(0.927295 0.00363011 3.07509e-020)
(0.926633 0.00331661 -3.04913e-020)
(0.926267 0.00305935 -3.01731e-020)
(0.926221 0.0027621 -2.98083e-020)
(0.926432 0.00233815 -2.94722e-020)
(0.927283 0.00158726 -2.91096e-020)
(0.92871 0.000422667 2.86622e-020)
(0.937127 -0.00121453 -2.47653e-020)
(0.94795 -0.00325192 -2.01486e-020)
(0.95141 -0.00547576 -1.97007e-020)
(0.95407 -0.00568504 -1.9454e-020)
(0.943905 -0.002506 -2.59866e-020)
(0.935618 0.00328539 2.63093e-020)
(0.935716 0.00542737 -2.29798e-020)
(0.940931 0.00692483 -1.91034e-020)
(0.943342 0.00788847 -1.75895e-020)
(0.940986 0.0082407 -1.86462e-020)
(0.935083 0.00806642 -2.10321e-020)
(0.928231 0.00786955 2.27989e-020)
(0.919466 0.00811037 -2.43327e-020)
(0.913381 0.00814241 -2.46869e-020)
(0.909911 0.00730537 -2.48615e-020)
(0.908173 0.00577585 -2.47033e-020)
(0.907466 0.00468011 -2.42755e-020)
(0.907204 0.00445579 -2.38051e-020)
(0.906932 0.00440805 2.34008e-020)
(0.906627 0.00449809 -2.30045e-020)
(0.906278 0.00454367 -2.26187e-020)
(0.905818 0.00463594 -2.22016e-020)
(0.905348 0.00474888 -2.17427e-020)
(0.904712 0.00516716 -2.12842e-020)
(0.903658 0.00593602 2.09271e-020)
(0.901836 0.00712464 -2.06716e-020)
(0.899731 0.00771463 -2.05113e-020)
(0.897856 0.00747761 -2.01784e-020)
(0.896283 0.00714717 -1.96847e-020)
(0.894999 0.00731396 -1.90979e-020)
(0.893923 0.00739261 1.85576e-020)
(0.89272 0.00742446 -1.80671e-020)
(0.89135 0.00711385 -1.76667e-020)
(0.889722 0.00665649 -1.73679e-020)
(0.888382 0.00532104 -1.70702e-020)
(0.887921 0.00319858 -1.65417e-020)
(0.888554 0.000750255 1.57904e-020)
(0.890863 -0.00103793 -1.50223e-020)
(0.896114 -0.00250599 -1.37718e-020)
(0.90797 -0.00355069 -1.06789e-020)
(0.919257 -0.00407074 -7.16196e-021)
(0.922152 -0.005713 -6.47387e-021)
(0.922832 -0.00895447 6.23725e-021)
(0.923665 -0.012246 -6.18771e-021)
(0.921997 -0.0143897 -6.57621e-021)
(0.915692 -0.0133756 -7.93504e-021)
(0.907325 -0.00930341 -8.43459e-021)
(0.904628 -0.0025324 -7.55033e-021)
(0.906024 -0.000185201 -6.83172e-021)
(0.907768 0.00123402 6.96865e-021)
(0.919497 -0.000755525 -5.18691e-021)
(0.924319 -0.00112615 -4.8321e-021)
(0.923671 -0.003611 -4.8738e-021)
(0.920482 -0.00931193 -4.5711e-021)
(0.912064 -0.0149569 -5.2935e-021)
(0.905542 -0.0180081 5.5392e-021)
(0.906775 -0.0176338 -5.93211e-021)
(0.913573 -0.00789318 -6.18769e-021)
(0.911623 0.0116868 -6.61425e-021)
(0.891131 0.0482705 -6.28082e-021)
(0.870524 0.0650139 -4.66836e-021)
(0.875777 0.0547668 2.96574e-021)
(0.887373 0.0350619 -2.37082e-021)
(0.892922 0.0249214 -2.24853e-021)
(0.884056 0.0278224 -2.86655e-021)
(0.861702 0.0377167 -3.1493e-021)
(0.834943 0.0492665 -2.85419e-021)
(0.805007 0.0590861 2.58456e-021)
(0.777821 0.0585044 -1.94778e-021)
(0.754749 0.0497562 -1.44147e-021)
(0.743732 0.0413458 -8.682e-022)
(0.720205 0.033261 -3.06342e-022)
(0.999948 0.00147202 -1.71001e-020)
(0.999825 0.00295662 0)
(0.99982 0.00381732 0)
(0.999755 0.00434416 0)
(0.999549 0.00463873 0)
(0.9992 0.00475326 0)
(0.998745 0.0047308 2.53212e-020)
(0.99823 0.00463916 0)
(0.997666 0.00452446 0)
(0.99706 0.0044031 2.54037e-020)
(0.996425 0.00429265 0)
(0.995779 0.00420068 0)
(0.99512 0.00412922 2.52391e-020)
(0.994459 0.00406733 0)
(0.993825 0.00401495 2.49047e-020)
(0.993228 0.00397169 2.47026e-020)
(0.992661 0.00394191 2.46006e-020)
(0.992106 0.00393045 2.49245e-020)
(0.991562 0.00393734 2.56841e-020)
(0.991035 0.00395005 2.64929e-020)
(0.990508 0.00396588 2.73488e-020)
(0.989978 0.00399206 2.81716e-020)
(0.98946 0.00400568 0)
(0.98894 0.00401728 2.96677e-020)
(0.988419 0.00403321 3.04048e-020)
(0.987907 0.004041 3.11049e-020)
(0.987384 0.00404261 3.18885e-020)
(0.98683 0.00405344 3.2794e-020)
(0.986234 0.00406657 6.78218e-020)
(0.985625 0.00408109 3.5133e-020)
(0.985023 0.00408967 0)
(0.984428 0.00409263 3.72517e-020)
(0.983886 0.00409881 3.80037e-020)
(0.983416 0.00409687 3.85965e-020)
(0.983039 0.00408916 7.82665e-020)
(0.982688 0.0041177 3.97864e-020)
(0.982211 0.00421731 4.05875e-020)
(0.981689 0.0043307 4.0843e-020)
(0.981588 0.00429228 4.03488e-020)
(0.982047 0.00400924 0)
(0.983152 0.00358863 7.26593e-020)
(0.984709 0.00328957 3.05673e-020)
(0.98582 0.00317669 2.52708e-020)
(0.986202 0.00316522 2.2551e-020)
(0.986184 0.00317216 2.19781e-020)
(0.98606 0.00319064 2.18528e-020)
(0.985945 0.00319992 4.3458e-020)
(0.985876 0.00324926 0)
(0.985838 0.00329867 2.13751e-020)
(0.985808 0.00335608 2.11557e-020)
(0.985762 0.00335625 2.0969e-020)
(0.985715 0.00335488 2.0743e-020)
(0.985655 0.00329091 2.05553e-020)
(0.985587 0.00322562 2.04508e-020)
(0.985512 0.00310721 2.03819e-020)
(0.985485 0.00304814 2.03186e-020)
(0.98553 0.00300539 0)
(0.985663 0.00311806 2.02099e-020)
(0.985762 0.00333722 2.05092e-020)
(0.985664 0.00379862 2.2183e-020)
(0.985308 0.00422811 2.36474e-020)
(0.984795 0.00449442 2.40125e-020)
(0.984323 0.00428795 2.33584e-020)
(0.984102 0.00372113 2.26314e-020)
(0.984073 0.00304335 0)
(0.984042 0.00264176 2.36419e-020)
(0.98397 0.00249034 2.47786e-020)
(0.983942 0.00252976 2.53424e-020)
(0.983895 0.00263102 2.5933e-020)
(0.983688 0.00282632 2.72711e-020)
(0.98326 0.0030647 2.94478e-020)
(0.982582 0.00336137 3.24163e-020)
(0.981661 0.00366441 3.56294e-020)
(0.980721 0.00395536 3.81496e-020)
(0.980022 0.00414684 3.92883e-020)
(0.979544 0.00425296 3.96457e-020)
(0.979155 0.0042762 3.98007e-020)
(0.978803 0.0042537 3.994e-020)
(0.978456 0.00416662 4.00714e-020)
(0.97812 0.00409124 4.01384e-020)
(0.977785 0.00392507 4.01925e-020)
(0.97749 0.00377805 0)
(0.977222 0.0035629 4.03766e-020)
(0.977004 0.00346152 1.69312e-023)
(0.976772 0.00338177 1.70889e-023)
(0.976529 0.00346505 4.08116e-020)
(0.976233 0.003492 4.08391e-020)
(0.975916 0.0035469 4.07746e-020)
(0.975635 0.00336306 4.06554e-020)
(0.975422 0.00314816 4.0545e-020)
(0.975297 0.00274339 -4.04633e-020)
(0.975207 0.00244936 4.0452e-020)
(0.975086 0.00209078 4.04689e-020)
(0.974873 0.00200645 4.044e-020)
(0.97431 0.00191185 4.03857e-020)
(0.970823 0.00214739 4.68601e-020)
(0.968479 0.00209751 3.49574e-023)
(0.968094 0.00196932 5.16821e-020)
(0.968075 0.00158833 5.1303e-020)
(0.968208 0.00140074 5.08577e-020)
(0.968224 0.00123265 5.06447e-020)
(0.968036 0.00143891 5.07887e-020)
(0.967687 0.00161896 4.06731e-023)
(0.967457 0.00192505 5.1196e-020)
(0.967396 0.00192567 5.1189e-020)
(0.967202 0.00200293 5.12789e-020)
(0.966694 0.00198319 5.15015e-020)
(0.96612 0.00223883 5.17569e-020)
(0.9658 0.00236831 5.17256e-020)
(0.96556 0.00260375 3.15122e-023)
(0.965345 0.0025778 5.13456e-020)
(0.965103 0.00261121 5.11501e-020)
(0.964676 0.00242145 5.10671e-020)
(0.964028 0.0024212 5.10862e-020)
(0.963112 0.0023423 5.11552e-020)
(0.962111 0.0024494 2.31545e-023)
(0.961155 0.00231578 5.13101e-020)
(0.960514 0.00218891 5.1181e-020)
(0.96008 0.00172856 5.09774e-020)
(0.959571 0.00140413 5.08357e-020)
(0.95889 0.000979771 5.0829e-020)
(0.958934 0.000764861 8.21236e-024)
(0.958666 0.000366324 5.01666e-020)
(0.958091 0.00011902 4.94986e-020)
(0.957932 -0.000340227 4.84441e-020)
(0.958422 -0.000796044 4.72424e-020)
(0.960091 -0.00183961 4.54181e-020)
(0.964584 -0.00294094 -3.78842e-023)
(0.973204 -0.00406187 2.34474e-020)
(0.978303 -0.00527782 1.54201e-020)
(0.98012 -0.00695759 1.42573e-020)
(0.980193 -0.00687272 1.57826e-020)
(0.973036 -0.0046799 2.81652e-020)
(0.961426 -0.000875854 2.70847e-023)
(0.95214 0.00133321 3.89745e-020)
(0.952828 0.00295909 3.15552e-020)
(0.953952 0.00370655 2.8765e-020)
(0.953957 0.00314685 2.85438e-020)
(0.954712 0.00230255 2.80259e-020)
(0.954605 0.00277865 4.33699e-023)
(0.950161 0.00400911 3.71128e-020)
(0.946687 0.00464289 4.16199e-020)
(0.953933 0.00340796 3.93502e-020)
(0.955639 0.00174728 3.91304e-020)
(0.950953 0.000686801 4.08721e-020)
(0.948707 0.000594674 4.03024e-020)
(0.948001 0.000617786 -2.11322e-023)
(0.947736 0.000804231 3.86074e-020)
(0.947513 0.000980031 3.79745e-020)
(0.946571 0.00115586 3.73673e-020)
(0.94518 0.00118217 3.64386e-020)
(0.943964 0.00154896 3.54411e-020)
(0.942632 0.00248618 7.41863e-024)
(0.942186 0.00405923 3.47367e-020)
(0.958139 0.00484617 2.39889e-020)
(0.959774 0.00486636 2.31228e-020)
(0.946555 0.00499106 3.13874e-020)
(0.938995 0.00518215 3.21474e-020)
(0.93474 0.00510938 -5.79657e-024)
(0.932824 0.00473713 3.05291e-020)
(0.932064 0.00425628 2.9892e-020)
(0.936014 0.00343831 2.74359e-020)
(0.950683 0.00242033 1.95082e-020)
(0.951798 0.000808026 1.88775e-020)
(0.937107 -0.00215755 -9.94176e-023)
(0.930112 -0.00394135 2.48748e-020)
(0.928495 -0.00440277 2.20521e-020)
(0.926781 -0.00470072 1.87731e-020)
(0.923692 -0.00525672 1.5653e-020)
(0.916167 -0.00786619 1.56842e-020)
(0.910153 -0.0114962 -1.12346e-022)
(0.906495 -0.0162431 1.62068e-020)
(0.906958 -0.0218559 1.57077e-020)
(0.909804 -0.0264645 1.40737e-020)
(0.90739 -0.0241782 1.41076e-020)
(0.894819 -0.0183001 1.6451e-020)
(0.884123 -0.0131426 1.66818e-020)
(0.880156 -0.0077239 5.74641e-023)
(0.896285 0.00282006 1.42491e-020)
(0.90036 0.0102836 1.39091e-020)
(0.889565 0.00731837 1.43593e-020)
(0.87861 -0.00800184 1.39412e-020)
(0.874988 -0.0244795 1.35837e-020)
(0.880408 -0.0301613 6.24896e-023)
(0.893749 -0.0286404 1.2971e-020)
(0.915496 -0.0189292 1.30806e-020)
(0.930212 -0.00634972 1.2791e-020)
(0.91454 0.0131805 1.29418e-020)
(0.861967 0.042819 1.147e-020)
(0.836868 0.050729 -5.12873e-023)
(0.844374 0.0441084 7.51512e-021)
(0.862684 0.0378401 6.90653e-021)
(0.869666 0.0449266 6.66014e-021)
(0.868254 0.0581567 5.82725e-021)
(0.862465 0.0682678 4.88636e-021)
(0.847424 0.0716588 1.32767e-022)
(0.835598 0.0662463 3.35593e-021)
(0.834984 0.0536861 2.48496e-021)
(0.829024 0.0454704 1.57916e-021)
(0.80327 0.0395176 5.90497e-022)
(0.99989 0.00153038 1.61712e-020)
(0.999731 0.00278957 0)
(0.999657 0.00358256 0)
(0.999573 0.00416794 0)
(0.999421 0.00453535 0)
(0.999176 0.00469483 0)
(0.998849 0.00471734 -1.78454e-020)
(0.998466 0.00466779 0)
(0.998034 0.00459427 3.57432e-020)
(0.997566 0.00452626 -1.78551e-020)
(0.997074 0.00447019 3.57053e-020)
(0.996561 0.00443011 3.56652e-020)
(0.996033 0.004407 -1.7789e-020)
(0.995511 0.0043973 0)
(0.995005 0.00440545 -1.76593e-020)
(0.994513 0.00442253 -1.75774e-020)
(0.994046 0.00444795 -1.7493e-020)
(0.993593 0.0044786 -1.74435e-020)
(0.99315 0.00451577 -1.74369e-020)
(0.992722 0.00455323 -1.74196e-020)
(0.992308 0.00459444 -1.74075e-020)
(0.991897 0.00463653 -1.73907e-020)
(0.991492 0.00467038 0)
(0.991093 0.0047004 -1.73464e-020)
(0.990696 0.00473523 -1.73247e-020)
(0.990305 0.00476294 -1.72996e-020)
(0.989916 0.00479295 -1.72811e-020)
(0.989519 0.00482077 -1.73108e-020)
(0.989108 0.00485702 -1.75442e-020)
(0.988685 0.00489769 -1.79787e-020)
(0.98825 0.00493131 0)
(0.987823 0.0049615 -1.89244e-020)
(0.987429 0.00498297 -1.91828e-020)
(0.987083 0.00499517 -1.93985e-020)
(0.986795 0.00501763 -1.96358e-020)
(0.986534 0.00506505 -1.99088e-020)
(0.986215 0.0051461 -2.01388e-020)
(0.985883 0.00522803 -2.01955e-020)
(0.985714 0.00525697 -2.06628e-020)
(0.985795 0.00519835 0)
(0.986195 0.00501364 -2.37029e-020)
(0.986867 0.00476018 -2.29132e-020)
(0.987352 0.00459763 -2.10477e-020)
(0.987403 0.00457059 -2.02721e-020)
(0.987235 0.00452164 -2.02037e-020)
(0.98702 0.00444915 -2.0088e-020)
(0.986864 0.00438581 -1.98355e-020)
(0.986812 0.00435296 0)
(0.986843 0.00433267 -1.86609e-020)
(0.986911 0.00430961 -1.79337e-020)
(0.986978 0.00425106 -1.7302e-020)
(0.98704 0.00416684 -1.66713e-020)