# vtk DataFile Version 2.0
track0
ASCII
DATASET POLYDATA
POINTS 11925 float
-0.0205 0.001 1e-005
-0.0203851 0.00100536 1.50241e-005
-0.0202701 0.00101047 1.96636e-005
-0.0201551 0.00101536 2.39714e-005
-0.0200401 0.00102 2.79426e-005
-0.0198625 0.00102682 3.35475e-005
-0.0196934 0.00103276 3.80954e-005
-0.0195243 0.0010381 4.16113e-005
-0.0193552 0.00104282 4.41043e-005
-0.019186 0.00104694 4.55837e-005
-0.0190172 0.00105044 4.60579e-005
-0.0187132 0.00105596 4.60579e-005
-0.0184093 0.00106084 4.60579e-005
-0.0181054 0.00106519 4.60579e-005
-0.0178014 0.00106901 4.60579e-005
-0.0174976 0.00107231 4.60579e-005
-0.0172058 0.00107519 4.60579e-005
-0.016914 0.00107798 4.60579e-005
-0.0166222 0.00108071 4.60579e-005
-0.0163305 0.00108337 4.60579e-005
-0.0160387 0.00108596 4.60579e-005
-0.0157586 0.00108835 4.60579e-005
-0.0154784 0.00109067 4.60579e-005
-0.0151983 0.00109291 4.60579e-005
-0.0149182 0.00109507 4.60579e-005
-0.0146381 0.00109715 4.60579e-005
-0.0143692 0.00109902 4.60579e-005
-0.0141002 0.00110079 4.60579e-005
-0.0138313 0.00110249 4.60579e-005
-0.0135624 0.00110411 4.60579e-005
-0.0132934 0.00110566 4.60579e-005
-0.0130353 0.00110707 4.60579e-005
-0.0127771 0.00110842 4.60579e-005
-0.0125189 0.00110973 4.60579e-005
-0.0122607 0.00111101 4.60579e-005
-0.0120025 0.00111224 4.60579e-005
-0.0117547 0.0011134 4.60579e-005
-0.0115068 0.00111453 4.60579e-005
-0.0112589 0.00111564 4.60579e-005
-0.0110111 0.00111674 4.60579e-005
-0.0107632 0.00111782 4.60579e-005
-0.0105252 0.00111883 4.60579e-005
-0.0102873 0.00111983 4.60579e-005
-0.0100493 0.00112082 4.60579e-005
-0.00981133 0.0011218 4.60579e-005
-0.00957337 0.00112276 4.60579e-005
-0.00934491 0.00112368 4.60579e-005
-0.00911645 0.00112458 4.60579e-005
-0.00888799 0.00112547 4.60579e-005
-0.00865954 0.00112635 4.60579e-005
-0.00843108 0.00112723 4.60579e-005
-0.00821175 0.00112806 4.60579e-005
-0.00799242 0.00112888 4.60579e-005
-0.00777309 0.00112969 4.60579e-005
-0.00755376 0.00113051 4.60579e-005
-0.00733443 0.00113131 4.60579e-005
-0.00712387 0.00113208 4.60579e-005
-0.0069133 0.00113285 4.60579e-005
-0.00670273 0.00113361 4.60579e-005
-0.00649216 0.00113436 4.60579e-005
-0.0062816 0.00113512 4.60579e-005
-0.00607944 0.00113584 4.60579e-005
-0.00587729 0.00113656 4.60579e-005
-0.00567514 0.00113728 4.60579e-005
-0.00547298 0.00113799 4.60579e-005
-0.00527083 0.00113871 4.60579e-005
-0.00507675 0.00113939 4.60579e-005
-0.00488267 0.00114008 4.60579e-005
-0.0046886 0.00114076 4.60579e-005
-0.00449452 0.00114144 4.60579e-005
-0.00430044 0.00114212 4.60579e-005
-0.00411412 0.00114278 4.60579e-005
-0.0039278 0.00114343 4.60579e-005
-0.00374147 0.00114408 4.60579e-005
-0.00355515 0.00114473 4.60579e-005
-0.00336883 0.00114539 4.60579e-005
-0.00318995 0.00114602 4.60579e-005
-0.00301107 0.00114665 4.60579e-005
-0.00283219 0.00114728 4.60579e-005
-0.00265331 0.0011479 4.60579e-005
-0.00247443 0.00114854 4.60579e-005
-0.0023027 0.00114915 4.60579e-005
-0.00213097 0.00114976 4.60579e-005
-0.00195924 0.00115037 4.60579e-005
-0.0017875 0.00115098 4.60579e-005
-0.00161577 0.00115159 4.60579e-005
-0.0014509 0.00115219 4.60579e-005
-0.00128603 0.00115279 4.60579e-005
-0.00112116 0.00115338 4.60579e-005
-0.000956289 0.00115398 4.60579e-005
-0.000791418 0.00115458 4.60579e-005
-0.000633135 0.00115518 4.60579e-005
-0.000474851 0.00115577 4.60579e-005
-0.000316567 0.00115636 4.60579e-005
-0.000158284 0.00115696 4.60579e-005
0 0.00115757 4.60579e-005
0.000105677 0.00115798 4.60579e-005
0.000211355 0.00115839 4.60579e-005
0.000317032 0.0011588 4.60579e-005
0.00042271 0.00115922 4.60579e-005
0.000528387 0.00115964 4.60579e-005
0.000634886 0.00116008 4.60579e-005
0.000741385 0.00116051 4.60579e-005
0.000847885 0.00116095 4.60579e-005
0.000954384 0.00116139 4.60579e-005
0.00106088 0.00116184 4.60579e-005
0.00116821 0.00116231 4.60579e-005
0.00127554 0.00116277 4.60579e-005
0.00138286 0.00116323 4.60579e-005
0.00149019 0.0011637 4.60579e-005
0.00159752 0.00116417 4.60579e-005
0.00170568 0.00116465 4.60579e-005
0.00181384 0.00116514 4.60579e-005
0.001922 0.00116562 4.60579e-005
0.00203016 0.0011661 4.60579e-005
0.00213833 0.00116658 4.60579e-005
0.00224733 0.00116708 4.60579e-005
0.00235633 0.00116757 4.60579e-005
0.00246533 0.00116807 4.60579e-005
0.00257434 0.00116857 4.60579e-005
0.00268334 0.00116906 4.60579e-005
0.00279319 0.00116956 4.60579e-005
0.00290304 0.00117006 4.60579e-005
0.00301289 0.00117058 4.60579e-005
0.00312274 0.00117109 4.60579e-005
0.00323259 0.0011716 4.60579e-005
0.00334329 0.0011721 4.60579e-005
0.003454 0.00117262 4.60579e-005
0.0035647 0.00117315 4.60579e-005
0.0036754 0.00117368 4.60579e-005
0.00378611 0.00117421 4.60579e-005
0.00389767 0.00117472 4.60579e-005
0.00400924 0.00117525 4.60579e-005
0.0041208 0.0011758 4.60579e-005
0.00423237 0.00117634 4.60579e-005
0.00434393 0.00117688 4.60579e-005
0.00445636 0.0011774 4.60579e-005
0.00456879 0.00117794 4.60579e-005
0.00468123 0.0011785 4.60579e-005
0.00479366 0.00117905 4.60579e-005
0.00490609 0.0011796 4.60579e-005
0.0050194 0.00118013 4.60579e-005
0.0051327 0.00118068 4.60579e-005
0.00524601 0.00118124 4.60579e-005
0.00535931 0.00118181 4.60579e-005
0.00547262 0.00118237 4.60579e-005
0.00558681 0.00118291 4.60579e-005
0.005701 0.00118347 4.60579e-005
0.00581518 0.00118404 4.60579e-005
0.00592937 0.00118461 4.60579e-005
0.00604356 0.00118517 4.60579e-005
0.00615863 0.00118572 4.60579e-005
0.00627371 0.00118629 4.60579e-005
0.00638878 0.00118686 4.60579e-005
0.00650386 0.00118743 4.60579e-005
0.00661893 0.001188 4.60579e-005
0.0067349 0.00118856 4.60579e-005
0.00685087 0.00118913 4.60579e-005
0.00696684 0.0011897 4.60579e-005
0.00708281 0.00119027 4.60579e-005
0.00719878 0.00119084 4.60579e-005
0.00731565 0.0011914 4.60579e-005
0.00743252 0.00119197 4.60579e-005
0.00754939 0.00119254 4.60579e-005
0.00766626 0.00119311 4.60579e-005
0.00778313 0.00119368 4.60579e-005
0.00790091 0.00119424 4.60579e-005
0.00801869 0.00119481 4.60579e-005
0.00813647 0.00119537 4.60579e-005
0.00825425 0.00119594 4.60579e-005
0.00837203 0.00119651 4.60579e-005
0.00849073 0.00119706 4.60579e-005
0.00860942 0.00119763 4.60579e-005
0.00872812 0.00119819 4.60579e-005
0.00884682 0.00119875 4.60579e-005
0.00896551 0.00119931 4.60579e-005
0.00908513 0.00119987 4.60579e-005
0.00920475 0.00120043 4.60579e-005
0.00932437 0.00120098 4.60579e-005
0.00944398 0.00120154 4.60579e-005
0.0095636 0.00120209 4.60579e-005
0.00968415 0.00120264 4.60579e-005
0.0098047 0.00120319 4.60579e-005
0.00992525 0.00120374 4.60579e-005
0.0100458 0.00120428 4.60579e-005
0.0101663 0.00120482 4.60579e-005
0.0102878 0.00120536 4.60579e-005
0.0104093 0.0012059 4.60579e-005
0.0105308 0.00120644 4.60579e-005
0.0106523 0.00120697 4.60579e-005
0.0107738 0.0012075 4.60579e-005
0.0108962 0.00120803 4.60579e-005
0.0110186 0.00120856 4.60579e-005
0.0111411 0.00120908 4.60579e-005
0.0112635 0.0012096 4.60579e-005
0.0113859 0.00121012 4.60579e-005
0.0115093 0.00121063 4.60579e-005
0.0116327 0.00121114 4.60579e-005
0.0117561 0.00121165 4.60579e-005
0.0118795 0.00121216 4.60579e-005
0.0120028 0.00121266 4.60579e-005
0.0121272 0.00121315 4.60579e-005
0.0122515 0.00121364 4.60579e-005
0.0123759 0.00121413 4.60579e-005
0.0125002 0.00121462 4.60579e-005
0.0126245 0.0012151 4.60579e-005
0.0127498 0.00121557 4.60579e-005
0.0128752 0.00121604 4.60579e-005
0.0130005 0.00121651 4.60579e-005
0.0131258 0.00121698 4.60579e-005
0.0132511 0.00121743 4.60579e-005
0.0133774 0.00121788 4.60579e-005
0.0135036 0.00121833 4.60579e-005
0.0136299 0.00121877 4.60579e-005
0.0137562 0.00121921 4.60579e-005
0.0138825 0.00121964 4.60579e-005
0.0140098 0.00122005 4.60579e-005
0.014137 0.00122048 4.60579e-005
0.0142643 0.00122089 4.60579e-005
0.0143915 0.0012213 4.60579e-005
0.0145188 0.00122169 4.60579e-005
0.0146471 0.00122208 4.60579e-005
0.0147753 0.00122247 4.60579e-005
0.0149036 0.00122285 4.60579e-005
0.0150318 0.00122322 4.60579e-005
0.0151601 0.00122358 4.60579e-005
0.0152893 0.00122393 4.60579e-005
0.0154186 0.00122428 4.60579e-005
0.0155478 0.00122462 4.60579e-005
0.0156771 0.00122495 4.60579e-005
0.0158063 0.00122527 4.60579e-005
0.0159366 0.00122558 4.60579e-005
0.0160668 0.00122589 4.60579e-005
0.0161971 0.00122619 4.60579e-005
0.0163274 0.00122647 4.60579e-005
0.0164576 0.00122675 4.60579e-005
0.0165889 0.00122702 4.60579e-005
0.0167201 0.00122728 4.60579e-005
0.0168514 0.00122753 4.60579e-005
0.0169827 0.00122776 4.60579e-005
0.0171139 0.00122799 4.60579e-005
0.0172182 0.00122816 4.60579e-005
0.0173225 0.00122833 4.60579e-005
0.0174267 0.00122848 4.60579e-005
0.017531 0.00122863 4.60579e-005
0.0176291 0.00122877 4.60579e-005
0.0176583 0.00122881 4.60579e-005
0.0176876 0.00122884 4.60579e-005
0.0177169 0.00122888 4.60579e-005
0.0177461 0.00122892 4.60579e-005
0.0177754 0.00122895 4.60579e-005
0.0179087 0.00122911 4.60579e-005
0.018042 0.00122926 4.60579e-005
0.0181753 0.0012294 4.60579e-005
0.0183087 0.00122952 4.60579e-005
0.018442 0.00122963 4.60579e-005
0.0185763 0.00122972 4.60579e-005
0.0187107 0.00122981 4.60579e-005
0.018845 0.00122988 4.60579e-005
0.0189794 0.00122993 4.60579e-005
0.0191137 0.00122997 4.60579e-005
0.0192491 0.00123 4.60579e-005
0.0193845 0.00123001 4.60579e-005
0.0195199 0.00123001 4.60579e-005
0.0196553 0.00122999 4.60579e-005
0.0197907 0.00122996 4.60579e-005
0.0199272 0.00122991 4.60579e-005
0.0200636 0.00122985 4.60579e-005
0.0202001 0.00122977 4.60579e-005
0.0203365 0.00122968 4.60579e-005
0.020473 0.00122956 4.60579e-005
0.0206105 0.00122944 4.60579e-005
0.020748 0.00122929 4.60579e-005
0.0208855 0.00122913 4.60579e-005
0.021023 0.00122895 4.60579e-005
0.0211606 0.00122876 4.60579e-005
0.0212991 0.00122855 4.60579e-005
0.0214377 0.00122832 4.60579e-005
0.0215763 0.00122807 4.60579e-005
0.0217149 0.00122781 4.60579e-005
0.0218535 0.00122753 4.60579e-005
0.0219931 0.00122723 4.60579e-005
0.0221328 0.00122691 4.60579e-005
0.0222724 0.00122657 4.60579e-005
0.0224121 0.00122622 4.60579e-005
0.0225517 0.00122584 4.60579e-005
0.0226925 0.00122546 4.60579e-005
[...]
POINT_DATA 11925
 FIELD attributes 1
U 3 11925 float
99.9336 	4.66326 	4.36822 99.8165 	4.43765 	4.02815 99.6944 	4.23154 	3.73476 99.5726 	4.02407 	3.43816 99.4511 	3.81523 	3.1383 99.264 	3.49063 	2.67026 99.1043 	3.12672 	2.06048 98.9436 	2.76455 	1.45833 98.7819 	2.40415 	0.863821 98.6193 	2.04553 	0.27698 98.4351 	1.78821 	0 98.0567 	1.57157 	0 97.6988 	1.39842 	0 97.3411 	1.2256 	0 96.9834 	1.05313 	0 96.6799 	0.953747 	0 96.3846 	0.922634 	0 96.1762 	0.898499 	0 95.9679 	0.874312 	0 95.7597 	0.850071 	0 95.649 	0.816909 	0 95.4652 	0.791351 	0 95.3629 	0.76289 	0 95.2607 	0.734374 	0 95.1586 	0.705802 	0 95.1344 	0.661787 	0 94.9872 	0.626413 	0 94.8987 	0.599165 	0 94.8103 	0.571892 	0 94.7219 	0.544591 	0 94.699 	0.516709 	0 94.5582 	0.494465 	0 94.4657 	0.480114 	0 94.3744 	0.465937 	0 94.2875 	0.451863 	0 94.2588 	0.439233 	0 94.1409 	0.429417 	0 94.0572 	0.422339 	0 93.9774 	0.415577 	0 93.9052 	0.408677 	0 93.8783 	0.400977 	0 93.7915 	0.394434 	0 93.724 	0.38931 	0 93.6607 	0.384483 	0 93.605 	0.379498 	0 93.579 	0.373918 	0 93.5181 	0.368462 	0 93.4651 	0.364493 	0 93.4146 	0.360985 	0 93.37 	0.357463 	0 93.3417 	0.353906 	0 93.2979 	0.349635 	0 93.2555 	0.346836 	0 93.2137 	0.344645 	0 93.1757 	0.342578 	0 93.1458 	0.340777 	0 93.1144 	0.337579 	0 93.081 	0.335732 	0 93.0464 	0.334596 	0 93.0135 	0.333675 	0 92.9837 	0.333129 	0 92.9619 	0.330454 	0 92.9361 	0.329116 	0 92.9077 	0.328642 	0 92.8791 	0.328549 	0 92.8502 	0.328998 	0 92.8361 	0.32647 	0 92.8167 	0.325375 	0 92.7934 	0.325396 	0 92.7681 	0.326062 	0 92.7406 	0.327498 	0 92.732 	0.324952 	0 92.7177 	0.323933 	0 92.6983 	0.32433 	0 92.6755 	0.325705 	0 92.6494 	0.328067 	0 92.6447 	0.325309 	0 92.6345 	0.324278 	0 92.6181 	0.325139 	0 92.5972 	0.327495 	0 92.5724 	0.331137 	0 92.5707 	0.328447 	0 92.5635 	0.327452 	0 92.5493 	0.328635 	0 92.5298 	0.331714 	0 92.5063 	0.336184 	0 92.5068 	0.333174 	0 92.5022 	0.332345 	0 92.4898 	0.334808 	0 92.471 	0.340187 	0 92.4483 	0.34739 	0 92.4499 	0.345875 	0 92.4474 	0.346021 	2.45177e-020 92.4378 	0.349115 	9.25889e-020 92.4226 	0.354873 	8.04772e-020 92.4044 	0.362049 	2.56846e-020 92.409 	0.359424 	1.22967e-018 92.4092 	0.359151 	1.9778e-018 92.4013 	0.363173 	1.89378e-018 92.387 	0.370408 	1.02269e-018 92.3691 	0.379564 	-3.18857e-019 92.3768 	0.376532 	-6.91645e-019 92.379 	0.376826 	-9.3633e-019 92.3733 	0.381881 	-9.97679e-019 92.3615 	0.390541 	-7.09466e-019 92.345 	0.401945 	-1.55215e-019 92.3556 	0.398461 	-1.43225e-019 92.3597 	0.397636 	-1.04152e-019 92.3563 	0.399844 	-3.41807e-020 92.347 	0.405668 	6.54173e-020 92.332 	0.414944 	1.93317e-019 92.3469 	0.413041 	6.25467e-020 92.3531 	0.411776 	-1.14203e-019 92.3513 	0.411095 	-3.33105e-019 92.3429 	0.412658 	-6.16292e-019 92.3268 	0.416892 	-9.7606e-019 92.3457 	0.420191 	-1.74535e-018 92.3528 	0.421035 	-1.98748e-018 92.3511 	0.42007 	-1.84081e-018 92.3423 	0.41875 	-1.33143e-018 92.3229 	0.4169 	-2.82094e-019 92.3449 	0.427081 	9.18508e-019 92.3519 	0.43086 	1.45953e-018 92.3501 	0.430859 	1.61118e-018 92.341 	0.427977 	1.3677e-018 92.3183 	0.419694 	3.83494e-019 92.3431 	0.435649 	-1.43588e-018 92.3497 	0.441095 	-2.06283e-018 92.3478 	0.441627 	-2.13221e-018 92.3389 	0.437797 	-1.68558e-018 92.3132 	0.423527 	-3.95067e-021 92.3406 	0.442941 	1.67098e-018 92.3461 	0.448671 	2.04801e-018 92.3436 	0.449423 	1.95285e-018 92.3347 	0.445554 	1.50137e-018 92.3057 	0.427228 	-6.50952e-020 92.3358 	0.448265 	-1.29628e-018 92.3395 	0.453639 	-1.77008e-018 92.3359 	0.454711 	-2.03582e-018 92.3268 	0.451737 	-2.06417e-018 92.294 	0.431542 	-1.08193e-018 92.3272 	0.45248 	-2.07251e-018 92.3286 	0.456923 	-2.11594e-018 92.3237 	0.458112 	-1.97254e-018 92.3143 	0.456318 	-1.69202e-018 92.2771 	0.435989 	-5.5988e-019 92.3146 	0.455345 	-5.90162e-019 92.3132 	0.45841 	-4.05747e-019 92.3068 	0.459369 	-1.93593e-019 92.2971 	0.458561 	1.09251e-020 92.2542 	0.439309 	1.35781e-019 92.2976 	0.456033 	8.20723e-021 92.2925 	0.457581 	0 92.2841 	0.458086 	0 92.2741 	0.457942 	0 92.2234 	0.440652 	0 92.2746 	0.454345 	0 92.2646 	0.454564 	-2.09341e-019 92.2537 	0.454586 	-4.21732e-019 92.2428 	0.454609 	-6.34123e-019 92.1827 	0.439985 	-9.81725e-019 92.2412 	0.450354 	-1.70598e-018 92.2274 	0.449938 	-1.71195e-018 92.2135 	0.449522 	-1.71791e-018 92.1996 	0.449106 	-1.72386e-018 92.1298 	0.437552 	-1.02151e-018 92.196 	0.444989 	3.25043e-019 92.1785 	0.444104 	6.61953e-019 92.1611 	0.443219 	9.98848e-019 92.1436 	0.442334 	1.33573e-018 92.062 	0.433216 	5.40387e-019 92.1369 	0.4384 	1.35397e-018 92.1154 	0.436963 	1.35731e-018 92.0939 	0.435526 	1.36063e-018 92.0724 	0.434089 	1.36394e-018 91.977 	0.426578 	5.80633e-019 92.0614 	0.430309 	4.35699e-019 92.0353 	0.428296 	3.00436e-019 92.0091 	0.426284 	1.65176e-019 91.9829 	0.424271 	2.9921e-020 91.872 	0.417486 	0 91.9662 	0.420538 	-3.24267e-020 91.9349 	0.418009 	-1.68264e-019 91.9036 	0.415479 	-3.04106e-019 91.8723 	0.412949 	-4.39953e-019 91.7448 	0.406152 	-5.85501e-019 91.8483 	0.409205 	-1.27158e-018 91.8116 	0.406218 	-1.34644e-018 91.7749 	0.403231 	-1.42127e-018 91.7381 	0.400244 	-1.49607e-018 91.5934 	0.3928 	-8.56981e-019 91.7051 	0.396257 	-4.85968e-020 91.6626 	0.392833 	7.40056e-020 91.6202 	0.389408 	1.96539e-019 91.5777 	0.385982 	3.19003e-019 91.4164 	0.377476 	-3.43881e-019 91.5343 	0.381535 	-2.72597e-019 91.4859 	0.377669 	-1.93304e-019 91.4376 	0.373801 	-1.14015e-019 91.3892 	0.369932 	-3.47316e-020 91.2126 	0.360129 	-6.85506e-020 91.3336 	0.364775 	0 91.2793 	0.360458 	0 91.2249 	0.356139 	0 91.1706 	0.351819 	0 90.9812 	0.340695 	0 91.1014 	0.345727 	4.02857e-020 91.0411 	0.340947 	1.19664e-019 90.9808 	0.336165 	1.99048e-019 90.9204 	0.331381 	2.78438e-019 90.7219 	0.319095 	2.98982e-019 90.8363 	0.324168 	-1.31528e-019 90.7701 	0.318904 	-1.18846e-019 90.7038 	0.313637 	-1.06068e-019 90.6375 	0.308367 	-9.31925e-020 90.4345 	0.295218 	3.0659e-019 90.5373 	0.299894 	2.8598e-019 90.4654 	0.29418 	2.17246e-019 90.3934 	0.288462 	1.4852e-019 90.3213 	0.28274 	7.98011e-020 90.1194 	0.269215 	-8.45298e-020 90.2042 	0.27302 	-2.97223e-019 90.1266 	0.266888 	-2.92797e-019 90.049 	0.260751 	-2.88272e-019 89.9713 	0.25461 	-2.83646e-019 89.7772 	0.241237 	-6.69458e-020 89.8368 	0.243558 	1.92562e-019 89.754 	0.236981 	9.68188e-020 89.671 	0.230399 	9.60343e-022 89.5879 	0.223811 	-9.50142e-020 89.409 	0.211132 	-3.44221e-019 89.4362 	0.211345 	-1.87307e-019 89.3484 	0.204304 	-1.95651e-019 89.2604 	0.197256 	-2.04127e-019 89.1723 	0.190202 	-2.12737e-019 89.0161 	0.178783 	-3.47708e-019 89.0037 	0.176315 	-2.90567e-019 88.9112 	0.168802 	-2.16855e-019 88.8185 	0.16128 	-1.43152e-019 88.7257 	0.15375 	-6.94577e-020 88.6001 	0.144125 	-1.35984e-020 88.5615 	0.140172 	0 88.4852 	0.133862 	0 88.4088 	0.127547 	0 88.3322 	0.121225 	0 88.2601 	0.115271 	0 88.2383 	0.113483 	0 88.2165 	0.111695 	0 88.1946 	0.109905 	0 88.1728 	0.108116 	0 88.1421 	0.106062 	6.0931e-022 88.0476 	0.0977105 	0 87.9455 	0.0891529 	0 87.8431 	0.0805839 	0 87.7405 	0.0720033 	0 87.5951 	0.0624044 	3.43695e-021 87.5247 	0.054064 	6.36286e-020 87.4187 	0.0450379 	1.34215e-019 87.3124 	0.0359989 	2.0479e-019 87.2058 	0.026947 	2.75354e-019 87.0327 	0.0168901 	3.6901e-019 86.9782 	0.00793495 	6.41669e-019 86.8685 	-0.00151181 	6.65761e-019 86.7586 	-0.0109728 	6.90094e-019 86.6483 	-0.0204481 	7.14669e-019 86.4573 	-0.0301532 	3.68914e-019 86.411 	-0.0403434 	2.62522e-019 86.298 	-0.0501609 	1.90546e-019 86.1846 	-0.0599938 	1.18559e-019 86.0709 	-0.0698424 	4.65583e-020 85.8709 	-0.0784089 	1.21123e-020 85.8264 	-0.0904232 	3.73515e-020 85.7102 	-0.100563 	9.62365e-020 85.5937 	-0.110719 	1.5511e-019 85.4768 	-0.120892 	2.13973e-019 85.2753 	-0.12759 	2.29441e-019 85.2274 	-0.141958 	5.78237e-021 85.1084 	-0.15237 	-1.00419e-021 84.9889 	-0.162799 	-7.91366e-021 84.8691 	-0.173246 	-1.49466e-020 84.6724 	-0.177422 	2.19949e-019 84.6173 	-0.19459 	8.64911e-019 84.4956 	-0.205227 	9.42074e-019 84.3735 	-0.215882 	1.0194e-018 84.2511 	-0.226556 	1.0969e-018 84.064 	-0.227672 	5.43217e-019 83.9991 	-0.247981 	4.56542e-019 83.875 	-0.258796 	4.47854e-019 83.7506 	-0.26963 	4.39114e-019 83.6257 	-0.280483 	4.30322e-019 83.4517 	-0.278119 	4.69467e-019 83.3755 	-0.301803 	3.1689e-019 83.2494 	-0.312759 	-1.65685e-019 83.1228 	-0.323736 	-6.48208e-019 82.9958 	-0.334732 	-1.13068e-018 82.8372 	-0.32862 	-1.66728e-018 82.7494 	-0.355811 	-2.94442e-018 82.6214 	-0.36687 	-2.97324e-018 82.493 	-0.37795 	-3.00233e-018 82.3642 	-0.38905 	-3.03169e-018 82.222 	-0.379021 	-1.45574e-018 82.122 	-0.409195 	-1.16178e-019 81.9933 	-0.420811 	3.05361e-019 81.8633 	-0.431968 	7.03462e-019 81.7334 	-0.440905 	9.67937e-019 81.6076 	-0.429238 	-8.91324e-023 81.4953 	-0.460229 	-9.57816e-019 81.3674 	-0.474448 	-1.12646e-018 81.2362 	-0.485652 	-1.15276e-018 81.1088 	-0.491618 	-9.88123e-019 80.9957 	-0.479166 	-1.53761e-019 80.8741 	-0.510449 	-3.6083e-020 80.7452 	-0.527416 	1.58273e-019 80.6132 	-0.538656 	3.83323e-019 80.491 	-0.541515 	6.08281e-019 80.3877 	-0.528808 	8.33158e-019 80.2594 	-0.56021 	5.96911e-019 80.1286 	-0.580035 	4.89888e-019 79.996 	-0.591324 	4.78143e-019 79.8809 	-0.591009 	5.52377e-019 79.7849 	-0.578271 	7.18623e-019 79.6519 	-0.609505 	5.37147e-019 79.5187 	-0.632128 	2.84118e-019 79.386 	-0.6434 	-6.29325e-020 79.2792 	-0.639856 	-3.36534e-019 79.1886 	-0.627243 	-5.65235e-019 79.0527 	-0.657765 	5.7714e-019 78.917 	-0.682864 	1.43723e-018 78.7844 	-0.69414 	1.58115e-018 78.6865 	-0.687766 	8.70857e-019 78.5998 	-0.675878 	-1.05788e-019 78.462 	-0.705717 	8.52891e-019 78.3241 	-0.733209 	1.70645e-018 78.1918 	-0.744521 	1.84528e-018 78.1031 	-0.735474 	1.13675e-018 78.0191 	-0.724363 	3.42791e-019 77.8803 	-0.753205 	2.26483e-019 77.7404 	-0.782083 	1.10105e-019 77.6114 	-0.792677 	2.03481e-019 77.5291 	-0.782602 	4.14415e-019 77.4471 	-0.772518 	6.25398e-019 77.3077 	-0.800228 	4.01245e-019 77.1673 	-0.827971 	1.76961e-019 77.0451 	-0.838191 	1.70136e-019 76.9644 	-0.829319 	3.82651e-019 76.8841 	-0.820438 	5.9521e-019 76.7443 	-0.847002 	3.6886e-019 76.6035 	-0.873596 	1.42383e-019 76.4882 	-0.883439 	0 76.409 	-0.87576 	0 76.33 	-0.868075 	0 76.1899 	-0.893409 	0 76.0488 	-0.918772 	0 75.9403 	-0.928302 	-9.21451e-020 75.8624 	-0.921993 	-2.93984e-019 75.7847 	-0.915679 	-4.95853e-019 75.6442 	-0.940071 	-2.79874e-019 75.5027 	-0.964489 	-6.37805e-020 75.4007 	-0.973773 	-1.1116e-019 75.324 	-0.968628 	-5.1329e-019 75.2475 	-0.963479 	-9.15471e-019 75.1065 	-0.986933 	-4.8414e-019 74.9646 	-1.01041 	-5.25854e-020 74.8688 	-1.01942 	-3.59373e-020 74.7933 	-1.0153 	-4.31783e-019 74.7179 	-1.01117 	-8.27669e-019 74.5763 	-1.03361 	-4.02048e-019 74.4367 	-1.05529 	-5.68132e-021 74.3459 	-1.06368 	-1.0744e-019 74.2698 	-1.06181 	-2.12743e-019 74.1954 	-1.05879 	-3.18442e-019 74.0532 	-1.08045 	-1.01074e-018 73.9228 	-1.09901 	-1.53343e-018 73.8319 	-1.10755 	-1.51252e-018 73.7532 	-1.10859 	-8.84347e-019 73.6797 	-1.10646 	7.20297e-022 73.5369 	-1.12743 	-1.16074e-019 73.4159 	-1.14319 	-1.42921e-019 73.325 	-1.15186 	-4.76262e-020 73.243 	-1.15553 	-9.28066e-020 73.1702 	-1.15419 	-2.78365e-019 73.0268 	-1.17465 	-7.73536e-020 72.9156 	-1.18792 	-2.96791e-020 72.8245 	-1.19668 	-7.79248e-020 72.7387 	-1.20265 	-1.27662e-019 72.6662 	-1.20184 	-1.81004e-019 72.5223 	-1.22179 	-1.31262e-019 72.4213 	-1.23272 	-2.7841e-019 72.3299 	-1.24155 	-4.7158e-019 72.2397 	-1.24967 	-6.53845e-019 72.1674 	-1.24935 	-7.05239e-019 72.0237 	-1.26887 	-2.13844e-018 71.9323 	-1.27773 	-2.00201e-018 71.8405 	-1.28659 	-1.86532e-018 71.7484 	-1.29546 	-1.72837e-018 71.6729 	-1.2967 	-4.9534e-019 71.5397 	-1.31369 	1.27894e-019 71.4478 	-1.32253 	2.77469e-019 71.3554 	-1.33137 	4.26849e-019 71.2627 	-1.34021 	5.76033e-019 71.1824 	-1.34363 	1.51845e-019 71.0596 	-1.35818 	1.60859e-019 70.9669 	-1.36696 	1.1619e-019 70.8739 	-1.37575 	7.1533e-020 70.7805 	-1.38455 	2.68872e-020 70.695 	-1.39004 	-6.87905e-020 70.5827 	-1.40228 	0 70.4894 	-1.41102 	0 70.3956 	-1.41976 	0 70.3015 	-1.42852 	0 70.2104 	-1.436 	-2.61528e-020 70.1413 	-1.44307 	-8.75271e-020 70.0798 	-1.44877 	-1.99821e-019 70.0181 	-1.45449 	-3.12133e-019 69.9562 	-1.4602 	-4.24462e-019 69.8965 	-1.4657 	-5.32564e-019 69.8625 	-1.46878 	-5.87142e-019 69.8284 	-1.47185 	-6.41715e-019 69.7942 	-1.47493 	-6.96282e-019 69.76 	-1.478 	-7.50844e-019 69.7315 	-1.48032 	-8.05462e-019 69.6314 	-1.48969 	-6.03682e-019 69.5342 	-1.49836 	-3.98865e-019 69.4367 	-1.50703 	-1.94015e-019 69.3387 	-1.51571 	1.08679e-020 69.2621 	-1.5215 	1.61524e-019 69.1523 	-1.5327 	3.69666e-019 69.0544 	-1.54118 	5.4024e-019 68.9562 	-1.54967 	7.10835e-019 68.8576 	-1.55817 	8.81449e-019 68.7962 	-1.56168 	8.88235e-019 68.6766 	-1.57474 	6.75704e-019 68.5781 	-1.58315 	4.61868e-019 68.4793 	-1.59158 	2.47981e-019 68.3801 	-1.60001 	3.40417e-020 68.3339 	-1.60144 	5.23197e-020 68.2048 	-1.61635 	5.23837e-019 68.1058 	-1.6248 	5.55485e-019 68.0064 	-1.63325 	5.87296e-019 67.9099 	-1.64128 	5.90856e-019 67.8749 	-1.64122 	7.08267e-020 67.7414 	-1.65668 	3.40963e-021 67.636 	-1.66622 	-7.32877e-021 67.5359 	-1.67457 	-6.65687e-021 67.4552 	-1.68037 	1.55707e-020 67.4192 	-1.68033 	8.70186e-020 67.2856 	-1.69544 	5.87062e-019 67.17 	-1.70675 	8.30739e-019 67.0696 	-1.71491 	8.62527e-019 67.0047 	-1.71845 	5.99301e-019 66.9678 	-1.71837 	1.05887e-019 66.8342 	-1.73321 	4.24469e-020 66.7086 	-1.74631 	-3.87532e-021 66.6078 	-1.75436 	-5.82612e-022 66.5589 	-1.75569 	0 66.5212 	-1.75558 	0 66.3877 	-1.77016 	0 66.2536 	-1.78475 	0 66.1567 	-1.79224 	0 66.1182 	-1.79209 	0 66.0796 	-1.79195 	0 65.9464 	-1.80627 	0 65.8127 	-1.82061 	0 65.7223 	-1.82781 	8.0603e-020 65.683 	-1.82765 	2.03789e-019 65.6437 	-1.82748 	3.26979e-019 65.511 	-1.84158 	1.88987e-019 65.3777 	-1.85568 	5.09351e-020 65.2939 	-1.86259 	5.22383e-020 65.2538 	-1.86237 	1.49037e-019 65.2137 	-1.86216 	2.45843e-019 65.0816 	-1.87601 	8.86839e-019 64.949 	-1.88987 	1.52784e-018 64.8717 	-1.89643 	1.58305e-018 64.831 	-1.89616 	7.92975e-019 64.7902 	-1.89589 	2.86031e-021 64.6589 	-1.90948 	8.07759e-019 64.5383 	-1.9216 	1.44027e-018 64.4653 	-1.92754 	1.34747e-018 64.4151 	-1.929 	8.69879e-019 64.3738 	-1.92871 	2.41479e-019 64.2432 	-1.9421 	1.61056e-019 64.1401 	-1.95189 	1.19779e-019 64.0672 	-1.95773 	1.21281e-019 64.0065 	-1.96115 	2.32421e-019 63.9647 	-1.96088 	5.1107e-019 63.8351 	-1.97415 	6.55742e-019 63.7493 	-1.98167 	6.73214e-019 63.6766 	-1.98744 	6.51973e-019 63.6058 	-1.9928 	6.11424e-019 63.5634 	-1.99254 	3.04548e-019 63.4382 	-2.00524 	-3.70945e-020 63.366 	-2.01094 	-7.63585e-020 63.2937 	-2.01664 	-1.15563e-019 63.221 	-2.02235 	-1.54709e-019 63.1702 	-2.02369 	-2.49586e-020 63.0627 	-2.03411 	-4.85745e-021 62.9909 	-2.0398 	-3.50946e-021 62.9189 	-2.04548 	-2.1618e-021 62.8466 	-2.05117 	-8.14454e-022 62.7858 	-2.05456 	0 62.6957 	-2.06285 	-6.80675e-020 62.6244 	-2.06863 	-1.72299e-019 62.5528 	-2.07442 	-2.76552e-019 62.4811 	-2.0802 	-3.80827e-019 62.4105 	-2.0857 	-4.79898e-019 62.3976 	-2.08692 	-5.02302e-019 62.3871 	-2.08781 	-4.81632e-019 62.3766 	-2.08871 	-4.60958e-019 62.3661 	-2.0896 	-4.40281e-019 62.3557 	-2.09049 	-4.19725e-019 62.2939 	-2.0956 	-3.33583e-019 62.232 	-2.10071 	-2.47424e-019 62.1699 	-2.10583 	-1.61247e-019 62.1076 	-2.11094 	-7.50528e-020 62.061 	-2.11446 	-4.00935e-021 61.9793 	-2.12211 	4.89519e-020 61.9075 	-2.12839 	1.42007e-019 61.8353 	-2.13468 	2.35039e-019 61.7629 	-2.14096 	3.28047e-019 61.7247 	-2.14382 	4.46337e-019 61.6319 	-2.15329 	3.1777e-019 61.5609 	-2.15988 	2.17755e-019 61.4895 	-2.16647 	1.17715e-019 61.4179 	-2.17306 	1.76497e-020 61.3987 	-2.17448 	-9.78264e-021 61.2963 	-2.18558 	-3.34135e-019 61.2249 	-2.19278 	-3.67657e-019 61.1544 	-2.19983 	-3.89749e-019 61.0968 	-2.20563 	-3.47801e-019 61.0832 	-2.20719 	-9.06644e-020 60.9822 	-2.21872 	-3.49947e-019 60.8996 	-2.22807 	-4.71592e-019 60.8301 	-2.23589 	-4.96487e-019 60.7919 	-2.2408 	-3.56683e-019 60.7787 	-2.2434 	-8.56192e-020 60.679 	-2.25567 	-3.56646e-019 60.5854 	-2.26725 	-5.7744e-019 60.517 	-2.27614 	-6.04548e-019 60.4981 	-2.28062 	-3.37738e-019 60.4853 	-2.28454 	-3.35767e-020 60.3871 	-2.29781 	-1.7386e-020 60.2885 	-2.31108 	-1.2073e-021 60.2277 	-2.32066 	0 60.2156 	-2.32585 	0 60.2034 	-2.33104 	0 60.1068 	-2.34525 	0 60.0097 	-2.35946 	0 59.9561 	-2.36967 	0 59.9445 	-2.37601 	0 59.9327 	-2.38234 	0 59.8377 	-2.39731 	0 59.7422 	-2.41227 	0 59.6954 	-2.42294 	-1.67353e-020 59.6839 	-2.43022 	3.76786e-020 59.6722 	-2.4375 	9.20751e-020 59.5786 	-2.453 	-2.7265e-019 59.4983 	-2.46748 	-5.36367e-019 59.4561 	-2.47911 	-5.17254e-019 59.4326 	-2.4892 	-2.96017e-019 59.4209 	-2.49829 	5.46902e-020 59.3286 	-2.51527 	-1.57417e-020 59.2676 	-2.53027 	-7.73944e-021 59.2254 	-2.54407 	4.78388e-020 59.1885 	-2.55749 	8.67557e-020 59.1759 	-2.56924 	5.33995e-020 59.084 	-2.58858 	3.90529e-019 59.0411 	-2.60505 	3.9605e-019 58.9983 	-2.62148 	3.97719e-019 58.955 	-2.6379 	3.99278e-019 58.9335 	-2.65293 	1.73323e-019 58.8593 	-2.67378 	1.92676e-019 58.8159 	-2.69296 	1.81174e-019 58.772 	-2.71213 	1.69729e-019 58.7276 	-2.73129 	1.5834e-019 58.6914 	-2.74995 	1.41212e-019 58.6505 	-2.76481 	1.33863e-019 58.6217 	-2.77905 	1.01348e-019 58.5926 	-2.7933 	6.88382e-020 58.5632 	-2.80753 	3.63342e-020 58.5353 	-2.82095 	5.69086e-021 58.5171 	-2.82871 	-8.87417e-021 58.4987 	-2.83647 	-2.3427e-020 58.4803 	-2.84423 	-3.79676e-020 58.4618 	-2.85198 	-5.24959e-020 58.4479 	-2.85947 	-8.92153e-020 58.3945 	-2.88422 	-9.05633e-020 58.3432 	-2.90878 	-1.02846e-019 58.2911 	-2.93332 	-1.15083e-019 58.2383 	-2.95785 	-1.27272e-019 58.2024 	-2.98157 	-1.30409e-019 58.1383 	-3.00982 	-1.12778e-019 58.0844 	-3.03756 	-7.46884e-020 58.0297 	-3.06529 	-3.6565e-020 57.9753 	-3.09295 	1.45478e-021 57.9485 	-3.11954 	3.63497e-020 57.8771 	-3.15116 	7.92384e-021 57.8158 	-3.18238 	0 57.7578 	-3.21343 	0 57.7138 	-3.24402 	0 57.6832 	-3.27416 	0 57.6083 	-3.3091 	0 57.534 	-3.34396 	0 57.4722 	-3.37842 	0 57.4381 	-3.41219 	0 57.4029 	-3.44595 	0 57.3237 	-3.4843 	0 57.2433 	-3.52263 	0 57.1835 	-3.56052 	1.77987e-020 57.1442 	-3.59798 	5.2575e-020 57.1038 	-3.63543 	8.74078e-020 57.0196 	-3.67731 	6.0146e-020 56.9354 	-3.71914 	3.46197e-020 56.8765 	-3.76064 	4.12531e-020 56.8282 	-3.80186 	5.81537e-020 56.7817 	-3.84301 	7.77935e-020 56.6916 	-3.88845 	-6.19185e-020 56.617 	-3.93375 	-1.43929e-019 56.5517 	-3.97894 	-1.89279e-019 56.4858 	-4.02408 	-2.2808e-019 56.4324 	-4.06896 	-1.46596e-019 56.3412 	-4.11798 	-1.03835e-019 56.2702 	-4.16692 	-7.63237e-020 56.1977 	-4.21582 	-4.88749e-020 56.1238 	-4.26467 	-2.14892e-020 56.0517 	-4.31345 	-7.88725e-021 56.025 	-4.32835 	-4.41574e-021 56.003 	-4.34325 	-1.44407e-020 55.9808 	-4.35815 	-2.44706e-020 55.9586 	-4.37305 	-3.45053e-020 55.9371 	-4.38735 	-4.41488e-020 55.8829 	-4.42493 	-3.74279e-020 55.8279 	-4.46247 	-3.0421e-020 55.772 	-4.49999 	-2.31274e-020 55.7154 	-4.53748 	-1.55463e-020 55.6587 	-4.57509 	-1.71456e-019 55.5797 	-4.6312 	-4.6097e-019 55.4965 	-4.68712 	-5.54954e-019 55.4116 	-4.74299 	-6.49804e-019 55.3251 	-4.79884 	-6.75511e-019 55.2379 	-4.85499 	-1.5882e-019 55.1514 	-4.91482 	-1.34459e-019 55.061 	-4.97448 	-8.81991e-020 54.9666 	-5.03394 	-1.67467e-020 54.8708 	-5.09368 	8.23686e-020 54.7732 	-5.1535 	1.88364e-019 54.6766 	-5.21688 	3.66141e-019 54.578 	-5.2802 	5.44135e-019 54.4756 	-5.34355 	5.60971e-019 54.3688 	-5.40686 	4.15292e-019 54.2599 	-5.4702 	2.69688e-019 54.1522 	-5.53699 	1.97602e-019 54.0423 	-5.60381 	1.69347e-019 53.9302 	-5.67077 	2.40817e-019 53.8143 	-5.73752 	3.52518e-019 53.6931 	-5.80398 	5.49645e-019 53.5731 	-5.87386 	8.30497e-019 53.4504 	-5.94381 	7.48221e-019 53.3254 	-6.01368 	6.65122e-019 53.1981 	-6.08348 	5.81194e-019 53.0678 	-6.15328 	4.83636e-019 53.0616 	-6.15666 	5.0328e-019 53.0554 	-6.16003 	4.91002e-019 53.0491 	-6.16341 	4.78719e-019 53.0428 	-6.16678 	4.66432e-019 53.0366 	-6.17013 	4.54225e-019 52.9142 	-6.23895 	2.31834e-019 52.7896 	-6.30768 	7.96946e-021 52.6628 	-6.37635 	-2.17377e-019 52.5338 	-6.44493 	