/*--------------------------------*- C++ -*----------------------------------*\
| =========                 |                                                 |
| \\      /  F ield         | OpenFOAM: The Open Source CFD Toolbox           |
|  \\    /   O peration     | Version:  5.x                                   |
|   \\  /    A nd           | Web:      www.OpenFOAM.org                      |
|    \\/     M anipulation  |                                                 |
\*---------------------------------------------------------------------------*/
/*   Windows 32 and 64 bit porting by blueCAPE: http://www.bluecape.com.pt   *\
|  Based on Windows porting (2.0.x v4) by Symscape: http://www.symscape.com   |
\*---------------------------------------------------------------------------*/
FoamFile
{
    version     2.0;
    format      ascii;
    class       surfaceScalarField;
    location    "2701";
    object      phi;
}
// * * * * * * * * * * * * * * * * * * * * * * * * * * * * * * * * * * * * * //

dimensions      [0 3 -1 0 0 0 0];

internalField   nonuniform List<scalar> 
7780
(
4.99612e-005
3.87952e-008
4.98433e-005
1.17918e-007
4.96896e-005
1.537e-007
4.95176e-005
1.71963e-007
4.93358e-005
1.81776e-007
4.91484e-005
1.87467e-007
4.8958e-005
1.90327e-007
4.87659e-005
1.92114e-007
4.85734e-005
1.92533e-007
4.83811e-005
1.92318e-007
4.81892e-005
1.9195e-007
4.79976e-005
1.91573e-007
4.78064e-005
1.9112e-007
4.76159e-005
1.90573e-007
4.7426e-005
1.89871e-007
4.7237e-005
1.89043e-007
4.70488e-005
1.88183e-007
4.68614e-005
1.87313e-007
4.6675e-005
1.86414e-007
4.64895e-005
1.85491e-007
4.6305e-005
1.84576e-007
4.61213e-005
1.83651e-007
4.59386e-005
1.82705e-007
4.57569e-005
1.81747e-007
4.55761e-005
1.80779e-007
4.53963e-005
1.79802e-007
4.52175e-005
1.78806e-007
4.50397e-005
1.77793e-007
4.48629e-005
1.76785e-007
4.46871e-005
1.75787e-007
4.45123e-005
1.74789e-007
4.43386e-005
1.73777e-007
4.41658e-005
1.72755e-007
4.39941e-005
1.71738e-007
4.38234e-005
1.70729e-007
4.36536e-005
1.69726e-007
4.34849e-005
1.68722e-007
4.33172e-005
1.67714e-007
4.31505e-005
1.66702e-007
4.29848e-005
1.65687e-007
4.28201e-005
1.64667e-007
4.26565e-005
1.63644e-007
4.24939e-005
1.62617e-007
4.23323e-005
1.61596e-007
4.21717e-005
1.60589e-007
4.20121e-005
1.59574e-007
4.18536e-005
1.58551e-007
4.1696e-005
1.57535e-007
4.15395e-005
1.56525e-007
4.1384e-005
1.55514e-007
4.12295e-005
1.54496e-007
4.1076e-005
1.53468e-007
4.09236e-005
1.52433e-007
4.07722e-005
1.51392e-007
4.06218e-005
1.50341e-007
4.04726e-005
1.49276e-007
4.03244e-005
1.48198e-007
4.01773e-005
1.47112e-007
4.00312e-005
1.4602e-007
3.98863e-005
1.44924e-007
3.97425e-005
1.43819e-007
3.95998e-005
1.42706e-007
3.94582e-005
1.41582e-007
3.93178e-005
1.40448e-007
3.91784e-005
1.39304e-007
3.90403e-005
1.38152e-007
3.89033e-005
1.36995e-007
3.87675e-005
1.3583e-007
3.86328e-005
1.34655e-007
3.84993e-005
1.33471e-007
3.83671e-005
1.32278e-007
3.8236e-005
1.31079e-007
3.81061e-005
1.29878e-007
3.79774e-005
1.28684e-007
3.78499e-005
1.27506e-007
3.77236e-005
1.2636e-007
3.75983e-005
1.2528e-007
3.74739e-005
1.24328e-007
3.73504e-005
1.23568e-007
3.72274e-005
1.22986e-007
3.71049e-005
1.22492e-007
3.69829e-005
1.2203e-007
3.68613e-005
1.21577e-007
3.67402e-005
1.2112e-007
3.66195e-005
1.20649e-007
3.64994e-005
1.20158e-007
3.63797e-005
1.19645e-007
3.62606e-005
1.19111e-007
3.61421e-005
1.18556e-007
3.60241e-005
1.17982e-007
3.59067e-005
1.17389e-007
3.57899e-005
1.16779e-007
3.56737e-005
1.16151e-007
3.55582e-005
1.15508e-007
3.54434e-005
1.1485e-007
3.53292e-005
1.14179e-007
3.52157e-005
1.13494e-007
3.51029e-005
1.12792e-007
3.49909e-005
1.12076e-007
3.48795e-005
1.11344e-007
3.47689e-005
1.10596e-007
3.46591e-005
1.09839e-007
3.455e-005
1.0907e-007
3.44417e-005
1.08288e-007
3.43342e-005
1.07497e-007
3.42275e-005
1.06697e-007
3.41217e-005
1.0589e-007
3.40166e-005
1.05073e-007
3.39123e-005
1.04248e-007
3.38089e-005
1.03415e-007
3.37063e-005
1.02575e-007
3.36046e-005
1.01727e-007
3.35037e-005
1.00873e-007
3.34037e-005
1.00012e-007
3.33046e-005
9.91425e-008
3.32063e-005
9.82679e-008
3.31089e-005
9.73869e-008
3.30124e-005
9.64991e-008
3.29168e-005
9.56046e-008
3.28221e-005
9.47061e-008
3.27283e-005
9.38041e-008
3.26354e-005
9.2896e-008
3.25434e-005
9.19802e-008
3.24524e-005
9.10593e-008
3.23622e-005
9.01377e-008
3.2273e-005
8.92153e-008
3.21847e-005
8.82888e-008
3.20974e-005
8.73562e-008
3.2011e-005
8.64175e-008
3.19255e-005
8.54748e-008
3.1841e-005
8.45301e-008
3.17574e-005
8.35839e-008
3.16747e-005
8.26356e-008
3.1593e-005
8.16835e-008
3.15123e-005
8.07278e-008
3.14326e-005
7.97714e-008
3.13537e-005
7.88149e-008
3.12759e-005
7.78566e-008
3.1199e-005
7.68956e-008
3.1123e-005
7.59333e-008
3.10481e-005
7.49727e-008
3.0974e-005
7.40135e-008
3.0901e-005
7.30513e-008
3.08289e-005
7.20843e-008
3.07578e-005
7.11158e-008
3.06877e-005
7.01506e-008
3.06185e-005
6.9188e-008
3.05503e-005
6.82259e-008
3.0483e-005
6.72613e-008
3.04167e-005
6.62962e-008
3.03514e-005
6.53331e-008
3.0287e-005
6.43735e-008
3.02236e-005
6.34177e-008
3.01611e-005
6.24633e-008
3.00996e-005
6.15088e-008
3.0039e-005
6.0555e-008
2.99794e-005
5.96041e-008
2.99208e-005
5.8657e-008
2.98631e-005
5.77119e-008
2.98063e-005
5.67663e-008
2.97505e-005
5.58218e-008
2.96956e-005
5.4881e-008
2.96416e-005
5.39462e-008
2.95886e-005
5.30182e-008
2.95366e-005
5.20937e-008
2.94854e-005
5.11702e-008
2.94351e-005
5.02469e-008
2.93858e-005
4.93285e-008
2.93374e-005
4.84176e-008
2.92899e-005
4.75115e-008
2.92433e-005
4.66071e-008
2.91976e-005
4.57056e-008
2.91528e-005
4.48099e-008
2.91088e-005
4.39219e-008
2.90658e-005
4.30405e-008
2.90236e-005
4.21643e-008
2.89823e-005
4.12932e-008
2.89419e-005
4.04281e-008
2.89023e-005
3.95678e-008
2.88636e-005
3.87127e-008
2.88257e-005
3.78652e-008
2.87887e-005
3.70271e-008
2.87525e-005
3.61977e-008
2.87172e-005
3.53759e-008
2.86826e-005
3.45615e-008
2.86488e-005
3.37583e-008
2.86159e-005
3.29678e-008
2.85837e-005
3.21917e-008
2.85523e-005
3.14306e-008
2.85216e-005
3.06881e-008
2.84916e-005
2.99659e-008
2.84623e-005
2.92757e-008
2.84337e-005
2.86004e-008
2.84057e-005
2.79951e-008
2.83784e-005
2.73253e-008
2.83514e-005
2.69229e-008
2.83253e-005
2.61142e-008
2.82988e-005
2.64648e-008
2.82732e-005
2.56148e-008
2.91357e-008
5.00495e-005
-1.05518e-008
5.01078e-005
5.95623e-008
5.01579e-005
1.0359e-007
5.01967e-005
1.3316e-007
5.02256e-005
1.52765e-007
5.02465e-005
1.66537e-007
5.0261e-005
1.75831e-007
5.02705e-005
1.82604e-007
5.02759e-005
1.87199e-007
5.02776e-005
1.90645e-007
5.0276e-005
1.93515e-007
5.02714e-005
1.96161e-007
5.02642e-005
1.98329e-007
5.02547e-005
2.00073e-007
5.02434e-005
2.01214e-007
5.02305e-005
2.01887e-007
5.02163e-005
2.02386e-007
5.02009e-005
2.02759e-007
5.01843e-005
2.02946e-007
5.01668e-005
2.0299e-007
5.01484e-005
2.02988e-007
5.01292e-005
2.0285e-007
5.01093e-005
2.02606e-007
5.00888e-005
2.02288e-007
5.00677e-005
2.01898e-007
5.0046e-005
2.01445e-007
5.00239e-005
2.00906e-007
5.00014e-005
2.00309e-007
4.99785e-005
1.997e-007
4.99552e-005
1.99072e-007
4.99316e-005
1.98415e-007
4.99077e-005
1.97707e-007
4.98835e-005
1.96966e-007
4.9859e-005
1.9622e-007
4.98342e-005
1.95469e-007
4.98093e-005
1.94715e-007
4.9784e-005
1.93956e-007
4.97586e-005
1.93182e-007
4.97329e-005
1.92391e-007
4.9707e-005
1.91583e-007
4.96809e-005
1.90762e-007
4.96546e-005
1.89928e-007
4.96281e-005
1.89083e-007
4.96015e-005
1.88229e-007
4.95747e-005
1.8737e-007
4.95478e-005
1.86501e-007
4.95207e-005
1.85627e-007
4.94935e-005
1.84762e-007
4.94661e-005
1.83904e-007
4.94386e-005
1.83041e-007
4.94109e-005
1.8217e-007
4.93831e-005
1.81295e-007
4.93551e-005
1.80419e-007
4.93269e-005
1.79538e-007
4.92986e-005
1.78641e-007
4.92702e-005
1.77726e-007
4.92416e-005
1.76801e-007
4.92128e-005
1.75876e-007
4.91839e-005
1.7495e-007
4.91548e-005
1.74019e-007
4.91255e-005
1.73082e-007
4.90961e-005
1.7214e-007
4.90665e-005
1.71189e-007
4.90367e-005
1.70227e-007
4.90068e-005
1.69253e-007
4.89766e-005
1.68275e-007
4.89463e-005
1.67297e-007
4.89158e-005
1.66316e-007
4.88852e-005
1.65323e-007
4.88543e-005
1.64316e-007
4.88233e-005
1.63299e-007
4.87921e-005
1.62281e-007
4.87607e-005
1.61268e-007
4.87291e-005
1.60267e-007
4.86974e-005
1.59283e-007
4.86654e-005
1.58324e-007
4.86332e-005
1.57414e-007
4.8601e-005
1.56558e-007
4.85689e-005
1.55704e-007
4.8537e-005
1.5487e-007
4.85054e-005
1.54107e-007
4.8474e-005
1.53389e-007
4.84429e-005
1.527e-007
4.8412e-005
1.52028e-007
4.83813e-005
1.51366e-007
4.83507e-005
1.50708e-007
4.83203e-005
1.50049e-007
4.82901e-005
1.49385e-007
4.82599e-005
1.48714e-007
4.82298e-005
1.48038e-007
4.81999e-005
1.47359e-007
4.817e-005
1.46675e-007
4.81401e-005
1.45983e-007
4.81104e-005
1.45284e-007
4.80806e-005
1.44582e-007
4.8051e-005
1.43878e-007
4.80213e-005
1.43168e-007
4.79916e-005
1.42449e-007
4.79619e-005
1.41729e-007
4.79323e-005
1.40987e-007
4.79027e-005
1.40221e-007
4.78731e-005
1.39453e-007
4.78435e-005
1.38679e-007
4.78138e-005
1.37901e-007
4.77842e-005
1.37121e-007
4.77546e-005
1.36338e-007
4.77249e-005
1.35549e-007
4.76952e-005
1.34751e-007
4.76656e-005
1.33946e-007
4.76358e-005
1.33136e-007
4.76061e-005
1.32319e-007
4.75763e-005
1.31495e-007
4.75465e-005
1.30664e-007
4.75167e-005
1.29828e-007
4.74869e-005
1.28987e-007
4.7457e-005
1.28141e-007
4.74271e-005
1.2729e-007
4.73971e-005
1.2643e-007
4.73672e-005
1.25562e-007
4.73372e-005
1.24689e-007
4.73072e-005
1.2381e-007
4.72772e-005
1.22927e-007
4.72471e-005
1.22038e-007
4.7217e-005
1.21144e-007
4.71869e-005
1.20244e-007
4.71568e-005
1.19341e-007
4.71267e-005
1.18434e-007
4.70965e-005
1.17521e-007
4.70663e-005
1.16601e-007
4.70361e-005
1.15676e-007
4.70059e-005
1.14746e-007
4.69757e-005
1.13814e-007
4.69454e-005
1.12879e-007
4.69152e-005
1.11939e-007
4.68849e-005
1.10994e-007
4.68546e-005
1.10045e-007
4.68244e-005
1.09092e-007
4.67941e-005
1.08135e-007
4.67638e-005
1.07175e-007
4.67335e-005
1.06215e-007
4.67032e-005
1.05252e-007
4.66729e-005
1.04286e-007
4.66427e-005
1.03315e-007
4.66124e-005
1.02341e-007
4.65822e-005
1.01364e-007
4.65519e-005
1.00387e-007
4.65217e-005
9.9408e-008
4.64915e-005
9.84284e-008
4.64613e-005
9.74479e-008
4.64312e-005
9.64645e-008
4.6401e-005
9.54782e-008
4.63709e-005
9.44912e-008
4.63408e-005
9.35051e-008
4.63108e-005
9.25193e-008
4.62807e-005
9.15329e-008
4.62508e-005
9.05472e-008
4.62208e-005
8.95608e-008
4.61909e-005
8.85719e-008
4.6161e-005
8.75808e-008
4.61312e-005
8.65899e-008
4.61014e-005
8.56023e-008
4.60717e-005
8.46182e-008
4.6042e-005
8.36342e-008
4.60124e-005
8.26494e-008
4.59828e-005
8.1664e-008
4.59533e-005
8.06795e-008
4.59238e-005
7.96976e-008
4.58944e-005
7.87195e-008
4.58651e-005
7.77447e-008
4.58358e-005
7.67714e-008
4.58066e-005
7.57979e-008
4.57775e-005
7.48239e-008
4.57485e-005
7.38525e-008
4.57195e-005
7.28865e-008
4.56906e-005
7.19261e-008
4.56618e-005
7.09703e-008
4.56331e-005
7.00184e-008
4.56045e-005
6.907e-008
4.55759e-005
6.81252e-008
4.55474e-005
6.71843e-008
4.5519e-005
6.62478e-008
4.54908e-005
6.53177e-008
4.54626e-005
6.43951e-008
4.54345e-005
6.34808e-008
4.54065e-005
6.25748e-008
4.53785e-005
6.16792e-008
4.53507e-005
6.07988e-008
4.5323e-005
5.9937e-008
4.52953e-005
5.90953e-008
4.52677e-005
5.82771e-008
4.52402e-005
5.74853e-008
4.52127e-005
5.67356e-008
4.51853e-005
5.60117e-008
4.51579e-005
5.53781e-008
4.51305e-005
5.46957e-008
4.51031e-005
5.43296e-008
4.50753e-005
5.39405e-008
4.50477e-005
5.40298e-008
4.50186e-005
5.47189e-008
5.55357e-008
5.00366e-005
-4.70759e-008
5.00887e-005
7.39732e-009
5.01422e-005
5.00653e-008
5.0193e-005
8.2388e-008
5.02393e-005
1.06462e-007
5.02812e-005
1.246e-007
5.0319e-005
1.38131e-007
5.03534e-005
1.48135e-007
5.03845e-005
1.56095e-007
5.04126e-005
1.62613e-007
5.04381e-005
1.67962e-007
5.04617e-005
1.72653e-007
5.04833e-005
1.76628e-007
5.05033e-005
1.79913e-007
5.05223e-005
1.82305e-007
5.05401e-005
1.84168e-007
5.05566e-005
1.85906e-007
5.05719e-005
1.87429e-007
5.05863e-005
1.88513e-007
5.06e-005
1.89362e-007
5.06127e-005
1.90151e-007
5.06248e-005
1.90623e-007
5.06366e-005
1.90929e-007
5.0648e-005
1.91116e-007
5.06587e-005
1.91198e-007
5.06688e-005
1.91174e-007
5.06786e-005
1.91018e-007
5.06882e-005
1.90772e-007
5.06975e-005
1.90499e-007
5.07064e-005
1.90167e-007
5.0715e-005
1.89783e-007
5.07234e-005
1.89332e-007
5.07315e-005
1.8884e-007
5.07394e-005
1.88334e-007
5.07471e-005
1.87798e-007
5.07545e-005
1.87259e-007
5.07618e-005
1.86718e-007
5.07688e-005
1.86161e-007
5.07756e-005
1.85581e-007
5.07822e-005
1.8497e-007
5.07887e-005
1.84342e-007
5.07949e-005
1.83695e-007
5.08009e-005
1.8301e-007
5.08069e-005
1.82307e-007
5.08126e-005
1.81598e-007
5.08182e-005
1.8089e-007
5.08237e-005
1.80182e-007
5.0829e-005
1.79479e-007
5.08341e-005
1.78778e-007
5.08391e-005
1.7807e-007
5.08439e-005
1.77358e-007
5.08485e-005
1.7665e-007
5.0853e-005
1.75943e-007
5.08573e-005
1.75223e-007
5.08615e-005
1.74481e-007
5.08655e-005
1.73723e-007
5.08693e-005
1.72961e-007
5.0873e-005
1.72204e-007
5.08765e-005
1.71449e-007
5.08798e-005
1.70691e-007
5.0883e-005
1.69929e-007
5.0886e-005
1.69162e-007
5.08887e-005
1.68387e-007
5.08914e-005
1.676e-007
5.08938e-005
1.66807e-007
5.08961e-005
1.66019e-007
5.08981e-005
1.65237e-007
5.09e-005
1.64453e-007
5.09017e-005
1.63655e-007
5.09031e-005
1.62842e-007
5.09044e-005
1.62018e-007
5.09055e-005
1.61196e-007
5.09064e-005
1.60385e-007
5.09071e-005
1.59587e-007
5.09076e-005
1.58804e-007
5.09079e-005
1.58039e-007
5.0908e-005
1.57298e-007
5.09079e-005
1.56577e-007
5.09078e-005
1.55852e-007
5.09075e-005
1.55126e-007
5.09072e-005
1.54425e-007
5.09069e-005
1.53751e-007
5.09064e-005
1.531e-007
5.0906e-005
1.52468e-007
5.09055e-005
1.51849e-007
5.0905e-005
1.51236e-007
5.09044e-005
1.50624e-007
5.09038e-005
1.50011e-007
5.09031e-005
1.49397e-007
5.09024e-005
1.48783e-007
5.09016e-005
1.48168e-007
5.09007e-005
1.47552e-007
5.08997e-005
1.46934e-007
5.08987e-005
1.46315e-007
5.08976e-005
1.45693e-007
5.08964e-005
1.45069e-007
5.08951e-005
1.44443e-007
5.08938e-005
1.43812e-007
5.08923e-005
1.43184e-007
5.08908e-005
1.4254e-007
5.08891e-005
1.41873e-007
5.08873e-005
1.41201e-007
5.08855e-005
1.40524e-007
5.08836e-005
1.39846e-007
5.08815e-005
1.3917e-007
5.08794e-005
1.38491e-007
5.08771e-005
1.37807e-007
5.08747e-005
1.37116e-007
5.08723e-005
1.36421e-007
5.08697e-005
1.35721e-007
5.0867e-005
1.35014e-007
5.08642e-005
1.343e-007
5.08613e-005
1.33582e-007
5.08582e-005
1.32862e-007
5.08551e-005
1.32138e-007
5.08518e-005
1.31411e-007
5.08484e-005
1.3068e-007
5.08449e-005
1.29943e-007
5.08413e-005
1.292e-007
5.08375e-005
1.2845e-007
5.08336e-005
1.27696e-007
5.08296e-005
1.26939e-007
5.08255e-005
1.26178e-007
5.08212e-005
1.25413e-007
5.08168e-005
1.24642e-007
5.08123e-005
1.23866e-007
5.08076e-005
1.23087e-007
5.08029e-005
1.22304e-007
5.07979e-005
1.21516e-007
5.07929e-005
1.20724e-007
5.07877e-005
1.19928e-007
5.07824e-005
1.19128e-007
5.07769e-005
1.18325e-007
5.07713e-005
1.17519e-007
5.07656e-005
1.1671e-007
5.07598e-005
1.15897e-007
5.07538e-005
1.15079e-007
5.07477e-005
1.14258e-007
5.07414e-005
1.13435e-007
5.0735e-005
1.1261e-007
5.07285e-005
1.11782e-007
5.07218e-005
1.10951e-007
5.0715e-005
1.10115e-007
5.07081e-005
1.09278e-007
5.0701e-005
1.08439e-007
5.06938e-005
1.07598e-007
5.06864e-005
1.06755e-007
5.06789e-005
1.0591e-007
5.06713e-005
1.05065e-007
5.06636e-005
1.04217e-007
5.06557e-005
1.03366e-007
5.06477e-005
1.02515e-007
5.06395e-005
1.01662e-007
5.06312e-005
1.00809e-007
5.06228e-005
9.99537e-008
5.06143e-005
9.90979e-008
5.06056e-005
9.82413e-008
5.05968e-005
9.73851e-008
5.05878e-005
9.65285e-008
5.05788e-005
9.56718e-008
5.05695e-005
9.48148e-008
5.05602e-005
9.39572e-008
5.05507e-005
9.30996e-008
5.05411e-005
9.2242e-008
5.05314e-005
9.13846e-008
5.05216e-005
9.05276e-008
5.05116e-005
8.96716e-008
5.05015e-005
8.88174e-008
5.04913e-005
8.79645e-008
5.04809e-005
8.71129e-008
5.04705e-005
8.62612e-008
5.04599e-005
8.54091e-008
5.04492e-005
8.45583e-008
5.04383e-005
8.37098e-008
5.04274e-005
8.28654e-008
5.04164e-005
8.20246e-008
5.04052e-005
8.11864e-008
5.03939e-005
8.03512e-008
5.03825e-005
7.95209e-008
5.0371e-005
7.86952e-008
5.03594e-005
7.78728e-008
5.03477e-005
7.70534e-008
5.03358e-005
7.62392e-008
5.03238e-005
7.54326e-008
5.03118e-005
7.46355e-008
5.02996e-005
7.38516e-008
5.02873e-005
7.30845e-008
5.02749e-005
7.23364e-008
5.02624e-005
7.16081e-008
5.02498e-005
7.09035e-008
5.0237e-005
7.02305e-008
5.02242e-005
6.96029e-008
5.02112e-005
6.90273e-008
5.0198e-005
6.85286e-008
5.01846e-005
6.81437e-008
5.01711e-005
6.78155e-008
5.01572e-005
6.78557e-008
5.01435e-005
6.77256e-008
5.01295e-005
6.86438e-008
6.84255e-008
5.00313e-005
-7.83133e-008
5.00728e-005
-3.41849e-008
5.01189e-005
3.92753e-009
5.01659e-005
3.5312e-008
5.02118e-005
6.0548e-008
5.02558e-005
8.07247e-008
5.02972e-005
9.67783e-008
5.03358e-005
1.09533e-007
5.03719e-005
1.19989e-007
5.04058e-005
1.28703e-007
5.04378e-005
1.36007e-007
5.04682e-005
1.42241e-007
5.04971e-005
1.47593e-007
5.0525e-005
1.52033e-007
5.05518e-005
1.55527e-007
5.05774e-005
1.58522e-007
5.0602e-005
1.61267e-007
5.06258e-005
1.63752e-007
5.06488e-005
1.65546e-007
5.06712e-005
1.6686e-007
5.06932e-005
1.68147e-007
5.07148e-005
1.69125e-007
5.07358e-005
1.69847e-007
5.07566e-005
1.70398e-007
5.07769e-005
1.70848e-007
5.07969e-005
1.71189e-007
5.08166e-005
1.7127e-007
5.08361e-005
1.71259e-007
5.08554e-005
1.71251e-007
5.08744e-005
1.71148e-007
5.08933e-005
1.70948e-007
5.0912e-005
1.70664e-007
5.09305e-005
1.70342e-007
5.09489e-005
1.69967e-007
5.09671e-005
1.69576e-007
5.0985e-005
1.69197e-007
5.10029e-005
1.68819e-007
5.10208e-005
1.68412e-007
5.10385e-005
1.67996e-007
5.10559e-005
1.67524e-007
5.10732e-005
1.66998e-007
5.10904e-005
1.66466e-007
5.11074e-005
1.65883e-007
5.11245e-005
1.65278e-007
5.11414e-005
1.64671e-007
5.11582e-005
1.64077e-007
5.11749e-005
1.63495e-007
5.11915e-005
1.62923e-007
5.1208e-005
1.62341e-007
5.12243e-005
1.61755e-007
5.12404e-005
1.61168e-007
5.12565e-005
1.60593e-007
5.12724e-005
1.60013e-007
5.12882e-005
1.59414e-007
5.13039e-005
1.58785e-007
5.13195e-005
1.58141e-007
5.1335e-005
1.57498e-007
5.13503e-005
1.56861e-007
5.13655e-005
1.56231e-007
5.13806e-005
1.55603e-007
5.13956e-005
1.54974e-007
5.14104e-005
1.54341e-007
5.14251e-005
1.53698e-007
5.14396e-005
1.53044e-007
5.1454e-005
1.52389e-007
5.14683e-005
1.51741e-007
5.14825e-005
1.51102e-007
5.14965e-005
1.50467e-007
5.15103e-005
1.49817e-007
5.1524e-005
1.49152e-007
5.15375e-005
1.48476e-007
5.15509e-005
1.47802e-007
5.15642e-005
1.47139e-007
5.15773e-005
1.46487e-007
5.15902e-005
1.45848e-007
5.16031e-005
1.45222e-007
5.16157e-005
1.44612e-007
5.16283e-005
1.44018e-007
5.16407e-005
1.43428e-007
5.1653e-005
1.42836e-007
5.16652e-005
1.42255e-007
5.16772e-005
1.4169e-007
5.16892e-005
1.41143e-007
5.1701e-005
1.4061e-007
5.17128e-005
1.40086e-007
5.17245e-005
1.39566e-007
5.17361e-005
1.39044e-007
5.17476e-005
1.38521e-007
5.1759e-005
1.37998e-007
5.17703e-005
1.37474e-007
5.17815e-005
1.36951e-007
5.17926e-005
1.36428e-007
5.18036e-005
1.35905e-007
5.18146e-005
1.35381e-007
5.18254e-005
1.34856e-007
5.18361e-005
1.34328e-007
5.18468e-005
1.33797e-007
5.18573e-005
1.33258e-007
5.18678e-005
1.32713e-007
5.18782e-005
1.3216e-007
5.18885e-005
1.31603e-007
5.18986e-005
1.31043e-007
5.19087e-005
1.30477e-007
5.19186e-005
1.29908e-007
5.19284e-005
1.29337e-007
5.19382e-005
1.28764e-007
5.19478e-005
1.28185e-007
5.19573e-005
1.27602e-007
5.19667e-005
1.27015e-007
5.1976e-005
1.26423e-007
5.19852e-005
1.25822e-007
5.19943e-005
1.25216e-007
5.20032e-005
1.24607e-007
5.20121e-005
1.23998e-007
5.20209e-005
1.2339e-007
5.20295e-005
1.22779e-007
5.2038e-005
1.22162e-007
5.20464e-005
1.2154e-007
5.20547e-005
1.20912e-007
5.20629e-005
1.20281e-007
5.20709e-005
1.19646e-007
5.20789e-005
1.19009e-007
5.20867e-005
1.18369e-007
5.20943e-005
1.17725e-007
5.21019e-005
1.17075e-007
5.21094e-005
1.16421e-007
5.21167e-005
1.15766e-007
5.21239e-005
1.15108e-007
5.2131e-005
1.14445e-007
5.21379e-005
1.13778e-007
5.21447e-005
1.13108e-007
5.21514e-005
1.12437e-007
5.2158e-005
1.11761e-007
5.21644e-005
1.11084e-007
5.21707e-005
1.10404e-007
5.21769e-005
1.09722e-007
5.21829e-005
1.09034e-007
5.21889e-005
1.08342e-007
5.21946e-005
1.0765e-007
5.22003e-005
1.06958e-007
5.22058e-005
1.06265e-007
5.22112e-005
1.05568e-007
5.22164e-005
1.04868e-007
5.22215e-005
1.04165e-007
5.22265e-005
1.0346e-007
5.22314e-005
1.02752e-007
5.22361e-005
1.02045e-007
5.22407e-005
1.01336e-007
5.22451e-005
1.00626e-007
5.22494e-005
9.99156e-008
5.22535e-005
9.92033e-008
5.22576e-005
9.84896e-008
5.22615e-005
9.77735e-008
5.22652e-005
9.70552e-008
5.22689e-005
9.63358e-008
5.22723e-005
9.56165e-008
5.22757e-005
9.48978e-008
5.22789e-005
9.41795e-008
5.22819e-005
9.34609e-008
5.22849e-005
9.27419e-008
5.22877e-005
9.20233e-008
5.22903e-005
9.13042e-008
5.22928e-005
9.05844e-008
5.22952e-005
8.98642e-008
5.22975e-005
8.91443e-008
5.22996e-005
8.84247e-008
5.23015e-005
8.77059e-008
5.23034e-005
8.69889e-008
5.2305e-005
8.62734e-008
5.23066e-005
8.55587e-008
5.2308e-005
8.48442e-008
5.23093e-005
8.413e-008
5.23104e-005
8.34167e-008
5.23114e-005
8.27059e-008
5.23123e-005
8.19978e-008
5.2313e-005
8.12927e-008
5.23136e-005
8.05891e-008
5.23141e-005
7.98876e-008
5.23144e-005
7.919e-008
5.23146e-005
7.84964e-008
5.23147e-005
7.78077e-008
5.23146e-005
7.71236e-008
5.23144e-005
7.64454e-008
5.23141e-005
7.57744e-008
5.23136e-005
7.51129e-008
5.2313e-005
7.44637e-008
5.23122e-005
7.38305e-008
5.23114e-005
7.32164e-008
5.23103e-005
7.2624e-008
5.23092e-005
7.20574e-008
5.23079e-005
7.15253e-008
5.23065e-005
7.10377e-008
5.23049e-005
7.06157e-008
5.23031e-005
7.02548e-008
5.23012e-005
7.00554e-008
5.22992e-005
6.98518e-008
5.2297e-005
7.00308e-008
5.22948e-005
6.99671e-008
5.22927e-005
7.0747e-008
7.04885e-008
5.00289e-005
-1.07154e-007
5.00651e-005
-7.04199e-008
5.01056e-005
-3.66398e-008
5.01481e-005
-7.17633e-009
5.01909e-005
1.78602e-008
5.02328e-005
3.88499e-008
5.02731e-005
5.63297e-008
5.03117e-005
7.0864e-008
5.03486e-005
8.30681e-008
5.03839e-005
9.34282e-008
5.04178e-005
1.02236e-007
5.04502e-005
1.09809e-007
5.04815e-005
1.16286e-007
5.05118e-005
1.21811e-007
5.0541e-005
1.2638e-007
5.05691e-005
1.30296e-007
5.05965e-005
1.33751e-007
5.06233e-005
1.36854e-007
5.06496e-005
1.39277e-007
5.06755e-005
1.41074e-007
5.07011e-005
1.42687e-007
5.07262e-005
1.44018e-007
5.07508e-005
1.45064e-007
5.07753e-005
1.45878e-007
5.07996e-005
1.46632e-007
5.08235e-005
1.47349e-007
5.08471e-005
1.47593e-007
5.08706e-005
1.47643e-007
5.08942e-005
1.47767e-007
5.09175e-005
1.47837e-007
5.09408e-005
1.47787e-007
5.09638e-005
1.47598e-007
5.09867e-005
1.47382e-007
5.10096e-005
1.47129e-007
5.10324e-005
1.46834e-007
5.1055e-005
1.46564e-007
5.10775e-005
1.46297e-007
5.11e-005
1.46008e-007
5.11223e-005
1.45703e-007
5.11444e-005
1.4532e-007
5.11666e-005
1.44864e-007
5.11888e-005
1.44384e-007
5.12109e-005
1.43869e-007
5.12326e-005
1.43353e-007
5.12544e-005
1.42825e-007
5.12761e-005
1.42318e-007
5.12978e-005
1.4184e-007
5.13195e-005
1.41356e-007
5.1341e-005
1.40871e-007
5.13623e-005
1.40386e-007
5.13834e-005
1.39909e-007
5.14046e-005
1.39444e-007
5.14256e-005
1.38972e-007
5.14465e-005
1.38459e-007
5.14675e-005
1.3791e-007
5.14884e-005
1.37352e-007
5.15091e-005
1.36798e-007
5.15295e-005
1.36256e-007
5.15499e-005
1.35724e-007
5.15703e-005
1.35201e-007
5.15907e-005
1.34681e-007
5.1611e-005
1.34161e-007
5.16312e-005
1.33633e-007
5.16511e-005
1.33096e-007
5.16709e-005
1.32551e-007
5.16906e-005
1.32018e-007
5.17101e-005
1.3149e-007
5.17297e-005
1.30972e-007
5.17491e-005
1.30443e-007
5.17684e-005
1.29904e-007
5.17874e-005
1.2935e-007
5.18065e-005
1.28795e-007
5.18254e-005
1.28249e-007
5.18441e-005
1.27712e-007
5.18628e-005
1.27183e-007
5.18813e-005
1.26663e-007
5.18998e-005
1.26157e-007
5.19181e-005
1.25665e-007
5.19364e-005
1.25182e-007
5.19545e-005
1.24705e-007
5.19725e-005
1.24236e-007
5.19904e-005
1.23777e-007
5.20082e-005
1.23325e-007
5.2026e-005
1.22884e-007
5.20436e-005
1.22448e-007
5.20612e-005
1.22014e-007
5.20786e-005
1.21581e-007
5.2096e-005
1.2115e-007
5.21133e-005
1.20716e-007
5.21305e-005
1.20285e-007
5.21476e-005
1.19855e-007
5.21646e-005
1.19426e-007
5.21815e-005
1.18997e-007
5.21983e-005
1.18566e-007
5.2215e-005
1.18134e-007
5.22317e-005
1.17703e-007
5.22482e-005
1.17262e-007
5.22646e-005
1.16814e-007
5.2281e-005
1.16362e-007
5.22972e-005
1.15903e-007
5.23134e-005
1.15443e-007
5.23295e-005
1.14981e-007
5.23454e-005
1.14515e-007
5.23613e-005
1.14046e-007
5.2377e-005
1.13574e-007
5.23927e-005
1.13101e-007
5.24083e-005
1.12626e-007
5.24237e-005
1.12147e-007
5.24391e-005
1.11664e-007
5.24543e-005
1.11173e-007
5.24695e-005
1.10672e-007
5.24845e-005
1.10167e-007
5.24995e-005
1.09661e-007
5.25143e-005
1.0916e-007
5.2529e-005
1.0866e-007
5.25437e-005
1.08156e-007
5.25582e-005
1.07647e-007
5.25726e-005
1.0713e-007
5.25869e-005
1.06609e-007
5.26011e-005
1.06086e-007
5.26152e-005
1.05561e-007
5.26291e-005
1.05034e-007
5.2643e-005
1.04504e-007
5.26567e-005
1.0397e-007
5.26704e-005
1.03431e-007
5.26839e-005
1.02891e-007
5.26974e-005
1.02352e-007
5.27106e-005
1.0181e-007
5.27238e-005
1.01261e-007
5.27369e-005
1.00708e-007
5.27498e-005
1.00153e-007
5.27627e-005
9.95965e-008
5.27754e-005
9.9037e-008
5.2788e-005
9.84765e-008
5.28005e-005
9.79157e-008
5.28129e-005
9.73509e-008
5.28251e-005
9.67804e-008
5.28373e-005
9.62073e-008
5.28493e-005
9.56353e-008
5.28612e-005
9.50655e-008
5.2873e-005
9.44953e-008
5.28846e-005
9.39209e-008
5.28961e-005
9.33414e-008
5.29075e-005
9.2758e-008
5.29188e-005
9.21726e-008
5.293e-005
9.15876e-008
5.2941e-005
9.10038e-008
5.29519e-005
9.04193e-008
5.29627e-005
8.98338e-008
5.29734e-005
8.92466e-008
5.29839e-005
8.86576e-008
5.29944e-005
8.8067e-008
5.30047e-005
8.74743e-008
5.30149e-005
8.68795e-008
5.30249e-005
8.62843e-008
5.30348e-005
8.56899e-008
5.30446e-005
8.5096e-008
5.30543e-005
8.45021e-008
5.30639e-005
8.39074e-008
5.30733e-005
8.33136e-008
5.30826e-005
8.2721e-008
5.30918e-005
8.21277e-008
5.31008e-005
8.15328e-008
5.31098e-005
8.09372e-008
5.31185e-005
8.03416e-008
5.31272e-005
7.97467e-008
5.31358e-005
7.91527e-008
5.31442e-005
7.85604e-008
5.31525e-005
7.79694e-008
5.31607e-005
7.73797e-008
5.31688e-005
7.67904e-008
5.31767e-005
7.62019e-008
5.31845e-005
7.56141e-008
5.31922e-005
7.50283e-008
5.31997e-005
7.44441e-008
5.32071e-005
7.38618e-008
5.32144e-005
7.32811e-008
5.32216e-005
7.27026e-008
5.32287e-005
7.21277e-008
5.32357e-005
7.15569e-008
5.32425e-005
7.09906e-008
5.32492e-005
7.04288e-008
5.32557e-005
6.98727e-008
5.32622e-005
6.93237e-008
5.32685e-005
6.87837e-008
5.32747e-005
6.82554e-008
5.32808e-005
6.77419e-008
5.32868e-005
6.72466e-008
5.32926e-005
6.67732e-008
5.32983e-005
6.63262e-008
5.33039e-005
6.59135e-008
5.33095e-005
6.55417e-008
5.33148e-005
6.5234e-008
5.33201e-005
6.49788e-008
5.33253e-005
6.48639e-008
5.33304e-005
6.4751e-008
5.33355e-005
6.49251e-008
5.33406e-005
6.4924e-008
5.33458e-005
6.54787e-008
6.53833e-008
5.00276e-005
-1.34795e-007
5.00605e-005
-1.03326e-007
5.00971e-005
-7.3247e-008
5.01358e-005
-4.58721e-008
5.01754e-005
-2.1629e-008
5.02147e-005
-5.0393e-010
5.02533e-005
1.77123e-008
5.02909e-005
3.33567e-008
5.03272e-005
4.6804e-008
5.03621e-005
5.83975e-008
5.03959e-005
6.83907e-008
5.04287e-005
7.70338e-008
5.04606e-005
8.44786e-008
5.04915e-005
9.08785e-008
5.05214e-005
9.63026e-008
5.05507e-005
1.00956e-007
5.05795e-005
1.04978e-007
5.06079e-005
1.08466e-007
5.06358e-005
1.11353e-007
5.06633e-005
1.13689e-007
5.06905e-005
1.15652e-007
5.07171e-005
1.17256e-007
5.07436e-005
1.18572e-007
5.077e-005
1.19626e-007
5.07961e-005
1.20562e-007
5.0822e-005
1.21417e-007
5.08476e-005
1.21847e-007
5.08731e-005
1.2203e-007
5.08987e-005
1.22213e-007
5.09243e-005
1.22345e-007
5.09497e-005
1.22371e-007
5.0975e-005
1.22286e-007
5.10003e-005
1.22208e-007
5.10254e-005
1.22093e-007
5.10503e-005
1.21803e-007
5.10752e-005
1.21541e-007
5.11002e-005
1.2135e-007
5.1125e-005
1.21154e-007
5.11498e-005
1.20919e-007
5.11747e-005
1.20606e-007
5.11993e-005
1.20222e-007
5.12238e-005
1.19802e-007
5.12484e-005
1.19332e-007
5.1273e-005
1.18823e-007
5.12973e-005
1.18368e-007
5.13216e-005
1.17974e-007
5.13459e-005
1.17603e-007
5.137e-005
1.17216e-007
5.13941e-005
1.16814e-007
5.14181e-005
1.16415e-007
5.14419e-005
1.16037e-007
5.14657e-005
1.15654e-007
5.14895e-005
1.15263e-007
5.15131e-005
1.14812e-007
5.15366e-005
1.14328e-007
5.15601e-005
1.13819e-007
5.15836e-005
1.13332e-007
5.16071e-005
1.12868e-007
5.16304e-005
1.12425e-007
5.16535e-005
1.12008e-007
5.16765e-005
1.11584e-007
5.16995e-005
1.11166e-007
5.17225e-005
1.10742e-007
5.17453e-005
1.10309e-007
5.1768e-005
1.09863e-007
5.17907e-005
1.0943e-007
5.18132e-005
1.09014e-007
5.18355e-005
1.086e-007
5.18577e-005
1.08173e-007
5.18799e-005
1.07729e-007
5.19019e-005
1.07276e-007
5.19238e-005
1.0682e-007
5.19457e-005
1.06369e-007
5.19677e-005
1.05931e-007
5.19894e-005
1.05499e-007
5.20108e-005
1.05076e-007
5.20322e-005
1.04662e-007
5.20536e-005
1.04266e-007
5.2075e-005
1.03876e-007
5.20962e-005
1.03498e-007
5.21173e-005
1.03123e-007
5.21385e-005
1.02754e-007
5.21594e-005
1.02386e-007
5.21802e-005
1.02026e-007
5.22011e-005
1.01667e-007
5.22217e-005
1.01314e-007
5.22423e-005
1.00963e-007
5.22629e-005
1.00618e-007
5.22833e-005
1.00274e-007
5.23036e-005
9.99317e-008
5.23239e-005
9.95934e-008
5.23442e-005
9.9252e-008
5.23643e-005
9.89119e-008
5.23841e-005
9.85722e-008
5.2404e-005
9.82265e-008
5.24241e-005
9.7882e-008
5.24437e-005
9.7534e-008
5.24631e-005
9.71721e-008
5.24828e-005
9.68067e-008
5.25024e-005
9.644e-008
5.25217e-005
9.60756e-008
5.25409e-005
9.57091e-008
5.25601e-005
9.53386e-008
5.25792e-005
9.49654e-008
5.25982e-005
9.45856e-008
5.26171e-005
9.42074e-008
5.26359e-005
9.38306e-008
5.26545e-005
9.34528e-008
5.26731e-005
9.30696e-008
5.26916e-005
9.26738e-008
5.271e-005
9.22716e-008
5.27283e-005
9.18663e-008
5.27465e-005
9.14628e-008
5.27646e-005
9.10647e-008
5.27826e-005
9.06698e-008
5.28005e-005
9.02672e-008
5.28183e-005
8.98593e-008
5.2836e-005
8.94451e-008
5.28536e-005
8.90262e-008
5.2871e-005
8.8606e-008
5.28884e-005
8.81848e-008
5.29057e-005
8.77636e-008
5.29229e-005