# vtk DataFile Version 2.0
track0
ASCII
DATASET POLYDATA
POINTS 11980 float
-0.0205 0.001 1e-005
-0.0202034 0.00100022 1e-005
-0.0199069 0.00100067 1e-005
-0.0196103 0.00100132 1e-005
-0.0193137 0.00100219 1e-005
-0.0190172 0.00100326 1e-005
-0.0187132 0.00100466 1e-005
-0.0184093 0.00100588 1e-005
-0.0181054 0.0010071 1e-005
-0.0178015 0.00100832 1e-005
-0.0174976 0.00100953 1e-005
-0.0172058 0.00101083 1e-005
-0.016914 0.00101193 1e-005
-0.0166222 0.00101303 1e-005
-0.0163305 0.00101413 1e-005
-0.0160387 0.00101522 1e-005
-0.0157586 0.00101636 1e-005
-0.0154784 0.00101744 1e-005
-0.0151983 0.00101856 1e-005
-0.0149182 0.00101971 1e-005
-0.0146381 0.0010209 1e-005
-0.0143744 0.00102208 1e-005
-0.0141107 0.00102327 1e-005
-0.013847 0.00102449 1e-005
-0.0135833 0.00102574 1e-005
-0.0133605 0.00102682 1e-005
-0.0133471 0.00102688 1e-005
-0.0133337 0.00102695 1e-005
-0.0133203 0.00102702 1e-005
-0.0133069 0.00102708 1e-005
-0.0132934 0.00102715 1e-005
-0.0130353 0.00102844 1e-005
-0.0127771 0.00102974 1e-005
-0.0125189 0.00103106 1e-005
-0.0122607 0.00103239 1e-005
-0.0120025 0.00103374 1e-005
-0.0117547 0.00103505 1e-005
-0.0115068 0.00103637 1e-005
-0.0112589 0.00103769 1e-005
-0.0110111 0.00103901 1e-005
-0.0107632 0.00104034 1e-005
-0.0105252 0.00104161 1e-005
-0.0102873 0.00104289 1e-005
-0.0100493 0.00104417 1e-005
-0.00981133 0.00104545 1e-005
-0.00957337 0.00104672 1e-005
-0.00934491 0.00104794 1e-005
-0.00911645 0.00104917 1e-005
-0.00888799 0.00105038 1e-005
-0.00865954 0.0010516 1e-005
-0.00843108 0.00105281 1e-005
-0.00821175 0.00105397 1e-005
-0.00799242 0.00105512 1e-005
-0.00777309 0.00105628 1e-005
-0.00755376 0.00105742 1e-005
-0.00733443 0.00105857 1e-005
-0.00712387 0.00105966 1e-005
-0.0069133 0.00106075 1e-005
-0.00670273 0.00106183 1e-005
-0.00649216 0.00106291 1e-005
-0.0062816 0.00106399 1e-005
-0.00607944 0.00106501 1e-005
-0.00587729 0.00106604 1e-005
-0.00567514 0.00106706 1e-005
-0.00547298 0.00106807 1e-005
-0.00527083 0.00106908 1e-005
-0.00507675 0.00107004 1e-005
-0.00488267 0.00107101 1e-005
-0.0046886 0.00107196 1e-005
-0.00449452 0.00107292 1e-005
-0.00430044 0.00107387 1e-005
-0.00411412 0.00107477 1e-005
-0.0039278 0.00107568 1e-005
-0.00374147 0.00107658 1e-005
-0.00355515 0.00107747 1e-005
-0.00336883 0.00107837 1e-005
-0.00318995 0.00107922 1e-005
-0.00301107 0.00108007 1e-005
-0.00283219 0.00108091 1e-005
-0.00265331 0.00108176 1e-005
-0.00247443 0.0010826 1e-005
-0.0023027 0.0010834 1e-005
-0.00213097 0.00108421 1e-005
-0.00195924 0.00108501 1e-005
-0.0017875 0.00108581 1e-005
-0.00161577 0.00108661 1e-005
-0.0014509 0.00108737 1e-005
-0.00128603 0.00108813 1e-005
-0.00112116 0.00108889 1e-005
-0.000956289 0.00108964 1e-005
-0.000791418 0.0010904 1e-005
-0.000633135 0.00109113 1e-005
-0.000474851 0.00109185 1e-005
-0.000316567 0.00109258 1e-005
-0.000158284 0.0010933 1e-005
0 0.00109402 1e-005
0.000105677 0.00109449 1e-005
0.000211355 0.00109497 1e-005
0.000317032 0.00109544 1e-005
0.00042271 0.00109591 1e-005
0.000528387 0.00109638 1e-005
0.000634886 0.00109684 1e-005
0.000741385 0.0010973 1e-005
0.000847885 0.00109776 1e-005
0.000954384 0.00109821 1e-005
0.00106088 0.00109867 1e-005
0.00116821 0.00109912 1e-005
0.00127554 0.00109957 1e-005
0.00138286 0.00110001 1e-005
0.00149019 0.00110044 1e-005
0.00159752 0.00110087 1e-005
0.00170568 0.0011013 1e-005
0.00181384 0.00110172 1e-005
0.001922 0.00110213 1e-005
0.00203016 0.00110254 1e-005
0.00213833 0.00110293 1e-005
0.00224733 0.00110332 1e-005
0.00235633 0.0011037 1e-005
0.00246533 0.00110408 1e-005
0.00257434 0.00110444 1e-005
0.00268334 0.0011048 1e-005
0.00279319 0.00110515 1e-005
0.00290304 0.00110549 1e-005
0.00301289 0.00110583 1e-005
0.00312274 0.00110616 1e-005
0.00323259 0.00110648 1e-005
0.00334329 0.00110679 1e-005
0.003454 0.0011071 1e-005
0.0035647 0.0011074 1e-005
0.0036754 0.0011077 1e-005
0.00378611 0.00110798 1e-005
0.00389767 0.00110826 1e-005
0.00400924 0.00110853 1e-005
0.0041208 0.0011088 1e-005
0.00423237 0.00110905 1e-005
0.00434393 0.0011093 1e-005
0.00445636 0.00110954 1e-005
0.00456879 0.00110978 1e-005
0.00468123 0.00111001 1e-005
0.00479366 0.00111023 1e-005
0.00490609 0.00111044 1e-005
0.0050194 0.00111064 1e-005
0.0051327 0.00111084 1e-005
0.00524601 0.00111104 1e-005
0.00535932 0.00111122 1e-005
0.00547262 0.0011114 1e-005
0.00558681 0.00111156 1e-005
0.005701 0.00111173 1e-005
0.00581518 0.00111188 1e-005
0.00592937 0.00111203 1e-005
0.00604356 0.00111217 1e-005
0.00615863 0.0011123 1e-005
0.00627371 0.00111242 1e-005
0.00638878 0.00111254 1e-005
0.00650386 0.00111265 1e-005
0.00661893 0.00111276 1e-005
0.0067349 0.00111285 1e-005
0.00685087 0.00111294 1e-005
0.00696684 0.00111302 1e-005
0.00708281 0.0011131 1e-005
0.00719878 0.00111316 1e-005
0.00726966 0.0011132 1e-005
0.00734053 0.00111323 1e-005
0.00741141 0.00111326 1e-005
0.00748229 0.00111329 1e-005
0.00755084 0.00111332 1e-005
0.0075973 0.00111333 1e-005
0.00764376 0.00111334 1e-005
0.00769022 0.00111336 1e-005
0.00773668 0.00111337 1e-005
0.00778313 0.00111338 1e-005
0.00790091 0.0011134 1e-005
0.00801869 0.00111341 1e-005
0.00813647 0.00111342 1e-005
0.00825425 0.00111342 1e-005
0.00837203 0.00111341 1e-005
0.00849073 0.00111339 1e-005
0.00860942 0.00111336 1e-005
0.00872812 0.00111333 1e-005
0.00884682 0.00111329 1e-005
0.00896551 0.00111324 1e-005
0.00908513 0.00111317 1e-005
0.00920475 0.00111311 1e-005
0.00932437 0.00111304 1e-005
0.00944398 0.00111296 1e-005
0.0095636 0.00111287 1e-005
0.00968415 0.00111276 1e-005
0.0098047 0.00111265 1e-005
0.00992525 0.00111254 1e-005
0.0100458 0.00111242 1e-005
0.0101663 0.00111229 1e-005
0.0102878 0.00111214 1e-005
0.0104093 0.00111199 1e-005
0.0105308 0.00111183 1e-005
0.0106523 0.00111167 1e-005
0.0107738 0.0011115 1e-005
0.0108962 0.0011113 1e-005
0.0110186 0.00111111 1e-005
0.0111411 0.00111091 1e-005
0.0112635 0.00111071 1e-005
0.0113859 0.00111049 1e-005
0.0115093 0.00111025 1e-005
0.0116327 0.00111002 1e-005
0.0117561 0.00110977 1e-005
0.0118795 0.00110952 1e-005
0.0120028 0.00110926 1e-005
0.0121272 0.00110898 1e-005
0.0122515 0.0011087 1e-005
0.0123759 0.00110841 1e-005
0.0125002 0.00110811 1e-005
0.0126245 0.00110781 1e-005
0.0127498 0.00110748 1e-005
0.0128752 0.00110715 1e-005
0.0130005 0.00110682 1e-005
0.0131258 0.00110648 1e-005
0.0132511 0.00110612 1e-005
0.0133774 0.00110575 1e-005
0.0135036 0.00110538 1e-005
0.0136299 0.00110499 1e-005
0.0137562 0.0011046 1e-005
0.0138825 0.00110421 1e-005
0.0140098 0.00110378 1e-005
0.014137 0.00110336 1e-005
0.0142643 0.00110293 1e-005
0.0143915 0.00110249 1e-005
0.0145188 0.00110205 1e-005
0.0146471 0.00110158 1e-005
0.0147753 0.00110111 1e-005
0.0149036 0.00110063 1e-005
0.0150318 0.00110014 1e-005
0.0151601 0.00109964 1e-005
0.0152893 0.00109913 1e-005
0.0154186 0.00109861 1e-005
0.0155478 0.00109808 1e-005
0.0156771 0.00109754 1e-005
0.0158063 0.00109699 1e-005
0.0159366 0.00109643 1e-005
0.0160668 0.00109586 1e-005
0.0161971 0.00109528 1e-005
0.0163274 0.00109469 1e-005
0.0164576 0.0010941 1e-005
0.0165889 0.00109349 1e-005
0.0167201 0.00109287 1e-005
0.0168514 0.00109223 1e-005
0.0169827 0.0010916 1e-005
0.0171139 0.00109095 1e-005
0.0172462 0.00109029 1e-005
0.0173785 0.00108962 1e-005
0.0175108 0.00108894 1e-005
0.0176431 0.00108825 1e-005
0.0177754 0.00108755 1e-005
0.0179087 0.00108685 1e-005
0.018042 0.00108613 1e-005
0.0181753 0.00108539 1e-005
0.0183087 0.00108465 1e-005
0.018442 0.00108391 1e-005
0.0185763 0.00108315 1e-005
0.0187107 0.00108238 1e-005
0.018845 0.0010816 1e-005
0.0189794 0.0010808 1e-005
0.0191137 0.00108001 1e-005
0.0192491 0.00107921 1e-005
0.0193845 0.00107839 1e-005
0.0195199 0.00107755 1e-005
0.0196553 0.0010767 1e-005
0.0197907 0.00107585 1e-005
0.0199272 0.00107501 1e-005
0.0200636 0.00107414 1e-005
0.0202001 0.00107325 1e-005
0.0203365 0.00107235 1e-005
0.020473 0.00107145 1e-005
0.0206105 0.00107055 1e-005
0.020748 0.00106964 1e-005
0.0208855 0.00106869 1e-005
0.021023 0.00106774 1e-005
0.0211606 0.0010668 1e-005
0.0212991 0.00106585 1e-005
0.0214377 0.00106488 1e-005
0.0215763 0.00106389 1e-005
0.0217149 0.00106289 1e-005
0.0218535 0.00106189 1e-005
0.0219931 0.0010609 1e-005
0.0221328 0.00105988 1e-005
0.0222724 0.00105883 1e-005
0.0224121 0.00105778 1e-005
0.0225517 0.00105673 1e-005
0.0226925 0.00105569 1e-005
0.0228332 0.00105462 1e-005
0.022974 0.00105352 1e-005
0.0231147 0.00105242 1e-005
0.0232555 0.00105132 1e-005
0.0233973 0.00105023 1e-005
0.0235391 0.00104911 1e-005
0.023681 0.00104796 1e-005
0.0238228 0.0010468 1e-005
0.0239647 0.00104565 1e-005
0.0241076 0.00104451 1e-005
0.0242505 0.00104333 1e-005
0.0243935 0.00104213 1e-005
0.0245364 0.00104092 1e-005
0.0246794 0.00103973 1e-005
0.0248234 0.00103853 1e-005
0.0249675 0.0010373 1e-005
0.0251115 0.00103605 1e-005
0.0252556 0.00103479 1e-005
0.0253996 0.00103354 1e-005
0.0255448 0.00103229 1e-005
0.02569 0.00103101 1e-005
0.0258351 0.00102971 1e-005
0.0259803 0.0010284 1e-005
0.0261255 0.00102709 1e-005
0.0262718 0.00102579 1e-005
0.0264181 0.00102446 1e-005
0.0265644 0.0010231 1e-005
0.0267107 0.00102174 1e-005
0.026857 0.00102038 1e-005
0.0270044 0.00101902 1e-005
0.0271519 0.00101764 1e-005
0.0272993 0.00101623 1e-005
0.0274468 0.00101481 1e-005
0.0275942 0.0010134 1e-005
0.0277428 0.00101199 1e-005
0.0278914 0.00101054 1e-005
0.0280399 0.00100908 1e-005
0.0281885 0.00100761 1e-005
0.0283371 0.00100614 1e-005
0.0284869 0.00100467 1e-005
0.0286366 0.00100317 1e-005
0.0287863 0.00100165 1e-005
0.0289361 0.00100013 1e-005
0.0290858 0.000998601 1e-005
0.0292367 0.00099707 1e-005
0.0293876 0.000995509 1e-005
0.0295385 0.000993936 1e-005
0.0296894 0.000992355 1e-005
0.0298403 0.000990766 1e-005
0.0299924 0.000989174 1e-005
0.0301445 0.000987551 1e-005
0.0302966 0.00098592 1e-005
0.0304486 0.00098428 1e-005
0.0306007 0.00098263 1e-005
0.030754 0.000980975 1e-005
0.0309072 0.000979292 1e-005
0.0310605 0.000977599 1e-005
0.0312138 0.000975898 1e-005
0.031367 0.000974187 1e-005
0.0315215 0.000972465 1e-005
0.0316759 0.00097072 1e-005
[...]
POINT_DATA 11980
 FIELD attributes 2
p 1 11980 float
-4.82172 -4.82102 -4.8174 -4.81371 -4.80994 -4.80157 -4.81543 -4.83041 -4.8454 -4.86038 -4.88482 -4.90661 -4.93656 -4.96652 -4.99648 -5.02924 -5.04493 -5.06666 -5.08839 -5.11012 -5.13347 -5.15241 -5.17336 -5.19432 -5.21527 -5.23298 -5.23404 -5.2351 -5.23617 -5.23723 -5.23829 -5.25999 -5.2817 -5.3034 -5.32511 -5.34654 -5.36535 -5.38398 -5.4026 -5.42123 -5.43928 -5.45496 -5.47037 -5.48578 -5.50119 -5.51604 -5.52989 -5.54349 -5.5571 -5.5707 -5.58385 -5.59665 -5.60918 -5.62172 -5.63425 -5.64637 -5.65826 -5.66987 -5.68147 -5.69307 -5.70425 -5.71533 -5.72614 -5.73695 -5.74777 -5.75822 -5.76869 -5.7789 -5.7891 -5.79931 -5.8092 -5.81918 -5.82898 -5.83877 -5.84857 -5.85815 -5.86782 -5.87723 -5.88664 -5.89605 -5.90524 -5.9147 -5.92429 -5.93389 -5.94348 -5.95322 -5.96316 -5.97286 -5.98256 -5.99226 -6.00178 -6.01179 -6.02263 -6.03347 -6.04431 -6.05533 -6.06529 -6.07598 -6.08667 -6.09737 -6.10761 -6.1169 -6.12573 -6.13455 -6.14337 -6.15139 -6.15854 -6.16672 -6.1749 -6.18308 -6.192 -6.20016 -6.20878 -6.2174 -6.22601 -6.23474 -6.24287 -6.25001 -6.25715 -6.26429 -6.27059 -6.27728 -6.2827 -6.28812 -6.29353 -6.2979 -6.30353 -6.30812 -6.3127 -6.31729 -6.32093 -6.32581 -6.32978 -6.33376 -6.33774 -6.34091 -6.34481 -6.34797 -6.35113 -6.3543 -6.35685 -6.35975 -6.3621 -6.36444 -6.36679 -6.36877 -6.37093 -6.37273 -6.37454 -6.37635 -6.37796 -6.37976 -6.38134 -6.38293 -6.38451 -6.38601 -6.38761 -6.38909 -6.39058 -6.39206 -6.39352 -6.39441 -6.39525 -6.39609 -6.39694 -6.39776 -6.39831 -6.39887 -6.39942 -6.39998 -6.40057 -6.40186 -6.40319 -6.40452 -6.40586 -6.40738 -6.40849 -6.40982 -6.41115 -6.41248 -6.41423 -6.41514 -6.41651 -6.41787 -6.41924 -6.42133 -6.42202 -6.42349 -6.42496 -6.42643 -6.42898 -6.42949 -6.43108 -6.43268 -6.43428 -6.4373 -6.43759 -6.43928 -6.44098 -6.44267 -6.44613 -6.4462 -6.448 -6.4498 -6.4516 -6.45553 -6.45547 -6.4574 -6.45934 -6.46128 -6.46564 -6.4655 -6.46758 -6.46966 -6.47174 -6.47647 -6.47627 -6.47849 -6.48071 -6.48293 -6.48798 -6.48776 -6.49013 -6.49249 -6.49502 -6.50018 -6.50027 -6.50252 -6.50503 -6.50798 -6.51309 -6.51353 -6.51569 -6.51835 -6.52167 -6.52672 -6.52751 -6.52964 -6.53245 -6.5361 -6.54108 -6.54222 -6.54435 -6.54731 -6.55123 -6.55614 -6.55763 -6.55981 -6.56291 -6.56707 -6.5719 -6.57373 -6.576 -6.57924 -6.58359 -6.58836 -6.59051 -6.59289 -6.59627 -6.60078 -6.60548 -6.60794 -6.61045 -6.61397 -6.6186 -6.62327 -6.626 -6.62874 -6.63242 -6.63705 -6.64168 -6.64468 -6.64768 -6.65149 -6.65611 -6.66073 -6.66398 -6.66722 -6.67115 -6.67578 -6.6804 -6.6839 -6.68739 -6.69145 -6.69607 -6.70069 -6.70441 -6.70814 -6.7123 -6.7169 -6.7215 -6.72543 -6.72935 -6.7336 -6.73818 -6.74276 -6.74683 -6.7509 -6.75524 -6.75982 -6.76441 -6.7686 -6.7728 -6.77722 -6.78182 -6.78644 -6.79073 -6.79505 -6.79954 -6.80416 -6.80881 -6.81319 -6.81762 -6.82217 -6.82681 -6.83151 -6.83595 -6.84047 -6.84508 -6.84975 -6.85449 -6.85899 -6.86358 -6.86824 -6.87294 -6.87772 -6.88227 -6.88692 -6.89161 -6.89633 -6.90114 -6.90572 -6.91042 -6.91514 -6.91987 -6.9247 -6.9293 -6.93404 -6.93878 -6.94352 -6.94835 -6.95298 -6.95773 -6.96248 -6.96722 -6.97204 -6.97669 -6.98143 -6.98617 -6.99091 -6.9957 -7.00035 -7.00508 -7.0098 -7.01452 -7.01928 -7.02392 -7.02861 -7.0333 -7.03799 -7.0427 -7.04731 -7.05195 -7.0566 -7.06124 -7.06589 -7.06845 -7.07101 -7.07357 -7.07614 -7.07865 -7.08068 -7.08271 -7.08474 -7.08677 -7.0888 -7.09331 -7.09782 -7.10233 -7.10684 -7.11137 -7.11579 -7.1202 -7.12462 -7.12904 -7.13348 -7.1378 -7.14212 -7.14643 -7.15075 -7.15508 -7.15929 -7.16349 -7.16768 -7.17187 -7.17608 -7.18017 -7.18422 -7.18826 -7.19231 -7.19635 -7.2003 -7.20418 -7.20805 -7.21193 -7.21579 -7.21957 -7.22328 -7.22697 -7.23065 -7.23431 -7.23791 -7.24143 -7.24492 -7.24837 -7.25181 -7.25519 -7.25852 -7.26176 -7.26496 -7.26814 -7.27128 -7.27439 -7.27738 -7.28029 -7.28318 -7.28606 -7.28893 -7.29163 -7.29422 -7.29681 -7.29939 -7.30198 -7.30438 -7.30664 -7.30889 -7.31116 -7.31342 -7.3155 -7.3174 -7.3193 -7.32121 -7.32313 -7.32487 -7.32637 -7.32788 -7.32942 -7.33097 -7.33233 -7.33342 -7.33451 -7.33564 -7.33676 -7.33769 -7.33838 -7.33903 -7.33973 -7.34035 -7.34083 -7.34112 -7.34129 -7.34152 -7.34161 -7.3416 -7.34148 -7.34113 -7.34087 -7.34039 -7.33986 -7.3393 -7.33842 -7.33761 -7.33652 -7.33544 -7.33435 -7.33297 -7.33153 -7.32986 -7.32818 -7.32652 -7.32464 -7.32251 -7.32022 -7.31794 -7.31565 -7.31326 -7.31058 -7.30782 -7.30506 -7.3023 -7.29971 -7.29951 -7.2993 -7.2991 -7.29889 -7.29868 -7.29512 -7.29155 -7.28799 -7.28443 -7.28074 -7.27662 -7.27235 -7.26807 -7.26381 -7.25927 -7.25458 -7.24956 -7.24455 -7.23954 -7.23411 -7.22882 -7.22303 -7.21724 -7.21139 -7.20509 -7.19903 -7.1926 -7.18601 -7.17918 -7.17206 -7.16518 -7.15811 -7.15069 -7.14285 -7.13486 -7.12713 -7.11941 -7.11109 -7.10222 -7.09334 -7.08474 -7.07614 -7.06694 -7.05715 -7.04736 -7.03785 -7.02834 -7.01823 -7.00749 -6.99676 -6.98631 -6.97584 -6.96473 -6.9531 -6.9414 -6.92998 -6.91831 -6.90621 -6.89383 -6.88113 -6.86872 -6.8558 -6.84269 -6.82955 -6.81582 -6.80233 -6.78818 -6.77403 -6.75989 -6.74535 -6.73054 -6.71533 -6.70012 -6.68492 -6.6696 -6.6629 -6.65607 -6.64925 -6.64243 -6.63581 -6.62638 -6.61695 -6.60753 -6.59811 -6.58853 -6.57142 -6.55417 -6.53692 -6.51968 -6.502 -6.48406 -6.46569 -6.44733 -6.42891 -6.40986 -6.3909 -6.37157 -6.35208 -6.33221 -6.31201 -6.2919 -6.27174 -6.25109 -6.22973 -6.20837 -6.1871 -6.16584 -6.14394 -6.12139 -6.09885 -6.07641 -6.05398 -6.03084 -6.00712 -5.98338 -5.95976 -5.93582 -5.91143 -5.88685 -5.86191 -5.8371 -5.81156 -5.78596 -5.76037 -5.73439 -5.70803 -5.68121 -5.6544 -5.6276 -5.60078 -5.59869 -5.59658 -5.59446 -5.59234 -5.59024 -5.5644 -5.53857 -5.51275 -5.48693 -5.46084 -5.43189 -5.40273 -5.37359 -5.34445 -5.31473 -5.28469 -5.25443 -5.22407 -5.1934 -5.16247 -5.13121 -5.09997 -5.06834 -5.03619 -5.00404 -4.97157 -4.93912 -4.90618 -4.87282 -4.83947 -4.80579 -4.77197 -4.73772 -4.70333 -4.66878 -4.63391 -4.59854 -4.5631 -4.52766 -4.49202 -4.46072 -4.42911 -4.39751 -4.36591 -4.33602 -4.33067 -4.32532 -4.31998 -4.31463 -4.30923 -4.27156 -4.23387 -4.19618 -4.15851 -4.12037 -4.08181 -4.04297 -4.00414 -3.96511 -3.92563 -3.88595 -3.84621 -3.80626 -3.76569 -3.7251 -3.68429 -3.6435 -3.60224 -3.56056 -3.51888 -3.47698 -3.43491 -3.39242 -3.34983 -3.30709 -3.26413 -3.22058 -3.17703 -3.1335 -3.08985 -3.07033 -3.05063 -3.03093 -3.01124 -2.99205 -2.96712 -2.9422 -2.91727 -2.89235 -2.86718 -2.82182 -2.77634 -2.73087 -2.68535 -2.63924 -2.59302 -2.5467 -2.50028 -2.45336 -2.40632 -2.35915 -2.312 -2.26444 -2.21652 -2.16858 -2.12051 -2.07228 -2.02367 -1.97501 -1.92621 -1.87724 -1.82778 -1.77833 -1.72889 -1.67939 -1.66929 -1.65911 -1.64892 -1.63874 -1.62867 -1.58862 -1.54857 -1.50853 -1.4685 -1.4281 -1.37727 -1.32632 -1.27538 -1.22424 -1.17275 -1.1212 -1.06965 -1.01791 -0.965777 -0.913614 -0.86138 -0.80915 -0.756467 -0.703719 -0.650916 -0.598037 -0.544798 -0.491501 -0.438214 -0.384859 -0.365681 -0.346383 -0.327087 -0.307792 -0.288859 -0.254225 -0.219596 -0.18497 -0.150349 -0.115475 -0.0611412 -0.00678235 0.0475664 0.102058 0.156818 0.21162 0.266412 0.321289 0.376412 0.431571 0.486779 0.542021 0.597516 0.652999 0.708516 0.764101 0.819934 0.875758 0.931572 0.987422 0.989935 0.992457 0.99498 0.997502 1.00002 1.05365 1.10728 1.16089 1.2145 1.26838 1.32481 1.38121 1.43758 1.49412 1.55075 1.60739 1.66401 1.72075 1.77747 1.83424 1.89102 1.94788 2.00478 2.06167 2.11855 2.13909 2.15966 2.18023 2.2008 2.22103 2.25754 2.29405 2.33055 2.36705 2.40365 2.46081 2.51785 2.57489 2.63196 2.68912 2.74625 2.80337 2.86046 2.91746 2.97452 3.03156 3.08859 3.14561 3.20261 3.25956 3.28094 3.30229 3.32363 3.34498 3.36599 3.40164 3.43729 3.47293 3.50857 3.54422 3.60115 3.65792 3.71466 3.77136 3.82808 3.88475 3.94141 3.99796 4.0543 4.1107 4.16706 4.22329 4.27947 4.33565 4.39182 4.39994 4.40803 4.41612 4.4242 4.43225 4.48014 4.52802 4.5759 4.62377 4.67153 4.72731 4.783 4.83854 4.89387 4.94925 5.00456 5.05985 5.11489 5.16983 5.22468 5.26419 5.30351 5.3428 5.38208 5.42049 5.43595 5.45141 5.46686 5.48231 5.4977 5.55201 5.60617 5.66033 5.71437 5.76828 5.82208 5.87587 5.92938 5.98259 6.03585 6.08899 6.14189 6.19467 6.24745 6.30019 6.30738 6.31453 6.32167 6.32881 6.33592 6.38111 6.4263 6.47149 6.51663 6.56154 6.61342 6.66525 6.71681 6.76805 6.81932 6.87042 6.92141 6.9721 7.02279 7.07324 7.09556 7.11772 7.13984 7.16196 7.18394 7.21191 7.23987 7.26783 7.29574 7.32346 7.3731 7.42254 7.47189 7.52082 7.56971 7.61847 7.66718 7.71543 7.7636 7.81158 7.83721 7.86261 7.88796 7.9133 7.9386 7.96078 7.98295 8.00513 8.02724 8.04918 8.09624 8.14305 8.18982 8.23615 8.28239 8.32848 8.37454 8.42008 8.46552 8.51076 8.53541 8.55984 8.58418 8.60852 8.63302 8.65337 8.67372 8.69406 8.71435 8.73444 8.77866 8.82263 8.86656 8.91003 8.95337 8.99656 9.0397 9.08231 9.12481 9.1671 9.1901 9.21287 9.23555 9.25824 9.28127 9.30025 9.31922 9.33819 9.35711 9.37582 9.41699 9.45791 9.4988 9.53924 9.57952 9.6196 9.65967 9.69919 9.73857 9.77775 9.80147 9.82491 9.84828 9.87164 9.89566 9.91072 9.92579 9.94086 9.95588 9.97073 10.0087 10.0464 10.0841 10.1214 10.1585 10.1954 10.2323 10.2687 10.3047 10.3407 10.3701 10.3991 10.4281 10.457 10.4875 10.4935 10.4995 10.5054 10.5114 10.5173 10.5519 10.5863 10.6207 10.655 10.6888 10.7224 10.7559 10.7891 10.8219 10.8546 10.887 10.9191 10.951 10.983 11.0146 11.0251 11.0354 11.0457 11.056 11.0666 11.0872 11.1079 11.1285 11.1491 11.1694 11.1997 11.2297 11.2597 11.2894 11.3189 11.348 11.3772 11.406 11.4344 11.4627 11.4907 11.5185 11.5462 11.5739 11.6013 11.6115 11.6215 11.6315 11.6414 11.652 11.6684 11.6848 11.7011 11.7175 11.7335 11.7592 11.7851 11.811 11.8374 11.8644 11.8909 11.9174 11.9381 11.9537 11.9692 11.9841 11.9989 12.0245 12.0579 12.0919 12.1254 12.1438 12.1579 12.1721 12.1855 12.1856 12.1858 12.1861 12.1864 12.1867 12.1931 12.1994 12.2057 12.2129 12.2242 12.2352 12.246 12.2561 12.2655 12.2747 12.2831 12.2906 12.2968 12.303 12.3077 12.3095 12.3106 12.3116 12.3126 12.3137 12.3152 12.3167 12.3181 12.3195 12.3203 12.3202 12.319 12.3177 12.3155 12.3125 12.3079 12.3032 12.2968 12.2886 12.2804 12.2704 12.2592 12.2469 12.2345 12.2205 12.2105 12.1991 12.1877 12.1762 12.1631 12.1565 12.15 12.1434 12.1369 12.1296 12.1061 12.0814 12.0567 12.0314 12.004 11.9736 11.9426 11.9096 11.8737 11.8377 11.7984 11.759 11.7167 11.671 11.6253 11.576 11.5242 11.4709 11.4175 11.361 11.3052 11.2465 11.1876 11.1288 11.0544 11.0513 11.0482 11.0451 11.042 11.0388 10.9625 10.8859 10.8093 10.7326 10.6524 10.5653 10.4741 10.3828 10.2896 10.1929 10.0906 9.98689 9.87876 9.7643 9.64926 9.52805 9.40677 9.28 9.14794 9.01576 8.8769 8.73762 8.58701 8.42836 8.268 8.10002 7.931 7.76107 7.59071 7.41891 7.23917 7.02896 6.8188 6.60868 6.38162 6.14891 5.93251 5.71606 5.49957 5.28675 5.2086 5.11445 5.02034 4.92628 4.82093 4.6068 4.39244 4.17786 3.96305 3.71527 3.39566 3.13616 2.87589 2.6149 2.49319 2.37877 1.9435 1.51337 0.943033 0