# vtk DataFile Version 2.0
track0
ASCII
DATASET POLYDATA
POINTS 11980 float
-0.0205 0.001 1e-005
-0.0202034 0.00100022 1e-005
-0.0199069 0.00100067 1e-005
-0.0196103 0.00100132 1e-005
-0.0193137 0.00100219 1e-005
-0.0190172 0.00100326 1e-005
-0.0187132 0.00100466 1e-005
-0.0184093 0.00100588 1e-005
-0.0181054 0.0010071 1e-005
-0.0178015 0.00100832 1e-005
-0.0174976 0.00100953 1e-005
-0.0172058 0.00101083 1e-005
-0.016914 0.00101193 1e-005
-0.0166222 0.00101303 1e-005
-0.0163305 0.00101413 1e-005
-0.0160387 0.00101522 1e-005
-0.0157586 0.00101636 1e-005
-0.0154784 0.00101744 1e-005
-0.0151983 0.00101856 1e-005
-0.0149182 0.00101971 1e-005
-0.0146381 0.0010209 1e-005
-0.0143744 0.00102208 1e-005
-0.0141107 0.00102327 1e-005
-0.013847 0.00102449 1e-005
-0.0135833 0.00102574 1e-005
-0.0133605 0.00102682 1e-005
-0.0133471 0.00102688 1e-005
-0.0133337 0.00102695 1e-005
-0.0133203 0.00102702 1e-005
-0.0133069 0.00102708 1e-005
-0.0132934 0.00102715 1e-005
-0.0130353 0.00102844 1e-005
-0.0127771 0.00102974 1e-005
-0.0125189 0.00103106 1e-005
-0.0122607 0.00103239 1e-005
-0.0120025 0.00103374 1e-005
-0.0117547 0.00103505 1e-005
-0.0115068 0.00103637 1e-005
-0.0112589 0.00103769 1e-005
-0.0110111 0.00103901 1e-005
-0.0107632 0.00104034 1e-005
-0.0105252 0.00104161 1e-005
-0.0102873 0.00104289 1e-005
-0.0100493 0.00104417 1e-005
-0.00981133 0.00104545 1e-005
-0.00957337 0.00104672 1e-005
-0.00934491 0.00104794 1e-005
-0.00911645 0.00104917 1e-005
-0.00888799 0.00105038 1e-005
-0.00865954 0.0010516 1e-005
-0.00843108 0.00105281 1e-005
-0.00821175 0.00105397 1e-005
-0.00799242 0.00105512 1e-005
-0.00777309 0.00105628 1e-005
-0.00755376 0.00105742 1e-005
-0.00733443 0.00105857 1e-005
-0.00712387 0.00105966 1e-005
-0.0069133 0.00106075 1e-005
-0.00670273 0.00106183 1e-005
-0.00649216 0.00106291 1e-005
-0.0062816 0.00106399 1e-005
-0.00607944 0.00106501 1e-005
-0.00587729 0.00106604 1e-005
-0.00567514 0.00106706 1e-005
-0.00547298 0.00106807 1e-005
-0.00527083 0.00106908 1e-005
-0.00507675 0.00107004 1e-005
-0.00488267 0.00107101 1e-005
-0.0046886 0.00107196 1e-005
-0.00449452 0.00107292 1e-005
-0.00430044 0.00107387 1e-005
-0.00411412 0.00107477 1e-005
-0.0039278 0.00107568 1e-005
-0.00374147 0.00107658 1e-005
-0.00355515 0.00107747 1e-005
-0.00336883 0.00107837 1e-005
-0.00318995 0.00107922 1e-005
-0.00301107 0.00108007 1e-005
-0.00283219 0.00108091 1e-005
-0.00265331 0.00108176 1e-005
-0.00247443 0.0010826 1e-005
-0.0023027 0.0010834 1e-005
-0.00213097 0.00108421 1e-005
-0.00195924 0.00108501 1e-005
-0.0017875 0.00108581 1e-005
-0.00161577 0.00108661 1e-005
-0.0014509 0.00108737 1e-005
-0.00128603 0.00108813 1e-005
-0.00112116 0.00108889 1e-005
-0.000956289 0.00108964 1e-005
-0.000791418 0.0010904 1e-005
-0.000633135 0.00109113 1e-005
-0.000474851 0.00109185 1e-005
-0.000316567 0.00109258 1e-005
-0.000158284 0.0010933 1e-005
0 0.00109402 1e-005
0.000105677 0.00109449 1e-005
0.000211355 0.00109497 1e-005
0.000317032 0.00109544 1e-005
0.00042271 0.00109591 1e-005
0.000528387 0.00109638 1e-005
0.000634886 0.00109684 1e-005
0.000741385 0.0010973 1e-005
0.000847885 0.00109776 1e-005
0.000954384 0.00109821 1e-005
0.00106088 0.00109867 1e-005
0.00116821 0.00109912 1e-005
0.00127554 0.00109957 1e-005
0.00138286 0.00110001 1e-005
0.00149019 0.00110044 1e-005
0.00159752 0.00110087 1e-005
0.00170568 0.0011013 1e-005
0.00181384 0.00110172 1e-005
0.001922 0.00110213 1e-005
0.00203016 0.00110254 1e-005
0.00213833 0.00110293 1e-005
0.00224733 0.00110332 1e-005
0.00235633 0.0011037 1e-005
0.00246533 0.00110408 1e-005
0.00257434 0.00110444 1e-005
0.00268334 0.0011048 1e-005
0.00279319 0.00110515 1e-005
0.00290304 0.00110549 1e-005
0.00301289 0.00110583 1e-005
0.00312274 0.00110616 1e-005
0.00323259 0.00110648 1e-005
0.00334329 0.00110679 1e-005
0.003454 0.0011071 1e-005
0.0035647 0.0011074 1e-005
0.0036754 0.0011077 1e-005
0.00378611 0.00110798 1e-005
0.00389767 0.00110826 1e-005
0.00400924 0.00110853 1e-005
0.0041208 0.0011088 1e-005
0.00423237 0.00110905 1e-005
0.00434393 0.0011093 1e-005
0.00445636 0.00110954 1e-005
0.00456879 0.00110978 1e-005
0.00468123 0.00111001 1e-005
0.00479366 0.00111023 1e-005
0.00490609 0.00111044 1e-005
0.0050194 0.00111064 1e-005
0.0051327 0.00111084 1e-005
0.00524601 0.00111104 1e-005
0.00535932 0.00111122 1e-005
0.00547262 0.0011114 1e-005
0.00558681 0.00111156 1e-005
0.005701 0.00111173 1e-005
0.00581518 0.00111188 1e-005
0.00592937 0.00111203 1e-005
0.00604356 0.00111217 1e-005
0.00615863 0.0011123 1e-005
0.00627371 0.00111242 1e-005
0.00638878 0.00111254 1e-005
0.00650386 0.00111265 1e-005
0.00661893 0.00111276 1e-005
0.0067349 0.00111285 1e-005
0.00685087 0.00111294 1e-005
0.00696684 0.00111302 1e-005
0.00708281 0.0011131 1e-005
0.00719878 0.00111316 1e-005
0.00726966 0.0011132 1e-005
0.00734053 0.00111323 1e-005
0.00741141 0.00111326 1e-005
0.00748229 0.00111329 1e-005
0.00755084 0.00111332 1e-005
0.0075973 0.00111333 1e-005
0.00764376 0.00111334 1e-005
0.00769022 0.00111336 1e-005
0.00773668 0.00111337 1e-005
0.00778313 0.00111338 1e-005
0.00790091 0.0011134 1e-005
0.00801869 0.00111341 1e-005
0.00813647 0.00111342 1e-005
0.00825425 0.00111342 1e-005
0.00837203 0.00111341 1e-005
0.00849073 0.00111339 1e-005
0.00860942 0.00111336 1e-005
0.00872812 0.00111333 1e-005
0.00884682 0.00111329 1e-005
0.00896551 0.00111324 1e-005
0.00908513 0.00111317 1e-005
0.00920475 0.00111311 1e-005
0.00932437 0.00111304 1e-005
0.00944398 0.00111296 1e-005
0.0095636 0.00111287 1e-005
0.00968415 0.00111276 1e-005
0.0098047 0.00111265 1e-005
0.00992525 0.00111254 1e-005
0.0100458 0.00111242 1e-005
0.0101663 0.00111229 1e-005
0.0102878 0.00111214 1e-005
0.0104093 0.00111199 1e-005
0.0105308 0.00111183 1e-005
0.0106523 0.00111167 1e-005
0.0107738 0.0011115 1e-005
0.0108962 0.0011113 1e-005
0.0110186 0.00111111 1e-005
0.0111411 0.00111091 1e-005
0.0112635 0.00111071 1e-005
0.0113859 0.00111049 1e-005
0.0115093 0.00111025 1e-005
0.0116327 0.00111002 1e-005
0.0117561 0.00110977 1e-005
0.0118795 0.00110952 1e-005
0.0120028 0.00110926 1e-005
0.0121272 0.00110898 1e-005
0.0122515 0.0011087 1e-005
0.0123759 0.00110841 1e-005
0.0125002 0.00110811 1e-005
0.0126245 0.00110781 1e-005
0.0127498 0.00110748 1e-005
0.0128752 0.00110715 1e-005
0.0130005 0.00110682 1e-005
0.0131258 0.00110648 1e-005
0.0132511 0.00110612 1e-005
0.0133774 0.00110575 1e-005
0.0135036 0.00110538 1e-005
0.0136299 0.00110499 1e-005
0.0137562 0.0011046 1e-005
0.0138825 0.00110421 1e-005
0.0140098 0.00110378 1e-005
0.014137 0.00110336 1e-005
0.0142643 0.00110293 1e-005
0.0143915 0.00110249 1e-005
0.0145188 0.00110205 1e-005
0.0146471 0.00110158 1e-005
0.0147753 0.00110111 1e-005
0.0149036 0.00110063 1e-005
0.0150318 0.00110014 1e-005
0.0151601 0.00109964 1e-005
0.0152893 0.00109913 1e-005
0.0154186 0.00109861 1e-005
0.0155478 0.00109808 1e-005
0.0156771 0.00109754 1e-005
0.0158063 0.00109699 1e-005
0.0159366 0.00109643 1e-005
0.0160668 0.00109586 1e-005
0.0161971 0.00109528 1e-005
0.0163274 0.00109469 1e-005
0.0164576 0.0010941 1e-005
0.0165889 0.00109349 1e-005
0.0167201 0.00109287 1e-005
0.0168514 0.00109223 1e-005
0.0169827 0.0010916 1e-005
0.0171139 0.00109095 1e-005
0.0172462 0.00109029 1e-005
0.0173785 0.00108962 1e-005
0.0175108 0.00108894 1e-005
0.0176431 0.00108825 1e-005
0.0177754 0.00108755 1e-005
0.0179087 0.00108685 1e-005
0.018042 0.00108613 1e-005
0.0181753 0.00108539 1e-005
0.0183087 0.00108465 1e-005
0.018442 0.00108391 1e-005
0.0185763 0.00108315 1e-005
0.0187107 0.00108238 1e-005
0.018845 0.0010816 1e-005
0.0189794 0.0010808 1e-005
0.0191137 0.00108001 1e-005
0.0192491 0.00107921 1e-005
0.0193845 0.00107839 1e-005
0.0195199 0.00107755 1e-005
0.0196553 0.0010767 1e-005
0.0197907 0.00107585 1e-005
0.0199272 0.00107501 1e-005
0.0200636 0.00107414 1e-005
0.0202001 0.00107325 1e-005
0.0203365 0.00107235 1e-005
0.020473 0.00107145 1e-005
0.0206105 0.00107055 1e-005
0.020748 0.00106964 1e-005
0.0208855 0.00106869 1e-005
0.021023 0.00106774 1e-005
0.0211606 0.0010668 1e-005
0.0212991 0.00106585 1e-005
0.0214377 0.00106488 1e-005
0.0215763 0.00106389 1e-005
0.0217149 0.00106289 1e-005
0.0218535 0.00106189 1e-005
0.0219931 0.0010609 1e-005
0.0221328 0.00105988 1e-005
0.0222724 0.00105883 1e-005
0.0224121 0.00105778 1e-005
0.0225517 0.00105673 1e-005
0.0226925 0.00105569 1e-005
0.0228332 0.00105462 1e-005
0.022974 0.00105352 1e-005
0.0231147 0.00105242 1e-005
0.0232555 0.00105132 1e-005
0.0233973 0.00105023 1e-005
0.0235391 0.00104911 1e-005
0.023681 0.00104796 1e-005
0.0238228 0.0010468 1e-005
0.0239647 0.00104565 1e-005
0.0241076 0.00104451 1e-005
0.0242505 0.00104333 1e-005
0.0243935 0.00104213 1e-005
0.0245364 0.00104092 1e-005
0.0246794 0.00103973 1e-005
0.0248234 0.00103853 1e-005
0.0249675 0.0010373 1e-005
0.0251115 0.00103605 1e-005
0.0252556 0.00103479 1e-005
0.0253996 0.00103354 1e-005
0.0255448 0.00103229 1e-005
0.02569 0.00103101 1e-005
0.0258351 0.00102971 1e-005
0.0259803 0.0010284 1e-005
0.0261255 0.00102709 1e-005
0.0262718 0.00102579 1e-005
0.0264181 0.00102446 1e-005
0.0265644 0.0010231 1e-005
0.0267107 0.00102174 1e-005
0.026857 0.00102038 1e-005
0.0270044 0.00101902 1e-005
0.0271519 0.00101764 1e-005
0.0272993 0.00101623 1e-005
0.0274468 0.00101481 1e-005
0.0275942 0.0010134 1e-005
0.0277428 0.00101199 1e-005
0.0278914 0.00101054 1e-005
0.0280399 0.00100908 1e-005
0.0281885 0.00100761 1e-005
0.0283371 0.00100614 1e-005
0.0284869 0.00100467 1e-005
0.0286366 0.00100317 1e-005
0.0287863 0.00100165 1e-005
0.0289361 0.00100013 1e-005
0.0290858 0.000998601 1e-005
0.0292367 0.00099707 1e-005
0.0293876 0.000995509 1e-005
0.0295385 0.000993936 1e-005
0.0296894 0.000992355 1e-005
0.0298403 0.000990766 1e-005
0.0299924 0.000989174 1e-005
0.0301445 0.000987551 1e-005
0.0302966 0.00098592 1e-005
0.0304486 0.00098428 1e-005
0.0306007 0.00098263 1e-005
0.030754 0.000980975 1e-005
0.0309072 0.000979292 1e-005
0.0310605 0.000977599 1e-005
0.0312138 0.000975898 1e-005
0.031367 0.000974187 1e-005
0.0315215 0.000972465 1e-005
0.0316759 0.00097072 1e-005
[...]
POINT_DATA 11980
 FIELD attributes 1
U 3 11980 float
10.0004 	0.00731826 	0 10.0024 	0.0151682 	0 10.0045 	0.0221867 	0 10.0065 	0.029161 	0 10.0085 	0.0360913 	0 10.0135 	0.0463062 	0 10.0163 	0.0402048 	0 10.0207 	0.0401627 	0 10.0252 	0.0401208 	0 10.0296 	0.0400791 	0 10.0356 	0.0445393 	0 10.0385 	0.0378979 	0 10.0424 	0.0378533 	0 10.0464 	0.0378085 	0 10.0504 	0.0377638 	0 10.0545 	0.0408648 	0 10.0567 	0.0387858 	0 10.0592 	0.0400942 	0 10.0616 	0.0414042 	0 10.0641 	0.0427159 	0 10.0662 	0.0451738 	0 10.0677 	0.0452843 	0 10.0691 	0.0464865 	0 10.0704 	0.0476898 	0 10.0718 	0.0488943 	0 10.0729 	0.0499126 	0 10.073 	0.0499743 	0 10.073 	0.0500361 	0 10.0731 	0.0500979 	0 10.0732 	0.0501596 	0 10.0732 	0.0502121 	0 10.0738 	0.0508378 	0 10.0743 	0.0514576 	0 10.0748 	0.0520779 	0 10.0753 	0.0526988 	0 10.0758 	0.0531556 	0 10.0757 	0.0534502 	0 10.0754 	0.0536394 	0 10.075 	0.0538288 	0 10.0747 	0.0540182 	0 10.0742 	0.0539692 	0 10.0737 	0.0541129 	0 10.0726 	0.0540882 	0 10.0716 	0.0540635 	0 10.0705 	0.0540388 	0 10.0689 	0.0537449 	0 10.0686 	0.0538236 	0 10.0669 	0.0536885 	0 10.0653 	0.0535534 	0 10.0637 	0.0534183 	0 10.0612 	0.0529967 	0 10.0612 	0.0530487 	0 10.0591 	0.0528521 	0 10.0571 	0.0526554 	0 10.0551 	0.0524586 	0 10.0516 	0.0519627 	0 10.0522 	0.0520128 	0 10.0499 	0.0517892 	0 10.0476 	0.0515655 	0 10.0453 	0.0513418 	0 10.0407 	0.0508108 	0 10.0421 	0.0508797 	0 10.0396 	0.0506499 	0 10.0371 	0.0504201 	0 10.0346 	0.0501902 	0 10.0289 	0.0496394 	0 10.0313 	0.0497325 	0 10.0287 	0.0495123 	0 10.0261 	0.0492922 	0 10.0234 	0.0490719 	0 10.0166 	0.0485234 	0 10.0202 	0.0486493 	0 10.0175 	0.0484378 	0 10.0148 	0.0482262 	0 10.012 	0.0480145 	0 10.004 	0.0474557 	0 10.0088 	0.0476118 	0 10.0061 	0.0474481 	0 10.0034 	0.0472843 	0 10.0007 	0.0471206 	0 9.99142 	0.0466215 	0 9.9976 	0.0468436 	0 9.99492 	0.0466893 	0 9.99225 	0.046535 	0 9.98957 	0.0463807 	0 9.97915 	0.0458348 	0 9.98671 	0.0460573 	0 9.98411 	0.0460126 	0 9.98152 	0.0459679 	0 9.97892 	0.0459231 	0 9.96733 	0.0455341 	0 9.97634 	0.0458099 	9.13664e-022 9.97433 	0.0456501 	5.91889e-021 9.97233 	0.0454902 	1.09243e-020 9.97031 	0.0453303 	1.59298e-020 9.95824 	0.0447192 	1.35281e-020 9.96847 	0.044829 	9.30193e-020 9.96666 	0.0445217 	8.63302e-020 9.96485 	0.0442143 	7.96376e-020 9.96303 	0.0439068 	7.29415e-020 9.95075 	0.0432267 	-1.48099e-020 9.96083 	0.0431835 	-4.01196e-020 9.95908 	0.0428898 	-4.46317e-020 9.95732 	0.0425962 	-4.91423e-020 9.95555 	0.0423025 	-5.36514e-020 9.94348 	0.0417341 	-2.11571e-020 9.9531 	0.0415279 	-1.86114e-020 9.95119 	0.0409665 	-1.2957e-020 9.94928 	0.0404051 	-7.30292e-021 9.94737 	0.0398435 	-1.6493e-021 9.93551 	0.0390619 	6.94063e-021 9.94472 	0.0387459 	-5.66248e-021 9.94261 	0.0379383 	-2.40371e-020 9.9405 	0.0371306 	-4.24137e-020 9.93839 	0.0363227 	-6.07923e-020 9.92663 	0.0352517 	-8.66881e-020 9.93526 	0.035002 	-1.22279e-019 9.93281 	0.0341831 	-1.10067e-019 9.93035 	0.033364 	-9.78486e-020 9.92788 	0.0325446 	-8.56224e-020 9.91612 	0.0313407 	-2.95518e-020 9.92402 	0.0312141 	3.36943e-020 9.92117 	0.0304733 	4.7005e-020 9.91831 	0.0297323 	6.03065e-020 9.91545 	0.028991 	7.35987e-020 9.90376 	0.027763 	3.63396e-020 9.91083 	0.0276789 	-4.5422e-020 9.9076 	0.0269752 	-5.14094e-020 9.90436 	0.0262713 	-5.73827e-020 9.90111 	0.0255671 	-6.33418e-020 9.88958 	0.0243497 	-3.35116e-022 9.89572 	0.0242282 	5.90365e-020 9.89207 	0.0235317 	4.97539e-020 9.88842 	0.022835 	4.04573e-020 9.88476 	0.022138 	3.11465e-020 9.87348 	0.0209682 	-2.83444e-020 9.87848 	0.020782 	-8.20435e-020 9.87438 	0.0200926 	-1.03922e-019 9.87027 	0.0194028 	-1.25794e-019 9.86616 	0.0187129 	-1.47662e-019 9.85521 	0.0176229 	-1.34984e-019 9.85885 	0.0173673 	-1.53601e-019 9.85427 	0.016689 	-1.41337e-019 9.84969 	0.0160104 	-1.29068e-019 9.8451 	0.0153316 	-1.16796e-019 9.83466 	0.0143377 	-8.25657e-020 9.83668 	0.0140197 	-6.93018e-020 9.83162 	0.0133581 	-5.1073e-020 9.82656 	0.0126963 	-3.2846e-020 9.8215 	0.0120342 	-1.46206e-020 9.81179 	0.01114 	1.97939e-021 9.81188 	0.0107543 	0 9.80637 	0.0101052 	0 9.80084 	0.00945571 	0 9.79531 	0.00880596 	0 9.78663 	0.008007 	0 9.78445 	0.00753966 	-1.64432e-020 9.77847 	0.00689705 	-3.51208e-020 9.77249 	0.00625413 	-5.38001e-020 9.7665 	0.00561091 	-7.2481e-020 9.7592 	0.00490761 	-9.17161e-020 9.75687 	0.0045937 	-9.50612e-020 9.75297 	0.00420787 	-9.55053e-020 9.74907 	0.00382192 	-9.59476e-020 9.74517 	0.00343584 	-9.6388e-020 9.74139 	0.00306232 	-9.68122e-020 9.7388 	0.00280771 	-9.75416e-020 9.73621 	0.00255304 	-9.82713e-020 9.73362 	0.00229831 	-9.90012e-020 9.73102 	0.00204353 	-9.97313e-020 9.7259 	0.00167525 	-9.9722e-020 9.72129 	0.0011467 	-7.44532e-020 9.71434 	0.000514015 	-4.57876e-020 9.70739 	-0.000119053 	-1.71313e-020 9.70042 	-0.000752507 	1.15157e-020 9.68455 	-0.00177693 	4.91265e-020 9.68537 	-0.00204958 	4.99938e-020 9.67799 	-0.00267616 	5.11205e-020 9.6706 	-0.00330316 	5.22451e-020 9.6632 	-0.00393058 	5.33676e-020 9.64067 	-0.00519883 	5.66044e-020 9.64678 	-0.00524584 	4.4595e-020 9.639 	-0.00586633 	3.25831e-020 9.6312 	-0.00648728 	2.05701e-020 9.62339 	-0.00710867 	8.5559e-021 9.59452 	-0.00857688 	-1.07213e-021 9.60564 	-0.00844119 	-8.05066e-021 9.59746 	-0.00905604 	-1.95123e-020 9.58927 	-0.00967137 	-3.09727e-020 9.58108 	-0.0102872 	-4.2432e-020 9.54636 	-0.0119037 	-5.39068e-020 9.56206 	-0.0116355 	-5.37068e-020 9.55353 	-0.0122469 	-6.09729e-020 9.54498 	-0.0128587 	-6.82359e-020 9.53642 	-0.0134711 	-7.54958e-020 9.49645 	-0.0151815 	-9.41729e-020 9.51626 	-0.0148316 	-1.49102e-019 9.50738 	-0.0154396 	-1.39751e-019 9.4985 	-0.0160482 	-1.30413e-019 9.4896 	-0.0166574 	-1.21087e-019 9.44506 	-0.0184021 	-4.10602e-020 9.46839 	-0.0180216 	-2.62076e-020 9.45921 	-0.018626 	-1.83664e-020 9.45001 	-0.019231 	-1.05245e-020 9.4408 	-0.0198365 	-2.68184e-021 9.39242 	-0.0215578 	0 9.41868 	-0.0211951 	0 9.40921 	-0.0217968 	0 9.39973 	-0.0223991 	0 9.39023 	-0.0230021 	0 9.33877 	-0.0246496 	0 9.36736 	-0.0243515 	1.56289e-021 9.35763 	-0.0249525 	8.85579e-021 9.34789 	-0.0255541 	1.61479e-020 9.33813 	-0.0261564 	2.34393e-020 9.28432 	-0.0276828 	4.12113e-020 9.31466 	-0.0274986 	1.58954e-019 9.3047 	-0.0280993 	1.6184e-019 9.29472 	-0.0287008 	1.6474e-019 9.28473 	-0.0293029 	1.67654e-019 9.22929 	-0.0306559 	4.13997e-020 9.26083 	-0.0306285 	2.20966e-020 9.25066 	-0.0312277 	1.55769e-020 9.24047 	-0.0318276 	9.05631e-021 9.22756 	-0.0324594 	3.79002e-021 9.17386 	-0.0335616 	1.7411e-020 9.20195 	-0.0337691 	1.0363e-019 9.19575 	-0.0343239 	1.13999e-019 9.18537 	-0.0349214 	1.15203e-019 9.16829 	-0.0355597 	1.00007e-019 9.11821 	-0.0363962 	3.97017e-021 9.14294 	-0.0368213 	-9.80768e-020 9.14019 	-0.0373782 	-1.28431e-019 9.12966 	-0.037973 	-1.38539e-019 9.10911 	-0.0385671 	-1.27427e-019 9.0625 	-0.0391585 	-6.09872e-020 9.08407 	-0.0397811 	-1.76484e-019 9.08421 	-0.0403829 	-2.16667e-019 9.07354 	-0.0409747 	-2.18896e-019 9.0502 	-0.0414803 	-1.71738e-019 9.00687 	-0.0418492 	-4.66362e-020 9.0255 	-0.0426487 	-2.46653e-020 9.02802 	-0.0433327 	-1.07863e-020 9.01723 	-0.0439214 	-3.59265e-021 8.99171 	-0.0443003 	0 8.95148 	-0.0444696 	0 8.96737 	-0.0454253 	0 8.9718 	-0.0462229 	0 8.96092 	-0.0468086 	0 8.93376 	-0.0470295 	2.01434e-021 8.89643 	-0.0470223 	5.28803e-021 8.90981 	-0.0481143 	2.16667e-021 8.91574 	-0.0490512 	0 8.90479 	-0.0496339 	0 8.87649 	-0.0496718 	2.39942e-021 8.84184 	-0.0495101 	5.67721e-021 8.85293 	-0.0507193 	2.55535e-021 8.86 	-0.0518151 	1.18307e-021 8.84899 	-0.052395 	7.70749e-021 8.81997 	-0.0522313 	2.42114e-020 8.7878 	-0.0519369 	4.24672e-020 8.79682 	-0.0532452 	1.66476e-019 8.80471 	-0.0545149 	2.83905e-019 8.79367 	-0.055092 	2.87318e-019 8.76431 	-0.0547135 	1.66979e-019 8.73441 	-0.0543065 	4.29726e-020 8.74155 	-0.0556969 	2.49792e-020 8.74865 	-0.0570887 	6.98706e-021 8.73737 	-0.0576236 	2.95081e-022 8.70955 	-0.0571235 	3.44685e-021 8.68174 	-0.0566232 	6.59848e-021 8.6872 	-0.0580801 	3.60644e-021 8.69261 	-0.0595385 	6.15182e-022 8.68169 	-0.0600433 	2.06172e-021 8.65578 	-0.0594679 	-1.81794e-021 8.62987 	-0.058892 	-5.69665e-021 8.63381 	-0.0604014 	-4.85936e-020 8.6377 	-0.0619123 	-9.14942e-020 8.6272 	-0.0623874 	-9.28338e-020 8.60302 	-0.061752 	-5.35856e-020 8.57885 	-0.0611162 	-1.43356e-020 8.58145 	-0.0626674 	8.371e-020 8.58398 	-0.0642201 	1.8175e-019 8.57392 	-0.0646669 	1.90196e-019 8.55132 	-0.0639851 	1.08537e-019 8.52874 	-0.0633029 	2.68793e-020 8.53014 	-0.0648896 	1.56333e-020 8.53148 	-0.0664778 	4.38388e-021 8.5219 	-0.0668977 	4.85265e-022 8.50073 	-0.0661787 	5.0503e-021 8.47958 	-0.0654591 	9.61709e-021 8.47993 	-0.0670701 	4.14743e-021 8.48023 	-0.0686827 	-1.32723e-021 8.47113 	-0.0690766 	-2.06075e-020 8.45126 	-0.068333 	-7.00868e-020 8.4314 	-0.0675888 	-1.19568e-019 8.43083 	-0.0692101 	-2.49075e-019 8.4302 	-0.0708329 	-3.78576e-019 8.42162 	-0.0712022 	-3.63608e-019 8.40291 	-0.0704498 	-2.15165e-019 8.38422 	-0.0696969 	-6.67234e-020 8.38283 	-0.0713159 	5.58565e-020 8.38138 	-0.0729331 	1.78114e-019 8.37303 	-0.0732485 	1.75748e-019 8.35568 	-0.0725388 	8.94933e-020 8.33804 	-0.0717934 	3.52018e-022 8.33594 	-0.0734062 	-8.81155e-020 8.33295 	-0.0748399 	-1.65516e-019 8.32475 	-0.0751619 	-1.74697e-019 8.30956 	-0.0746195 	-1.13189e-019 8.29288 	-0.0738898 	-3.63891e-020 8.29015 	-0.0754926 	-2.52765e-020 8.28591 	-0.0767422 	-1.42613e-020 8.27785 	-0.0770721 	-3.49272e-021 8.26455 	-0.0767009 	1.37531e-020 8.24874 	-0.0759928 	3.41103e-020 8.24545 	-0.0775831 	1.2548e-020 8.24021 	-0.0786508 	-2.39785e-021 8.23228 	-0.0789901 	-8.13231e-021 8.22061 	-0.0787916 	-3.06405e-021 8.20559 	-0.0781103 	1.16952e-020 8.20181 	-0.0796874 	-4.65069e-021 8.19577 	-0.080578 	-1.53875e-020 8.18797 	-0.0809284 	-2.17119e-020 8.17772 	-0.0809018 	-3.37188e-020 8.16343 	-0.0802509 	-5.51268e-020 8.1592 	-0.0818146 	5.21735e-020 8.15255 	-0.082534 	8.57325e-020 8.14488 	-0.0828969 	8.81461e-020 8.13586 	-0.0830401 	6.94152e-020 8.12222 	-0.0824225 	-2.24557e-020 8.11761 	-0.0839729 	6.81415e-020 8.11051 	-0.0845278 	8.4634e-020 8.10294 	-0.0849045 	8.7838e-020 8.09499 	-0.0852147 	8.55626e-020 8.08196 	-0.0846327 	1.01759e-020 8.07699 	-0.0861704 	-6.39166e-022 8.06957 	-0.0865682 	-4.72388e-022 8.06211 	-0.08696 	-2.46037e-022 8.05464 	-0.0873521 	-1.9708e-023 8.0426 	-0.0868892 	1.7969e-020 8.03704 	-0.0882555 	0 8.0297 	-0.0886634 	0 8.02234 	-0.0890717 	0 8.01497 	-0.0894802 	0 8.00412 	-0.0891996 	1.49615e-020 7.99809 	-0.090396 	0 7.99084 	-0.0908217 	0 7.98358 	-0.0912477 	0 7.9763 	-0.0916739 	0 7.9665 	-0.0915716 	0 7.96011 	-0.0926062 	0 7.95295 	-0.0930508 	0 7.94577 	-0.0934957 	0 7.93857 	-0.0939409 	0 7.92969 	-0.0940128 	-8.27272e-021 7.92305 	-0.0948934 	0 7.91597 	-0.0953582 	0 7.90886 	-0.0958233 	0 7.90174 	-0.0962886 	0 7.89365 	-0.0965307 	-1.01604e-020 7.88686 	-0.0972651 	0 7.87984 	-0.097751 	0 7.8728 	-0.0982373 	0 7.86574 	-0.0987239 	0 7.85836 	-0.0991319 	-3.6441e-021 7.85452 	-0.0995039 	-4.81748e-021 7.85063 	-0.0997886 	-1.05442e-020 7.84673 	-0.100073 	-1.62713e-020 7.84282 	-0.100358 	-2.19988e-020 7.839 	-0.100637 	-2.75958e-020 7.83582 	-0.100863 	-3.18226e-020 7.83263 	-0.101089 	-3.60491e-020 7.82944 	-0.101315 	-4.02754e-020 7.82625 	-0.101541 	-4.45015e-020 7.8234 	-0.101698 	-4.87305e-020 7.81618 	-0.102293 	-4.7355e-020 7.80908 	-0.102827 	-4.67331e-020 7.80195 	-0.103361 	-4.61086e-020 7.7948 	-0.103895 	-4.54814e-020 7.78878 	-0.104208 	-4.73512e-020 7.7813 	-0.104966 	-3.70374e-020 7.77424 	-0.105525 	-2.6711e-020 7.76715 	-0.106083 	-1.63833e-020 7.76005 	-0.106642 	-6.05409e-021 7.75484 	-0.106832 	0 7.7471 	-0.10775 	-2.64376e-021 7.74007 	-0.108334 	-7.39047e-021 7.73302 	-0.108919 	-1.21364e-020 7.72594 	-0.109504 	-1.68817e-020 7.72153 	-0.109579 	-2.15927e-020 7.71352 	-0.110653 	-5.03951e-020 7.70652 	-0.111264 	-6.98958e-020 7.69949 	-0.111876 	-8.9398e-020 7.69244 	-0.112488 	-1.08902e-019 7.6888 	-0.112454 	-1.01166e-019 7.68051 	-0.113679 	-7.88712e-020 7.67353 	-0.11432 	-6.78881e-020 7.66652 	-0.11496 	-5.68986e-020 7.65949 	-0.115601 	-4.59029e-020 7.6566 	-0.115465 	-6.78263e-020 7.64804 	-0.116831 	-8.16888e-020 7.64105 	-0.117511 	-6.38717e-020 7.63406 	-0.118181 	-4.566e-020 7.62757 	-0.118755 	-2.56644e-020 7.62487 	-0.118622 	7.1859e-021 7.61634 	-0.120001 	1.1499e-020 7.60905 	-0.120845 	8.45447e-021 7.60206 	-0.121547 	3.46471e-021 7.59634 	-0.122011 	0 7.59358 	-0.12193 	0 7.58508 	-0.123323 	0 7.57746 	-0.124328 	0 7.57047 	-0.125063 	0 7.56551 	-0.125422 	0 7.56267 	-0.125394 	0 7.55418 	-0.126803 	0 7.54625 	-0.127965 	-6.74358e-021 7.53924 	-0.128734 	-2.42019e-020 7.53502 	-0.128996 	-4.17123e-020 7.5321 	-0.129021 	-5.9248e-020 7.52361 	-0.130448 	-4.0331e-020 7.51535 	-0.131764 	-2.06724e-020 7.50832 	-0.132567 	2.39481e-021 7.50481 	-0.132737 	8.84151e-021 7.5018 	-0.132816 	1.28982e-020 7.49331 	-0.134263 	4.49898e-020 7.48477 	-0.13571 	7.70797e-020 7.47794 	-0.13652 	9.41163e-020 7.47484 	-0.136653 	7.94059e-020 7.47173 	-0.136786 	6.46941e-020 7.46323 	-0.138253 	4.10245e-020 7.45468 	-0.139721 	1.73466e-020 7.44826 	-0.14056 	2.49304e-021 7.44505 	-0.140747 	1.17143e-020 7.44183 	-0.140934 	2.09363e-020 7.43332 	-0.142424 	8.34041e-020 7.42476 	-0.143914 	1.45875e-019 7.41873 	-0.144784 	1.46523e-019 7.4154 	-0.145025 	8.46744e-020 7.41206 	-0.145265 	2.28239e-020 7.40353 	-0.146779 	1.4386e-020 7.39494 	-0.148294 	5.95162e-021 7.38928 	-0.149196 	6.11725e-021 7.38583 	-0.14949 	1.5117e-020 7.38236 	-0.149784 	2.41178e-020 7.37379 	-0.151324 	8.51237e-020 7.36517 	-0.152864 	1.46133e-019 7.35988 	-0.153799 	1.46815e-019 7.35628 	-0.154147 	8.64569e-020 7.35268 	-0.154495 	2.60972e-020 7.34407 	-0.156061 	1.79062e-020 7.3358 	-0.157559 	9.70657e-021 7.33069 	-0.158505 	1.4124e-021 7.32672 	-0.158999 	0 7.32296 	-0.1594 	0 7.3143 	-0.160994 	0 7.30675 	-0.162386 	0 7.30153 	-0.163373 	0 7.29707 	-0.164048 	0 7.29316 	-0.164503 	0 7.28444 	-0.166125 	0 7.27759 	-0.167416 	0 7.27224 	-0.168444 	0 7.2673 	-0.169297 	5.2714e-021 7.26322 	-0.169805 	2.09207e-020 7.25443 	-0.171456 	3.66002e-021 7.24826 	-0.172649 	6.67642e-021 7.24277 	-0.173719 	1.51511e-020 7.23735 	-0.174748 	2.39653e-020 7.23309 	-0.175308 	3.66412e-020 7.22429 	-0.176976 	1.19771e-019 7.2187 	-0.178087 	1.2424e-019 7.21306 	-0.179199 	1.28688e-019 7.20739 	-0.180311 	1.33114e-019 7.20271 	-0.181014 	4.92376e-020 7.19461 	-0.182578 	1.24421e-019 7.18886 	-0.183731 	1.12708e-019 7.18307 	-0.184884 	1.00974e-019 7.17724 	-0.186037 	8.92173e-020 7.17204 	-0.186922 	3.79015e-020 7.16461 	-0.188385 	3.25882e-020 7.1587 	-0.189579 	3.30606e-020 7.15274 	-0.190773 	3.35381e-020 7.14675 	-0.191968 	3.40208e-020 7.14103 	-0.193034 	4.44631e-020 7.13461 	-0.194324 	4.78355e-020 7.12889 	-0.195485 	4.54827e-020 7.12313 	-0.196646 	4.31159e-020 7.11734 	-0.197808 	4.07352e-020 7.11186 	-0.198899 	3.84861e-020 7.1114 	-0.198986 	3.84238e-020 7.11094 	-0.199074 	3.83614e-020 7.11049 	-0.199162 	3.8299e-020 7.11003 	-0.19925 	3.82366e-020 7.10965 	-0.199329 	3.84841e-020 7.1032 	-0.200612 	3.24493e-020 7.09675 	-0.201886 	2.59698e-020 7.09025 	-0.203161 	1.94985e-020 7.08372 	-0.204435 	1.30355e-020 7.07839 	-0.205577 	8.36897e-022 7.07106 	-0.207024 	-2.46133e-022 7.06441 	-0.208338 	-1.74426e-022 7.05772 	-0.209653 	-1.02694e-022 7.05099 	-0.210967 	-3.09364e-023 7.04665 	-0.212028 	0 7.03841 	-0.213638 	-4.87165e-021 7.03157 	-0.214992 	-1.83746e-020 7.02467 	-0.216345 	-3.18718e-020 7.01773 	-0.217699 	-4.53631e-020 7.01438 	-0.218679 	-5.56788e-020 7.00522 	-0.220451 	-4.37003e-020 6.99815 	-0.221843 	-2.87512e-020 6.99104 	-0.223235 	-1.37961e-020 6.98449 	-0.224565 	4.51158e-023 6.98154 	-0.225525 	7.23349e-021 6.97208 	-0.227345 	9.71871e-022 6.96413 	-0.22889 	8.75012e-021 6.95679 	-0.230319 	2.24243e-020 6.95127 	-0.231561 	3.9214e-020 6.94808 	-0.232565 	5.9953e-020 6.9384 	-0.234415 	3.83458e-020 6.92945 	-0.236127 	1.91026e-020 6.92188 	-0.237593 	4.06167e-021 6.9174 	-0.238746 	-2.19886e-021 6.91395 	-0.239792 	-5.46279e-021 6.90404 	-0.241673 	-5.6048e-020 6.89406 	-0.243551 	-1.064e-019 6.88648 	-0.245029 	-1.07537e-019 6.88282 	-0.246115 	-6.7765e-020 6.87912 	-0.247202 	-2.79931e-020 6.86896 	-0.249112 	-6.83454e-020 6.85873 	-0.251022 	-1.08705e-019 6.85143 	-0.252539 	-1.08427e-019 6.8475 	-0.253664 	-6.60838e-020 6.84353 	-0.25479 	-2.37401e-020 6.83312 	-0.256728 	-6.62216e-020 6.82264 	-0.258666 	-1.08709e-019 6.8156 	-0.260223 	-1.04749e-019 6.8114 	-0.261386 	-5.67568e-020 6.80715 	-0.262548 	-8.76035e-021 6.79648 	-0.264513 	-6.03867e-021 6.7859 	-0.266463 	-3.31041e-021 6.77923 	-0.26803 	-3.69293e-022 6.77447 	-0.269274 	0 6.76994 	-0.270472 	0 6.759 	-0.272462 	0 6.74957 	-0.274302 	0 6.74262 	-0.275898 	0 6.73668 	-0.277321 	0 6.73186 	-0.278553 	0 6.72064 	-0.280568 	0 6.71238 	-0.282296 	-2.25557e-021 6.70515 	-0.28392 	-5.32525e-021 6.698 	-0.285522 	-7.73015e-021 6.69288 	-0.286785 	2.93962e-022 6.68177 	-0.288786 	-5.07229e-020 6.6743 	-0.290436 	-4.75838e-020 6.66678 	-0.292086 	-4.44232e-020 6.6592 	-0.293735 	-4.12409e-020 6.65296 	-0.295159 	-5.61871e-021 6.64306 	-0.29704 	-7.32211e-021 6.6353 	-0.298715 	1.20803e-021 6.62748 	-0.300388 	9.73948e-021 6.6196 	-0.302062 	1.82722e-020 6.61208 	-0.303669 	2.43244e-020 6.60807 	-0.30444 	3.2581e-020 6.60471 	-0.30515 	3.26594e-020 6.60133 	-0.30586 	3.27349e-020 6.59795 	-0.30657 	3.28073e-020 6.59466 	-0.307259 	3.28748e-020 6.58962 	-0.308248 	3.37414e-020 6.58455 	-0.309236 	3.46052e-020 6.57947 	-0.310224 	3.54661e-020 6.57437 	-0.311213 	3.63242e-020 6.56987 	-0.312124 	4.00426e-020 6.56071 	-0.313923 	4.0663e-020 6.55181 	-0.315637 	3.85116e-020 6.54284 	-0.31735 	3.63653e-020 6.5338 	-0.319062 	3.4224e-020 6.52646 	-0.320566 	1.91704e-020 6.51637 	-0.322531 	3.32194e-020 6.50711 	-0.324262 	2.72612e-020 6.49778 	-0.325993 	2.13147e-020 6.48864 	-0.327695 	1.33155e-020 6.48186 	-0.329111 	-1.48716e-020 6.47117 	-0.331149 	-7.87452e-021 6.46118 	-0.33299 	-6.88514e-021 6.45149 	-0.334736 	-8.78145e-021 6.44318 	-0.336316 	-9.35762e-021 6.43606 	-0.33775 	-8.78485e-021 6.42499 	-0.339798 	-7.45745e-021 6.41399 	-0.341809 	-5.59598e-021 6.40393 	-0.343569 	-6.64311e-023 6.39649 	-0.345022 	5.08605e-021 6.38903 	-0.346472 	1.02375e-020 6.37757 	-0.348528 	6.04883e-021 6.36603 	-0.350583 	1.86408e-021 6.35631 	-0.352341 	0 6.34855 	-0.353803 	0 6.34073 	-0.355265 	0 6.32888 	-0.357327 	0 6.31694 	-0.359388 	0 6.30748 	-0.361164 	0 6.29932 	-0.362646 	0 6.29114 	-0.364118 	0 6.27888 	-0.366183 	0 6.26771 	-0.36812 	1.8721e-021 6.25807 	-0.369879 	6.32895e-021 6.24879 	-0.37154 	1.07932e-020 6.24023 	-0.373018 	1.52697e-020 6.22757 	-0.375084 	1.17137e-020 6.2174 	-0.37687 	1.21783e-020 6.20737 	-0.378631 	1.29898e-020 6.19728 	-0.380392 	1.38072e-020 6.18799 	-0.381954 	1.59001e-020 6.17614 	-0.383887 	3.52679e-021 6.16579 	-0.385647 	-2.32814e-021 6.15538 	-0.387407 	-8.17048e-021 6.14489 	-0.389167 	-1.40002e-020 6.13439 	-0.390912 	-1.8999e-020 6.13347 	-0.391057 	-1.86608e-020 6.13267 	-0.39119 	-1.84224e-020 6.13186 	-0.391322 	-1.8184e-020 6.13105 	-0.391455 	-1.79456e-020 6.13025 	-0.391587 	-1.77085e-020 6.12075 	-0.393215 	-1.70922e-020 6.11119 	-0.394844 	-1.64924e-020 6.10156 	-0.396471 	-1.59091e-020 6.09188 	-0.398099 	-1.53424e-020 6.08229 	-0.399577 	-4.51988e-021 6.07206 	-0.401505 	1.69605e-020 6.06135 	-0.40326 	1.77429e-020 6.05057 	-0.405014 	1.85497e-020 6.03971 	-0.406765 	1.89271e-020 6.02909 	-0.40821 	-2.05496e-020 6.01874 	-0.410237 	-6.53174e-020 6.00783 	-0.412065 	-8.47646e-020 5.99664 	-0.41381 	-9.39405e-020 5.98555 	-0.415385 	-6.72074e-020 5.97454 	-0.416822 	-1.15994e-020 5.96378 	-0.418835 	-9.24231e-021 5.95294 	-0.420847 	-6.87012e-021 5.94138 	-0.422547 	1.01262e-021 5.93002 	-0.423974 	1.15277e-020 5.9186 	-0.4254 	2.20527e-020 5.90743 	-0.427396 	3.86176e-020 5.89618 	-0.429391 	5.51907e-020 5.88487 	-0.431105 	5.60024e-020 5.87311 	-0.432517 	4.12047e-020 5.86126 	-0.433929 	2.64091e-020 5.84968 	-0.43