/*--------------------------------*- C++ -*----------------------------------*\
| =========                 |                                                 |
| \\      /  F ield         | OpenFOAM: The Open Source CFD Toolbox           |
|  \\    /   O peration     | Version:  5.x                                   |
|   \\  /    A nd           | Web:      www.OpenFOAM.org                      |
|    \\/     M anipulation  |                                                 |
\*---------------------------------------------------------------------------*/
/*   Windows 32 and 64 bit porting by blueCAPE: http://www.bluecape.com.pt   *\
|  Based on Windows porting (2.0.x v4) by Symscape: http://www.symscape.com   |
\*---------------------------------------------------------------------------*/
FoamFile
{
    version     2.0;
    format      ascii;
    class       volScalarField;
    location    "1000";
    object      nut;
}
// * * * * * * * * * * * * * * * * * * * * * * * * * * * * * * * * * * * * * //

dimensions      [0 2 -1 0 0 0 0];

internalField   nonuniform List<scalar> 
4000
(
2854.09
3346.06
4030.61
4468.38
4865.33
5235.44
5585.52
5918.88
6237.01
6540.34
6828.72
7101.68
7358.66
7599.11
7822.63
8028.99
8218.19
8390.43
8546.11
8685.79
8810.13
8919.89
9015.87
9098.93
9169.85
9229.58
9278.5
9317.49
9347.51
9369.25
9383.33
9390.4
9391.01
9385.67
9374.9
9359.35
9339.78
9317.17
9292.61
9246.78
9178.43
9088.79
8979.74
8853.45
8712.88
8561.33
8407.03
8252.4
8099.62
7951.02
7808.68
7674.48
7550.04
7436.53
7334.69
7244.87
7167.15
7101.39
7047.34
7004.77
6973.51
6953.54
6944.98
6948.08
6963.17
6990.58
7030.94
7085.27
7153.57
7235.74
7331.67
7441.18
7564.1
7700.29
7849.66
8012.17
8187.81
8376.34
8577.31
8790.13
9013.9
9246.94
9486.08
9725.3
9954.52
10159.4
8778
10547.4
10783.8
11182.8
9194.86
8133.39
8996.03
9603.57
10114.8
10557.1
10922.9
11214.7
11443.9
11628.7
11794.5
11973.6
12203.8
12520.3
12953.6
13539.7
14304
15269
16522.3
18127.2
20237.2
23129.7
26689.3
27338.2
27752.8
27893.2
27782.5
27479.1
27140.8
26795.5
26438.2
26061.2
23079.4
20137.6
18466.7
17637.7
17406.1
17606.4
18134.5
18908.3
19855.6
20863.6
20211.3
19542
18860.4
18171.4
17479.7
16789.6
16104.8
15428.2
14762
14107.8
13466.3
12837.6
12221.3
11616.5
11022
10436.2
9857.21
9282.82
8710.32
8136.16
7555.62
6961.77
5806.46
4465.85
3653.62
3966.15
3692.39
1846.29
1605.19
1865.61
2057.75
2229.46
2396.97
2568.9
2750.64
2948.61
3171.97
3434.51
3755.91
4163.65
4583.41
4549.37
4507.48
4455.84
4396.13
4331.22
4261.41
4188.34
4086.45
3947.25
3772.94
3571.3
2858.59
2155.41
1621.6
1201.76
866.503
600.03
393.227
239.061
131.27
63.2866
25.9045
8.08522
1.7013
0.195783
0.034062
5.41542e-008
4529.12
5942.92
6920.41
7833.49
8682.91
9503.56
10309.9
11111.7
11916.2
12729.5
13556.9
14403.5
15273.7
16171.9
17102.3
18069
19076.2
20128.3
21229.5
22391.4
23620.2
24919.2
26291.7
27739.1
29157.1
30834.5
32485.5
34155.5
35840.2
37509.5
39124.3
40663.2
42109.6
43426.7
44575
45516.3
46214.6
46636.3
46728.9
46554
46117.2
45418.6
44465.9
43270.9
41856
37611.3
33825.3
30721.3
28123.9
25980.2
24194.7
22713.9
21507.7
20541.2
19791
19236
18860
18650.6
18593
18675.6
18888.3
19221.8
19668.7
20221
20865.9
21348.6
21238.4
21173.2
21152.5
21176.5
21245.2
21359.4
21519.3
21724.6
21974
22266.7
22603.9
22987.9
23418.5
23895.6
24414.8
24969.2
25541
26088.5
26534.4
23567.3
20927.7
19794.9
19315.3
19258.6
19605.4
20210.7
20708.3
21207.2
21796.5
22477.2
23216
23984.6
24779.8
25626.8
26570.9
27665.4
28962.4
30507
32318
34406.7
36777.6
39401.5
42456.8
45887.4
49871.2
55763.5
62751.4
72820.5
89040.3
88680
86986.3
84209
80145.2
75355.3
70366.8
62310.5
48391.9
40618
36180.2
33721
32727.6
32831.4
33610.8
34869.9
35424.8
33813
32262.9
30773.7
29345.6
27979
26673.1
25425.3
24231.7
23087.8
21988.8
20930
19907.1
18916.8
17956
17022.2
16113.7
15227.5
14360.1
13509.3
12667.1
11825.4
10979
10087.3
9111.69
8082.44
7188.5
5794.7
4891.08
5020.44
5568.06
6039.42
6568.06
7147.19
7775.63
8454.79
9196.59
10023.3
10968.9
12085.7
13453.1
15185.8
17455.3
20539.5
24924.6
28742
29416.5
29935.5
30253.4
30315.4
30110.2
28375.5
21707.5
17119.8
13754.5
11140.5
9005.82
7204.41
5660.48
4315.92
3139.48
2139.5
1338.83
746.695
351.061
128.79
41.8709
8.53992
0.598123
1.0092e-005
5433.81
7904
9378.17
10768.9
12111
13439.2
14771.2
16122.2
17505.7
18935.1
20423.5
21984.1
23629.6
25372.3
27223.9
29194.7
31292.9
33522.2
34613.1
35476.6
36559.3
37913.2
39585.4
41617.4
44106.6
47145
50850.5
55364.8
60856.9
67516.9
72274.7
74144
75720.3
77019.3
78046
78805
79301
79536.6
79470.1
79025.2
78189.9
76961.3
75342.4
73341.8
70975.4
65472.6
58471.2
52578.9
47564.9
43256.3
39531
36304
33485
31033.3
28905.6
27074.5
25518.9
24213.6
23141.4
22285.2
21625.8
21138.8
20803.2
20592.9
20490.3
20478.9
20536.6
20642.7
20787.8
20977.3
21223
21529.1
21883.1
22279.2
22766.7
23507.7
24724.5
26422.6
26601.7
26653.5
26766.9
26958.6
27245.5
27591.2
27872.6
23380.3
20256.4
19049.6
18824.6
19242.3
19931.4
20878.5
21868.9
22959.3
24205
25579.5
27046.9
28599.1
30256.6
32055.3
34034.6
36230.2
38663.3
41331.3
44200.8
47239.9
50452
53819.1
57554.5
62087.3
67612.2
75195.3
85758
98883.8
118456
120555
119280
116441
112295
107241
101431
88496.7
68145.1
55562.1
47778.1
43018.4
40377.1
39397.1
39606.2
40526.2
41880.5
43387.1
41906.1
39859.6
37893.6
36014.9
34225.4
32523.1
30902.6
29356.8
27877.5
26456.9
25088
23766.1
22487.7
21250.6
20054.4
18896.1
17771.5
16676.8
15598.5
14523.1
13440.6
12294
11038.4
9842.35
8117.68
6969.52
7251.68
8322.89
9376.4
10544.3
11794.2
13106.7
14478.5
15917.5
17468
19186
21146.7
23456.9
26283.3
29891.4
34675.7
41196.3
46910.5
47388.3
47769.5
48040.3
48190.7
48204.7
47942.1
47346.6
46369.2
40200
32509.4
26704.3
22102.8
18312.5
15064
12245.8
9720.64
7403.85
5304.92
3475.8
1955.39
867.145
340.751
86.9265
7.58448
0.00072924
6859.16
9422.39
11377.4
13227.2
15060.8
16904.1
18779.2
20705
22701.6
24789.2
26988.8
29320.7
31804.5
34458.5
37298.2
40336.5
43580.1
45133
46357.7
47873.3
49678.4
51819.9
54384.4
57426
61046
65353
70460.2
76474.3
83477.9
91558.1
100710
104575
106267
107601
108614
109316
109716
109819
109599
108907
107743
106111
104025
101502
98563.7
95239.3
87742.8
79226.5
71888.4
65443
59819.8
54854.8
50411.5
46417.2
42803
39521.7
36535.9
33822.5
31375.4
29192.4
27275.6
25627.4
24226.2
23061.7
22123
21388.3
20822
20377.8
20019
19718.9
19456.6
19209.8
18964
18718.1
18476.4
18258.8
18150.7
18323.6
18921
20180.7
22881
27803.1
27644.6
27735.9
28002.6
28141.8
22399.2
20209.8
19758.7
20349.4
21279.1
22541.4
23991
25621.1
27421.7
29366.7
31432.6
33626.2
35980.1
38535.5
41302.5
44270.8
47432.6
50743.4
54134.3
57573
61034.1
64627.9
68850
74368.9
81254.3
89720.9
101000
114525
130184
147588
150571
148612
144594
138841
127745
104124
84749.8
70691.2
61090.4
54917.4
51399.8
49994.4
50250.4
51589.2
53488.1
52799.8
49942.1
47240.5
44696.1
42304.3
40056.6
37941.5
35945.4
34053.8
32252.1
30526.9
28867
27264.8
25715.7
24218.3
22774
21381.9
20038.8
18738.9
17465.6
16199.3
14927.3
13594.7
12263.7
11681.4
10163.5
9932.32
11696.8
13631.4
15663.8
17821.4
19992.7
22155.8
24323.6
26554.8
28934.6
31561.9
34567
38125.4
42499.9
48081.1
55393.1
62431.5
63110.4
63714.4
64222.4
64614.8
64867.9
64957.4
64711.9
64079.7
63043.2
61593.4
59693.1
54034.6
45066.8
37636.4
31268.7
25788.6
21046.8
16893.5
13186.1
9810.09
6531.71
3536.82
1721.17
582.769
59.5038
0.0351223
7249.35
10617.9
13016
15292.5
17594.7
19937.7
22349
24849.2
27464.7
30222.1
33148.7
36270
39609
43184.2
47006
51077.4
53229
54780
56677
58893.1
61467.8
64478
68013.2
72169.8
77008.8
82615.5
89052.5
96346.5
104447
113214
122467
131883
137052
138694
139829
140465
140620
140348
139690
138447
136629
134267
131393
128041
124247
120055
113223
103300
94501.4
86739.7
79899
73811.4
68344.9
63387.2
58844.7
54641.6
50725.6
47067.9
43643.7
40443.1
37467.2
34719.7
32202.9
29935.2
27923.8
26174
24683
23433.1
22396.6
21554.8
20876.3
20311.6
19815.4
19371.7
18977
18679.2
18261.8
17765.3
17577.6
17607.6
18317.1
20353.5
25814.9
28205.4
28199.4
28208.8
27867.1
25632
23827.1
24023.2
25002.5
26340.8
27986.6
29911.7
32075
34447.8
37004.5
39746.9
42686.9
45813.7
49115.8
52576.7
56174.9
59820.9
63415.9
66916.5
70321
74041.9
78749.8
84539.5
91396.2
99798.2
110513
123001
135563
146001
152068
153943
153080
147761
135011
116856
99041.5
84864.9
74911.7
68624.1
65339.8
64390.4
65204.7
67270.5
64784.3
60781.1
57092.6
53687.5
50540.4
47626.7
44921.7
42400.8
40039.4
37814.1
35703.2
33687.7
31752.3
29886.9
28086.4
26350.7
24683.6
23086
21555.3
20085.9
18655.3
17242.4
15842.8
14447.7
13616
15023.3
13620.7
15395.2
18399.1
21325.5
24436.9
27555.9
30582.3
33537.6
36476.4
39481.4
42664.2
46210.4
50327.4
55263.5
61355.1
69047.5
76924
78002.8
78999.2
79888.9
80646.9
81242.8
81643.4
81818.6
81571.8
80836.8
79601.7
77872
75668.4
73024.5
69954.7
66477.2
57154.1
48517
40414.9
32782
25964.8
20258.2
14978.1
9752.53
5904.95
2706.7
346.682
1.19755
7425.78
11496.5
14269.3
16916.8
19634.8
22430.5
25336.4
28374
31574.9
34970.5
38593.6
42473.3
46634
51091.3
55846.4
60703.3
62353.9
64360.5
66779.7
69612.4
72923.8
76808.6
81316.1
86522.9
92463.6
99158.9
106574
114615
123086
131698
140098
148025
155221
161542
167005
171685
173036
172339
171103
169106
166369
162955
158937
154389
149390
144015
133457
122807
113132
104449
96711.6
89802
83616.1
78032
72937.8
68239.9
63865.4
59757.6
55873.9
52187.2
48685.7
45368.1
42264
39379.1
36721.3
34294.1
32093.3
30109.8
28344.9
26815.3
25523
24433.9
23487.1
22632.8
21881.4
21245.7
20668
20103.2
19457.4
18931.8
19728.3
21440.8
24126.9
28917.2
29315.8
29168.1
28162.2
26889
26493.9
27360.1
29302.4
31792.5
34739
38081.8
40313.4
42834.5
45601.3
48626.7
51938.3
55377.1
58928.6
62632.6
66440.6
70211.1
73787.3
77168
80469.4
84254.3
88888.2
94249.8
100799
109603
120772
133455
145941
156003
161555
163645
163853
160254
149824
133455
116472
102516
93118.6
87707.6
85142.1
85154.3
84201
78002
72508
67572.7
63108.6
59051.1
55348.6
51956.1
48832.2
45939.3
43242
40708.6
38310.8
36025.1
33833.4
31724.6
29694
27744
25879.9
24104.6
22418.5
20812
19258.2
17750.4
16302.7
15246.5
16253.2
19309.4
19960.8
24412.1
28853.4
33252.4
37585.6
41612.2
45344.4
48807.9
52083.7
55427.7
59102.8
63365.1
68448.2
74620.9
82199.5
90859.6
92496.5
94026.8
95435.1
96696.2
97777.3
98640
99243
99546.3
99313.8
98456.6
96969.5
94869.4
92191.4
88988
85324.4
81274
76906
72259.2
67326.6
57801.2
47711.8
37898.6
28463.6
19944.1
14167.6
8967.18
1656.49
29.0692
7445.73
12082.9
15152.2
18100.8
21162.9
24344
27680.1
31193.1
34918.8
38892.3
43150.3
47724.8
52640.4
57907.8
63516.2
69171.8
70903.9
73136.4
75844.1
79096.8
82976.4
87553.5
92861.2
98943
105794
113350
121483
129997
138584
146871
154461
161023
166428
170693
173990
176623
178941
181158
183306
184990
185720
184868
181819
176203
168216
158516
148060
137589
127653
118530
110277
102863
96220.7
90246.6
84810.8
79798.8
75132.9
70755.4
66606.1
62631.2
58813.4
55175.8
51742.5
48520.2
45512.3
42718.5
40127.1
37730.1
35537.2
33560.1
31814.9
30304.3
29006.9
27868.5
26867.7
26030.4
25306
24504.8
23608.8
22847.4
22640.7
22988.3
23401
26084
29644.6
31120.5
29807.5
27361.6
25949.6
26332.2
27989
30475.4
33504.5
37034.1
41182.3
45976.6
51464.6
57706.6
64700.1
68434.9
72038.2
75854.7
79740.9
83451.7
86845.7
89947.3
93176.4
96534
100705
105917
112285
121342
133018
146539
160957
174118
182252
186305
187831
183800
172192
155028
138274
124937
116286
112739
110707
100586
92170.7
84966.9
78622
72952.7
67864.6
63276.4
59117.7
55327.2
51850.5
48638.7
45648.2
42840.2
40182.3
37648.2
35219.5
32886.5
30646.9
28504.8
26469.1
24547.6
22737.2
21022.8
19395.5
17856.5
16603.2
16875.5
20836.6
25094.8
29489.6
35704.2
43013.5
50573.7
55955.3
60214.4
63804.6
66900.3
69877.8
73131
77031
81783.7
87555.2
94563.5
102964
107459
109771
111912
113860
115577
117023
118153
118922
119285
118968
117857
115965
113333
110020
106100
101662
96802.2
91616.8
86195.9
80616.2
74925.5
69117.2
63099.8
51967.8
37744.6
28346.3
21703.7
7038.03
491.814
7344.56
12405.2
15685.6
18853.5
22174.7
25658.5
29343
33249.7
37416.9
41882.1
46685.6
51862.2
57437.4
63418
69783
76471.3
79121.2
81310.3
84042.2
87425
91585.1
96587.5
102531
109270
116720
124912
133670
142724
151727
160255
167886
174288
179342
183068
185572
187075
187924
188344
188454
188599
188445
187578
185460
181515
175429
167414
158154
148345
138679
129595
121271
113712
106896
100782
95237.5
90139.7
85414
80995.8
76807.5
72771.7
68846.3
65037.7
61392.3
57922.4
54637.3
51544.7
48654.2
45966.1
43466.6
41138.7
38977.3
36982
35151.1
33522.4
32106.8
30905.2
29713.6
27643.9
25687.2
23830.4
22065.6
20730
20163.4
21372.4
25750.3
31584.6
32145.9
28866.9
26166.7
25821.8
27166.1
29442.6
32440.4
35951.6
40118.7
44962
50478.9
56732
63737.1
71461.4
79849.2
88782
96458.3
99827.2
102895
105746
108600
111754
115204
120128
125030
135221
147175
161606
178655
195109
205362
212275
216305
211162
197683
180239
164418
153377
147107
131223
117544
106790
97745.1
89944.4
83045.3
76871.7
71340.8
66369.2
61873.7
57781.1
54027.6
50556.8
47319.1
44272.1
41381.5
38621.6
35977.1
33440.9
31014.3
28708
26537.3
24505.6
22603.7
20831.4
19186.8
17762.3
17377
20421.4
25607.3
30172.1
36116
43830
52229.1
60601.9
68608.5
76073.5
82918.2
86539.2
88363.3
91105.2
94890
99744.7
105692
112824
121131
126691
130048
133085
135768
138030
139812
141075
141790
141925
141226
139545
136929
133460
129233
124354
118938
113105
106975
100654
94236.1
87795.6
81368.4
74936.9
68430.9
61608
51984.2
43085.8
21340.1
4324.37
7147.13
12496.8
15903.1
19200.9
22687.2
26380
30317.3
34520.4
39027.3
43877
49112.6
54772.4
60884.7
67457.2
74465.9
81834.2
87357.2
89382.2
91998.6
95357.8
99592.3
104777
110825
117740
125668
134439
143793
153568
163436
172994
181820
189568
195995
200997
204561
206698
207507
207107
205449
203349
200844
197890
194222
189370
182981
175069
166065
156601
147254
138471
130400
123061
116432
110514
105166
100236
95643.9
91304
87143.7
83137.4
79273.7
75472.9
71694.3
68029.7
64525.4
61188.9
58031.6
55065.1
52284
49647.3
46540.6
43537.4
40668.6
37955.8
35368.8
32883
30471.1
28049.6
25765
23606
21611.2
19905.9
18753.5
18857.5
21734.3
28172.4
33276.5
30963.8
27025
25670.1
26607.8
28721.3
31523.7
34911.4
38956.8
43715.9
49088
55148.2
61890.3
69272.6
77219.4
85616.7
94318.5
103158
111990
120652
126369
128530
130821
136899
140541
150454
162191
177733
195901
212360
223563
235212
240935
234626
223184
210349
190633
168710
150235
134205
120419
110161
101097
93070.3
85885.8
79427
73634.2
68420.3
63699.4
59392.1
55429.7
51751.7
48306.2
45050.4
41950.9
38986.2
36146.6
33431.8
30850.7
28420.1
26152.7
24048.5
22109.4
20336.4
18777.4
17942.7
19727.2
24742.5
29954.4
35531.3
43022.9
51823.8
60945.7
69879
78389.9
86373.3
93805.5
100726
104622
106668
110108
114761
120469
127122
134727
143513
153297
157802
161667
164785
167010
168286
168625
168027
166416
163625
159770
154991
149432
143240
136559
129533
122301
114978
107659
100430
93362.7
86458.6
79659.8
72815.8
65557.1
57611
43361.9
15240.3
6881.73
12399.8
15852.4
19192
22747.8
26550.1
30637
35028.2
39760.4
44871.9
50407.7
56409
62909.2
69919.7
77421.7
85341.4
93541.9
97728.8
100299
103620
107716
112917
119469
125902
133963
142878
152706
163135
173876
184590
194887
204398
212825
219948
225593
229609
231850
232230
230388
226743
221911
216192
209603
201999
193266
183610
173548
163623
154268
145719
137882
130884
124784
119355
114496
110000
105772
101708
97762.1
93982.1
90363.4
86682.7
81354.9
76098.5
71148.4
66513.8
62190.9
58165.2
54414.2
50909.6
47618.8
44499.2
41464.5
38602.5
35869.5
33241.4
30707.7
28266.2
25934.7
23716.6
21636
19751
18207.6
17442.5
18670.5
23638.2
31097.3
32635.4
28357.4
25803.1
26125.4
27990.2
30648.4
33912.6
37772.4
42248.3
47352.4
53078.8
59396.4
66248.8
73551.7
81189.3
89024.1
96914.5
104730
112373
119846
127288
135137
143992
154441
167000
182027
199532
218406
234194
248537
258946
252761
237497
217969
197531
177992
160425
145099
131369
119916
110550
101981
94196.9
87097.1
80650.1
74814.4
69462.3
64623.4
60186.9
56079.7
52241.6
48622.2
45183.2
41897.6
38751.4
35745.9
32892.5
30204.3
27689.5
25359.4
23229.7
21317.5
19676.2
18634
19398
23351.3
28791.5
34357.8
41250.5
49857.1
59371.8
68981.4
78331.8
87280.1
95768.5
103784
111357
115507
117502
120846
125331
130791
137043
144018
151722
160007
168991
178676
188611
196897
198582
198645
197004
193905
189391
183713
177092
169729
161820
153549
145080
136570
128140
119868
111811
104077
96703.7
89670
82807.7
75715.9
68230.4
60744.1
38638.2
6628.19
12143.6
15625
18944.4
22486.5
26305.9
30441.8
34911.4
39749.3
44991.2
50680.6
56857.9
63559
70799.7
78563
86766.2
94909.6
97632.5
100685
104369
108722
114190
121884
125596
135460
144650
154515
165101
176146
187323
198271
208644
218130
226500
233535
239074
242908
244856
244436
240935
235127
227498
218394
208003
196556
184672
173002
162079
152208
143344
134563
130054
123427
118273
113848
109790
105996
102390
98940.6
95655.8
92385.7
86715.8
81220.1
75963.6
70987.5
66311.9
61941.8
57869.4
54076.7
50538.2
47225
44105.5
41147.6
38337.7
35653.4
33077.7
30601
28223.2
25944.3
23763
21688.6
19748.1
18013.5
16714.3
16603.8
19485.4
26420.3
32304.8
29764.5
26192
25668.2
27152.4
29571.9
32610.1
36221.2
40409
45168.7
50470.9
56261
62466.4
68995.6
75734
82550.4
89322.4
95953.5
102383
108617
114743
120996
127759
135411
144233
154384
165724
177549
188445
196653
200650
199564
193122
182792
170689
158207
146187
135005
124695
115725
107599
99898.1
92692
85995.1
79832.7
74175.5
68959.4
64168.1
59718.1
55549.3
51610.9
47864.2
44284.1
40858.2
37588.3
34488.5
31578
28871.1
26382
24125.9
22130
20471.9
19385.2
19589.9
22277.8
27180
32771.2
39194.6
47205.6
56541.4
66446.1
76322.4
85916.5
95147.1
103934
112270
114911
116180
118857
122628
127290
132772
139005
145901
153234
160868
168944
177384
185610
193196
200991
210194
218661
220710
214202
206397
197641
188213
178358
168312
158277
148413
138840
129658
120815
112431
104570
97283.5
90495.5
83808.1
76525.8
68202.8
56115.2
6413.75
11783.1
15291.6
18554.1
22018.4
25773.1
29863.1
34305.7
39130.4
44367.7
50056.4
56233.4
62931.8
70163.5
77885.5
82087
86040.4
89721.2
93473.8
97656.7
102462
108077
114650
122130
129808
138922
148553
158619
168981
179344
189401
198872
207586
215356
222065
227631
231894
234603
235466
233384
228564
221382
212234
201454
189455
176993
164794
153428
143257
133994
126247
120316
113888
108990
104698
100814
97255.9
93960.7
90893.1
87977.3
85269.5
82769.5
78533.1
73516
68737.4
64231.7
60012.1
56076.9
52413.5
49001.5
45816.3
42830.7
40018
37353.5
34814.7
32383.4
30045.4
27797.5
25634.3
23550
21547.3
19638.9
17859.5
16318.2
15396.5
16332.5
21212.5
29011.1
30485.3
26754.9
25244.1
26187.5
28279
30998.6
34249.4
38021.1
42300.6
47048.8
52201.6
57680.8
63394.3
69235.2
75087.6
80848.5
86438.6
91793.4
96896.2
101774
106519
111281
116237
121566
127394
133676
140140
146294
151548
155363
157311
156033
151869
145827
138743
131220
123646
116254
109225
102348
95622.8
89167.1
83059.5
77343
72003.4
67011.6
62339.5
57933.8
53752.5
49763.2
45946.3
42295.8
38818.9
35533.6
32462.6
29629.1
27056.5
24769.9
22791.6
21195.6
20171.3
20162.5
21948.9
25887
31172.1
37289.7
44589.8
53324.7
62974.4
72930.6
82817
92431.3
101608
104152
105336
105952
108252
113029
117572
122771
128661
135225
142421
150041
157866
165857
174032
182011
189019
194919
200693
205738
207619
205335
199872
192084
183027
173878
165214
155895
146699
143021
135538
126157
117333
109104
101515
94625.8
88391.1
82279.6
74523.4
58250.2
6249.72
11368
14886.5
18065.8
21401.8
25018.5
28972.2
33283.6
37976.3
43074.9
48609.9
54607
60236
64419.7
68804.7
73278.1
77756.5
82094.4
86349.9
90907.6
95986.6
101843
108469
115654
123451
131938
140852
149955
158954
167583
175616
182893
189394
195132
200125
204410
207977
210630
212182
211772
209111
204267
197407
188704
178457
167295
156011
145238
135331
126507
118870
112257
106541
101617
97326.5
93519.5
90084.9
86944.5
84067.2
81409.1
78931
76655.5
74017.6
69355.5
64905
60702.7
56764.2
53090.4
49671.6
46490.7
43526.4
40754.9
38151.5
35692
33353.7
31117.6
28969
26898.9
24897.9
22958.7
21080.7
19269.6
17542.8
15952.2
14671
14334.3
16755.6
23478.9
29317.3
27222.8
24867.1
25111.2
26787.5
29125.7
31939.9
35200.5
38894.7
42988.7
47424.4
52129.2
57018.1
61999.6
66980.4
71878.8
76633.4
81178.2
85510.7
89626.6
93527.6
97240.6
100826
104403
108124
112042
116085
120098
123853
127074
129448
130051
128811
126064
122196
117556
112422
106988
101370
95603.8
89819.2
84144.3
78670.3
73440.5
68457.5
63713.3
59190.5
54863.6
50715
46737.7
42937.2
39332.4
35949.7
32819.3
29970.4
27431.1
25229.7
23395.4
21977.1
21120.2
21127.4
22465.3
25533.3
30165
35875.9
42555.1
50435.3
59405.2
68951.6
76549.5
81455.5
85910
89429.4
92491.9
95437
98764.1
102498
106897
112089
117950
124428
131497
139121
147191
155506
163868
172159
180163
187249
192719
196977
200274
200394
196270
188903
179805
170067
160354
151283
143540
132139
130403
122523
117017
111897
106807
101179
94665.5
88303.8
82056.3
73325.8
71579.9
6149.45
10941.3
14438.6
17512.8
20681.8
24096.3
27828.3
31905.1
36343
40480.1
43920.4
47656.3
51652.6
55838
60214.7
64784.8
69482.1
74176.6
78835.9
83662.5
88849.3
94607.2
101167
108330
115956
124052
132432
140801
148798
156079
162398
167651
171911
175390
178253
180705
182838
184601
185922
186327
185330
182687
178250
171922
163784
154386
144513
134842
125822
117690
110521
104268
98851.2
94176.1
90110
86504.3
83268.7
80324.8
77629.6
75169.8
72941.3
70848.8
68025.7
63747.5
59689.9
55872.8
52303.8
48980.1
45891
43020.7
40349.9
37857
35519.7
33315.8
31224
29226.1
27306.5
25452.6
23654.3
21903.1
20195.8
18534.7
16929.5
15407
14045.2
13118.8
13636.9
17795.3
25187.2
26930.5
24482.7
23945.5
25130.1
27046.9
29387.3
32090.5
35139.1
38512.2
42171.1
46058.2
50102.3
54230.6
58375.8
62475.8
66501.3
68259.4
69045.3
70835.9
73748.3
78048.2
84389.7
91204.2
94130.4
97116.6
100155
103170
106041
108603
110650
111685
111559
110324
108111
105087
101416
97242.3
92681.5
87853.8
82898.1
77930.5
73032.3
68248.2
63597.2
58794.3
53853.4
49382.9
45400.6
41910.7
38904.4
35767.9
32735
30036.5
27699.6
25747.1
24202.8
23108.6
22561.8
22756.7
23982.4
26508.6
30411
35465.1
41434.3
46785.8
48114.2
52728.8
58591.8
64374.2
69871.4
74850.4
79172.8
83107.2
86815
90722.5
95171.1
100156
105744
111917
118668
125927
133618
141678
149982
158327
166479
174206
181104
186598
190756
193936
194253
190313
182721
173200
163235
153346
143765
135164
127644
120806
114557
109187
104253
99744.4
94906.1
90317.4
84820.6
79341.3
74009
69800.2
6132.4
10535.6
13960.8
16900.6
19865
23010.2
25391.9
27906.4
30648.5
33616.8
36781
40177.3
43826.6
47722.5
51848
56189.8
60726.1
65395.1
70140.8
75025.8
80177
85751.1
91937.4
98827.8
106348
114379
122712
131073
139060
146285
152334
157020
160404
162754
164284
165299
166017
166513
166784
166796
166025
164037
160489
155118
147985
139637
130789
122093
114001
106733
100378
94878.6
90116.1
85974.3
82350.2
79132.2
76247.5
73620.2
71225.7
69068.6
67111.9
64710.7
60632.7
56789.1
53186
49823.4
46696.2
43794.5
41104.6
38609.9
36292.2
34131.8
32108.9
30203.7
28397.3
26672.9
25015.1
23411.3
21850.3
20323.7
18826.9
17360.4
15930.5
14552.8
13263.3
12176.7
11708.1
13292.1
18857.8
23910.4
23814.4
22668.9
23319.1
24806.4
26668.7
28811.3
31207
33840.5
36692.6
39728.3
42895.3
46137.1
49411.1
50023.7
49729.2
49963.6
50862.8
52544.5
55114.7
58821.7
64204.4
72025.7
81712.3
84263.6
86822.7
89335.8
91717
93852
95598.7
96659.9
96903.4
96289
94836
92603.2
89648.7
82446.5
74541.2
67695.1
61616.1
56142.4
51175.6
46658.4
42556.5
38846.3
35515
32567.1
29999.5
27797.8
25943.1
24419.5
23217.2
22324.1
21722
21442.3
21647.2
22702.5
25151.5
26838.6
29061.3
32296.4
36467.9
37490.4
36488.9
37975.8
41411.3
46365.2
51775
57016
62188.7
67008.8
71480
75717.2
79794.1
83954.3
88532
93583
99113.9
105151
111696
118690
126049
133691
141473
149198
156678
163664
169777
174722
178661
181739
182594
179807
173266
164372
154775
145229
136172
127929
120389
113558
107561
102538
97850.8
93893.7
89505.3
85648.2
79886.2
74126.5
69039.2
64762.2
6224.46
10141.4
11703.2
14317.4
16480.1
18629.7
20724.6
22870.1
25154.6
27635.3
30325
33225.1
36354.2
39717.8
43311.9
47131.6
51169.2
55408
59823.9
64433.3
69295.2
74505.6
80187
86458.2
93429.3
101139
109451
118175
126980
135486
143011
149340
154108
157438
159370
160290
160413
159975
159085
157827
155715
152301
147375
140840
132889
124197
115508
107363
100065
93703
88241.9
83595.8
79628.1
76200.2
73213.1
70566.2
68196.4
66075.5
64149.3
62425.8
59151.4
55361.9
51823.4
48531.4
45477
42649
40034.2
37618.1
35384.7
33317.7
31399.9
29614
27942.8
26369.6
24878.2
23453.9
22083.2
20754.2
19457.2
18184.2
16930.4
15695.6
14484
13306.6
12180.8
11152.8
10379.2
10435.9
13054.4
16548.7
20618.4
21165.1
21318.9
22414.1
23836.6
25450.9
27230.2
29158.2
31226.5
33426.5
35725.2
36264.3
35800.5
35498.1
35447.6
35789.5
36631.4
38041
40119.7
43125.2
47446.2
53630
62494.3
71009.7
73181.1
75314.3
77337.1
79157.7
80667.3
81610.4
81868.6
81374.7
80093.9
73066.1
64054.8
56828.2
50798.9
45659.8
41187.4
37250.1
33762.1
30669.7
27938.4
25547.1
23483.3
21738.3
20304.3
19171.5
18332
17783.6
17527
17571
17958.6
18795.9
20260.4
22575.2
25890.9
29892
33093.3
33411.5
32213
31675.7
32625.7
35051.6
38653
43251.5
47840.3
52483.4
57047.1
61429
65656.4
69759.6
73773.1
77862.1
82249.2
87011.9
92179.8
97796.2
103835
110240
116944
123838
130718
137383
143873
149994
155315
159834
163712
166898
168393
166622
160999
152783
143635
134493
125866
118073
111096
104992
99544.4
95206.4
91097.3
87733.6
83783.6
77681.1
71937.1
66663.4
61975.7
58010.5
6442.09
8867.92
9796.39
11906.4
13682.4
15427.6
17117.5
18801.4
20557
22450.1
24512.4
26756.7
29196.4
31842.2
34699.8
37773.2
41063.9
44573.1
48301.2
52260.9
56486
61027.6
65975.3
71396.5
77424.1
84160.8
91732.3
100064
109191
118813
128587
136203
139692
142589
144862
146477
147401
147613
147109
146025
144360
142100
135499
126472
116934
107617
99045.5
91481.4
84989.1
79527.4
74963.4
71142.5
67962.5
65271.1
62966.7
60979.7
59237.4
57741.5
54406.2
50850.4
47552.8
44500.7
41681.3
39080.8
36684.5
34477.2
32443.9
30569.7
28839.8
27239.7
25755.2
24372.2
23077.2
21856.9
20698.9
19591.4
18523.6
17486
16470.8
15471.6
14484.8
13509.8
12549.6
11611.5
10705.1
9845.86
9096.3
8638.37
9279.52
12659.6
14386.4
17319.7
18975.5
19750.8
20808.8
21965.6
23204.1
24513.4
25568.2
25656.4
25636
25545.7
25436.7
25374.2
25441.8
25740.3
26351.7
27340
28821
30967.7
34038.9
38473.8
44936.5
54580.5
58294.8
59940.1
61516.9
62956.2
64177.6
64903.6
65021.1
64463.1
58710.1
49817.7
43162.4
37964.1
33720.6
30163.5
27156.3
24597
22424.2
20600
19100.4
17910.7
17022.3
16430.4
16130.8
16118.2
16385.9
16931.2
17765.9
18916.2
20427.4
22340
24648.8
27196.3
29629.4
31392
31948.6
31480.6
30917.2
31123.8
32504.4
34874.6
38362.5
42231.8
46235.3
50236.7
54149.2
57968
61705.3
65391.1
69067.4
72828.5
76824
81141.8
85857.7
90981.3
96443.5
102241
108322
114519
120802
127028
133207
139361
144862
149562
153801
157155
158500
156316
150237
141603
132038
122707
114203
106755
100274
94931.4
90247.9
86734.8
83322
77310.2
71356.5
65940.4
61045.4
56595
52633.9
49246.8
5363.59
8432.5
8842.72
10282
11483.5
12723.6
13982.8
15233
16495.9
17814.8
19230.6
20771.4
22457.8
24305.3
26325.3
28527.2
30919.1
33508.6
36304.2
39319.8
42579.4
46117.9
49984.9
54250
58961.5
64247.8
70254.8
77059.7
84870.1
93703.7
103884
107160
109433
111178
112393
113076
113223
112835
111924
110553
108732
106458
103698
100437
96707
88948.4
80576.3
73594.5
67862.9
63195.1
59410.3
56302.8
53768.4
51713.1
50029
48188.8
45048.5
42145.5
39457.6
36972.7
34678.5
32562.6
30612.4
28815.5
27159.7
25633.3
24224.9
22923.6
21719.2
20601.4
19560.8
18587.8
17673.3
16808.8
15985.8
15196.5
14433.8
13691.5
12964.3
12248.1
11540.6
10841.6
10152.6
9477.33
8820.65
8186.76
7596.38
7109.2
6989.3
8367.29
10316.9
12723.5
13987.9
15299.1
15882.4
16254.5
16654.6
17004.2
17291.4
17511.5
17671.9
17780.8
17851.9
17918.9
18031.5
18244.5
18614
19204.8
20086.7
21380.3
23290.3
26108.7
30310.3
36803.5
43270.1
44325.6
45345.7
46297.5
47140.6
47608.1
47598.9
45528.9
37200.3
31539.4
27405.2
24263.1
21822.3
19884.6
18355.5
17181.8
16328
15773.2
15504.7
15513.8
15794
16340.8
17149.8
18212.5
19512.8
21032.8
22765.2
24714.9
26843.9
29000.8
30920.1
32350.1
33261
33770.1
33894.2
33545.8
33044.1
33187.8
34372.7
36366.2
39351.4
42456.2
45759.1
48912.6
52021.3
55175.6
58392.6
61685.2
65047.8
68510.1
72134
76025
80306.6
84968.3
90059
95656.4
101668
108083
114985
122317
129898
137760
145258
151335
156391
158604
154922
149618
142437
130388
118442
107783
98775.2
91409.8
85354.3
80779.7
75953.4
69853.5
64346.2
59370.4
54885.8
50842.5
47208.6
43919.4
40996.2
38475.3
5481.39
8250.59
8411.77
9374.52
10042.7
10712
11422.9
12136.3
12850.2
13587.9
14374.1
15229.8
16174.7
17224.6
18392.2
19688.7
21123.6
22706.3
24446.4
26356.3
28453.2
30762.3
33311.5
36157.9
39313.5
42901.9
46995.7
51716.9
57243.8
63766.3
70138.9
71535.6
72513.4
73081.7
73250.2
73034.5
72448.9
71509.1
70224
68396.3
66114.5
63468
60576.6
57548.3
54466.3
51366.3
48316.1
45375.8
42584.6
39964.6
37524.8
35265.2
33178.2
31252.3
29475.7
27833
26305
24882.2
23555.9
22318.6
21163.4
20084.4
19076.1
18133.4
17251.8
16426.7
15654.1
14929.9
14250
13610.6
13007.6
12437.1
11895.2
11378
10881.9
10403.2
9938.61
9485.32
9040.85
8603.09
8170.85
7743.81
7322.4
6907.75
6501.13
6103.44
5718.52
5359.83
5095.81
5350.44
7272.47
10188.6
11076.5
10779.9
11684.2
12164.5
12564.6
12928.6
13235.1
13472.4
13639.4
13740.2
13787.7
13805.8
13824.9
13880.7
14020.8
14284.2
14726.4
15442.5
16554.7
18239.8
20805.7
24904.2
31018
31990
32899.3
33681.7
34275.7
34629.6
34740.9
30385.5
25086.1
21657.3
19307.4
17664.6
16544.3
15813.5
15392.4
15253.4
15371.9
15734.6
16332.2
17157.1
18203.4
19467.1
20942.5
22615.9
24456.2
26418.8
28462.9
30553.6
32618.6
34499.4
35937.9
36828.5
37422.7
37999.4
38323.9
37870.9
36877.4
36477.3
37096.2
38616.8
40737.9
43389
46031.7
48293.7
50431.3
52670.6
55089.9
57672.2
60395.1
63272.2
66325.2
69663.3
73367.9
77556.4
82435.2
88006.1
94486.9
102364
109362
110168
110444
110163
109284
107799
105628
102202
97431.1
91728.8
85520.5
79224.9
73125.4
67401.6
62144.5
57380.9
53100.1
49257.1
45790
42645
39786.1
37178
34796
32615.5
30623.5
28787.6
27127.2
25664.2
3344.73