/*--------------------------------*- C++ -*----------------------------------*\
| =========                 |                                                 |
| \\      /  F ield         | OpenFOAM: The Open Source CFD Toolbox           |
|  \\    /   O peration     | Version:  5.x                                   |
|   \\  /    A nd           | Web:      www.OpenFOAM.org                      |
|    \\/     M anipulation  |                                                 |
\*---------------------------------------------------------------------------*/
/*   Windows 32 and 64 bit porting by blueCAPE: http://www.bluecape.com.pt   *\
|  Based on Windows porting (2.0.x v4) by Symscape: http://www.symscape.com   |
\*---------------------------------------------------------------------------*/
FoamFile
{
    version     2.0;
    format      ascii;
    class       surfaceScalarField;
    location    "1668";
    object      phi;
}
// * * * * * * * * * * * * * * * * * * * * * * * * * * * * * * * * * * * * * //

dimensions      [0 3 -1 0 0 0 0];

internalField   nonuniform List<scalar> 
7780
(
4.99606e-005
3.94303e-008
4.98409e-005
1.19682e-007
4.96859e-005
1.54944e-007
4.9514e-005
1.71957e-007
4.93339e-005
1.80101e-007
4.91507e-005
1.8315e-007
4.89671e-005
1.83667e-007
4.87852e-005
1.81878e-007
4.86059e-005
1.79283e-007
4.84294e-005
1.76471e-007
4.82561e-005
1.73362e-007
4.80861e-005
1.6995e-007
4.79195e-005
1.66639e-007
4.77561e-005
1.63406e-007
4.75959e-005
1.6023e-007
4.74387e-005
1.57158e-007
4.72845e-005
1.54198e-007
4.71331e-005
1.51358e-007
4.69845e-005
1.48674e-007
4.68383e-005
1.46158e-007
4.66946e-005
1.43723e-007
4.65533e-005
1.41316e-007
4.64144e-005
1.38916e-007
4.62778e-005
1.36528e-007
4.61437e-005
1.34155e-007
4.60119e-005
1.31769e-007
4.58826e-005
1.29326e-007
4.57558e-005
1.26809e-007
4.56315e-005
1.24238e-007
4.55099e-005
1.21631e-007
4.53909e-005
1.19028e-007
4.52744e-005
1.16433e-007
4.51606e-005
1.13804e-007
4.50495e-005
1.11119e-007
4.49411e-005
1.08366e-007
4.48356e-005
1.05537e-007
4.4733e-005
1.02632e-007
4.46333e-005
9.96926e-008
4.45366e-005
9.67308e-008
4.44429e-005
9.36993e-008
4.43523e-005
9.05945e-008
4.42648e-005
8.74436e-008
4.41805e-005
8.42908e-008
4.40993e-005
8.11844e-008
4.40212e-005
7.81889e-008
4.39458e-005
7.53524e-008
4.38731e-005
7.26791e-008
4.3803e-005
7.01464e-008
4.37353e-005
6.77242e-008
4.36699e-005
6.53881e-008
4.36067e-005
6.31208e-008
4.35458e-005
6.0918e-008
4.34871e-005
5.87199e-008
4.34306e-005
5.64819e-008
4.33763e-005
5.42952e-008
4.33241e-005
5.22149e-008
4.32739e-005
5.02288e-008
4.32256e-005
4.83102e-008
4.31791e-005
4.64314e-008
4.31345e-005
4.45971e-008
4.30917e-005
4.28771e-008
4.30504e-005
4.12851e-008
4.30106e-005
3.97615e-008
4.29723e-005
3.82711e-008
4.29355e-005
3.68238e-008
4.29001e-005
3.54442e-008
4.28659e-005
3.41492e-008
4.2833e-005
3.29379e-008
4.28012e-005
3.17938e-008
4.27705e-005
3.07017e-008
4.27408e-005
2.96593e-008
4.27122e-005
2.86744e-008
4.26844e-005
2.77544e-008
4.26575e-005
2.69069e-008
4.26314e-005
2.61201e-008
4.2606e-005
2.53663e-008
4.25814e-005
2.46193e-008
4.25575e-005
2.38717e-008
4.25344e-005
2.3125e-008
4.2512e-005
2.23924e-008
4.24903e-005
2.17431e-008
4.2469e-005
2.12901e-008
4.24477e-005
2.12222e-008
4.24262e-005
2.15814e-008
4.2404e-005
2.21336e-008
4.23813e-005
2.2692e-008
4.23581e-005
2.31862e-008
4.23346e-005
2.35883e-008
4.23107e-005
2.38749e-008
4.22866e-005
2.40486e-008
4.22625e-005
2.41207e-008
4.22384e-005
2.41106e-008
4.22144e-005
2.40399e-008
4.21904e-005
2.39192e-008
4.21667e-005
2.3751e-008
4.21431e-005
2.35375e-008
4.21199e-005
2.32812e-008
4.20969e-005
2.29891e-008
4.20742e-005
2.26676e-008
4.20519e-005
2.23228e-008
4.20299e-005
2.19582e-008
4.20083e-005
2.15766e-008
4.19872e-005
2.11795e-008
4.19664e-005
2.07686e-008
4.19461e-005
2.03446e-008
4.19261e-005
1.99076e-008
4.19067e-005
1.94567e-008
4.18877e-005
1.89941e-008
4.18692e-005
1.85231e-008
4.18511e-005
1.80474e-008
4.18336e-005
1.7568e-008
4.18165e-005
1.70795e-008
4.17999e-005
1.65779e-008
4.17838e-005
1.60659e-008
4.17683e-005
1.55422e-008
4.17533e-005
1.50073e-008
4.17388e-005
1.44606e-008
4.17249e-005
1.39037e-008
4.17116e-005
1.33369e-008
4.16988e-005
1.27603e-008
4.16866e-005
1.21725e-008
4.16751e-005
1.15727e-008
4.16641e-005
1.09581e-008
4.16538e-005
1.03283e-008
4.16441e-005
9.68135e-009
4.16351e-005
9.01103e-009
4.16268e-005
8.3181e-009
4.16191e-005
7.61889e-009
4.16122e-005
6.91463e-009
4.1606e-005
6.19302e-009
4.16006e-005
5.43053e-009
4.1596e-005
4.64292e-009
4.15921e-005
3.85294e-009
4.15891e-005
3.02748e-009
4.15869e-005
2.15916e-009
4.15857e-005
1.2646e-009
4.15853e-005
3.43887e-010
4.15859e-005
-6.07785e-010
4.15875e-005
-1.58423e-009
4.15901e-005
-2.58586e-009
4.15937e-005
-3.61172e-009
4.15984e-005
-4.65123e-009
4.16041e-005
-5.70093e-009
4.16108e-005
-6.75762e-009
4.16186e-005
-7.79557e-009
4.16275e-005
-8.83943e-009
4.16373e-005
-9.90064e-009
4.16484e-005
-1.10341e-008
4.16605e-005
-1.21305e-008
4.16737e-005
-1.32008e-008
4.1688e-005
-1.42338e-008
4.17032e-005
-1.52291e-008
4.17194e-005
-1.61894e-008
4.17365e-005
-1.71184e-008
4.17545e-005
-1.80254e-008
4.17734e-005
-1.88532e-008
4.1793e-005
-1.95946e-008
4.18133e-005
-2.03593e-008
4.18344e-005
-2.10911e-008
4.18562e-005
-2.17868e-008
4.18787e-005
-2.24523e-008
4.19018e-005
-2.31036e-008
4.19256e-005
-2.37813e-008
4.19499e-005
-2.43722e-008
4.19748e-005
-2.48849e-008
4.20002e-005
-2.53283e-008
4.20259e-005
-2.57102e-008
4.20519e-005
-2.60502e-008
4.20783e-005
-2.63658e-008
4.2105e-005
-2.66824e-008
4.2132e-005
-2.70017e-008
4.21592e-005
-2.72835e-008
4.21867e-005
-2.74822e-008
4.22143e-005
-2.75801e-008
4.22419e-005
-2.7565e-008
4.22693e-005
-2.74121e-008
4.22964e-005
-2.70893e-008
4.23229e-005
-2.65929e-008
4.23489e-005
-2.59513e-008
4.23741e-005
-2.52136e-008
4.23985e-005
-2.44156e-008
4.24221e-005
-2.35607e-008
4.24447e-005
-2.25727e-008
4.24661e-005
-2.1457e-008
4.24862e-005
-2.00117e-008
4.25046e-005
-1.84634e-008
4.25214e-005
-1.68478e-008
4.25365e-005
-1.50932e-008
4.25496e-005
-1.30864e-008
4.25603e-005
-1.07918e-008
4.2568e-005
-7.6686e-009
4.25715e-005
-3.61504e-009
4.25701e-005
1.21497e-009
4.2564e-005
6.12158e-009
4.25534e-005
1.05714e-008
4.25386e-005
1.4767e-008
4.252e-005
1.86368e-008
4.24974e-005
2.25652e-008
4.24718e-005
2.56002e-008
3.18314e-008
5.00493e-005
-9.9035e-009
5.01065e-005
6.25506e-008
5.01548e-005
1.06631e-007
5.0192e-005
1.34748e-007
5.02197e-005
1.52418e-007
5.02394e-005
1.6338e-007
5.0253e-005
1.70139e-007
5.02616e-005
1.73236e-007
5.02658e-005
1.75143e-007
5.02656e-005
1.7661e-007
5.02619e-005
1.77052e-007
5.02556e-005
1.76307e-007
5.02467e-005
1.75478e-007
5.02359e-005
1.74225e-007
5.02236e-005
1.72512e-007
5.02103e-005
1.70483e-007
5.01963e-005
1.68202e-007
5.01819e-005
1.65752e-007
5.01673e-005
1.63317e-007
5.01524e-005
1.60995e-007
5.01375e-005
1.58639e-007
5.01226e-005
1.56211e-007
5.01078e-005
1.53707e-007
5.00932e-005
1.51129e-007
5.00789e-005
1.48496e-007
5.00648e-005
1.45815e-007
5.00511e-005
1.43065e-007
5.00377e-005
1.40248e-007
5.00245e-005
1.37385e-007
5.00117e-005
1.34462e-007
4.99992e-005
1.31472e-007
4.99872e-005
1.28433e-007
4.99757e-005
1.25363e-007
4.99645e-005
1.22267e-007
4.99537e-005
1.19155e-007
4.99432e-005
1.16031e-007
4.9933e-005
1.1289e-007
4.9923e-005
1.09688e-007
4.99133e-005
1.06377e-007
4.99041e-005
1.02976e-007
4.98952e-005
9.95106e-008
4.98866e-005
9.60087e-008
4.98784e-005
9.25147e-008
4.98704e-005
8.91035e-008
4.98628e-005
8.58606e-008
4.98553e-005
8.28645e-008
4.98478e-005
8.01568e-008
4.98402e-005
7.77096e-008
4.98325e-005
7.54581e-008
4.98245e-005
7.33389e-008
4.98164e-005
7.12985e-008
4.9808e-005
6.92827e-008
4.97996e-005
6.71453e-008
4.97912e-005
6.48283e-008
4.9783e-005
6.25468e-008
4.97747e-005
6.04414e-008
4.97664e-005
5.86006e-008
4.97576e-005
5.70673e-008
4.97482e-005
5.58097e-008
4.97381e-005
5.47333e-008
4.97272e-005
5.37362e-008
4.97158e-005
5.27352e-008
4.97039e-005
5.16872e-008
4.96915e-005
5.05989e-008
4.96789e-005
4.95047e-008
4.96659e-005
4.8434e-008
4.96526e-005
4.73927e-008
4.96392e-005
4.63792e-008
4.96256e-005
4.53951e-008
4.96118e-005
4.44419e-008
4.9598e-005
4.35134e-008
4.95841e-005
4.26036e-008
4.95701e-005
4.17034e-008
4.95562e-005
4.08071e-008
4.95424e-005
3.99183e-008
4.95287e-005
3.90463e-008
4.95151e-005
3.82135e-008
4.95015e-005
3.7458e-008
4.94879e-005
3.67746e-008
4.94742e-005
3.61235e-008
4.94604e-005
3.55028e-008
4.94467e-005
3.4965e-008
4.94335e-005
3.44084e-008
4.94213e-005
3.38201e-008
4.94101e-005
3.33576e-008
4.93998e-005
3.29993e-008
4.93903e-005
3.26732e-008
4.93815e-005
3.23324e-008
4.93735e-005
3.19512e-008
4.9366e-005
3.15284e-008
4.9359e-005
3.10692e-008
4.93525e-005
3.06e-008
4.93464e-005
3.01475e-008
4.93406e-005
2.97047e-008
4.93351e-005
2.92626e-008
4.93299e-005
2.88121e-008
4.93248e-005
2.83432e-008
4.93199e-005
2.78552e-008
4.93152e-005
2.7352e-008
4.93107e-005
2.68387e-008
4.93064e-005
2.63183e-008
4.93021e-005
2.5792e-008
4.92981e-005
2.52602e-008
4.92941e-005
2.4724e-008
4.92903e-005
2.41836e-008
4.92865e-005
2.36353e-008
4.92829e-005
2.30738e-008
4.92794e-005
2.25022e-008
4.9276e-005
2.19288e-008
4.92727e-005
2.13582e-008
4.92695e-005
2.0791e-008
4.92663e-005
2.02223e-008
4.92633e-005
1.96456e-008
4.92603e-005
1.90576e-008
4.92574e-005
1.84559e-008
4.92545e-005
1.78391e-008
4.92518e-005
1.7207e-008
4.92491e-005
1.6563e-008
4.92465e-005
1.59108e-008
4.9244e-005
1.52521e-008
4.92416e-005
1.4587e-008
4.92393e-005
1.39155e-008
4.9237e-005
1.32335e-008
4.92348e-005
1.25399e-008
4.92326e-005
1.18275e-008
4.92306e-005
1.10673e-008
4.92286e-005
1.02605e-008
4.92268e-005
9.45573e-009
4.92251e-005
8.66533e-009
4.92234e-005
7.85184e-009
4.92218e-005
6.97316e-009
4.92204e-005
6.12973e-009
4.92188e-005
5.37375e-009
4.92173e-005
4.56652e-009
4.92158e-005
3.6888e-009
4.92143e-005
2.76856e-009
4.92128e-005
1.82404e-009
4.92113e-005
8.59528e-010
4.92098e-005
-1.18869e-010
4.92084e-005
-1.12681e-009
4.92069e-005
-2.16354e-009
4.92055e-005
-3.20829e-009
4.9204e-005
-4.24939e-009
4.92025e-005
-5.26011e-009
4.9201e-005
-6.23363e-009
4.91993e-005
-7.19458e-009
4.91976e-005
-8.17884e-009
4.91958e-005
-9.22505e-009
4.91939e-005
-1.02951e-008
4.91921e-005
-1.1337e-008
4.91902e-005
-1.232e-008
4.91882e-005
-1.32429e-008
4.91861e-005
-1.41271e-008
4.9184e-005
-1.50011e-008
4.91818e-005
-1.58547e-008
4.91795e-005
-1.66039e-008
4.91772e-005
-1.72215e-008
4.91746e-005
-1.77757e-008
4.91717e-005
-1.82781e-008
4.91687e-005
-1.87388e-008
4.91654e-005
-1.91758e-008
4.91619e-005
-1.96147e-008
4.91582e-005
-2.00765e-008
4.91543e-005
-2.04858e-008
4.91502e-005
-2.07881e-008
4.91459e-005
-2.09705e-008
4.91412e-005
-2.10582e-008
4.91363e-005
-2.10937e-008
4.9131e-005
-2.1102e-008
4.91254e-005
-2.11356e-008
4.91197e-005
-2.12309e-008
4.91137e-005
-2.13316e-008
4.91076e-005
-2.13772e-008
4.91014e-005
-2.13532e-008
4.90951e-005
-2.12347e-008
4.90886e-005
-2.09362e-008
4.90819e-005
-2.03811e-008
4.90749e-005
-1.95618e-008
4.90675e-005
-1.8544e-008
4.90597e-005
-1.7434e-008
4.90516e-005
-1.62755e-008
4.90431e-005
-1.50583e-008
4.90342e-005
-1.37315e-008
4.90251e-005
-1.22996e-008
4.90159e-005
-1.07418e-008
4.90065e-005
-9.07871e-009
4.8997e-005
-7.38675e-009
4.89877e-005
-5.73133e-009
4.89786e-005
-3.97021e-009
4.89696e-005
-1.8196e-009
4.8961e-005
9.82217e-010
4.89533e-005
4.21457e-009
4.89474e-005
7.19164e-009
4.8943e-005
1.05759e-008
4.89385e-005
1.51112e-008
4.8933e-005
2.02708e-008
4.89258e-005
2.58463e-008
4.89165e-005
3.18315e-008
4.89028e-005
3.93672e-008
5.07786e-008
5.00363e-005
-4.62507e-008
5.00884e-005
1.04686e-008
5.01414e-005
5.37053e-008
5.01909e-005
8.52156e-008
5.02355e-005
1.07819e-007
5.02748e-005
1.24017e-007
5.03098e-005
1.35202e-007
5.03403e-005
1.42691e-007
5.03668e-005
1.48656e-007
5.03897e-005
1.53686e-007
5.04098e-005
1.57023e-007
5.04275e-005
1.58577e-007
5.0443e-005
1.59963e-007
5.04566e-005
1.60613e-007
5.04687e-005
1.60399e-007
5.04796e-005
1.59622e-007
5.04894e-005
1.58418e-007
5.04983e-005
1.56881e-007
5.05062e-005
1.5534e-007
5.05134e-005
1.53828e-007
5.052e-005
1.52056e-007
5.05261e-005
1.50051e-007
5.0532e-005
1.47875e-007
5.05375e-005
1.45578e-007
5.05428e-005
1.4319e-007
5.0548e-005
1.40689e-007
5.0553e-005
1.38016e-007
5.0558e-005
1.35232e-007
5.0563e-005
1.32434e-007
5.05678e-005
1.29619e-007
5.05725e-005
1.26789e-007
5.0577e-005
1.23938e-007
5.05813e-005
1.21046e-007
5.05855e-005
1.18118e-007
5.05895e-005
1.15162e-007
5.05933e-005
1.12186e-007
5.0597e-005
1.09181e-007
5.06005e-005
1.06191e-007
5.06037e-005
1.03205e-007
5.06065e-005
1.00173e-007
5.06089e-005
9.71031e-008
5.06109e-005
9.40439e-008
5.06123e-005
9.10268e-008
5.06134e-005
8.80348e-008
5.06142e-005
8.50506e-008
5.0615e-005
8.20879e-008
5.0616e-005
7.91988e-008
5.06172e-005
7.64472e-008
5.06188e-005
7.38778e-008
5.06206e-005
7.15094e-008
5.06226e-005
6.93612e-008
5.06244e-005
6.74335e-008
5.06259e-005
6.56521e-008
5.06268e-005
6.39045e-008
5.06272e-005
6.22175e-008
5.0627e-005
6.06124e-008
5.06265e-005
5.90708e-008
5.0626e-005
5.75832e-008
5.06257e-005
5.61325e-008
5.06257e-005
5.47399e-008
5.06259e-005
5.34791e-008
5.06263e-005
5.23196e-008
5.06269e-005
5.11762e-008
5.06274e-005
5.00367e-008
5.0628e-005
4.89398e-008
5.06285e-005
4.79045e-008
5.0629e-005
4.69194e-008
5.06294e-005
4.59672e-008
5.06298e-005
4.50412e-008
5.06301e-005
4.41419e-008
5.06303e-005
4.32655e-008
5.06305e-005
4.24043e-008
5.06307e-005
4.15477e-008
5.06308e-005
4.06886e-008
5.06309e-005
3.98294e-008
5.06309e-005
3.8979e-008
5.0631e-005
3.81726e-008
5.0631e-005
3.74672e-008
5.06309e-005
3.68452e-008
5.06308e-005
3.62374e-008
5.06306e-005
3.5629e-008
5.06306e-005
3.50363e-008
5.06306e-005
3.44226e-008
5.06306e-005
3.37877e-008
5.06308e-005
3.3203e-008
5.06311e-005
3.2683e-008
5.06315e-005
3.21964e-008
5.06322e-005
3.17101e-008
5.06329e-005
3.12032e-008
5.06338e-005
3.06757e-008
5.06347e-005
3.01296e-008
5.06357e-005
2.95975e-008
5.06367e-005
2.91095e-008
5.06378e-005
2.86449e-008
5.06389e-005
2.81976e-008
5.06399e-005
2.77496e-008
5.0641e-005
2.72809e-008
5.06421e-005
2.67925e-008
5.06431e-005
2.62923e-008
5.06442e-005
2.57875e-008
5.06452e-005
2.52806e-008
5.06462e-005
2.47715e-008
5.06472e-005
2.42606e-008
5.06482e-005
2.37491e-008
5.06491e-005
2.32366e-008
5.06501e-005
2.27124e-008
5.0651e-005
2.21664e-008
5.06519e-005
2.16093e-008
5.06527e-005
2.10595e-008
5.06536e-005
2.05231e-008
5.06544e-005
1.99992e-008
5.06551e-005
1.94778e-008
5.06558e-005
1.89451e-008
5.06565e-005
1.83963e-008
5.06571e-005
1.78313e-008
5.06577e-005
1.72482e-008
5.06582e-005
1.6647e-008
5.06588e-005
1.60351e-008
5.06593e-005
1.54194e-008
5.06597e-005
1.48022e-008
5.06601e-005
1.41858e-008
5.06605e-005
1.35718e-008
5.06607e-005
1.29537e-008
5.06609e-005
1.2332e-008
5.06611e-005
1.1687e-008
5.06612e-005
1.0952e-008
5.06613e-005
1.01532e-008
5.06613e-005
9.40764e-009
5.06613e-005
8.71349e-009
5.06612e-005
7.9694e-009
5.0661e-005
7.12455e-009
5.06608e-005
6.35344e-009
5.06605e-005
5.72001e-009
5.066e-005
4.97466e-009
5.06596e-005
4.14208e-009
5.06591e-005
3.28315e-009
5.06585e-005
2.42504e-009
5.06578e-005
1.56382e-009
5.06569e-005
7.04072e-010
5.0656e-005
-1.99762e-010
5.0655e-005
-1.14244e-009
5.06539e-005
-2.08657e-009
5.06526e-005
-3.02121e-009
5.06513e-005
-3.89959e-009
5.06498e-005
-4.71938e-009
5.06481e-005
-5.527e-009
5.06463e-005
-6.38579e-009
5.06444e-005
-7.34985e-009
5.06425e-005
-8.35194e-009
5.06404e-005
-9.2898e-009
5.06382e-005
-1.01344e-008
5.06359e-005
-1.09098e-008
5.06334e-005
-1.1668e-008
5.06309e-005
-1.24506e-008
5.06282e-005
-1.32055e-008
5.06254e-005
-1.37923e-008
5.06224e-005
-1.41889e-008
5.06191e-005
-1.44961e-008
5.06156e-005
-1.47571e-008
5.06119e-005
-1.49949e-008
5.06079e-005
-1.52356e-008
5.06038e-005
-1.55244e-008
5.05996e-005
-1.58755e-008
5.05953e-005
-1.61547e-008
5.05908e-005
-1.62664e-008
5.0586e-005
-1.62037e-008
5.0581e-005
-1.60354e-008
5.05757e-005
-1.58394e-008
5.05703e-005
-1.56591e-008
5.05647e-005
-1.56019e-008
5.05592e-005
-1.57027e-008
5.05537e-005
-1.58167e-008
5.05482e-005
-1.58682e-008
5.05427e-005
-1.58746e-008
5.05373e-005
-1.5797e-008
5.05318e-005
-1.54661e-008
5.05262e-005
-1.47577e-008
5.05203e-005
-1.3703e-008
5.05143e-005
-1.24675e-008
5.05081e-005
-1.12419e-008
5.05018e-005
-1.00298e-008
5.04955e-005
-8.75781e-009
5.04892e-005
-7.37747e-009
5.04828e-005
-5.96048e-009
5.04766e-005
-4.4887e-009
5.04705e-005
-2.98021e-009
5.04647e-005
-1.57654e-009
5.04594e-005
-4.08116e-010
5.04546e-005
8.54251e-010
5.04501e-005
2.68735e-009
5.04459e-005
5.08855e-009
5.04423e-005
7.88929e-009
5.04387e-005
1.08028e-008
5.04352e-005
1.4121e-008
5.0432e-005
1.83211e-008
5.04289e-005
2.34279e-008
5.04253e-005
2.93931e-008
5.04211e-005
3.61029e-008
5.04149e-005
4.55229e-008
5.8117e-008
5.00315e-005
-7.7706e-008
5.00738e-005
-3.1858e-008
5.01203e-005
7.14754e-009
5.0167e-005
3.85109e-008
5.02117e-005
6.31602e-008
5.02534e-005
8.23123e-008
5.02916e-005
9.70036e-008
5.03261e-005
1.08213e-007
5.03575e-005
1.17238e-007
5.03864e-005
1.24816e-007
5.04129e-005
1.30463e-007
5.04372e-005
1.34277e-007
5.04597e-005
1.37455e-007
5.04805e-005
1.39826e-007
5.04998e-005
1.41134e-007
5.05177e-005
1.41691e-007
5.05344e-005
1.41747e-007
5.05499e-005
1.41353e-007
5.05645e-005
1.40793e-007
5.05782e-005
1.40077e-007
5.05913e-005
1.39011e-007
5.06037e-005
1.37629e-007
5.06156e-005
1.36004e-007
5.06269e-005
1.34198e-007
5.06379e-005
1.32238e-007
5.06485e-005
1.30111e-007
5.06587e-005
1.27784e-007
5.06686e-005
1.25327e-007
5.06782e-005
1.22831e-007
5.06875e-005
1.2031e-007
5.06965e-005
1.17775e-007
5.07053e-005
1.15215e-007
5.07137e-005
1.12614e-007
5.07218e-005
1.09972e-007
5.07297e-005
1.07298e-007
5.07373e-005
1.04603e-007
5.07446e-005
1.01897e-007
5.07516e-005
9.91859e-008
5.07583e-005
9.64741e-008
5.07647e-005
9.37666e-008
5.07707e-005
9.10712e-008
5.07764e-005
8.83984e-008
5.07817e-005
8.57451e-008
5.07866e-005
8.30956e-008
5.07912e-005
8.04331e-008
5.07955e-005
7.77611e-008
5.07996e-005
7.51027e-008
5.08036e-005
7.24966e-008
5.08075e-005
6.9994e-008
5.08113e-005
6.76429e-008
5.08152e-005
6.54706e-008
5.08192e-005
6.34576e-008
5.08234e-005
6.1511e-008
5.08276e-005
5.96894e-008
5.08317e-005
5.80525e-008
5.08358e-005
5.65178e-008
5.08399e-005
5.5032e-008
5.08439e-005
5.35709e-008
5.08479e-005
5.21295e-008
5.08519e-005
5.07345e-008
5.08559e-005
4.94321e-008
5.086e-005
4.82137e-008
5.08642e-005
4.70332e-008
5.08683e-005
4.58786e-008
5.08725e-005
4.4775e-008
5.08767e-005
4.37367e-008
5.08808e-005
4.27529e-008
5.0885e-005
4.18077e-008
5.08891e-005
4.08932e-008
5.08933e-005
4.00093e-008
5.08974e-005
3.91549e-008
5.09015e-005
3.83236e-008
5.09055e-005
3.75067e-008
5.09095e-005
3.66957e-008
5.09134e-005
3.5887e-008
5.09173e-005
3.50843e-008
5.09212e-005
3.43174e-008
5.0925e-005
3.36368e-008
5.09288e-005
3.3036e-008
5.09326e-005
3.24577e-008
5.09364e-005
3.1887e-008
5.09401e-005
3.1331e-008
5.09437e-005
3.07731e-008
5.09473e-005
3.0214e-008
5.09508e-005
2.96905e-008
5.09543e-005
2.92164e-008
5.09577e-005
2.87738e-008
5.09611e-005
2.8338e-008
5.09644e-005
2.78904e-008
5.09676e-005
2.74256e-008
5.09708e-005
2.69427e-008
5.09739e-005
2.64679e-008
5.0977e-005
2.60347e-008
5.098e-005
2.56357e-008
5.0983e-005
2.52573e-008
5.09858e-005
2.48698e-008
5.09887e-005
2.44536e-008
5.09914e-005
2.40186e-008
5.09942e-005
2.35762e-008
5.09968e-005
2.31332e-008
5.09994e-005
2.26897e-008
5.10019e-005
2.22443e-008
5.10044e-005
2.17979e-008
5.10068e-005
2.13526e-008
5.10091e-005
2.09074e-008
5.10114e-005
2.04452e-008
5.10136e-005
1.99527e-008
5.10158e-005
1.94487e-008
5.10179e-005
1.89597e-008
5.10199e-005
1.849e-008
5.10219e-005
1.80362e-008
5.10238e-005
1.75849e-008
5.10256e-005
1.71199e-008
5.10273e-005
1.66383e-008
5.1029e-005
1.61423e-008
5.10307e-005
1.56286e-008
5.10322e-005
1.50948e-008
5.10337e-005
1.45499e-008
5.10351e-005
1.40018e-008
5.10365e-005
1.34525e-008
5.10377e-005
1.29071e-008
5.10389e-005
1.23709e-008
5.10401e-005
1.18383e-008
5.10411e-005
1.1312e-008
5.1042e-005
1.07636e-008
5.10429e-005
1.00951e-008
5.10437e-005
9.355e-009
5.10444e-005
8.71956e-009
5.10449e-005
8.15668e-009
5.10454e-005
7.51876e-009
5.10457e-005
6.77612e-009
5.1046e-005
6.09042e-009
5.10462e-005
5.5143e-009
5.10463e-005
4.82723e-009
5.10464e-005
4.05541e-009
5.10464e-005
3.28895e-009
5.10463e-005
2.5555e-009
5.1046e-005
1.83041e-009
5.10456e-005
1.12366e-009
5.10451e-005
3.51335e-010
5.10444e-005
-4.75463e-010
5.10436e-005
-1.29936e-009
5.10427e-005
-2.13098e-009
5.10417e-005
-2.90017e-009
5.10406e-005
-3.59655e-009
5.10394e-005
-4.28563e-009
5.1038e-005
-5.05285e-009
5.10366e-005
-5.96028e-009
5.10352e-005
-6.88901e-009
5.10336e-005
-7.69565e-009
5.10318e-005
-8.386e-009
5.103e-005
-9.02989e-009
5.1028e-005
-9.70612e-009
5.1026e-005
-1.04411e-008
5.10239e-005
-1.11077e-008
5.10216e-005
-1.151e-008
5.10191e-005
-1.16861e-008
5.10164e-005
-1.18068e-008
5.10136e-005
-1.19022e-008
5.10106e-005
-1.19888e-008
5.10074e-005
-1.21064e-008
5.10042e-005
-1.23147e-008
5.1001e-005
-1.26214e-008
5.09976e-005
-1.28026e-008
5.09941e-005
-1.27544e-008
5.09904e-005
-1.25064e-008
5.09865e-005
-1.21685e-008
5.09825e-005
-1.18434e-008
5.09784e-005
-1.15723e-008
5.09743e-005
-1.1509e-008
5.09703e-005
-1.16916e-008
5.09664e-005
-1.18621e-008
5.09625e-005
-1.19573e-008
5.09587e-005
-1.20724e-008
5.0955e-005
-1.2137e-008
5.09514e-005
-1.1862e-008
5.09477e-005
-1.10837e-008
5.09439e-005
-9.90777e-009
5.094e-005
-8.6022e-009
5.09363e-005
-7.46251e-009
5.09326e-005
-6.36967e-009
5.0929e-005
-5.16097e-009
5.09254e-005
-3.81249e-009
5.0922e-005
-2.50585e-009
5.09187e-005
-1.20577e-009
5.09156e-005
6.59178e-011
5.0913e-005
1.0633e-009
5.09109e-005
1.66388e-009
5.09093e-005
2.46426e-009
5.09078e-005
4.15254e-009
5.09065e-005
6.40015e-009
5.09054e-005
8.9666e-009
5.09046e-005
1.16626e-008
5.0904e-005
1.47077e-008
5.09038e-005
1.85072e-008
5.0904e-005
2.32345e-008
5.09046e-005
2.87732e-008
5.09056e-005
3.50976e-008
5.09072e-005
4.3888e-008
5.43745e-008
5.00292e-005
-1.0694e-007
5.00664e-005
-6.90399e-008
5.01078e-005
-3.41873e-008
5.01504e-005
-4.09261e-009
5.01924e-005
2.11559e-008
5.02327e-005
4.19818e-008
5.02707e-005
5.89631e-008
5.03062e-005
7.2753e-008
5.03393e-005
8.41476e-008
5.03704e-005
9.36597e-008
5.03996e-005
1.01301e-007
5.04266e-005
1.0726e-007
5.0452e-005
1.12062e-007
5.04759e-005
1.15893e-007
5.04984e-005
1.18665e-007
5.05195e-005
1.20552e-007
5.05395e-005
1.21846e-007
5.05582e-005
1.22593e-007
5.0576e-005
1.22962e-007
5.05931e-005
1.22998e-007
5.06095e-005
1.2267e-007
5.06251e-005
1.21995e-007
5.06401e-005
1.21024e-007
5.06545e-005
1.19806e-007
5.06683e-005
1.18373e-007
5.06817e-005
1.16736e-007
5.06946e-005
1.14901e-007
5.0707e-005
1.12913e-007
5.0719e-005
1.10832e-007
5.07306e-005
1.08694e-007
5.07419e-005
1.06517e-007
5.07528e-005
1.04304e-007
5.07634e-005
1.02047e-007
5.07736e-005
9.97488e-008
5.07835e-005
9.74145e-008
5.0793e-005
9.50532e-008
5.08022e-005
9.26704e-008
5.08112e-005
9.02661e-008
5.08198e-005
8.78593e-008
5.08281e-005
8.54698e-008
5.0836e-005
8.31038e-008
5.08437e-005
8.07633e-008
5.0851e-005
7.84472e-008
5.08579e-005
7.61451e-008
5.08645e-005
7.38392e-008
5.08708e-005
7.15221e-008
5.08767e-005
6.91945e-008
5.08823e-005
6.68736e-008
5.08877e-005
6.45954e-008
5.08929e-005
6.23982e-008
5.08981e-005
6.02997e-008
5.09033e-005
5.82877e-008
5.09085e-005
5.63282e-008
5.09136e-005
5.44944e-008
5.09189e-005
5.28352e-008
5.09241e-005
5.13051e-008
5.09293e-005
4.98545e-008
5.09344e-005
4.84465e-008
5.09394e-005
4.70602e-008
5.09445e-005
4.57007e-008
5.09495e-005
4.43959e-008
5.09546e-005
4.31547e-008
5.09596e-005
4.19721e-008
5.09647e-005
4.08573e-008
5.09696e-005
3.98117e-008
5.09745e-005
3.8821e-008
5.09794e-005
3.78707e-008
5.09843e-005
3.69553e-008
5.09891e-005
3.60735e-008
5.09939e-005
3.52243e-008
5.09986e-005
3.44042e-008
5.10033e-005
3.36078e-008
5.1008e-005
3.28297e-008
5.10127e-005
3.20663e-008
5.10172e-005
3.13169e-008
5.10217e-005
3.05902e-008
5.10261e-005
2.99173e-008
5.10304e-005
2.93079e-008
5.10348e-005
2.8727e-008
5.10391e-005
2.81581e-008
5.10433e-005
2.76155e-008
5.10476e-005
2.71013e-008
5.10517e-005
2.66021e-008
5.10558e-005
2.61156e-008
5.10599e-005
2.56566e-008
5.10638e-005
2.52275e-008
5.10678e-005
2.48168e-008
5.10717e-005
2.44118e-008
5.10756e-005
2.40076e-008
5.10794e-005
2.36004e-008
5.10832e-005
2.31915e-008
5.10869e-005
2.28034e-008
5.10905e-005
2.24352e-008
5.1094e-005
2.20869e-008
5.10975e-005
2.17614e-008
5.11009e-005
2.14294e-008
5.11043e-005
2.10743e-008
5.11076e-005
2.07081e-008
5.11109e-005
2.03402e-008
5.1114e-005
1.99734e-008
5.11171e-005
1.96057e-008
5.11201e-005
1.92352e-008
5.11231e-005
1.8864e-008
5.11259e-005
1.84945e-008
5.11287e-005
1.81246e-008
5.11314e-005
1.77356e-008
5.1134e-005
1.73148e-008
5.11366e-005
1.68832e-008
5.11391e-005
1.64664e-008
5.11415e-005
1.60684e-008
5.11439e-005
1.56859e-008
5.11462e-005
1.53041e-008
5.11484e-005
1.49092e-008
5.11505e-005
1.45021e-008
5.11526e-005
1.40854e-008
5.11545e-005
1.36544e-008
5.11564e-005
1.32049e-008
5.11582e-005
1.27415e-008
5.116e-005
1.22699e-008
5.11616e-005
1.17922e-008
5.11632e-005
1.13174e-008
5.11647e-005
1.08547e-008
5.11662e-005
1.04013e-008
5.11675e-005
9.96308e-009
5.11688e-005
9.50632e-009
5.117e-005
8.93833e-009
5.1171e-005
8.31523e-009
5.11719e-005
7.79179e-009
5.11728e-005
7.30678e-009
5.11736e-005
6.72817e-009
5.11742e-005
6.10561e-009
5.11747e-005
5.60009e-009
5.11752e-005
5.06867e-009
5.11756e-005
4.39864e-009
5.1176e-005
3.69849e-009
5.11762e-005
3.03191e-009
5.11764e-005
2.40595e-009
5.11764e-005
1.79988e-009
5.11763e-005
1.23218e-009
5.1176e-005
6.09494e-010
5.11756e-005
-6.38455e-011
5.11751e-005
-7.34828e-010
5.11744e-005
-1.43424e-009
5.11736e-005
-2.12097e-009
5.11728e-005
-2.7754e-009
5.11719e-005
-3.4055e-009
5.1171e-005
-4.11128e-009
5.11699e-005
-4.93382e-009
5.11688e-005
-5.73451e-009
5.11675e-005
-6.37988e-009
5.1166e-005
-6.914e-009
5.11644e-005
-7.45225e-009
5.11628e-005
-8.08212e-009
5.11612e-005
-8.79408e-009
5.11594e-005
-9.36209e-009
5.11575e-005
-9.56903e-009
5.11554e-005
-9.57699e-009
5.11531e-005
-9.59492e-009
5.11508e-005
-9.59909e-009
5.11484e-005
-9.58745e-009
5.1146e-005
-9.61924e-009
5.11434e-005
-9.76348e-009
5.11408e-005
-1.00006e-008
5.1138e-005
-1.00709e-008
5.11352e-005
-9.89112e-009
5.11322e-005
-9.54802e-009
5.11292e-005
-9.15054e-009
5.11261e-005
-8.77874e-009
5.1123e-005
-8.47468e-009
5.11199e-005
-8.40012e-009
5.11168e-005
-8.56914e-009
5.11136e-005
-8.71696e-009
5.11105e-005
-8.80015e-009
5.11074e-005
-8.95749e-009
5.11043e-005
-9.11939e-009
5.11014e-005
-8.94119e-009
5.10986e-005
-8.25413e-009
5.10958e-005
-7.15629e-009
5.10931e-005
-5.93969e-009
5.10906e-005
-4.96641e-009
5.10884e-005
-4.08915e-009
5.10862e-005
-3.00605e-009
5.10841e-005
-1.73544e-009
5.10821e-005
-5.46369e-010
5.10803e-005
5.85804e-010
5.10788e-005
1.60752e-009
5.10777e-005
2.1966e-009
5.1077e-005
2.31749e-009
5.10767e-005
2.78385e-009
5.10765e-005
4.26969e-009
5.10766e-005
6.28079e-009
5.10771e-005
8.46917e-009
5.10781e-005
1.07065e-008
5.10795e-005
1.32752e-008
5.10815e-005
1.65236e-008
5.10841e-005
2.06142e-008
5.10874e-005
2.5406e-008
5.10917e-005
3.0816e-008
5.10979e-005
3.76639e-008
4.4663e-008
5.00279e-005
-1.34814e-007
5.00614e-005
-1.02598e-007
5.00987e-005
-7.1444e-008
5.01377e-005
-4.30776e-008
5.01769e-005
-1.80752e-008
5.02154e-005
3.51254e-009
5.02524e-005
2.18995e-008
5.02877e-005
3.74447e-008
5.03213e-005
5.06209e-008
5.03531e-005
6.17952e-008
5.03833e-005
7.11084e-008
5.04118e-005
7.8744e-008
5.04389e-005
8.50496e-008
5.04645e-005
9.02148e-008
5.04889e-005
9.42955e-008
5.0512e-005
9.74348e-008
5.0534e-005
9.98512e-008
5.0555e-005
1.01642e-007
5.0575e-005
1.02927e-007
5.05942e-005
1.03775e-007
5.06127e-005
1.04205e-007
5.06304e-005
1.04248e-007
5.06475e-005
1.0395e-007
5.0664e-005
1.03357e-007
5.06798e-005
1.02506e-007
5.06951e-005
1.0142e-007
5.07099e-005
1.00121e-007
5.07242e-005
9.86462e-008
5.0738e-005
9.70434e-008
5.07513e-005
9.53483e-008
5.07643e-005
9.35863e-008
5.07768e-005
9.17681e-008
5.07889e-005
8.98972e-008
5.08007e-005
8.7978e-008
5.08121e-005
8.60166e-008
5.08231e-005
8.40195e-008
5.08338e-005
8.1991e-008
5.08442e-005
7.99345e-008
5.08541e-005
7.78685e-008
5.08638e-005
7.58135e-008
5.08731e-005
7.37787e-008
5.08821e-005
7.17683e-008
5.08908e-005
6.97848e-008
5.08991e-005
6.78204e-008
5.09071e-005
6.58594e-008
5.09147e-005
6.38902e-008
5.0922e-005
6.19056e-008
5.0929e-005
5.99095e-008
5.09357e-005
5.79209e-008
5.09421e-005
5.59632e-008
5.09483e-005
5.40499e-008
5.09544e-005
5.21813e-008
5.09604e-005
5.03527e-008
5.09663e-005
4.86154e-008
5.09721e-005
4.70148e-008
5.09779e-005
4.55366e-008
5.09836e-005
4.4147e-008
5.09892e-005
4.28105e-008
5.09948e-005
4.14988e-008
5.10003e-005
4.02044e-008
5.10057e-005
3.89404e-008
5.10112e-005
3.77226e-008
5.10166e-005
3.65676e-008
5.10219e-005
3.54965e-008
5.10272e-005
3.4509e-008
5.10325e-005
3.35815e-008
5.10377e-005
3.26915e-008
5.10428e-005
3.18304e-008
5.10479e-005
3.09998e-008
5.10529e-005
3.02004e-008
5.10579e-005
2.94286e-008
5.10628e-005
2.86802e-008
5.10677e-005
2.79523e-008
5.10725e-005
2.72453e-008
5.10772e-005
2.65644e-008
5.10819e-005
2.59213e-008
5.10865e-005
2.5333e-008
5.1091e-005
2.47894e-008
5.10955e-005
2.42529e-008
5.10999e-005
2.37225e-008
5.11043e-005
2.3219e-008
5.11087e-005
2.27468e-008
5.1113e-005
2.22982e-008
5.11172e-005
2.18691e-008
5.11214e-005
2.1462e-008
5.11256e-005
2.10731e-008
5.11297e-005
2.06952e-008
5.11338e-005
2.03235e-008
5.11378e-005
1.99604e-008
5.11418e-005
1.96093e-008
5.11457e-005
1.92762e-008
5.11496e-005
1.89732e-008
5.11533e-005
1.8688e-008
5.1157e-005
1.84067e-008
5.11606e-005
1.81195e-008
5.11642e-005
1.78187e-008
5.11678e-005
1.75147e-008
5.11713e-005
1.72162e-008
5.11747e-005
1.6922e-008
5.11781e-005
1.66297e-008
5.11813e-005
1.6336e-008
5.11845e-005
1.60409e-008
5.11876e-005
1.57459e-008
5.11907e-005
1.54512e-008
5.11937e-005
1.51493e-008
5.11966e-005
1.48283e-008
5.11994e-005
1.44929e-008
5.12021e-005
1.41603e-008
5.12047e-005
1.38334e-008
5.12073e-005
1.35131e-008
5.12098e-005
1.31984e-008
5.12122e-005
1.28762e-008
5.12146e-005
1.25439e-008
5.12169e-005