/*--------------------------------*- C++ -*----------------------------------*\
| =========                 |                                                 |
| \\      /  F ield         | OpenFOAM: The Open Source CFD Toolbox           |
|  \\    /   O peration     | Version:  5.x                                   |
|   \\  /    A nd           | Web:      www.OpenFOAM.org                      |
|    \\/     M anipulation  |                                                 |
\*---------------------------------------------------------------------------*/
/*   Windows 32 and 64 bit porting by blueCAPE: http://www.bluecape.com.pt   *\
|  Based on Windows porting (2.0.x v4) by Symscape: http://www.symscape.com   |
\*---------------------------------------------------------------------------*/
FoamFile
{
    version     2.0;
    format      ascii;
    class       volVectorField;
    location    "1668";
    object      U;
}
// * * * * * * * * * * * * * * * * * * * * * * * * * * * * * * * * * * * * * //

dimensions      [0 1 -1 0 0 0 0];

internalField   nonuniform List<vector> 
4000
(
(0.999135 0.000753641 1.78295e-023)
(0.997594 0.00244179 0)
(0.994255 0.00350933 0)
(0.99033 0.00386808 0)
(0.986283 0.00399553 0)
(0.982157 0.00401922 0)
(0.977999 0.00397742 -2.21839e-023)
(0.97386 0.0038971 0)
(0.969775 0.00380081 0)
(0.965751 0.00369983 -1.81407e-023)
(0.961789 0.00359783 0)
(0.957897 0.00349651 0)
(0.954076 0.00339981 -1.50272e-023)
(0.950325 0.00330746 0)
(0.94664 0.00321973 -1.33407e-023)
(0.943022 0.00313775 -1.25895e-023)
(0.939466 0.00306229 -1.18885e-023)
(0.935972 0.0029935 -1.12318e-023)
(0.932537 0.00293118 -1.06127e-023)
(0.929156 0.00287457 -1.00293e-023)
(0.925827 0.00282207 -9.48346e-024)
(0.922549 0.0027723 -8.97103e-024)
(0.919321 0.00272428 0)
(0.916145 0.0026779 -8.02955e-024)
(0.913018 0.00263325 -7.59446e-024)
(0.909941 0.00258957 -7.18119e-024)
(0.906915 0.00254553 -6.78825e-024)
(0.903941 0.00250013 -6.41117e-024)
(0.90102 0.00245332 -6.04412e-024)
(0.898153 0.0024057 -5.68421e-024)
(0.89534 0.00235879 0)
(0.892581 0.00231329 -4.9814e-024)
(0.889876 0.00226817 -4.64222e-024)
(0.887226 0.0022224 -4.31215e-024)
(0.884632 0.00217509 -3.99054e-024)
(0.882096 0.00212567 -3.67675e-024)
(0.879618 0.00207359 -3.37182e-024)
(0.8772 0.00202014 -3.07e-024)
(0.874842 0.00196715 -2.76853e-024)
(0.872546 0.00191435 0)
(0.870311 0.00186093 -2.18362e-024)
(0.86814 0.00180677 -1.89818e-024)
(0.866034 0.0017526 -1.61933e-024)
(0.863991 0.0016991 -1.35775e-024)
(0.862011 0.00164672 -1.12198e-024)
(0.860089 0.00159519 -9.13267e-025)
(0.858223 0.00154339 -7.26306e-025)
(0.856409 0.00149044 0)
(0.854645 0.00143644 -3.84511e-025)
(0.852929 0.0013822 -2.20484e-025)
(0.85126 0.00132879 -6.03143e-026)
(0.849636 0.00127745 9.57637e-026)
(0.848057 0.00122946 2.45513e-025)
(0.846521 0.00118542 3.8788e-025)
(0.845032 0.00114584 5.24098e-025)
(0.843584 0.00110951 6.48448e-025)
(0.842179 0.00107367 0)
(0.840812 0.00103522 8.37907e-025)
(0.839483 0.000991649 9.05416e-025)
(0.838192 0.000942586 9.67677e-025)
(0.836936 0.000891516 1.04094e-024)
(0.835714 0.000842521 1.12599e-024)
(0.834524 0.000796937 1.21559e-024)
(0.833363 0.000754406 1.30726e-024)
(0.832232 0.00071473 0)
(0.83113 0.000678049 1.49252e-024)
(0.830055 0.000644628 1.58363e-024)
(0.829004 0.000614415 1.67313e-024)
(0.827978 0.000586865 1.76136e-024)
(0.826974 0.000561249 1.84822e-024)
(0.825992 0.000537257 1.93319e-024)
(0.82503 0.000514983 2.01587e-024)
(0.824088 0.000494653 2.09627e-024)
(0.823164 0.000476783 2.17486e-024)
(0.822256 0.000461329 2.25271e-024)
(0.821363 0.000447483 2.33061e-024)
(0.820487 0.000434157 2.40865e-024)
(0.819625 0.000420431 2.48582e-024)
(0.818778 0.000405814 2.55993e-024)
(0.817947 0.000390457 2.62865e-024)
(0.81713 0.000376033 2.69085e-024)
(0.816324 0.000364447 0)
(0.81553 0.000363299 2.79254e-024)
(0.814727 0.000377699 2.83608e-024)
(0.813916 0.000401 2.89006e-024)
(0.813096 0.000426182 2.95319e-024)
(0.812266 0.000450032 3.02014e-024)
(0.811429 0.000471622 3.08878e-024)
(0.810585 0.000490065 3.15894e-024)
(0.809738 0.00050526 3.23045e-024)
(0.808889 0.00051739 0)
(0.808041 0.000526787 3.37708e-024)
(0.807194 0.0005338 3.45165e-024)
(0.80635 0.000538696 3.52585e-024)
(0.80551 0.000541666 3.59885e-024)
(0.804674 0.000542914 3.67014e-024)
(0.803843 0.000542659 3.73968e-024)
(0.803019 0.000541155 3.80764e-024)
(0.802201 0.000538619 3.87436e-024)
(0.80139 0.00053524 3.93993e-024)
(0.800587 0.000531147 4.00446e-024)
(0.799791 0.000526446 4.0679e-024)
(0.799004 0.000521205 4.13035e-024)
(0.798225 0.000515486 4.19179e-024)
(0.797455 0.000509329 4.25231e-024)
(0.796694 0.000502765 4.31183e-024)
(0.795942 0.000495806 4.3705e-024)
(0.795199 0.000488503 4.42847e-024)
(0.794466 0.000480914 4.48593e-024)
(0.793743 0.000473112 4.54273e-024)
(0.793029 0.000465122 4.59874e-024)
(0.792326 0.000456617 4.6538e-024)
(0.791632 0.000447611 4.70798e-024)
(0.790948 0.000438479 4.76128e-024)
(0.790275 0.000429213 4.81395e-024)
(0.789613 0.000419792 4.86605e-024)
(0.788961 0.000410195 4.91776e-024)
(0.78832 0.000400432 4.96914e-024)
(0.787691 0.000390496 5.02033e-024)
(0.787073 0.000380385 5.07124e-024)
(0.786467 0.000370064 5.12195e-024)
(0.785872 0.000359511 5.17238e-024)
(0.78529 0.000348679 5.22263e-024)
(0.784719 0.000337558 5.27271e-024)
(0.784161 0.000326133 5.32274e-024)
(0.783616 0.000314381 5.37265e-024)
(0.783085 0.000302328 5.42335e-024)
(0.782567 0.00029018 5.47578e-024)
(0.782063 0.000277907 5.52964e-024)
(0.781572 0.000265413 5.58405e-024)
(0.781096 0.000252354 5.63935e-024)
(0.780635 0.000238584 5.69622e-024)
(0.780189 0.000224032 5.75349e-024)
(0.779759 0.000208419 5.80811e-024)
(0.779345 0.000191865 5.86138e-024)
(0.778948 0.000174805 5.91505e-024)
(0.778568 0.000157356 5.96968e-024)
(0.778206 0.000139363 6.02495e-024)
(0.777862 0.000120806 6.08094e-024)
(0.777538 0.000101708 6.13721e-024)
(0.777232 8.2116e-005 6.194e-024)
(0.776946 6.21701e-005 6.25169e-024)
(0.77668 4.18855e-005 6.31028e-024)
(0.776434 2.11401e-005 6.36953e-024)
(0.776208 1.16918e-006 6.42899e-024)
(0.776001 -1.92047e-005 6.48771e-024)
(0.775814 -3.9915e-005 6.54559e-024)
(0.775648 -6.33867e-005 6.6022e-024)
(0.775503 -8.48143e-005 6.65733e-024)
(0.775378 -0.000105891 6.71353e-024)
(0.775272 -0.000126445 6.77128e-024)
(0.775186 -0.000146467 6.82897e-024)
(0.775118 -0.000165939 6.88554e-024)
(0.775068 -0.000184884 6.94078e-024)
(0.775034 -0.000203854 6.996e-024)
(0.775019 -0.000221878 7.05058e-024)
(0.775014 -0.000237358 7.10834e-024)
(0.775026 -0.000253878 7.16683e-024)
(0.775052 -0.000270547 7.21617e-024)
(0.775089 -0.000286603 7.25973e-024)
(0.775141 -0.000302424 7.29747e-024)
(0.775203 -0.000318105 7.32967e-024)
(0.775279 -0.000335339 7.35632e-024)
(0.775366 -0.000350142 7.37645e-024)
(0.775463 -0.000363151 7.3939e-024)
(0.775569 -0.000375009 7.40693e-024)
(0.775683 -0.000385879 7.41233e-024)
(0.775803 -0.00039599 7.40939e-024)
(0.775928 -0.000405736 7.39837e-024)
(0.77606 -0.000415682 7.37953e-024)
(0.776197 -0.0004257 7.35358e-024)
(0.77634 -0.000434867 7.32324e-024)
(0.776487 -0.000442198 7.28897e-024)
(0.776637 -0.000447144 7.24987e-024)
(0.776787 -0.000449514 7.20539e-024)
(0.776936 -0.000449333 7.15643e-024)
(0.777081 -0.000446434 7.10101e-024)
(0.777218 -0.000440796 7.03547e-024)
(0.777344 -0.000432861 6.95549e-024)
(0.777457 -0.000423307 6.85921e-024)
(0.777556 -0.000412747 6.74809e-024)
(0.777637 -0.000401388 6.62243e-024)
(0.777709 -0.000387854 6.47753e-024)
(0.777753 -0.000371433 6.31472e-024)
(0.777782 -0.000345024 6.13264e-024)
(0.777776 -0.000318747 5.93622e-024)
(0.777743 -0.00029085 5.72828e-024)
(0.777681 -0.000258943 5.50216e-024)
(0.777584 -0.000220979 5.26049e-024)
(0.777447 -0.000181387 5.00573e-024)
(0.777265 -0.000124078 4.72598e-024)
(0.77702 -4.39444e-005 4.4081e-024)
(0.776694 7.32182e-005 4.053e-024)
(0.776253 0.000198905 3.71183e-024)
(0.775749 0.000300509 3.38031e-024)
(0.775166 0.000384617 3.01189e-024)
(0.774519 0.000450902 2.54003e-024)
(0.773752 0.000512868 2.0943e-024)
(0.773085 0.00054102 1.27671e-024)
(0.771817 0.000591294 1.30763e-024)
(1.00017 0.00117493 4.70123e-024)
(1.00081 0.00282787 0)
(1.00142 0.00353145 0)
(1.00176 0.00396747 0)
(1.0019 0.00422328 0)
(1.00187 0.00435483 0)
(1.0017 0.0044369 -1.63133e-023)
(1.00141 0.00445423 0)
(1.00104 0.00444455 0)
(1.00058 0.0044282 -1.3876e-023)
(1.00004 0.00439863 0)
(0.999441 0.0043557 0)
(0.998792 0.00431174 -1.1714e-023)
(0.998098 0.00426697 0)
(0.997371 0.00421985 -1.05036e-023)
(0.99662 0.00417107 -9.9547e-024)
(0.995853 0.00412024 -9.43664e-024)
(0.995076 0.00406775 -8.94662e-024)
(0.994295 0.00401592 -8.47689e-024)
(0.993511 0.0039656 -8.03684e-024)
(0.992724 0.00391513 -7.63402e-024)
(0.991937 0.00386392 -7.25762e-024)
(0.991153 0.00381185 0)
(0.990372 0.00375866 -6.5663e-024)
(0.989597 0.00370442 -6.24544e-024)
(0.988828 0.00364934 -5.94131e-024)
(0.988066 0.0035934 -5.65292e-024)
(0.987311 0.00353661 -5.37632e-024)
(0.986562 0.00347898 -5.10832e-024)
(0.985819 0.0034201 -4.84783e-024)
(0.985084 0.00335955 0)
(0.984359 0.00329765 -4.33861e-024)
(0.983643 0.00323486 -4.0948e-024)
(0.982936 0.00317125 -3.859e-024)
(0.982237 0.00310707 -3.63059e-024)
(0.981546 0.00304247 -3.40889e-024)
(0.980861 0.00297794 -3.19203e-024)
(0.980179 0.00291189 -2.9845e-024)
(0.979506 0.0028428 -2.7856e-024)
(0.97884 0.00277127 0)
(0.978182 0.00269808 -2.4004e-024)
(0.977532 0.00262358 -2.21639e-024)
(0.976889 0.00254845 -2.03788e-024)
(0.976253 0.00247489 -1.86036e-024)
(0.975623 0.00240584 -1.68137e-024)
(0.974999 0.00234405 -1.50324e-024)
(0.974377 0.00229069 -1.3329e-024)
(0.973754 0.00224451 0)
(0.97313 0.00220303 -1.03708e-024)
(0.972502 0.002164 -9.09594e-025)
(0.97187 0.00212543 -7.95356e-025)
(0.971235 0.00208552 -6.97327e-025)
(0.970597 0.00203997 -6.27204e-025)
(0.969961 0.00198799 -5.63906e-025)
(0.969327 0.00193509 -4.82272e-025)
(0.968696 0.0018855 -3.95576e-025)
(0.968065 0.00184231 0)
(0.967429 0.0018075 -2.25821e-025)
(0.966784 0.00178154 -1.45213e-025)
(0.966125 0.00176239 -6.8664e-026)
(0.965451 0.00174615 3.56648e-027)
(0.964766 0.00172981 7.27943e-026)
(0.964071 0.00171214 1.38807e-025)
(0.963369 0.00169298 2.03462e-025)
(0.96266 0.00167278 0)
(0.961945 0.00165222 3.40976e-025)
(0.961225 0.0016317 4.12771e-025)
(0.960502 0.00161142 4.84192e-025)
(0.959776 0.00159153 5.5361e-025)
(0.959048 0.00157212 6.20801e-025)
(0.958318 0.00155315 6.86887e-025)
(0.957587 0.00153464 7.52521e-025)
(0.956855 0.00151651 8.18411e-025)
(0.956125 0.00149863 8.84575e-025)
(0.955397 0.00148093 9.49824e-025)
(0.954672 0.00146343 1.01271e-024)
(0.953949 0.0014463 1.07322e-024)
(0.953229 0.00143004 1.13187e-024)
(0.952509 0.0014149 1.18697e-024)
(0.951787 0.00140076 1.23892e-024)
(0.951065 0.00138811 1.29282e-024)
(0.950344 0.00137898 0)
(0.949626 0.00137067 1.43368e-024)
(0.948925 0.00136206 1.5279e-024)
(0.948246 0.00135636 1.59938e-024)
(0.947585 0.0013523 1.65432e-024)
(0.946941 0.00134812 1.70452e-024)
(0.946313 0.00134298 1.75267e-024)
(0.9457 0.00133649 1.80036e-024)
(0.945098 0.00132876 1.84902e-024)
(0.944509 0.00131994 0)
(0.943929 0.0013105 1.95089e-024)
(0.943358 0.00130097 2.00444e-024)
(0.942794 0.00129145 2.05707e-024)
(0.942236 0.00128186 2.10787e-024)
(0.941683 0.00127205 2.15676e-024)
(0.941136 0.00126192 2.20435e-024)
(0.940592 0.00125151 2.25134e-024)
(0.940053 0.00124086 2.29783e-024)
(0.939518 0.00123006 2.3437e-024)
(0.938986 0.00121912 2.3888e-024)
(0.938458 0.00120808 2.43309e-024)
(0.937932 0.00119692 2.47655e-024)
(0.93741 0.00118567 2.51922e-024)
(0.936891 0.00117431 2.56105e-024)
(0.936374 0.00116283 2.60198e-024)
(0.935859 0.00115119 2.64221e-024)
(0.935348 0.0011394 2.68217e-024)
(0.934839 0.00112755 2.7219e-024)
(0.934332 0.00111568 2.76109e-024)
(0.933827 0.00110381 2.79951e-024)
(0.933325 0.00109195 2.83716e-024)
(0.932824 0.00108003 2.87371e-024)
(0.932325 0.00106792 2.90908e-024)
(0.931829 0.00105553 2.94378e-024)
(0.931334 0.00104286 2.97807e-024)
(0.930841 0.00102991 3.01213e-024)
(0.93035 0.00101673 3.04608e-024)
(0.929862 0.00100333 3.07981e-024)
(0.929375 0.000989736 3.11312e-024)
(0.928891 0.000975923 3.14593e-024)
(0.928408 0.000961882 3.17814e-024)
(0.927927 0.000947549 3.20968e-024)
(0.927448 0.000932902 3.24071e-024)
(0.92697 0.000917875 3.2712e-024)
(0.926494 0.000902254 3.30145e-024)
(0.926021 0.00088605 3.33344e-024)
(0.92555 0.000869648 3.3679e-024)
(0.925082 0.000853114 3.40233e-024)
(0.924615 0.000836183 3.43522e-024)
(0.924151 0.000818304 3.46648e-024)
(0.923689 0.000800419 3.50144e-024)
(0.923228 0.000783394 3.53705e-024)
(0.922767 0.000765875 3.56513e-024)
(0.922305 0.000747517 3.59413e-024)
(0.921845 0.000728433 3.62514e-024)
(0.921386 0.000708677 3.65665e-024)
(0.920927 0.000688295 3.68778e-024)
(0.920469 0.000667474 3.71901e-024)
(0.920011 0.000646158 3.74989e-024)
(0.919554 0.000624383 3.78177e-024)
(0.919098 0.000602417 3.81554e-024)
(0.918642 0.000580419 3.85025e-024)
(0.918186 0.000558684 3.8855e-024)
(0.917729 0.00053715 3.91928e-024)
(0.917272 0.000515709 3.95154e-024)
(0.916813 0.000493958 3.98198e-024)
(0.916353 0.000471706 4.01273e-024)
(0.915892 0.000449171 4.04437e-024)
(0.915432 0.000427134 4.07967e-024)
(0.914971 0.000405999 4.11643e-024)
(0.914509 0.000385846 4.15279e-024)
(0.914047 0.000366516 4.18788e-024)
(0.913583 0.000347783 4.2222e-024)
(0.913119 0.00032975 4.2582e-024)
(0.912655 0.000313675 4.2972e-024)
(0.912189 0.000299249 4.33295e-024)
(0.91172 0.000285256 4.36417e-024)
(0.911248 0.00027225 4.3929e-024)
(0.910771 0.000260143 4.41744e-024)
(0.910291 0.000248858 4.43845e-024)
(0.909807 0.000238021 4.45514e-024)
(0.90932 0.000227441 4.46937e-024)
(0.908829 0.000217998 4.48238e-024)
(0.908336 0.000210126 4.49303e-024)
(0.907839 0.000203922 4.49977e-024)
(0.907336 0.000199178 4.50034e-024)
(0.906829 0.000195417 4.49372e-024)
(0.906317 0.000192452 4.48e-024)
(0.905799 0.00018988 4.45899e-024)
(0.905277 0.000187222 4.43502e-024)
(0.904752 0.000184922 4.41386e-024)
(0.904225 0.000183765 4.39477e-024)
(0.903695 0.000184068 4.37589e-024)
(0.903164 0.000186323 4.35679e-024)
(0.902632 0.000191665 4.33725e-024)
(0.902096 0.00020098 4.31504e-024)
(0.901556 0.000214408 4.28503e-024)
(0.90101 0.000231472 4.24215e-024)
(0.900457 0.000250996 4.18455e-024)
(0.899898 0.00027216 4.11538e-024)
(0.899333 0.00029474 4.03747e-024)
(0.898762 0.000319861 3.95269e-024)
(0.898186 0.000347437 3.85617e-024)
(0.897606 0.000378178 3.75025e-024)
(0.897024 0.000412212 3.63929e-024)
(0.896442 0.000447657 3.51831e-024)
(0.895859 0.000484352 3.3912e-024)
(0.895281 0.000524378 3.26982e-024)
(0.894707 0.000572287 3.1617e-024)
(0.894138 0.00063465 3.05045e-024)
(0.893576 0.000705569 2.96224e-024)
(0.893038 0.000762979 2.91917e-024)
(0.892548 0.000827658 2.77814e-024)
(0.892067 0.000918844 2.47288e-024)
(0.891565 0.00101663 2.16137e-024)
(0.891063 0.00111462 1.8169e-024)
(0.890464 0.00121581 1.52651e-024)
(0.890001 0.00132878 8.94283e-025)
(0.888922 0.00152586 9.71979e-025)
(1.00007 0.000615554 -8.20858e-024)
(1.00044 0.00183814 0)
(1.00105 0.00277186 0)
(1.00159 0.00341924 0)
(1.00203 0.00385477 0)
(1.00237 0.00415118 0)
(1.00261 0.00433338 1.862e-023)
(1.00277 0.00443699 0)
(1.00283 0.0045242 0)
(1.00282 0.00459812 1.5719e-023)
(1.00274 0.00464733 0)
(1.00262 0.00466402 0)
(1.00245 0.00467603 1.31125e-023)
(1.00224 0.00467248 0)
(1.002 0.00465387 1.16484e-023)
(1.00173 0.00462417 1.09881e-023)
(1.00143 0.00458633 1.03673e-023)
(1.00112 0.00454281 9.78092e-024)
(1.00079 0.00449803 9.22376e-024)
(1.00045 0.0044556 8.70088e-024)
(1.00009 0.00441201 8.21732e-024)
(0.999716 0.00436593 7.76695e-024)
(0.99934 0.0043174 0)
(0.998959 0.0042671 6.94793e-024)
(0.998572 0.00421564 6.5687e-024)
(0.998182 0.00416282 6.20933e-024)
(0.997789 0.0041076 5.87078e-024)
(0.997396 0.00405005 5.55031e-024)
(0.997003 0.00399157 1.71259e-023)
(0.996609 0.00393248 4.94598e-024)
(0.996212 0.00387305 0)
(0.995812 0.00381321 4.36063e-024)
(0.995409 0.00375259 4.07699e-024)
(0.995002 0.0036913 3.80291e-024)
(0.994593 0.00362958 1.21949e-023)
(0.994182 0.00356749 3.28261e-024)
(0.993767 0.00350424 3.03597e-024)
(0.993351 0.00344145 2.79714e-024)
(0.99293 0.00337907 2.5648e-024)
(0.992502 0.00331511 0)
(0.992066 0.00324963 8.12207e-024)
(0.991624 0.00318426 1.90341e-024)
(0.991172 0.00312033 1.6949e-024)
(0.990711 0.00305745 1.49453e-024)
(0.990244 0.00299511 1.30494e-024)
(0.989774 0.00293337 1.12836e-024)
(0.989307 0.00287335 4.71105e-024)
(0.988845 0.0028167 0)
(0.98839 0.00276433 6.82577e-025)
(0.987942 0.00271615 5.55612e-025)
(0.987497 0.00267226 4.37439e-025)
(0.987054 0.0026329 3.29566e-025)
(0.986608 0.00259792 2.38834e-025)
(0.986151 0.0025628 1.55141e-025)
(0.985683 0.00252714 6.37692e-026)
(0.985204 0.00249288 -2.62461e-026)
(0.984718 0.00246014 0)
(0.984228 0.00242871 -1.84034e-025)
(0.983741 0.00239772 -2.51945e-025)
(0.98326 0.00236751 -3.17097e-025)
(0.982786 0.00234048 -3.85188e-025)
(0.982316 0.00231593 -4.56807e-025)
(0.981849 0.00229156 -5.29088e-025)
(0.981384 0.00226713 -6.02145e-025)
(0.980919 0.00224348 0)
(0.980455 0.00222101 -7.55875e-025)
(0.979991 0.00219953 -8.35073e-025)
(0.979525 0.00217872 -9.14263e-025)
(0.979059 0.00215848 -9.92658e-025)
(0.978592 0.00213878 -1.07005e-024)
(0.978125 0.00211954 -1.14684e-024)
(0.977657 0.00210058 -1.22317e-024)
(0.977189 0.00208168 -1.2994e-024)
(0.97672 0.00206273 -1.37564e-024)
(0.976251 0.00204381 -1.4516e-024)
(0.975782 0.00202517 -1.52672e-024)
(0.975313 0.00200755 -1.6011e-024)
(0.974844 0.00199196 -1.67458e-024)
(0.974375 0.00197792 -1.7453e-024)
(0.973904 0.00196416 -1.81241e-024)
(0.973433 0.00195047 -1.87843e-024)
(0.972964 0.00193725 0)
(0.972495 0.00192392 -2.02121e-024)
(0.972029 0.00191026 7.50376e-025)
(0.971564 0.00189741 8.21653e-025)
(0.971103 0.00188586 -2.24139e-024)
(0.970645 0.00187514 -2.30567e-024)
(0.970191 0.00186455 -2.36902e-024)
(0.969739 0.00185363 -2.43238e-024)
(0.96929 0.00184234 -2.49659e-024)
(0.968844 0.00183074 3.74791e-024)
(0.968399 0.00181952 -2.62864e-024)
(0.967956 0.00180908 -2.69657e-024)
(0.967514 0.00179902 -2.76343e-024)
(0.967073 0.00178922 -2.82841e-024)
(0.966631 0.00177946 -2.89142e-024)
(0.96619 0.00176937 1.57763e-024)
(0.96575 0.00175887 -3.01308e-024)
(0.96531 0.00174805 -3.07243e-024)
(0.96487 0.00173706 -3.13081e-024)
(0.964431 0.00172596 -3.18819e-024)
(0.963992 0.00171478 -3.24449e-024)
(0.963552 0.00170353 1.91285e-024)
(0.963113 0.00169223 -3.35409e-024)
(0.962674 0.00168089 -3.40739e-024)
(0.962234 0.00166937 -3.45959e-024)
(0.961795 0.0016575 -3.51088e-024)
(0.961356 0.00164539 -3.5616e-024)
(0.960916 0.00163332 -3.6119e-024)
(0.960477 0.00162142 2.25901e-024)
(0.960037 0.00160971 -3.7102e-024)
(0.959597 0.00159802 -3.75794e-024)
(0.959157 0.00158611 -3.80454e-024)
(0.958716 0.00157391 -3.84994e-024)
(0.958274 0.00156139 -3.89454e-024)
(0.957833 0.00154853 2.51269e-024)
(0.957391 0.00153532 -3.98198e-024)
(0.956949 0.00152188 -4.0251e-024)
(0.956507 0.00150834 -4.06785e-024)
(0.956065 0.00149475 -4.11012e-024)
(0.955622 0.00148112 -4.1519e-024)
(0.955179 0.00146748 2.74325e-024)
(0.954735 0.00145369 -4.23382e-024)
(0.95429 0.00143976 -4.27397e-024)
(0.953844 0.00142544 -4.31359e-024)
(0.953397 0.0014097 -4.35276e-024)
(0.952951 0.00139265 -4.39304e-024)
(0.952505 0.00137602 2.94367e-024)
(0.952057 0.00136015 -4.47849e-024)
(0.951608 0.00134357 -4.52027e-024)
(0.951159 0.00132533 -4.56096e-024)
(0.950709 0.00130891 -4.60464e-024)
(0.950259 0.00129479 -4.64881e-024)
(0.949806 0.00127882 3.16158e-024)
(0.949353 0.00126102 -4.72496e-024)
(0.948899 0.00124243 -4.76446e-024)
(0.948445 0.00122357 -4.8046e-024)
(0.947989 0.00120449 -4.84458e-024)
(0.947531 0.00118534 -4.88474e-024)
(0.947072 0.00116547 3.33864e-024)
(0.946611 0.0011449 -4.96482e-024)
(0.946149 0.00112421 -5.00667e-024)
(0.945686 0.00110369 -5.0494e-024)
(0.94522 0.00108417 -5.09284e-024)
(0.944753 0.00106585 -5.1356e-024)
(0.944283 0.00104794 -5.17701e-024)
(0.94381 0.00102937 3.58581e-024)
(0.943336 0.00100901 -5.25642e-024)
(0.942862 0.000987795 -5.29633e-024)
(0.942386 0.000967306 -5.33921e-024)
(0.941909 0.000948295 -5.3835e-024)
(0.941429 0.000930708 -5.42726e-024)
(0.940947 0.000913879 3.81297e-024)
(0.940463 0.000896977 -5.5114e-024)
(0.939979 0.00088032 -5.555e-024)
(0.939492 0.000866026 -5.60063e-024)
(0.939002 0.000855027 -5.64539e-024)
(0.938509 0.000846004 -5.68752e-024)
(0.938011 0.000838209 4.05974e-024)
(0.937509 0.000831116 -5.75696e-024)
(0.937004 0.00082425 -5.78494e-024)
(0.936496 0.000816886 -5.80832e-024)
(0.935986 0.000808494 -5.82862e-024)
(0.935475 0.000801011 -5.84654e-024)
(0.934961 0.000796125 4.18509e-024)
(0.934444 0.000794345 -5.87434e-024)
(0.933922 0.000794873 -5.87943e-024)
(0.933396 0.000796456 -5.87689e-024)
(0.932867 0.000798278 -5.8668e-024)
(0.932335 0.00079855 -5.84934e-024)
(0.931803 0.000796408 4.14449e-024)
(0.931272 0.00079387 -5.80704e-024)
(0.930742 0.000792515 -5.78617e-024)
(0.930213 0.000792512 -5.76351e-024)
(0.929685 0.000794286 -5.73943e-024)
(0.929158 0.000800164 -5.71467e-024)
(0.928629 0.00081239 -5.68671e-024)
(0.928098 0.000831041 4.13408e-024)
(0.927562 0.000853848 -5.59879e-024)
(0.927023 0.000877746 -5.53181e-024)
(0.926484 0.00090196 -5.45244e-024)
(0.925944 0.000927099 -5.3621e-024)
(0.925404 0.000954241 -5.25909e-024)
(0.924864 0.000982826 3.74607e-024)
(0.924325 0.00101322 -5.00711e-024)
(0.923788 0.00104502 -4.86345e-024)
(0.923256 0.00107643 -4.70711e-024)
(0.922732 0.001105 -4.53906e-024)
(0.922218 0.00113448 -4.36821e-024)
(0.921712 0.00117243 3.05542e-024)
(0.921213 0.00122168 -4.01627e-024)
(0.920721 0.00128103 -3.82774e-024)
(0.920236 0.00134498 -3.64699e-024)
(0.919753 0.00141531 -3.40728e-024)
(0.919273 0.00150011 -3.07118e-024)
(0.918794 0.00160257 2.08736e-024)
(0.918327 0.00172301 -2.29407e-024)
(0.917811 0.00185708 -1.91902e-024)
(0.917389 0.00203856 -1.15331e-024)
(0.916596 0.00230029 -1.34646e-024)
(1.00003 0.000514476 9.27443e-024)
(1.00026 0.00152212 0)
(1.00068 0.00233642 0)
(1.00113 0.00296707 0)
(1.00155 0.00344575 0)
(1.00191 0.00380564 0)
(1.00221 0.00407402 -1.8428e-023)
(1.00244 0.00427115 0)
(1.00259 0.00442585 0)
(1.00269 0.00455879 -1.64275e-023)
(1.00274 0.00464762 0)
(1.00274 0.00469484 0)
(1.00271 0.00474128 -1.43948e-023)
(1.00264 0.00477268 0)
(1.00254 0.00478268 -1.31611e-023)
(1.00241 0.00478057 -1.2562e-023)
(1.00226 0.00476902 -1.19865e-023)
(1.00208 0.00474997 -1.14347e-023)
(1.00188 0.00473218 -1.09197e-023)
(1.00166 0.00471383 -1.04448e-023)
(1.00143 0.00468646 -9.98827e-024)
(1.00119 0.00465219 -9.54847e-024)
(1.00093 0.00461338 0)
(1.00067 0.00457149 -8.73456e-024)
(1.0004 0.00452704 -8.35569e-024)
(1.00011 0.00447936 -7.99142e-024)
(0.999826 0.00442714 -7.63766e-024)
(0.999531 0.00437265 -7.29629e-024)
(0.99923 0.00431847 -1.30969e-023)
(0.998924 0.0042642 -6.67518e-024)
(0.998613 0.00420977 0)
(0.998296 0.00415488 -6.11613e-024)
(0.997974 0.00409916 -5.84816e-024)
(0.997646 0.00404262 -5.58891e-024)
(0.997313 0.00398545 -9.71847e-024)
(0.996975 0.00392791 -5.0972e-024)
(0.996631 0.00387034 -4.86162e-024)
(0.996282 0.00381267 -4.63417e-024)
(0.995928 0.0037545 -4.42588e-024)
(0.995569 0.00369616 0)
(0.995203 0.00363794 -7.06533e-024)
(0.99483 0.00358006 -3.8729e-024)
(0.99445 0.00352236 -3.70659e-024)
(0.994063 0.00346468 -3.54265e-024)
(0.993671 0.003407 -3.37606e-024)
(0.993272 0.00334977 -3.20528e-024)
(0.992868 0.00329372 -4.95013e-024)
(0.992462 0.00323949 0)
(0.992054 0.00318792 -2.68997e-024)
(0.991645 0.00313996 -2.53573e-024)
(0.991237 0.00309619 -2.39243e-024)
(0.99083 0.00305603 -2.25741e-024)
(0.990426 0.00301591 -2.12679e-024)
(0.990026 0.00297731 -2.0222e-024)
(0.989626 0.00294314 -1.93947e-024)
(0.989225 0.00291126 -1.85717e-024)
(0.988823 0.00288057 0)
(0.98842 0.00285085 -1.67377e-024)
(0.988018 0.00282215 -1.57163e-024)
(0.987616 0.00279493 -1.47126e-024)
(0.987215 0.0027697 -1.38435e-024)
(0.986815 0.00274598 -1.30921e-024)
(0.986417 0.00272268 -1.239e-024)
(0.986019 0.00269933 -1.1683e-024)
(0.985622 0.00267667 0)
(0.985226 0.00265536 -1.01556e-024)
(0.98483 0.0026353 -9.38379e-025)
(0.984434 0.00261603 -8.63384e-025)
(0.984038 0.00259731 -7.90624e-025)
(0.983643 0.00257916 -7.19595e-025)
(0.983247 0.00256156 -6.50191e-025)
(0.982852 0.0025444 -5.82447e-025)
(0.982456 0.00252747 -5.16044e-025)
(0.98206 0.00251055 -4.50462e-025)
(0.981663 0.00249359 -3.84799e-025)
(0.981265 0.00247667 -3.189e-025)
(0.980867 0.00246021 -2.51629e-025)
(0.980469 0.00244554 -1.8272e-025)
(0.980071 0.00243301 -1.18193e-025)
(0.979673 0.00242118 -6.07249e-026)
(0.979274 0.0024093 -5.0586e-027)
(0.978875 0.00239746 0)
(0.978476 0.0023852 1.12891e-025)
(0.978076 0.00237261 -1.27805e-024)
(0.977674 0.00236086 -1.28934e-024)
(0.977272 0.00235036 2.95308e-025)
(0.97687 0.0023406 3.5056e-025)
(0.976467 0.00233094 4.04297e-025)
(0.976064 0.00232086 4.58587e-025)
(0.97566 0.00231027 5.15352e-025)
(0.975254 0.00229918 -1.90932e-024)
(0.974848 0.00228801 6.39019e-025)
(0.974442 0.00227784 7.05487e-025)
(0.974035 0.00226846 7.7071e-025)
(0.973626 0.00225937 8.32729e-025)
(0.973217 0.00225005 8.90037e-025)
(0.972807 0.00224021 -1.36811e-024)
(0.972397 0.00223001 9.99856e-025)
(0.971986 0.00221966 1.05501e-024)
(0.971574 0.00220928 1.10982e-024)
(0.971162 0.0021989 1.16378e-024)
(0.970748 0.0021885 1.21685e-024)
(0.970334 0.00217809 -1.39828e-024)
(0.969919 0.00216769 1.3205e-024)
(0.969503 0.00215727 1.37059e-024)
(0.969086 0.00214655 1.41811e-024)
(0.968669 0.00213531 1.46432e-024)
(0.968251 0.00212388 1.51253e-024)
(0.967832 0.00211269 1.56216e-024)
(0.967412 0.00210183 -1.42571e-024)
(0.966992 0.00209126 1.65763e-024)
(0.96657 0.00208074 1.70209e-024)
(0.966148 0.00206996 1.74387e-024)
(0.965725 0.00205884 1.78428e-024)
(0.965301 0.00204741 1.8238e-024)
(0.964876 0.00203561 -1.45163e-024)
(0.96445 0.00202345 1.90004e-024)
(0.964023 0.00201109 1.9389e-024)
(0.963595 0.00199867 1.97826e-024)
(0.963167 0.00198625 2.01735e-024)
(0.962737 0.00197388 2.05632e-024)
(0.962307 0.00196164 -1.47212e-024)
(0.961876 0.00194938 2.13104e-024)
(0.961443 0.00193713 2.16598e-024)
(0.961009 0.00192428 2.19609e-024)
(0.960573 0.00190931 2.21799e-024)
(0.960137 0.00189333 2.25169e-024)
(0.9597 0.00187904 -1.49911e-024)
(0.959261 0.00186591 2.34341e-024)
(0.95882 0.00185171 2.3739e-024)
(0.958378 0.00183527 2.40606e-024)
(0.957932 0.00181847 2.45836e-024)
(0.957489 0.00180519 2.49353e-024)
(0.957043 0.00179058 -1.52917e-024)
(0.956597 0.00177393 2.54171e-024)
(0.95615 0.00175695 2.5778e-024)
(0.955701 0.00174018 2.6127e-024)
(0.95525 0.00172351 2.64465e-024)
(0.954797 0.00170692 2.6758e-024)
(0.954342 0.00168923 -1.56523e-024)
(0.953885 0.00167079 2.73008e-024)
(0.953426 0.00165242 2.76746e-024)
(0.952965 0.00163427 2.80831e-024)
(0.952503 0.00161729 2.85759e-024)
(0.952039 0.00160132 2.90049e-024)
(0.951573 0.00158546 2.9355e-024)
(0.951106 0.00156818 -1.58821e-024)
(0.950637 0.00154849 2.98728e-024)
(0.950169 0.00152826 3.02554e-024)
(0.949698 0.00150982 3.07374e-024)
(0.949226 0.00149356 3.12034e-024)
(0.948751 0.00147862 3.1634e-024)
(0.948274 0.00146363 -1.60745e-024)
(0.947797 0.0014477 3.24637e-024)
(0.947319 0.00143264 3.29764e-024)
(0.946839 0.001422 3.36299e-024)
(0.946356 0.00141555 3.42034e-024)
(0.945869 0.00141064 3.46269e-024)
(0.945379 0.00140645 -1.59778e-024)
(0.944887 0.00140246 3.53378e-024)
(0.944393 0.0013981 3.56074e-024)
(0.943897 0.00139216 3.57966e-024)
(0.943401 0.0013848 3.60071e-024)
(0.942904 0.00137957 3.63932e-024)
(0.942405 0.00137851 -1.58965e-024)
(0.941903 0.00138124 3.71661e-024)
(0.941399 0.00138576 3.73407e-024)
(0.940891 0.0013903 3.73634e-024)
(0.940383 0.00139388 3.72899e-024)
(0.939873 0.00139393 3.70256e-024)
(0.939365 0.00139028 -1.59348e-024)
(0.93886 0.00138654 3.68151e-024)
(0.938355 0.00138385 3.68111e-024)
(0.937852 0.00138146 3.67686e-024)
(0.937352 0.00138086 3.68703e-024)
(0.936855 0.00138657 3.72371e-024)
(0.936358 0.00140088 3.75766e-024)
(0.935859 0.00142252 -1.4602e-024)
(0.935359 0.00144709 3.73895e-024)
(0.934859 0.00147034 3.68767e-024)
(0.934362 0.00149282 3.63667e-024)
(0.933867 0.0015169 3.58078e-024)
(0.933373 0.00154313 3.50683e-024)
(0.932881 0.00156933 -1.3897e-024)
(0.932392 0.00159603 3.29846e-024)
(0.931907 0.00162263 3.17648e-024)
(0.931428 0.00164531 3.03555e-024)
(0.930959 0.00166153 2.88048e-024)
(0.9305 0.00168188 2.79121e-024)
(0.930049 0.00171655 -1.21135e-024)
(0.929598 0.00176248 2.63043e-024)
(0.929152 0.00181536 2.50934e-024)
(0.92871 0.00187023 2.37339e-024)
(0.928273 0.00193244 2.21245e-024)
(0.927843 0.00201195 2.02042e-024)
(0.927419 0.0021109 -8.23056e-025)
(0.927008 0.00222632 1.58264e-024)
(0.92659 0.00235806 1.38107e-024)
(0.926225 0.00254827 9.32843e-025)
(0.925715 0.00278766 1.63688e-024)
(1.00001 0.000395798 -8.48125e-024)
(1.00017 0.00122088 0)
(1.00048 0.00195771 0)
(1.00083 0.00257603 0)
(1.00118 0.00308095 0)
(1.00151 0.00348671 0)
(1.00179 0.00380867 1.24166e-023)
(1.00202 0.00406344 0)
(1.00221 0.0042709 -2.16338e-023)
(1.00235 0.00444194 1.09553e-023)
(1.00245 0.00457748 -2.01837e-023)
(1.00251 0.00468098 -1.94013e-023)
(1.00253 0.00476126 9.58733e-024)
(1.00252 0.00482432 0)
(1.00248 0.00486638 8.77107e-024)
(1.00242 0.00489105 8.37561e-024)
(1.00233 0.00490541 7.99682e-024)
(1.00221 0.00490924 7.63541e-024)
(1.00208 0.00490593 7.29937e-024)
(1.00193 0.00489663 6.99071e-024)
(1.00176 0.00488123 6.69475e-024)
(1.00158 0.00485969 6.40933e-024)
(1.00139 0.00483284 0)
(1.00118 0.00480167 5.87957e-024)
(1.00097 0.00476677 5.63394e-024)
(1.00074 0.00472825 5.39781e-024)
(1.00051 0.00468614 5.16736e-024)
(1.00026 0.00464121 4.94307e-024)
(1.00001 0.00459457 4.73012e-024)
(0.999752 0.00454703 4.52925e-024)
(0.999485 0.00449895 0)
(0.999211 0.00445025 4.15922e-024)
(0.998931 0.00440074 3.98431e-024)
(0.998644 0.00435042 3.81499e-024)
(0.998351 0.00429943 3.65083e-024)
(0.998051 0.00424797 3.4915e-024)
(0.997745 0.00419615 3.33552e-024)
(0.997433 0.00414402 3.18556e-024)
(0.997116 0.00409202 3.04729e-024)
(0.996793 0.00404036 0)
(0.996464 0.0039891 2.7941e-024)
(0.996129 0.00393829 2.67827e-024)
(0.995788 0.00388793 2.56955e-024)