/*--------------------------------*- C++ -*----------------------------------*\
| =========                 |                                                 |
| \\      /  F ield         | OpenFOAM: The Open Source CFD Toolbox           |
|  \\    /   O peration     | Version:  5.x                                   |
|   \\  /    A nd           | Web:      www.OpenFOAM.org                      |
|    \\/     M anipulation  |                                                 |
\*---------------------------------------------------------------------------*/
/*   Windows 32 and 64 bit porting by blueCAPE: http://www.bluecape.com.pt   *\
|  Based on Windows porting (2.0.x v4) by Symscape: http://www.symscape.com   |
\*---------------------------------------------------------------------------*/
FoamFile
{
    version     2.0;
    format      ascii;
    class       volScalarField;
    location    "1668";
    object      yPlus;
}
// * * * * * * * * * * * * * * * * * * * * * * * * * * * * * * * * * * * * * //

dimensions      [0 0 0 0 0 0 0];

internalField   uniform 0;

boundaryField
{
    walls
    {
        type            calculated;
        value           nonuniform List<scalar> 
400
(
8.96146
8.63256
8.32372
8.03245
7.75736
7.49759
7.25259
7.02185
6.80491
6.60126
6.41031
6.23142
6.06397
5.90729
5.76066
5.62343
5.49495
5.37456
5.26167
5.15578
5.05642
4.9632
4.8758
4.79391
4.71719
4.64535
4.57814
4.51535
4.45679
4.40227
4.35161
4.30455
4.26094
4.2207
4.18367
4.1498
4.11901
4.09115
4.06604
4.0436
4.02376
4.00645
3.99175
3.97963
3.96995
3.96237
3.9565
3.95199
3.94867
3.94636
3.94499
3.94447
3.94479
3.94587
3.94769
3.95019
3.95333
3.95699
3.96111
3.96552
3.9701
3.97472
3.97936
3.98403
3.98884
3.99375
3.99878
4.00384
4.00895
4.01409
4.01932
4.02461
4.03001
4.03539
4.04075
4.04601
4.05124
4.05647
4.06184
4.06736
4.07314
4.07914
4.0854
4.09105
4.09574
4.09966
4.10302
4.10597
4.10865
4.11119
4.11367
4.11616
4.1187
4.12135
4.12412
4.12706
4.13016
4.13343
4.13686
4.14043
4.14414
4.14798
4.15194
4.156
4.16016
4.16441
4.16874
4.17316
4.17766
4.18222
4.18682
4.19144
4.19605
4.20061
4.20508
4.20943
4.21363
4.21769
4.2216
4.22538
4.22907
4.2327
4.23635
4.24005
4.24386
4.24784
4.25203
4.25642
4.26106
4.2659
4.27104
4.27656
4.28257
4.28918
4.29639
4.3042
4.3126
4.32152
4.33098
4.34104
4.35172
4.36303
4.37498
4.38756
4.40082
4.41476
4.42941
4.44475
4.46078
4.47748
4.49483
4.51281
4.53137
4.55047
4.57008
4.59015
4.61069
4.63173
4.65325
4.67521
4.69755
4.72022
4.74317
4.76637
4.78987
4.81366
4.83774
4.86204
4.88657
4.91139
4.93666
4.96233
4.98833
5.01455
5.04075
5.0668
5.09264
5.1181
5.14304
5.16734
5.19093
5.21383
5.23592
5.25705
5.27711
5.29592
5.31317
5.32849
5.34164
5.35217
5.35977
5.36437
5.36603
5.36313
5.35727
5.34909
5.33833
5.32503
5.30957
5.29247
8.87842
8.55495
8.24802
7.9573
7.68237
7.42281
7.17819
6.94806
6.73194
6.52927
6.33943
6.16175
5.99553
5.84007
5.69468
5.55871
5.43154
5.31265
5.20154
5.09776
5.00085
4.91043
4.82613
4.74762
4.67458
4.60666
4.54351
4.48485
4.43044
4.38002
4.33334
4.29018
4.2504
4.21386
4.18045
4.15004
4.12259
4.09786
4.0758
4.05625
4.03921
4.02462
4.01242
4.00248
3.99473
3.98888
3.98466
3.98162
3.97946
3.97796
3.97701
3.97652
3.9765
3.97693
3.97783
3.97918
3.98099
3.98321
3.98585
3.98885
3.99221
3.9959
3.99993
4.00425
4.0089
4.01382
4.01905
4.02455
4.02885
4.03202
4.03429
4.03587
4.03696
4.03775
4.03834
4.03885
4.0394
4.04003
4.0408
4.04173
4.04288
4.04424
4.04584
4.04768
4.04975
4.05205
4.05456
4.0573
4.06024
4.06338
4.06671
4.07024
4.07393
4.07778
4.08178
4.08591
4.09017
4.09453
4.09899
4.10355
4.10819
4.1129
4.11768
4.1225
4.12738
4.13229
4.13724
4.14221
4.14718
4.15216
4.15715
4.16215
4.16712
4.17207
4.17695
4.18178
4.18653
4.19117
4.1957
4.20013
4.20444
4.20865
4.21279
4.21686
4.22091
4.22496
4.22907
4.23325
4.23755
4.24204
4.24672
4.25159
4.25667
4.26191
4.26724
4.27267
4.27819
4.28375
4.28935
4.29497
4.30065
4.30642
4.31236
4.31851
4.32493
4.33169
4.33884
4.34646
4.35463
4.36339
4.37271
4.38262
4.39317
4.40441
4.41639
4.42912
4.44257
4.45671
4.47146
4.48674
4.50254
4.51887
4.53575
4.55315
4.57096
4.58906
4.60731
4.62554
4.64364
4.66149
4.67895
4.6959
4.71219
4.72764
4.7421
4.75545
4.76759
4.77852
4.78822
4.79667
4.80381
4.80962
4.8141
4.8173
4.81926
4.82
4.81954
4.81793
4.81519
4.81141
4.80639
4.79809
4.78841
4.77816
4.76796
4.7578
4.74761
4.73724
4.72691
4.7163
)
;
    }
    inlet
    {
        type            calculated;
        value           uniform 0;
    }
    outlet
    {
        type            calculated;
        value           uniform 0;
    }
    frontAndBack
    {
        type            empty;
    }
}


// ************************************************************************* //
