# vtk DataFile Version 2.0
track0
ASCII
DATASET POLYDATA
POINTS 11930 float
-0.0205 0.001 1e-005
-0.0203851 0.00100536 1.50241e-005
-0.0202701 0.00101047 1.96636e-005
-0.0201551 0.00101535 2.39713e-005
-0.0200401 0.00102 2.79426e-005
-0.0198624 0.00102682 3.35497e-005
-0.0196934 0.00103276 3.80969e-005
-0.0195243 0.00103809 4.16123e-005
-0.0193551 0.00104281 4.4105e-005
-0.019186 0.00104693 4.55843e-005
-0.0190172 0.00105043 4.60586e-005
-0.0187132 0.00105594 4.60586e-005
-0.0184093 0.00106081 4.60586e-005
-0.0181054 0.00106515 4.60586e-005
-0.0178014 0.00106897 4.60586e-005
-0.0174976 0.00107227 4.60586e-005
-0.0172058 0.00107514 4.60586e-005
-0.016914 0.00107793 4.60586e-005
-0.0166222 0.00108065 4.60586e-005
-0.0163305 0.00108331 4.60586e-005
-0.0160387 0.0010859 4.60586e-005
-0.0157586 0.0010883 4.60586e-005
-0.0154784 0.00109061 4.60586e-005
-0.0151983 0.00109285 4.60586e-005
-0.0149182 0.00109501 4.60586e-005
-0.0146381 0.00109708 4.60586e-005
-0.0143692 0.00109895 4.60586e-005
-0.0141002 0.00110073 4.60586e-005
-0.0138313 0.00110242 4.60586e-005
-0.0135624 0.00110404 4.60586e-005
-0.0132934 0.00110559 4.60586e-005
-0.0130353 0.001107 4.60586e-005
-0.0127771 0.00110835 4.60586e-005
-0.0125189 0.00110966 4.60586e-005
-0.0122607 0.00111094 4.60586e-005
-0.0120025 0.00111218 4.60586e-005
-0.0117547 0.00111333 4.60586e-005
-0.0115068 0.00111446 4.60586e-005
-0.0112589 0.00111557 4.60586e-005
-0.0110111 0.00111666 4.60586e-005
-0.0107632 0.00111774 4.60586e-005
-0.0105252 0.00111875 4.60586e-005
-0.0102873 0.00111975 4.60586e-005
-0.0100493 0.00112073 4.60586e-005
-0.00981133 0.00112171 4.60586e-005
-0.00957337 0.00112267 4.60586e-005
-0.00934491 0.00112358 4.60586e-005
-0.00911645 0.00112448 4.60586e-005
-0.00888799 0.00112536 4.60586e-005
-0.00865954 0.00112625 4.60586e-005
-0.00843108 0.00112712 4.60586e-005
-0.00821175 0.00112795 4.60586e-005
-0.00799242 0.00112877 4.60586e-005
-0.00777309 0.00112958 4.60586e-005
-0.00755376 0.00113039 4.60586e-005
-0.00733443 0.0011312 4.60586e-005
-0.00712387 0.00113197 4.60586e-005
-0.0069133 0.00113273 4.60586e-005
-0.00670273 0.00113349 4.60586e-005
-0.00649216 0.00113425 4.60586e-005
-0.0062816 0.001135 4.60586e-005
-0.00607944 0.00113572 4.60586e-005
-0.00587729 0.00113644 4.60586e-005
-0.00567514 0.00113716 4.60586e-005
-0.00547298 0.00113787 4.60586e-005
-0.00527083 0.00113859 4.60586e-005
-0.00507675 0.00113928 4.60586e-005
-0.00488267 0.00113996 4.60586e-005
-0.0046886 0.00114064 4.60586e-005
-0.00449452 0.00114132 4.60586e-005
-0.00430044 0.001142 4.60586e-005
-0.00411412 0.00114266 4.60586e-005
-0.0039278 0.00114331 4.60586e-005
-0.00374147 0.00114396 4.60586e-005
-0.00355515 0.00114462 4.60586e-005
-0.00336883 0.00114527 4.60586e-005
-0.00318995 0.0011459 4.60586e-005
-0.00301107 0.00114653 4.60586e-005
-0.00283219 0.00114716 4.60586e-005
-0.00265331 0.00114779 4.60586e-005
-0.00247443 0.00114842 4.60586e-005
-0.0023027 0.00114903 4.60586e-005
-0.00213097 0.00114964 4.60586e-005
-0.00195924 0.00115025 4.60586e-005
-0.0017875 0.00115086 4.60586e-005
-0.00161577 0.00115147 4.60586e-005
-0.0014509 0.00115207 4.60586e-005
-0.00128603 0.00115266 4.60586e-005
-0.00112116 0.00115325 4.60586e-005
-0.000956289 0.00115384 4.60586e-005
-0.000791418 0.00115444 4.60586e-005
-0.000633135 0.00115503 4.60586e-005
-0.000474851 0.00115562 4.60586e-005
-0.000316567 0.0011562 4.60586e-005
-0.000158284 0.00115679 4.60586e-005
0 0.00115739 4.60586e-005
0.000105677 0.0011578 4.60586e-005
0.000211355 0.00115821 4.60586e-005
0.000317032 0.00115861 4.60586e-005
0.00042271 0.00115902 4.60586e-005
0.000528387 0.00115943 4.60586e-005
0.000634886 0.00115986 4.60586e-005
0.000741385 0.00116028 4.60586e-005
0.000847885 0.00116071 4.60586e-005
0.000954384 0.00116114 4.60586e-005
0.00106088 0.00116158 4.60586e-005
0.00116821 0.00116203 4.60586e-005
0.00127554 0.00116248 4.60586e-005
0.00138286 0.00116293 4.60586e-005
0.00149019 0.00116339 4.60586e-005
0.00159752 0.00116385 4.60586e-005
0.00170568 0.00116433 4.60586e-005
0.00181384 0.0011648 4.60586e-005
0.001922 0.00116528 4.60586e-005
0.00203016 0.00116575 4.60586e-005
0.00213833 0.00116623 4.60586e-005
0.00224733 0.00116672 4.60586e-005
0.00235633 0.00116721 4.60586e-005
0.00246533 0.00116771 4.60586e-005
0.00257434 0.0011682 4.60586e-005
0.00268334 0.00116869 4.60586e-005
0.00279319 0.00116919 4.60586e-005
0.00290304 0.0011697 4.60586e-005
0.00301289 0.00117021 4.60586e-005
0.00312274 0.00117071 4.60586e-005
0.00323259 0.00117122 4.60586e-005
0.00334329 0.00117173 4.60586e-005
0.003454 0.00117224 4.60586e-005
0.0035647 0.00117277 4.60586e-005
0.0036754 0.00117329 4.60586e-005
0.00378611 0.00117381 4.60586e-005
0.00389767 0.00117432 4.60586e-005
0.00400924 0.00117484 4.60586e-005
0.0041208 0.00117538 4.60586e-005
0.00423237 0.00117591 4.60586e-005
0.00434393 0.00117644 4.60586e-005
0.00445636 0.00117695 4.60586e-005
0.00456879 0.00117748 4.60586e-005
0.00468123 0.00117802 4.60586e-005
0.00479366 0.00117856 4.60586e-005
0.00490609 0.0011791 4.60586e-005
0.0050194 0.00117961 4.60586e-005
0.0051327 0.00118015 4.60586e-005
0.00524601 0.00118069 4.60586e-005
0.00535931 0.00118124 4.60586e-005
0.00547262 0.00118178 4.60586e-005
0.00558681 0.00118229 4.60586e-005
0.005701 0.00118284 4.60586e-005
0.00581518 0.00118338 4.60586e-005
0.00592937 0.00118392 4.60586e-005
0.00604356 0.00118447 4.60586e-005
0.00615863 0.00118499 4.60586e-005
0.00627371 0.00118553 4.60586e-005
0.00638878 0.00118608 4.60586e-005
0.00650386 0.00118662 4.60586e-005
0.00661893 0.00118716 4.60586e-005
0.0067349 0.00118769 4.60586e-005
0.00685087 0.00118823 4.60586e-005
0.00696684 0.00118877 4.60586e-005
0.00708281 0.00118931 4.60586e-005
0.00719878 0.00118985 4.60586e-005
0.00731565 0.00119038 4.60586e-005
0.00743252 0.00119092 4.60586e-005
0.00754939 0.00119145 4.60586e-005
0.00766626 0.00119199 4.60586e-005
0.00778313 0.00119253 4.60586e-005
0.00790091 0.00119305 4.60586e-005
0.00801869 0.00119358 4.60586e-005
0.00813647 0.00119412 4.60586e-005
0.00825425 0.00119465 4.60586e-005
0.00837203 0.00119518 4.60586e-005
0.00849073 0.0011957 4.60586e-005
0.00860942 0.00119623 4.60586e-005
0.00872812 0.00119675 4.60586e-005
0.00884682 0.00119728 4.60586e-005
0.00896551 0.0011978 4.60586e-005
0.00908513 0.00119832 4.60586e-005
0.00920475 0.00119884 4.60586e-005
0.00932437 0.00119936 4.60586e-005
0.00944398 0.00119988 4.60586e-005
0.0095636 0.00120039 4.60586e-005
0.00968415 0.00120091 4.60586e-005
0.0098047 0.00120142 4.60586e-005
0.00992525 0.00120193 4.60586e-005
0.0100458 0.00120244 4.60586e-005
0.0101663 0.00120295 4.60586e-005
0.0102878 0.00120346 4.60586e-005
0.0104093 0.00120396 4.60586e-005
0.0105308 0.00120447 4.60586e-005
0.0106523 0.00120497 4.60586e-005
0.0107738 0.00120547 4.60586e-005
0.0108962 0.00120597 4.60586e-005
0.0110186 0.00120646 4.60586e-005
0.0111411 0.00120696 4.60586e-005
0.0112635 0.00120745 4.60586e-005
0.0113859 0.00120794 4.60586e-005
0.0115093 0.00120843 4.60586e-005
0.0116327 0.00120892 4.60586e-005
0.0117561 0.0012094 4.60586e-005
0.0118795 0.00120988 4.60586e-005
0.0120028 0.00121036 4.60586e-005
0.0121272 0.00121084 4.60586e-005
0.0122515 0.00121132 4.60586e-005
0.0123759 0.00121179 4.60586e-005
0.0125002 0.00121226 4.60586e-005
0.0126245 0.00121273 4.60586e-005
0.0127498 0.00121319 4.60586e-005
0.0128752 0.00121366 4.60586e-005
0.0130005 0.00121412 4.60586e-005
0.0131258 0.00121458 4.60586e-005
0.0132511 0.00121503 4.60586e-005
0.0133774 0.00121548 4.60586e-005
0.0135036 0.00121593 4.60586e-005
0.0136299 0.00121638 4.60586e-005
0.0137562 0.00121683 4.60586e-005
0.0138825 0.00121727 4.60586e-005
0.0140098 0.0012177 4.60586e-005
0.014137 0.00121814 4.60586e-005
0.0142643 0.00121857 4.60586e-005
0.0143915 0.001219 4.60586e-005
0.0145188 0.00121942 4.60586e-005
0.0146471 0.00121983 4.60586e-005
0.0147753 0.00122025 4.60586e-005
0.0149036 0.00122066 4.60586e-005
0.0150318 0.00122107 4.60586e-005
0.0151601 0.00122148 4.60586e-005
0.0152893 0.00122187 4.60586e-005
0.0154186 0.00122227 4.60586e-005
0.0155478 0.00122266 4.60586e-005
0.0156771 0.00122305 4.60586e-005
0.0158063 0.00122343 4.60586e-005
0.0159366 0.00122381 4.60586e-005
0.0160668 0.00122418 4.60586e-005
0.0161971 0.00122455 4.60586e-005
0.0163274 0.00122491 4.60586e-005
0.0164576 0.00122527 4.60586e-005
0.0165889 0.00122562 4.60586e-005
0.0167201 0.00122597 4.60586e-005
0.0168514 0.00122631 4.60586e-005
0.0169827 0.00122665 4.60586e-005
0.0171139 0.00122698 4.60586e-005
0.0172054 0.00122721 4.60586e-005
0.0172968 0.00122743 4.60586e-005
0.0173883 0.00122765 4.60586e-005
0.0174797 0.00122787 4.60586e-005
0.0175684 0.00122807 4.60586e-005
0.0176098 0.00122817 4.60586e-005
0.0176512 0.00122826 4.60586e-005
0.0176926 0.00122836 4.60586e-005
0.017734 0.00122845 4.60586e-005
0.0177754 0.00122854 4.60586e-005
0.0179087 0.00122884 4.60586e-005
0.018042 0.00122913 4.60586e-005
0.0181753 0.00122941 4.60586e-005
0.0183087 0.00122968 4.60586e-005
0.018442 0.00122995 4.60586e-005
0.0185763 0.00123021 4.60586e-005
0.0187107 0.00123046 4.60586e-005
0.018845 0.00123071 4.60586e-005
0.0189794 0.00123094 4.60586e-005
0.0191137 0.00123117 4.60586e-005
0.0192491 0.00123139 4.60586e-005
0.0193845 0.00123161 4.60586e-005
0.0195199 0.00123182 4.60586e-005
0.0196553 0.00123201 4.60586e-005
0.0197907 0.0012322 4.60586e-005
0.0199272 0.00123238 4.60586e-005
0.0200636 0.00123255 4.60586e-005
0.0202001 0.00123272 4.60586e-005
0.0203365 0.00123287 4.60586e-005
0.020473 0.00123302 4.60586e-005
0.0206105 0.00123315 4.60586e-005
0.020748 0.00123328 4.60586e-005
0.0208855 0.0012334 4.60586e-005
0.021023 0.00123351 4.60586e-005
0.0211606 0.00123361 4.60586e-005
0.0212991 0.00123369 4.60586e-005
0.0214377 0.00123377 4.60586e-005
0.0215763 0.00123384 4.60586e-005
0.0217149 0.0012339 4.60586e-005
0.0218535 0.00123395 4.60586e-005
0.0219931 0.00123399 4.60586e-005
0.0221328 0.00123401 4.60586e-005
0.0222724 0.00123403 4.60586e-005
0.0224121 0.00123404 4.60586e-005
0.0225517 0.00123403 4.60586e-005
0.0226925 0.00123402 4.60586e-005
[...]
POINT_DATA 11930
 FIELD attributes 2
p 1 11930 float
-1548.71 -1536.12 -1522.33 -1508.69 -1495.19 -1474.58 -1459.94 -1445.21 -1430.41 -1415.53 -1394.78 -1346.68 -1298.65 -1250.69 -1202.79 -1160.34 -1128.71 -1103.26 -1077.82 -1052.39 -1035.59 -1023.83 -1014.36 -1004.89 -995.425 -987.81 -981.044 -973.13 -965.217 -957.303 -948.252 -939.778 -931.114 -922.445 -913.794 -905.369 -897.371 -890.16 -883.04 -876.074 -870.028 -864.233 -859.019 -853.927 -848.991 -844.655 -840.487 -836.544 -832.67 -828.885 -825.349 -821.947 -818.673 -815.451 -812.301 -809.306 -806.418 -803.653 -800.952 -798.331 -795.849 -793.443 -791.147 -788.922 -786.777 -784.749 -782.769 -780.87 -779.034 -777.269 -775.59 -773.93 -772.331 -770.789 -769.313 -767.904 -766.483 -765.11 -763.789 -762.532 -761.331 -760.09 -758.893 -757.751 -756.681 -755.664 -754.577 -753.52 -752.506 -751.568 -750.677 -749.693 -748.759 -747.914 -747.191 -746.534 -745.792 -745.114 -744.552 -744.131 -743.795 -743.279 -742.805 -742.392 -742.077 -741.837 -741.407 -741.086 -740.885 -740.805 -740.841 -740.687 -740.623 -740.64 -740.722 -740.884 -740.996 -741.096 -741.188 -741.271 -741.339 -741.611 -741.776 -741.88 -741.924 -741.854 -742.235 -742.442 -742.57 -742.614 -742.455 -742.914 -743.149 -743.305 -743.374 -743.164 -743.653 -743.874 -744.024 -744.1 -743.849 -744.3 -744.469 -744.586 -744.651 -744.384 -744.761 -744.886 -744.981 -745.05 -744.818 -745.122 -745.223 -745.313 -745.395 -745.231 -745.462 -745.542 -745.621 -745.701 -745.606 -745.76 -745.822 -745.883 -745.945 -745.91 -746.003 -746.056 -746.108 -746.16 -746.177 -746.237 -746.291 -746.345 -746.4 -746.457 -746.504 -746.562 -746.621 -746.679 -746.761 -746.808 -746.871 -746.934 -746.996 -747.089 -747.149 -747.218 -747.287 -747.356 -747.45 -747.532 -747.61 -747.689 -747.768 -747.86 -747.968 -748.06 -748.153 -748.245 -748.335 -748.471 -748.578 -748.685 -748.792 -748.881 -749.041 -749.162 -749.282 -749.402 -749.493 -749.671 -749.803 -749.935 -750.067 -750.163 -750.355 -750.499 -750.643 -750.787 -750.893 -751.094 -751.25 -751.407 -751.563 -751.685 -751.891 -752.06 -752.228 -752.397 -752.537 -752.748 -752.931 -753.114 -753.297 -753.462 -753.678 -753.878 -754.077 -754.277 -754.469 -754.622 -754.77 -754.917 -755.065 -755.208 -755.274 -755.341 -755.408 -755.474 -755.552 -755.767 -755.992 -756.217 -756.442 -756.712 -756.91 -757.147 -757.385 -757.623 -757.936 -758.122 -758.373 -758.623 -758.874 -759.225 -759.404 -759.667 -759.93 -760.193 -760.572 -760.752 -761.027 -761.301 -761.576 -761.976 -762.164 -762.45 -762.736 -763.022 -763.433 -763.637 -763.934 -764.23 -764.527 -764.939 -765.167 -765.474 -765.78 -766.086 -766.489 -766.747 -767.063 -767.378 -767.694 -768.081 -768.374 -768.698 -769.022 -769.347 -769.712 -770.041 -770.374 -770.706 -771.039 -771.38 -771.748 -772.089 -772.43 -772.771 -773.087 -773.493 -773.845 -774.194 -774.537 -774.831 -775.266 -775.635 -775.991 -776.331 -776.608 -777.063 -777.452 -777.816 -778.149 -778.416 -778.885 -779.294 -779.666 -779.992 -780.258 -780.736 -781.165 -781.546 -781.867 -782.136 -782.622 -783.07 -783.459 -783.774 -784.048 -784.538 -785.002 -785.397 -785.704 -785.984 -786.473 -786.948 -787.346 -787.647 -787.934 -788.417 -788.897 -789.295 -789.593 -789.89 -790.364 -790.838 -791.232 -791.541 -791.85 -792.313 -792.777 -793.171 -793.492 -793.813 -794.265 -794.716 -795.11 -795.442 -795.775 -796.214 -796.653 -797.044 -797.387 -797.731 -798.156 -798.581 -798.97 -799.323 -799.675 -800.087 -800.498 -800.884 -801.244 -801.603 -802.001 -802.399 -802.78 -803.145 -803.51 -803.894 -804.278 -804.654 -805.023 -805.391 -805.761 -806.131 -806.502 -806.87 -807.238 -807.596 -807.954 -808.317 -808.682 -809.048 -809.392 -809.741 -810.095 -810.453 -810.814 -811.145 -811.484 -811.828 -812.176 -812.529 -812.846 -813.174 -813.507 -813.841 -814.184 -814.487 -814.804 -815.123 -815.443 -815.773 -816.06 -816.363 -816.666 -816.969 -817.282 -817.553 -817.838 -818.123 -818.409 -818.703 -818.956 -819.222 -819.488 -819.754 -820.029 -820.263 -820.508 -820.753 -820.999 -821.25 -821.465 -821.687 -821.91 -822.132 -822.358 -822.552 -822.749 -822.947 -823.144 -823.342 -823.348 -823.353 -823.359 -823.365 -823.37 -823.536 -823.701 -823.866 -824.032 -824.196 -824.339 -824.479 -824.619 -824.76 -824.896 -825.01 -825.117 -825.225 -825.332 -825.433 -825.516 -825.588 -825.66 -825.733 -825.795 -825.845 -825.879 -825.914 -825.948 -825.968 -825.983 -825.977 -825.97 -825.962 -825.937 -825.911 -825.867 -825.817 -825.761 -825.692 -825.622 -825.538 -825.443 -825.337 -825.221 -825.105 -824.98 -824.837 -824.678 -824.513 -824.348 -824.18 -823.988 -823.772 -823.555 -823.34 -823.124 -822.879 -822.609 -822.338 -822.069 -821.8 -821.502 -821.176 -820.85 -820.526 -820.201 -819.848 -819.464 -819.081 -818.698 -818.316 -817.906 -817.462 -817.019 -816.577 -816.133 -815.66 -815.16 -814.655 -814.152 -813.637 -813.102 -812.548 -811.979 -811.412 -810.825 -810.225 -809.615 -808.981 -808.348 -807.686 -807.019 -806.352 -805.651 -804.946 -804.21 -803.474 -802.739 -801.979 -801.195 -800.389 -799.582 -798.776 -797.957 -797.09 -796.211 -795.332 -794.454 -793.573 -793.351 -793.127 -792.903 -792.68 -792.459 -791.733 -791.007 -790.281 -789.556 -788.819 -787.806 -786.782 -785.758 -784.734 -783.684 -782.609 -781.507 -780.405 -779.304 -778.158 -777.021 -775.839 -774.658 -773.469 -772.233 -771.017 -769.769 -768.506 -767.216 -765.897 -764.599 -763.285 -761.939 -760.546 -759.142 -757.758 -756.376 -754.94 -753.449 -751.958 -750.488 -749.018 -747.495 -745.915 -744.336 -742.778 -741.221 -739.606 -737.937 -736.268 -734.62 -732.961 -731.251 -729.505 -727.744 -726.006 -724.232 -722.428 -720.612 -718.758 -716.926 -715.034 -713.136 -711.239 -709.3 -707.353 -705.36 -703.367 -701.374 -699.362 -697.727 -696.071 -694.415 -692.76 -691.189 -690.741 -690.293 -689.844 -689.396 -688.942 -686.772 -684.597 -682.423 -680.249 -678.041 -675.798 -673.525 -671.253 -668.981 -666.643 -664.318 -661.956 -659.585 -657.184 -654.745 -652.321 -649.887 -647.417 -644.884 -642.345 -639.821 -637.298 -634.718 -632.079 -629.44 -626.817 -624.194 -621.509 -618.771 -616.032 -613.309 -610.559 -607.768 -604.96 -602.122 -599.301 -596.416 -593.526 -590.636 -587.714 -584.764 -581.775 -578.787 -575.799 -572.81 -572.678 -572.543 -572.409 -572.275 -572.141 -569.197 -566.254 -563.311 -560.369 -557.401 -554.246 -551.075 -547.904 -544.731 -541.511 -538.272 -535.017 -531.753 -528.461 -525.149 -521.818 -518.488 -515.128 -511.727 -508.326 -504.905 -501.485 -498.027 -494.54 -491.052 -487.544 -484.022 -480.471 -476.913 -473.341 -469.749 -466.118 -462.484 -458.851 -455.207 -452.616 -450.008 -447.4 -444.793 -442.287 -441.164 -440.04 -438.917 -437.794 -436.662 -432.883 -429.1 -425.317 -421.535 -417.717 -413.878 -410.023 -406.167 -402.294 -398.397 -394.486 -390.575 -386.646 -382.683 -378.718 -374.74 -370.761 -366.754 -362.728 -358.7 -354.657 -350.601 -346.525 -342.447 -338.359 -334.253 -330.119 -325.985 -321.852 -317.716 -316.404 -315.086 -313.768 -312.45 -311.152 -308.28 -305.409 -302.537 -299.666 -296.779 -292.548 -288.312 -284.077 -279.838 -275.573 -271.296 -267.018 -262.736 -258.432 -254.122 -249.801 -245.48 -241.143 -236.795 -232.446 -228.084 -223.715 -219.332 -214.949 -210.563 -206.163 -201.745 -197.327 -192.911 -188.493 -187.546 -186.597 -185.648 -184.699 -183.76 -180.258 -176.756 -173.255 -169.755 -166.241 -161.764 -157.287 -152.812 -148.33 -143.836 -139.333 -134.83 -130.329 -125.815 -121.299 -116.773 -112.249 -107.711 -103.177 -98.6408 -94.0946 -89.5423 -84.9878 -80.4338 -75.8825 -73.2218 -70.5591 -67.8965 -65.2342 -62.6369 -60.7197 -58.8026 -56.8856 -54.9687 -53.0486 -48.4676 -43.8903 -39.3134 -34.7356 -30.1486 -25.5555 -20.9651 -16.3808 -11.7904 -7.19794 -2.59886 1.99966 6.60036 11.1921 15.7859 20.3868 24.988 29.5891 34.1897 38.7848 41.2364 43.6874 46.1383 48.589 50.989 53.1501 55.3111 57.472 59.6328 61.7947 66.4022 71.0025 75.6025 80.2018 84.8026 89.4075 94.0114 98.6029 103.192 107.783 112.378 116.972 121.562 126.143 130.722 135.305 139.881 144.457 149.032 153.607 154.235 154.862 155.488 156.115 156.739 160.682 164.624 168.566 172.508 176.446 181.012 185.568 190.119 194.665 199.21 203.756 208.302 212.838 217.359 221.882 226.407 230.924 235.436 239.948 244.452 246.473 248.488 250.504 252.519 254.504 256.989 259.474 261.959 264.443 266.923 271.408 275.881 280.354 284.82 289.282 293.741 298.2 302.643 307.073 311.504 315.933 320.354 324.767 329.179 333.58 335.779 337.969 340.158 342.348 344.504 346.708 348.912 351.116 353.32 355.516 359.888 364.248 368.608 372.958 377.303 381.641 385.979 390.3 394.605 398.912 403.213 407.501 411.781 416.061 420.335 421.679 423.018 424.355 425.693 427.018 429.935 432.852 435.769 438.684 441.589 445.818 450.037 454.253 458.452 462.649 466.835 471.021 475.188 479.341 483.493 487.305 491.098 494.889 498.68 502.386 502.732 503.078 503.424 503.77 504.115 508.207 512.298 516.388 520.473 524.543 528.597 532.651 536.687 540.704 544.724 548.727 552.718 556.697 560.675 564.645 565.9 567.148 568.394 569.64 570.879 573.574 576.268 578.963 581.654 584.331 588.237 592.135 596.025 599.887 603.75 607.596 611.437 615.253 619.067 622.868 624.712 626.544 628.373 630.201 632.02 633.96 635.899 637.839 639.775 641.699 645.431 649.147 652.859 656.543 660.222 663.883 667.541 671.163 674.777 678.375 680.266 682.146 684.022 685.898 687.783 689.468 691.152 692.837 694.519 696.19 699.72 703.206 706.682 710.084 713.469 716.834 720.211 723.72 727.251 730.819 732.749 734.319 735.774 737.229 738.722 740.138 741.555 742.971 744.301 745.336 747.583 750.619 753.738 758.171 762.972 767.656 771.932 774.4 776.871 778.809 779.056 779.358 779.746 780.133 780.524 782.263 784.002 785.743 787.949 790.456 793.437 796.417 799.254 802.081 804.847 805.516 806.172 806.802 807.433 808.077 810.185 812.292 814.398 816.437 818.433 821.074 823.714 826.264 828.782 831.257 831.971 832.669 833.337 834.004 834.697 836.457 838.214 839.97 841.659 843.305 845.611 847.913 850.064 852.108 854.116 854.862 855.575 856.233 856.889 857.591 858.798 860.002 861.204 862.327 863.39 865.057 866.717 868.174 869.425 870.666 871.372 871.987 872.495 873 873.574 873.985 874.395 874.804 875.158 875.451 876.117 876.654 877.105 877.197 877.279 877.227 876.983 876.492 875.994 875.388 875.252 875.068 874.857 874.645 874.424 873.525 872.614 871.691 870.637 869.305 867.515 865.712 863.466 860.808 858.138 855.209 851.899 848.32 844.734 840.961 839.988 838.886 837.763 836.64 835.433 831.902 828.359 824.807 821.204 817.169 811.517 805.556 799.333 792.373 785.3 777.756 770.201 762.073 753.455 744.781 735.584 725.222 714.557 703.889 692.711 687.938 683.155 678.371 673.586 668.141 660.751 653.356 645.957 638.555 631.109 617.265 601.561 585.824 569.143 549.814 529.512 509.811 492.25 478.261 464.347 449.684 435.022 407.561 367.769 327.944 286.324 253.429 237.019 228.371 231.276 233.991 177.38 120.004 62.3347 0