# vtk DataFile Version 2.0
track0
ASCII
DATASET POLYDATA
POINTS 11930 float
-0.0205 0.001 1e-005
-0.0203851 0.00100536 1.50232e-005
-0.0202701 0.00101047 1.9662e-005
-0.0201552 0.00101536 2.39691e-005
-0.0200402 0.00102001 2.79398e-005
-0.0198627 0.00102682 3.35412e-005
-0.0196936 0.00103277 3.80911e-005
-0.0195244 0.00103811 4.16084e-005
-0.0193552 0.00104284 4.41024e-005
-0.019186 0.00104696 4.55821e-005
-0.0190172 0.00105047 4.60561e-005
-0.0187132 0.001056 4.60561e-005
-0.0184093 0.00106089 4.60561e-005
-0.0181054 0.00106526 4.60561e-005
-0.0178014 0.00106912 4.60561e-005
-0.0174976 0.00107245 4.60561e-005
-0.0172058 0.00107537 4.60561e-005
-0.016914 0.0010782 4.60561e-005
-0.0166222 0.00108096 4.60561e-005
-0.0163305 0.00108366 4.60561e-005
-0.0160387 0.0010863 4.60561e-005
-0.0157586 0.00108873 4.60561e-005
-0.0154784 0.00109109 4.60561e-005
-0.0151983 0.00109336 4.60561e-005
-0.0149182 0.00109555 4.60561e-005
-0.0146381 0.00109764 4.60561e-005
-0.0143692 0.00109954 4.60561e-005
-0.0141002 0.00110134 4.60561e-005
-0.0138313 0.00110305 4.60561e-005
-0.0135624 0.00110469 4.60561e-005
-0.0132934 0.00110626 4.60561e-005
-0.0130353 0.00110769 4.60561e-005
-0.0127771 0.00110906 4.60561e-005
-0.0125189 0.0011104 4.60561e-005
-0.0122607 0.0011117 4.60561e-005
-0.0120025 0.00111297 4.60561e-005
-0.0117547 0.00111416 4.60561e-005
-0.0115068 0.00111533 4.60561e-005
-0.0112589 0.00111648 4.60561e-005
-0.0110111 0.00111762 4.60561e-005
-0.0107632 0.00111874 4.60561e-005
-0.0105252 0.00111981 4.60561e-005
-0.0102873 0.00112086 4.60561e-005
-0.0100493 0.00112189 4.60561e-005
-0.00981133 0.00112292 4.60561e-005
-0.00957337 0.00112394 4.60561e-005
-0.00934491 0.00112492 4.60561e-005
-0.00911645 0.00112587 4.60561e-005
-0.00888799 0.00112682 4.60561e-005
-0.00865954 0.00112777 4.60561e-005
-0.00843108 0.00112871 4.60561e-005
-0.00821175 0.00112961 4.60561e-005
-0.00799242 0.0011305 4.60561e-005
-0.00777309 0.00113138 4.60561e-005
-0.00755376 0.00113226 4.60561e-005
-0.00733443 0.00113314 4.60561e-005
-0.00712387 0.00113398 4.60561e-005
-0.0069133 0.00113481 4.60561e-005
-0.00670273 0.00113565 4.60561e-005
-0.00649216 0.00113648 4.60561e-005
-0.0062816 0.00113731 4.60561e-005
-0.00607944 0.00113811 4.60561e-005
-0.00587729 0.0011389 4.60561e-005
-0.00567514 0.00113969 4.60561e-005
-0.00547298 0.00114048 4.60561e-005
-0.00527083 0.00114127 4.60561e-005
-0.00507675 0.00114204 4.60561e-005
-0.00488267 0.00114279 4.60561e-005
-0.0046886 0.00114354 4.60561e-005
-0.00449452 0.0011443 4.60561e-005
-0.00430044 0.00114505 4.60561e-005
-0.00411412 0.00114578 4.60561e-005
-0.0039278 0.0011465 4.60561e-005
-0.00374147 0.00114722 4.60561e-005
-0.00355515 0.00114794 4.60561e-005
-0.00336883 0.00114866 4.60561e-005
-0.00318995 0.00114936 4.60561e-005
-0.00301107 0.00115005 4.60561e-005
-0.00283219 0.00115073 4.60561e-005
-0.00265331 0.00115142 4.60561e-005
-0.00247443 0.00115211 4.60561e-005
-0.0023027 0.00115278 4.60561e-005
-0.00213097 0.00115344 4.60561e-005
-0.00195924 0.0011541 4.60561e-005
-0.0017875 0.00115476 4.60561e-005
-0.00161577 0.00115542 4.60561e-005
-0.0014509 0.00115607 4.60561e-005
-0.00128603 0.0011567 4.60561e-005
-0.00112116 0.00115733 4.60561e-005
-0.000956289 0.00115796 4.60561e-005
-0.000791418 0.00115861 4.60561e-005
-0.000633135 0.00115924 4.60561e-005
-0.000474851 0.00115986 4.60561e-005
-0.000316567 0.00116047 4.60561e-005
-0.000158284 0.00116109 4.60561e-005
0 0.00116172 4.60561e-005
0.000105677 0.00116216 4.60561e-005
0.000211355 0.00116258 4.60561e-005
0.000317032 0.00116301 4.60561e-005
0.00042271 0.00116343 4.60561e-005
0.000528387 0.00116387 4.60561e-005
0.000634886 0.00116432 4.60561e-005
0.000741385 0.00116476 4.60561e-005
0.000847885 0.00116521 4.60561e-005
0.000954384 0.00116565 4.60561e-005
0.00106088 0.00116611 4.60561e-005
0.00116821 0.00116658 4.60561e-005
0.00127554 0.00116705 4.60561e-005
0.00138286 0.00116752 4.60561e-005
0.00149019 0.00116799 4.60561e-005
0.00159752 0.00116846 4.60561e-005
0.00170568 0.00116896 4.60561e-005
0.00181384 0.00116945 4.60561e-005
0.001922 0.00116993 4.60561e-005
0.00203016 0.00117042 4.60561e-005
0.00213833 0.00117091 4.60561e-005
0.00224733 0.00117142 4.60561e-005
0.00235633 0.00117192 4.60561e-005
0.00246533 0.00117243 4.60561e-005
0.00257434 0.00117293 4.60561e-005
0.00268334 0.00117343 4.60561e-005
0.00279319 0.00117394 4.60561e-005
0.00290304 0.00117445 4.60561e-005
0.00301289 0.00117497 4.60561e-005
0.00312274 0.00117548 4.60561e-005
0.00323259 0.001176 4.60561e-005
0.00334329 0.00117651 4.60561e-005
0.003454 0.00117703 4.60561e-005
0.0035647 0.00117756 4.60561e-005
0.0036754 0.00117808 4.60561e-005
0.00378611 0.0011786 4.60561e-005
0.00389767 0.00117912 4.60561e-005
0.00400924 0.00117965 4.60561e-005
0.0041208 0.00118019 4.60561e-005
0.00423237 0.00118072 4.60561e-005
0.00434393 0.00118125 4.60561e-005
0.00445636 0.00118177 4.60561e-005
0.00456879 0.0011823 4.60561e-005
0.00468123 0.00118284 4.60561e-005
0.00479366 0.00118338 4.60561e-005
0.00490609 0.00118392 4.60561e-005
0.0050194 0.00118443 4.60561e-005
0.0051327 0.00118497 4.60561e-005
0.00524601 0.00118551 4.60561e-005
0.00535931 0.00118606 4.60561e-005
0.00547262 0.00118659 4.60561e-005
0.00558681 0.00118711 4.60561e-005
0.005701 0.00118765 4.60561e-005
0.00581518 0.0011882 4.60561e-005
0.00592937 0.00118874 4.60561e-005
0.00604356 0.00118928 4.60561e-005
0.00615863 0.0011898 4.60561e-005
0.00627371 0.00119034 4.60561e-005
0.00638878 0.00119088 4.60561e-005
0.00650386 0.00119142 4.60561e-005
0.00661893 0.00119196 4.60561e-005
0.0067349 0.00119249 4.60561e-005
0.00685087 0.00119303 4.60561e-005
0.00696684 0.00119357 4.60561e-005
0.00708281 0.0011941 4.60561e-005
0.00719878 0.00119464 4.60561e-005
0.00731565 0.00119516 4.60561e-005
0.00743252 0.0011957 4.60561e-005
0.00754939 0.00119623 4.60561e-005
0.00766626 0.00119677 4.60561e-005
0.00778313 0.0011973 4.60561e-005
0.00790091 0.00119782 4.60561e-005
0.00801869 0.00119835 4.60561e-005
0.00813647 0.00119888 4.60561e-005
0.00825425 0.00119941 4.60561e-005
0.00837203 0.00119994 4.60561e-005
0.00849073 0.00120046 4.60561e-005
0.00860942 0.00120098 4.60561e-005
0.00872812 0.0012015 4.60561e-005
0.00884682 0.00120203 4.60561e-005
0.00896551 0.00120255 4.60561e-005
0.00908513 0.00120306 4.60561e-005
0.00920475 0.00120358 4.60561e-005
0.00932437 0.0012041 4.60561e-005
0.00944398 0.00120461 4.60561e-005
0.0095636 0.00120512 4.60561e-005
0.00968415 0.00120563 4.60561e-005
0.0098047 0.00120614 4.60561e-005
0.00992525 0.00120665 4.60561e-005
0.0100458 0.00120716 4.60561e-005
0.0101663 0.00120766 4.60561e-005
0.0102878 0.00120816 4.60561e-005
0.0104093 0.00120867 4.60561e-005
0.0105308 0.00120917 4.60561e-005
0.0106523 0.00120967 4.60561e-005
0.0107738 0.00121016 4.60561e-005
0.0108962 0.00121065 4.60561e-005
0.0110186 0.00121115 4.60561e-005
0.0111411 0.00121164 4.60561e-005
0.0112635 0.00121213 4.60561e-005
0.0113859 0.00121261 4.60561e-005
0.0115093 0.0012131 4.60561e-005
0.0116327 0.00121358 4.60561e-005
0.0117561 0.00121406 4.60561e-005
0.0118795 0.00121454 4.60561e-005
0.0120028 0.00121502 4.60561e-005
0.0121272 0.00121549 4.60561e-005
0.0122515 0.00121596 4.60561e-005
0.0123759 0.00121644 4.60561e-005
0.0125002 0.0012169 4.60561e-005
0.0126245 0.00121737 4.60561e-005
0.0127498 0.00121783 4.60561e-005
0.0128752 0.00121829 4.60561e-005
0.0130005 0.00121875 4.60561e-005
0.0131258 0.00121921 4.60561e-005
0.0132511 0.00121966 4.60561e-005
0.0133774 0.00122011 4.60561e-005
0.0135036 0.00122056 4.60561e-005
0.0136299 0.00122101 4.60561e-005
0.0137562 0.00122145 4.60561e-005
0.0138825 0.00122189 4.60561e-005
0.0140098 0.00122232 4.60561e-005
0.014137 0.00122276 4.60561e-005
0.0142643 0.00122319 4.60561e-005
0.0143915 0.00122362 4.60561e-005
0.0145188 0.00122405 4.60561e-005
0.0146471 0.00122446 4.60561e-005
0.0147753 0.00122489 4.60561e-005
0.0149036 0.0012253 4.60561e-005
0.0150318 0.00122572 4.60561e-005
0.0151601 0.00122613 4.60561e-005
0.0152893 0.00122653 4.60561e-005
0.0154186 0.00122693 4.60561e-005
0.0155478 0.00122733 4.60561e-005
0.0156771 0.00122773 4.60561e-005
0.0158063 0.00122812 4.60561e-005
0.0159366 0.0012285 4.60561e-005
0.0160668 0.00122889 4.60561e-005
0.0161971 0.00122927 4.60561e-005
0.0163274 0.00122964 4.60561e-005
0.0164576 0.00123001 4.60561e-005
0.0165889 0.00123038 4.60561e-005
0.0167201 0.00123074 4.60561e-005
0.0168514 0.0012311 4.60561e-005
0.0169827 0.00123145 4.60561e-005
0.0171139 0.0012318 4.60561e-005
0.0172462 0.00123214 4.60561e-005
0.0173785 0.00123248 4.60561e-005
0.0175108 0.00123281 4.60561e-005
0.0176431 0.00123314 4.60561e-005
0.0177754 0.00123346 4.60561e-005
0.0178418 0.00123362 4.60561e-005
0.0179082 0.00123377 4.60561e-005
0.0179745 0.00123393 4.60561e-005
0.0180409 0.00123408 4.60561e-005
0.018106 0.00123423 4.60561e-005
0.0181732 0.00123438 4.60561e-005
0.0182404 0.00123453 4.60561e-005
0.0183076 0.00123468 4.60561e-005
0.0183748 0.00123483 4.60561e-005
0.018442 0.00123498 4.60561e-005
0.0185763 0.00123526 4.60561e-005
0.0187107 0.00123554 4.60561e-005
0.018845 0.00123582 4.60561e-005
0.0189794 0.00123608 4.60561e-005
0.0191137 0.00123634 4.60561e-005
0.0192491 0.0012366 4.60561e-005
0.0193845 0.00123684 4.60561e-005
0.0195199 0.00123708 4.60561e-005
0.0196553 0.00123731 4.60561e-005
0.0197907 0.00123754 4.60561e-005
0.0199272 0.00123775 4.60561e-005
0.0200636 0.00123796 4.60561e-005
0.0202001 0.00123816 4.60561e-005
0.0203365 0.00123835 4.60561e-005
0.020473 0.00123853 4.60561e-005
0.0206105 0.0012387 4.60561e-005
0.020748 0.00123887 4.60561e-005
0.0208855 0.00123902 4.60561e-005
0.021023 0.00123917 4.60561e-005
0.0211606 0.00123931 4.60561e-005
0.0212991 0.00123944 4.60561e-005
0.0214377 0.00123956 4.60561e-005
0.0215763 0.00123966 4.60561e-005
0.0217149 0.00123976 4.60561e-005
0.0218535 0.00123985 4.60561e-005
0.0219931 0.00123993 4.60561e-005
0.0221328 0.00124 4.60561e-005
0.0222724 0.00124006 4.60561e-005
0.0224121 0.0012401 4.60561e-005
0.0225517 0.00124014 4.60561e-005
0.0226925 0.00124017 4.60561e-005
[...]
POINT_DATA 11930
 FIELD attributes 2
p 1 11930 float
-1544.9 -1532.27 -1518.42 -1504.72 -1491.16 -1470.49 -1455.77 -1440.98 -1426.11 -1411.16 -1390.3 -1342.1 -1294.03 -1246.02 -1198.08 -1155.71 -1124.26 -1099.07 -1073.89 -1048.71 -1032.21 -1020.65 -1011.26 -1001.87 -992.483 -984.791 -977.883 -969.899 -961.915 -953.931 -944.911 -936.396 -927.826 -919.255 -910.713 -902.504 -894.602 -887.532 -880.57 -873.783 -867.953 -862.259 -857.135 -852.142 -847.319 -843.097 -838.957 -835.037 -831.193 -827.453 -823.977 -820.579 -817.306 -814.09 -810.96 -807.998 -805.112 -802.347 -799.653 -797.054 -794.6 -792.215 -789.934 -787.728 -785.614 -783.615 -781.672 -779.803 -777.999 -776.271 -774.622 -773.011 -771.453 -769.952 -768.516 -767.135 -765.771 -764.444 -763.165 -761.945 -760.765 -759.578 -758.425 -757.324 -756.285 -755.285 -754.248 -753.232 -752.255 -751.343 -750.462 -749.517 -748.614 -747.806 -747.116 -746.476 -745.774 -745.122 -744.587 -744.189 -743.856 -743.362 -742.901 -742.501 -742.196 -741.949 -741.524 -741.188 -740.978 -740.892 -740.902 -740.729 -740.629 -740.612 -740.666 -740.79 -740.866 -740.932 -740.989 -741.038 -741.078 -741.316 -741.464 -741.545 -741.56 -741.477 -741.829 -742.028 -742.136 -742.147 -741.978 -742.406 -742.634 -742.768 -742.798 -742.581 -743.035 -743.251 -743.381 -743.417 -743.163 -743.579 -743.745 -743.841 -743.868 -743.598 -743.941 -744.06 -744.134 -744.166 -743.934 -744.204 -744.298 -744.369 -744.42 -744.258 -744.46 -744.533 -744.598 -744.658 -744.565 -744.699 -744.751 -744.803 -744.855 -744.823 -744.899 -744.945 -744.991 -745.037 -745.06 -745.107 -745.158 -745.209 -745.26 -745.326 -745.363 -745.42 -745.477 -745.534 -745.625 -745.665 -745.726 -745.788 -745.85 -745.949 -746.003 -746.07 -746.138 -746.205 -746.303 -746.38 -746.456 -746.531 -746.607 -746.699 -746.804 -746.892 -746.98 -747.069 -747.155 -747.289 -747.392 -747.494 -747.596 -747.679 -747.839 -747.955 -748.07 -748.185 -748.268 -748.448 -748.576 -748.704 -748.831 -748.918 -749.114 -749.255 -749.396 -749.537 -749.633 -749.842 -749.998 -750.154 -750.31 -750.423 -750.641 -750.813 -750.985 -751.157 -751.293 -751.519 -751.708 -751.898 -752.087 -752.249 -752.481 -752.689 -752.896 -753.103 -753.294 -753.53 -753.753 -753.976 -754.199 -754.416 -754.539 -754.657 -754.776 -754.894 -755.011 -755.13 -755.25 -755.37 -755.49 -755.627 -755.867 -756.122 -756.376 -756.631 -756.936 -757.165 -757.437 -757.709 -757.981 -758.329 -758.553 -758.841 -759.129 -759.417 -759.802 -760.027 -760.33 -760.633 -760.936 -761.348 -761.58 -761.897 -762.214 -762.531 -762.96 -763.207 -763.536 -763.866 -764.195 -764.632 -764.899 -765.239 -765.579 -765.919 -766.353 -766.646 -766.995 -767.344 -767.693 -768.114 -768.437 -768.793 -769.149 -769.505 -769.907 -770.261 -770.622 -770.984 -771.345 -771.72 -772.107 -772.472 -772.837 -773.202 -773.546 -773.966 -774.333 -774.701 -775.066 -775.38 -775.825 -776.2 -776.57 -776.928 -777.219 -777.68 -778.068 -778.439 -778.786 -779.06 -779.532 -779.933 -780.305 -780.639 -780.904 -781.381 -781.798 -782.172 -782.493 -782.753 -783.235 -783.668 -784.045 -784.353 -784.611 -785.095 -785.543 -785.921 -786.215 -786.47 -786.953 -787.412 -787.789 -788.067 -788.321 -788.795 -789.26 -789.634 -789.899 -790.156 -790.619 -791.081 -791.449 -791.714 -791.98 -792.429 -792.877 -793.243 -793.519 -793.796 -794.23 -794.664 -795.028 -795.318 -795.607 -796.026 -796.446 -796.808 -797.111 -797.413 -797.818 -798.222 -798.582 -798.897 -799.212 -799.602 -799.992 -800.349 -800.674 -801 -801.375 -801.751 -802.105 -802.44 -802.774 -803.136 -803.499 -803.85 -804.191 -804.532 -804.882 -805.232 -805.579 -805.925 -806.271 -806.609 -806.949 -807.292 -807.639 -807.986 -808.313 -808.645 -808.983 -809.325 -809.671 -809.988 -810.312 -810.643 -810.978 -811.32 -811.625 -811.942 -812.264 -812.589 -812.924 -813.217 -813.526 -813.838 -814.151 -814.475 -814.756 -815.054 -815.353 -815.652 -815.963 -816.23 -816.514 -816.798 -817.082 -817.378 -817.63 -817.898 -818.165 -818.433 -818.71 -818.947 -819.196 -819.446 -819.695 -819.952 -820.172 -820.4 -820.629 -820.858 -821.091 -821.292 -821.497 -821.703 -821.909 -822.115 -822.155 -822.196 -822.238 -822.279 -822.319 -822.458 -822.596 -822.735 -822.873 -823.01 -823.161 -823.31 -823.459 -823.608 -823.753 -823.875 -823.991 -824.107 -824.223 -824.332 -824.423 -824.505 -824.586 -824.667 -824.739 -824.798 -824.842 -824.887 -824.931 -824.961 -824.986 -824.99 -824.995 -824.998 -824.984 -824.969 -824.935 -824.897 -824.853 -824.796 -824.738 -824.665 -824.582 -824.488 -824.384 -824.28 -824.166 -824.036 -823.889 -823.736 -823.583 -823.427 -823.247 -823.044 -822.838 -822.635 -822.432 -822.198 -821.938 -821.678 -821.421 -821.164 -820.876 -820.559 -820.243 -819.929 -819.615 -819.272 -818.896 -818.52 -818.147 -817.774 -817.372 -816.934 -816.497 -816.063 -815.627 -815.16 -814.664 -814.163 -813.665 -813.157 -812.626 -812.074 -811.508 -810.944 -810.361 -809.763 -809.153 -808.52 -807.888 -807.227 -806.56 -805.892 -805.188 -804.484 -803.745 -803.006 -802.268 -801.502 -800.715 -799.902 -799.09 -798.278 -797.45 -796.577 -795.689 -794.801 -793.914 -793.022 -792.685 -792.343 -792.002 -791.66 -791.326 -790.705 -790.083 -789.462 -788.841 -788.21 -787.181 -786.143 -785.104 -784.067 -783.003 -781.91 -780.791 -779.673 -778.554 -777.392 -776.235 -775.034 -773.834 -772.627 -771.37 -770.134 -768.862 -767.578 -766.268 -764.926 -763.605 -762.267 -760.896 -759.481 -758.052 -756.643 -755.235 -753.774 -752.257 -750.739 -749.243 -747.746 -746.196 -744.589 -742.983 -741.397 -739.812 -738.17 -736.473 -734.777 -733.101 -731.416 -729.679 -727.905 -726.118 -724.352 -722.553 -720.724 -718.88 -717.002 -715.145 -713.229 -711.308 -709.387 -707.425 -705.457 -703.443 -701.429 -699.415 -697.383 -695.677 -693.95 -692.224 -690.498 -688.862 -688.466 -688.069 -687.673 -687.277 -686.876 -684.692 -682.505 -680.317 -678.131 -675.912 -673.658 -671.378 -669.097 -666.818 -664.477 -662.145 -659.78 -657.407 -655.006 -652.57 -650.145 -647.711 -645.245 -642.721 -640.191 -637.672 -635.155 -632.586 -629.963 -627.339 -624.728 -622.117 -619.449 -616.733 -614.016 -611.312 -608.583 -605.815 -603.032 -600.223 -597.427 -594.572 -591.711 -588.851 -585.962 -583.045 -580.093 -577.14 -574.189 -571.235 -571.054 -570.871 -570.687 -570.504 -570.321 -567.467 -564.614 -561.761 -558.909 -556.033 -552.922 -549.796 -546.671 -543.545 -540.374 -537.183 -533.977 -530.764 -527.525 -524.267 -520.988 -517.709 -514.404 -511.06 -507.715 -504.35 -500.986 -497.585 -494.157 -490.728 -487.278 -483.816 -480.324 -476.825 -473.314 -469.782 -466.213 -462.64 -459.067 -455.483 -452.681 -449.859 -447.038 -444.217 -441.515 -440.662 -439.809 -438.956 -438.103 -437.243 -433.523 -429.8 -426.078 -422.356 -418.6 -414.82 -411.023 -407.226 -403.414 -399.574 -395.72 -391.865 -387.996 -384.087 -380.177 -376.253 -372.329 -368.376 -364.4 -360.423 -356.431 -352.428 -348.4 -344.368 -340.327 -336.27 -332.179 -328.089 -323.999 -319.903 -318.072 -316.23 -314.388 -312.547 -310.747 -308.432 -306.118 -303.803 -301.489 -299.16 -294.962 -290.759 -286.557 -282.353 -278.115 -273.867 -269.616 -265.36 -261.08 -256.791 -252.492 -248.193 -243.876 -239.542 -235.205 -230.858 -226.505 -222.131 -217.755 -213.375 -208.983 -204.567 -200.151 -195.736 -191.317 -189.658 -187.992 -186.327 -184.662 -183.026 -180.231 -177.436 -174.641 -171.847 -169.039 -164.551 -160.061 -155.572 -151.078 -146.564 -142.043 -137.522 -133.001 -128.46 -123.916 -119.365 -114.815 -110.25 -105.68 -101.109 -96.5296 -91.9418 -87.3484 -82.7555 -78.1624 -74.7533 -71.3389 -67.9247 -64.5108 -61.2092 -59.9887 -58.7683 -57.5479 -56.3275 -55.1042 -50.4734 -45.8439 -41.2149 -36.586 -31.9427 -27.2947 -22.6491 -18.0062 -13.3546 -8.69933 -4.03873 0.621273 5.28446 9.94432 14.6064 19.2745 23.9444 28.6155 33.2861 37.9522 41.0087 44.0658 47.1227 50.1794 53.1541 54.7886 56.423 58.0573 59.6916 61.3274 66.0094 70.687 75.3641 80.0409 84.7208 89.4039 94.0847 98.7566 103.427 108.099 112.775 117.45 122.121 126.783 131.445 136.11 140.769 145.427 150.085 154.741 155.692 156.642 157.591 158.541 159.483 163.186 166.889 170.591 174.293 177.991 182.639 187.276 191.91 196.538 201.164 205.792 210.42 215.035 219.636 224.239 228.844 233.44 238.03 242.619 247.2 249.3 251.392 253.484 255.577 257.636 260.12 262.604 265.088 267.572 270.049 274.608 279.155 283.7 288.238 292.77 297.3 301.829 306.341 310.837 315.335 319.831 324.316 328.792 333.267 337.732 339.765 341.789 343.812 345.835 347.83 350.26 352.689 355.118 357.547 359.966 364.396 368.811 373.226 377.628 382.024 386.413 390.802 395.173 399.524 403.877 408.223 412.553 416.875 421.197 425.515 426.498 427.475 428.453 429.43 430.401 433.716 437.031 440.346 443.659 446.957 451.221 455.475 459.723 463.949 468.174 472.388 476.602 480.79 484.969 489.144 492.484 495.805 499.123 502.441 505.699 506.534 507.369 508.203 509.038 509.868 513.979 518.083 522.188 526.284 530.364 534.429 538.494 542.538 546.56 550.585 554.593 558.584 562.564 566.544 570.52 571.247 571.97 572.693 573.415 574.135 577.353 580.572 583.791 587.005 590.2 594.101 597.999 601.877 605.729 609.583 613.42 617.245 621.049 624.853 628.643 629.954 631.255 632.553 633.852 635.146 637.603 640.059 642.516 644.968 647.403 651.117 654.822 658.513 662.171 665.829 669.469 673.097 676.696 680.294 683.867 685.254 686.632 688.006 689.38 690.76 692.925 695.09 697.256 699.416 701.563 705.066 708.542 711.989 715.346 718.701 722.036 725.406 728.884 732.361 735.897 737.34 738.511 739.596 740.682 741.788 743.605 745.422 747.238 748.943 750.264 752.479 755.207 758.292 762.957 767.718 772.363 776.291 778.723 781.159 783.363 783.469 783.599 783.766 783.932 784.1 785.974 787.849 789.725 792.109 794.825 797.761 800.681 803.471 806.26 808.994 809.454 809.904 810.337 810.77 811.21 813.48 815.749 818.016 820.21 822.356 824.947 827.537 830.025 832.508 834.932 835.484 836.023 836.538 837.053 837.584 839.455 841.323 843.19 844.984 846.731 848.981 851.228 853.307 855.319 857.271 857.901 858.502 859.055 859.608 860.193 861.462 862.727 863.989 865.166 866.279 867.887 869.489 870.893 872.088 873.273 873.902 874.445 874.889 875.331 875.829 876.26 876.689 877.116 877.484 877.783 878.39 878.892 879.267 879.304 879.331 879.222 878.904 878.358 877.805 877.165 877.046 876.888 876.708 876.528 876.342 875.365 874.377 873.377 872.242 870.821 868.978 867.122 864.827 862.12 859.401 856.422 853.049 849.424 845.792 841.986 841.071 840.036 838.982 837.928 836.801 833.16 829.507 825.845 822.132 817.979 812.285 806.294 800.029 793.022 785.911 778.33 770.736 762.569 753.924 745.218 735.988 725.589 714.895 704.198 692.998 688.249 683.491 678.733 673.973 668.563 661.121 653.676 646.226 638.771 631.277 617.415 601.69 585.932 569.234 549.887 529.569 509.859 492.287 478.287 464.368 449.701 435.036 407.566 367.764 327.929 286.299 253.293 236.881 228.354 231.274 234.004 177.666 120.283 62.6053 0