/*--------------------------------*- C++ -*----------------------------------*\
| =========                 |                                                 |
| \\      /  F ield         | OpenFOAM: The Open Source CFD Toolbox           |
|  \\    /   O peration     | Version:  5.x                                   |
|   \\  /    A nd           | Web:      www.OpenFOAM.org                      |
|    \\/     M anipulation  |                                                 |
\*---------------------------------------------------------------------------*/
/*   Windows 32 and 64 bit porting by blueCAPE: http://www.bluecape.com.pt   *\
|  Based on Windows porting (2.0.x v4) by Symscape: http://www.symscape.com   |
\*---------------------------------------------------------------------------*/
FoamFile
{
    version     2.0;
    format      ascii;
    class       volScalarField;
    location    "10";
    object      nut;
}
// * * * * * * * * * * * * * * * * * * * * * * * * * * * * * * * * * * * * * //

dimensions      [0 2 -1 0 0 0 0];

internalField   nonuniform List<scalar> 
4000
(
5.02403e-005
4.70849e-005
4.46165e-005
4.28445e-005
4.16859e-005
4.09951e-005
4.06203e-005
4.04386e-005
4.03656e-005
4.03499e-005
4.03626e-005
4.03882e-005
4.04183e-005
4.04492e-005
4.04797e-005
4.05102e-005
4.05411e-005
4.05722e-005
4.06035e-005
4.0635e-005
4.06669e-005
4.06992e-005
4.0732e-005
4.07652e-005
4.07989e-005
4.0833e-005
4.08674e-005
4.09022e-005
4.09371e-005
4.09712e-005
4.10023e-005
4.10309e-005
4.10565e-005
4.10801e-005
4.11027e-005
4.11236e-005
4.11429e-005
4.11625e-005
4.11829e-005
4.12041e-005
4.12259e-005
4.12482e-005
4.12709e-005
4.1294e-005
4.13173e-005
4.13408e-005
4.13641e-005
4.1387e-005
4.14096e-005
4.14321e-005
4.14546e-005
4.14772e-005
4.14999e-005
4.15228e-005
4.15459e-005
4.15693e-005
4.15928e-005
4.16166e-005
4.16405e-005
4.16646e-005
4.16888e-005
4.17131e-005
4.17376e-005
4.17621e-005
4.17868e-005
4.18116e-005
4.18364e-005
4.18614e-005
4.18865e-005
4.19117e-005
4.1937e-005
4.19625e-005
4.1988e-005
4.20136e-005
4.20394e-005
4.20652e-005
4.20912e-005
4.21172e-005
4.21433e-005
4.21695e-005
4.21957e-005
4.22221e-005
4.22485e-005
4.22749e-005
4.23014e-005
4.23279e-005
4.23544e-005
4.23806e-005
4.24065e-005
4.24321e-005
4.24574e-005
4.24825e-005
4.25076e-005
4.25326e-005
4.25577e-005
4.25827e-005
4.26078e-005
4.26329e-005
4.2658e-005
4.26831e-005
4.27082e-005
4.27334e-005
4.27586e-005
4.27837e-005
4.2809e-005
4.28343e-005
4.28597e-005
4.28854e-005
4.29113e-005
4.29374e-005
4.29637e-005
4.29902e-005
4.30167e-005
4.30433e-005
4.307e-005
4.30966e-005
4.31232e-005
4.31498e-005
4.31765e-005
4.3203e-005
4.32296e-005
4.32561e-005
4.32827e-005
4.33092e-005
4.33356e-005
4.33621e-005
4.33885e-005
4.34149e-005
4.34413e-005
4.34677e-005
4.3494e-005
4.35204e-005
4.35466e-005
4.35728e-005
4.3599e-005
4.36251e-005
4.3651e-005
4.36769e-005
4.37027e-005
4.37285e-005
4.37542e-005
4.378e-005
4.38058e-005
4.38317e-005
4.38575e-005
4.38832e-005
4.39088e-005
4.39341e-005
4.39593e-005
4.39843e-005
4.40092e-005
4.40342e-005
4.40591e-005
4.4084e-005
4.41089e-005
4.41336e-005
4.41582e-005
4.41828e-005
4.42073e-005
4.42318e-005
4.42562e-005
4.42807e-005
4.43053e-005
4.43299e-005
4.43546e-005
4.43795e-005
4.44045e-005
4.44296e-005
4.44549e-005
4.44804e-005
4.43186e-005
4.40967e-005
4.38792e-005
4.36659e-005
4.34564e-005
4.32504e-005
4.30481e-005
4.28495e-005
4.26543e-005
4.2463e-005
4.22761e-005
4.20948e-005
4.19195e-005
4.175e-005
4.15851e-005
4.14237e-005
4.1265e-005
4.11083e-005
4.09529e-005
4.07989e-005
4.06464e-005
4.04992e-005
4.03629e-005
4.02448e-005
4.01627e-005
4.01376e-005
4.01764e-005
4.02937e-005
4.03029e-005
4.04124e-005
0.00132349
0.000764601
0.000587639
0.000505491
0.000463757
0.000442642
0.000432512
0.000428103
0.00042651
0.0004262
0.000426409
0.000426564
0.000425986
0.000424415
0.000421699
0.000418701
0.000415266
0.000411738
0.000408456
0.000405464
0.00040277
0.000400369
0.000398237
0.000396341
0.000394654
0.000393157
0.000391824
0.000390636
0.000389581
0.000388749
0.000388312
0.000388193
0.000388421
0.000388908
0.000389578
0.000390439
0.000391432
0.000392384
0.000393249
0.000394033
0.000393952
0.000387999
0.00038228
0.000376755
0.000371395
0.000366197
0.000361169
0.000356304
0.000351582
0.000346987
0.000342503
0.000338133
0.000333884
0.000329769
0.000325799
0.000321984
0.000318303
0.000314721
0.000311213
0.000307778
0.000304432
0.0003012
0.000298079
0.000295042
0.000292068
0.000289151
0.000286292
0.000283494
0.000280755
0.000278074
0.000275449
0.00027288
0.000270366
0.000267905
0.000265497
0.00026314
0.000260831
0.000258566
0.000256343
0.000254162
0.000252023
0.000249922
0.000247858
0.000245826
0.000243819
0.000241833
0.000239879
0.000237965
0.0002361
0.000234287
0.000232518
0.000230778
0.000229056
0.000227347
0.000225652
0.000223977
0.000222326
0.000220698
0.000219095
0.000217517
0.000215962
0.000214434
0.000212935
0.000211474
0.000210073
0.000208731
0.000207422
0.000206138
0.000204896
0.000203711
0.000202577
0.000201484
0.00020042
0.000199376
0.000198346
0.000197329
0.000196321
0.000195321
0.000194329
0.000193345
0.000192366
0.000191394
0.00019043
0.000189473
0.000188524
0.000187583
0.000186649
0.000185724
0.000184807
0.000183897
0.000182994
0.000182096
0.000181204
0.000180316
0.000179434
0.000178562
0.000177712
0.000176888
0.000176084
0.000175286
0.000174491
0.000173702
0.000172921
0.000172148
0.000171382
0.000170623
0.00016987
0.000169124
0.000168383
0.000167649
0.000166922
0.000166203
0.000165492
0.000164789
0.000164095
0.000163411
0.000162736
0.000162067
0.000161404
0.000160747
0.000160097
0.000159453
0.000158817
0.000158188
0.000157566
0.000156951
0.000156344
0.000155744
0.000155153
0.000154573
0.000154009
0.000153463
0.000152934
0.000152418
0.000151908
0.0001514
0.000150892
0.000150383
0.000149873
0.000149365
0.000148865
0.00014838
0.000147912
0.000147459
0.000147008
0.000146549
0.000146072
0.000145571
0.000145042
0.000144485
0.000143913
0.000143363
0.000142893
0.000142592
0.000142635
0.000143212
0.000144751
0.000148521
0.000148445
0.000144917
0.00520601
0.00343733
0.00270764
0.00235696
0.0021831
0.00209846
0.00205941
0.002043
0.00203724
0.00203616
0.0020372
0.00204137
0.00205181
0.00206449
0.00207756
0.00208682
0.00209894
0.00211018
0.00212014
0.00212911
0.0020759
0.00189063
0.00172283
0.00159307
0.00149162
0.0014013
0.00132006
0.00124724
0.00118166
0.00112177
0.0010664
0.00101533
0.000968468
0.000925363
0.000885736
0.000849678
0.000817071
0.000787854
0.000761172
0.000736261
0.000712863
0.000690917
0.000670377
0.000651691
0.00063404
0.000617349
0.000601594
0.000586723
0.000572589
0.000559075
0.000546094
0.000533627
0.000521681
0.000510237
0.000499355
0.000489312
0.000480182
0.00047168
0.000463501
0.000455512
0.000447772
0.000440436
0.000433528
0.000426907
0.000420465
0.000414185
0.000408084
0.00040217
0.000396433
0.000390862
0.000385455
0.00038021
0.000375121
0.000370185
0.000365396
0.000360751
0.00035624
0.000351838
0.000347539
0.00034335
0.00033927
0.000335295
0.000331416
0.000327621
0.000323885
0.000320194
0.000316559
0.000312993
0.000309518
0.000306162
0.000302921
0.000299747
0.000296605
0.000293489
0.000290409
0.000287377
0.000284406
0.000281498
0.000278641
0.000275829
0.000273068
0.00027036
0.00026771
0.000265136
0.000262672
0.000260321
0.000258071
0.000255919
0.00025387
0.000251922
0.000250057
0.000248254
0.000246496
0.00024477
0.00024307
0.000241393
0.000239735
0.000238089
0.000236462
0.000234849
0.000233245
0.000231655
0.00023008
0.000228523
0.000226983
0.000225462
0.000223958
0.000222473
0.000221004
0.000219552
0.000218114
0.000216689
0.000215274
0.000213865
0.000212463
0.000211076
0.000209735
0.000208472
0.000207327
0.000206327
0.000205455
0.000204657
0.000203893
0.000203134
0.00020237
0.000201602
0.000200829
0.000200052
0.000199272
0.000198489
0.000197707
0.000196926
0.000196145
0.000195366
0.000194589
0.000193814
0.000193042
0.000192271
0.000191502
0.000190736
0.000189974
0.000189217
0.000188465
0.000187714
0.000186964
0.000186217
0.000185472
0.000184731
0.000183992
0.000183265
0.00018256
0.000181892
0.000181262
0.000180652
0.000180037
0.000179405
0.000178748
0.00017806
0.000177339
0.000176592
0.000175836
0.000175091
0.000174373
0.00017367
0.000172947
0.000172176
0.00017134
0.000170428
0.000169423
0.000168315
0.000167138
0.000165969
0.000164913
0.000164128
0.000163905
0.000164875
0.000168658
0.000179878
0.00018032
0.000176989
0.00453991
0.00693108
0.0061782
0.00574585
0.00551773
0.00540622
0.00535622
0.00533638
0.00533032
0.00533027
0.00533379
0.00534475
0.00536948
0.0054097
0.00546714
0.00552681
0.00559043
0.00566199
0.00573505
0.00580752
0.0058792
0.00594856
0.00601474
0.00607706
0.00613238
0.00618282
0.00623035
0.00627525
0.00620115
0.0059722
0.00574422
0.00551622
0.00528421
0.00503503
0.00476707
0.00449109
0.00423348
0.00397034
0.00370483
0.00345089
0.00321632
0.00300224
0.00280755
0.00263166
0.0024733
0.00232851
0.00219404
0.00206628
0.00194632
0.00183674
0.00173579
0.00164388
0.00156032
0.00148184
0.00140627
0.00133052
0.00125321
0.00117702
0.00110519
0.00103862
0.000977779
0.000923918
0.000874189
0.000828182
0.00078589
0.000747108
0.000711647
0.000678562
0.000659335
0.000643652
0.00062871
0.000614465
0.000600878
0.000587912
0.000575514
0.00056364
0.000552266
0.000541366
0.00053091
0.000520868
0.000511223
0.000501944
0.000492999
0.000484368
0.000476021
0.000467929
0.00046006
0.000452372
0.000444906
0.00043782
0.000431107
0.000424666
0.000418558
0.000412688
0.000407052
0.000401596
0.000396302
0.000391158
0.000386157
0.000381281
0.000376524
0.000371874
0.000367317
0.000362843
0.000358462
0.000354237
0.000350195
0.000346269
0.000342387
0.000338536
0.000334738
0.000331013
0.000327371
0.000323815
0.000320348
0.000316968
0.000313669
0.000310452
0.000307313
0.000304252
0.000301271
0.000298363
0.000295527
0.000292758
0.000290052
0.000287407
0.00028482
0.000282289
0.00027981
0.000277381
0.000274998
0.000272657
0.000270347
0.000268056
0.000265761
0.000263438
0.00026108
0.000258751
0.000256617
0.000254854
0.000253468
0.000252256
0.000251067
0.000249852
0.00024862
0.000247385
0.00024616
0.00024495
0.000243749
0.000242558
0.000241379
0.000240213
0.00023906
0.000237921
0.000236793
0.000235679
0.000234578
0.000233492
0.00023242
0.000231365
0.000230331
0.00022932
0.00022833
0.000227352
0.000226387
0.000225437
0.000224501
0.000223572
0.000222642
0.000221706
0.00022079
0.000219975
0.000219368
0.000218979
0.000218719
0.000218493
0.000218258
0.000217982
0.000217631
0.000217149
0.000216522
0.000215769
0.000215069
0.000214559
0.000214203
0.000213892
0.000213526
0.000213043
0.000212394
0.000211572
0.000209761
0.000207059
0.000202943
0.00019752
0.000191658
0.000188847
0.000190421
0.000199902
0.000214626
0.000236603
0.0039821
0.00903275
0.00869725
0.00848111
0.00836105
0.00830193
0.00827606
0.00826646
0.00826414
0.00826495
0.00826773
0.00827424
0.00828768
0.00831284
0.00835034
0.00839145
0.00843261
0.00847697
0.00852131
0.00856429
0.00860649
0.00864685
0.00868433
0.00871901
0.00875205
0.00878265
0.00881101
0.00883725
0.00886363
0.00888854
0.00891222
0.00893484
0.00895667
0.00897817
0.00900035
0.00902425
0.00904978
0.00886538
0.00848684
0.00825754
0.00807816
0.00791581
0.00776011
0.00761237
0.0074723
0.00733923
0.00720853
0.00706905
0.00694568
0.00682401
0.00670344
0.00657145
0.00643854
0.00630782
0.0061558
0.00598366
0.00583749
0.00574044
0.00567297
0.005603
0.00550197
0.00539469
0.0053152
0.00527315
0.00525753
0.00525119
0.00524534
0.00524681
0.00524129
0.00523724
0.00523556
0.00523482
0.00523443
0.00523405
0.00523429
0.00523609
0.00524008
0.00524504
0.00524883
0.00525081
0.00525076
0.00524956
0.00524744
0.00524328
0.00523644
0.00522405
0.0052011
0.00516073
0.0050976
0.00502809
0.0050878
0.00534225
0.00562015
0.00594166
0.00629116
0.00667109
0.00709357
0.00759922
0.00817905
0.00878682
0.00916169
0.00915516
0.00914868
0.00914203
0.00913511
0.00912789
0.00912043
0.00911275
0.00910494
0.00909708
0.00908918
0.00908126
0.0090733
0.00906509
0.00905671
0.00904826
0.00903977
0.00903127
0.00902277
0.00901427
0.00900581
0.0085138
0.00783929
0.00726429
0.00676928
0.00633945
0.00596321
0.00563144
0.00533673
0.00507314
0.00483672
0.00462342
0.00442934
0.00424958
0.00407579
0.00389343
0.00365572
0.00334603
0.00296833
0.002576
0.0022153
0.00191688
0.00169918
0.00154846
0.0014299
0.00133312
0.00125228
0.00118368
0.00112475
0.00107337
0.00102806
0.000987859
0.000951998
0.000919906
0.000891112
0.000865176
0.00084175
0.000820598
0.00080151
0.000784329
0.000768855
0.000754923
0.000742486
0.000731686
0.000722366
0.000714246
0.000707156
0.000700838
0.000694837
0.000688694
0.00068255
0.000677263
0.000673465
0.000671677
0.000670101
0.00067163
0.000676769
0.000685491
0.000696963
0.000711222
0.000727881
0.000748762
0.000773544
0.00079625
0.000811976
0.000823996
0.000833182
0.000839619
0.000841763
0.000837899
0.000823146
0.000807069
0.000784103
0.00071259
0.000540105
0.000394896
0.000310859
0.000292316
0.000345378
0.000442763
0.00376211
0.00976594
0.00967256
0.00960817
0.00957122
0.0095529
0.00954501
0.00954224
0.00954174
0.00954221
0.00954324
0.00954517
0.00954872
0.00955499
0.00956375
0.00957357
0.00958352
0.0095936
0.00960353
0.00961323
0.00962289
0.00963227
0.0096411
0.00964956
0.00965845
0.00966708
0.00967518
0.00968291
0.00969149
0.00969986
0.00970772
0.00971506
0.00972199
0.00972876
0.00973575
0.00974341
0.00975177
0.0097601
0.00976788
0.00977493
0.00978131
0.00978712
0.00979245
0.00979733
0.00980181
0.00980594
0.00980976
0.00981331
0.00981671
0.00981991
0.00982292
0.00982574
0.00982841
0.00983094
0.00983346
0.00983612
0.00983884
0.00984144
0.00984383
0.00984602
0.00984802
0.00939146
0.00885871
0.00841094
0.00802958
0.00768806
0.00737212
0.00709365
0.00685523
0.00665626
0.00649333
0.00634002
0.00619544
0.00605973
0.00593205
0.00581066
0.0056951
0.00558561
0.00548127
0.00538131
0.00528614
0.00519446
0.00510494
0.00501751
0.00493128
0.0048438
0.00474971
0.00464042
0.00451169
0.00437869
0.00431117
0.00426997
0.00424216
0.00421904
0.00420476
0.00419276
0.00418184
0.00416694
0.00415309
0.00414161
0.00413275
0.00412491
0.00411529
0.00409836
0.00406993
0.00403627
0.00400553
0.00398029
0.00394975
0.00392751
0.00391083
0.00389748
0.00388617
0.00387629
0.00386756
0.00385979
0.00385269
0.0038461
0.00383997
0.00383449
0.0038296
0.00382502
0.00382061
0.00381641
0.00381249
0.00380886
0.00380548
0.00380224
0.0037991
0.00379607
0.00379304
0.00379009
0.0037863
0.00377974
0.00376726
0.00374161
0.00369252
0.00360886
0.00349962
0.00340584
0.00335705
0.00334702
0.00336396
0.00338719
0.00341633
0.00344924
0.00347362
0.00349003
0.00352218
0.00355238
0.00358171
0.00361055
0.0036394
0.00366851
0.00369811
0.00372843
0.0037598
0.00379267
0.00382745
0.00386435
0.003904
0.00394704
0.0039937
0.00404373
0.00409636
0.00415104
0.00420747
0.00426488
0.00432042
0.00436669
0.00439371
0.00440479
0.00442825
0.0044959
0.00462567
0.0048213
0.00507815
0.00539635
0.005786
0.00623817
0.00669953
0.00704404
0.00719332
0.00733211
0.00762984
0.00795317
0.0083921
0.00887833
0.00930393
0.00957785
0.00723508
0.00357411
0.00279605
0.00187097
0.00152925
0.0014054
0.00164779
0.00209782
0.000725047
0.0015159
0.00358381
0.00995217
0.00993219
0.00991759
0.00990894
0.00990458
0.00990271
0.00990208
0.00990199
0.00990213
0.0099024
0.00990282
0.00990351
0.00990462
0.00990611
0.00990779
0.00990953
0.00991128
0.00991302
0.00991475
0.00991649
0.00991821
0.00991985
0.00992143
0.00992306
0.00992466
0.00992617
0.00992764
0.00992917
0.00993068
0.00993211
0.00993344
0.00993471
0.00993594
0.00993723
0.00993866
0.00994024
0.00994189
0.00994348
0.00994495
0.0099463
0.00994753
0.00994867
0.00994971
0.00995067
0.00995156
0.00995239
0.00995318
0.00995398
0.00995477
0.0099555
0.00995621
0.00995691
0.00995758
0.00995827
0.009959
0.00995977
0.00996052
0.00996123
0.00996188
0.0099625
0.0099632
0.00996394
0.00996463
0.00996526
0.00996585
0.0099664
0.00996693
0.00996743
0.00996789
0.00996832
0.00996871
0.00996908
0.00996942
0.00996974
0.00997005
0.00997036
0.00997065
0.00997092
0.00997118
0.00997143
0.00997166
0.00997188
0.00997208
0.00997227
0.00997246
0.00997263
0.0099728
0.00997298
0.00997319
0.00997341
0.00997361
0.00997377
0.00997392
0.00997404
0.00997416
0.00997426
0.00997434
0.00997442
0.00997449
0.00997456
0.00997461
0.00997466
0.00997469
0.00997471
0.00997472
0.00997471
0.00997468
0.00997464
0.00997458
0.00997451
0.00997444
0.00997435
0.00997425
0.00997414
0.00974341
0.00951593
0.0093028
0.00910216
0.00891293
0.00873444
0.00856602
0.00840697
0.00825674
0.00811468
0.0079801
0.00785222
0.00773032
0.00761309
0.00749955
0.00739077
0.00728061
0.00717198
0.00706469
0.00694521
0.00678176
0.00651811
0.00610744
0.00555167
0.0049587
0.00443097
0.00397323
0.00361992
0.00338742
0.00332124
0.00329459
0.00327142
0.00325107
0.00323296
0.00321608
0.00319988
0.00318477
0.00317089
0.00315852
0.00314782
0.00313885
0.00313206
0.00312773
0.00312621
0.0031279
0.00313279
0.00314076
0.00315169
0.00316505
0.00318031
0.00319723
0.00321577
0.00323528
0.00325351
0.00326682
0.00327481
0.00328705
0.00332006
0.00338696
0.00349269
0.00363711
0.00382201
0.00404887
0.00430709
0.00457623
0.00482661
0.00541029
0.00661998
0.007939
0.00904295
0.00995397
0.00995384
0.00995371
0.0099536
0.00995349
0.00995356
0.00995418
0.00899655
0.00359532
0.00192912
0.00169731
0.00146531
0.00114337
0.000887493
0.00129504
0.00341636
0.00999137
0.009988
0.00998526
0.00998355
0.00998267
0.00998229
0.00998216
0.00998214
0.00998218
0.00998224
0.00998232
0.00998244
0.00998261
0.00998283
0.00998308
0.00998335
0.00998362
0.00998389
0.00998416
0.00998444
0.00998471
0.00998498
0.00998524
0.0099855
0.00998575
0.009986
0.00998623
0.00998647
0.00998671
0.00998694
0.00998715
0.00998735
0.00998755
0.00998776
0.009988
0.00998826
0.00998854
0.00998882
0.00998908
0.00998932
0.00998954
0.00998975
0.00998994
0.00999011
0.00999028
0.00999043
0.00999058
0.00999073
0.00999087
0.00999101
0.00999114
0.00999127
0.0099914
0.00999153
0.00999167
0.00999182
0.00999196
0.0099921
0.00999223
0.00999235
0.00999248
0.00999262
0.00999275
0.00999287
0.00999298
0.00999309
0.00999319
0.00999328
0.00999337
0.00999345
0.00999353
0.0099936
0.00999367
0.00999374
0.0099938
0.00999386
0.00999392
0.00999398
0.00999403
0.00999409
0.00999414
0.00999418
0.00999423
0.00999427
0.00999431
0.00999435
0.00999439
0.00999443
0.00999448
0.00999453
0.00999457
0.00999462
0.00999466
0.00999469
0.00999473
0.00999476
0.00999479
0.00999483
0.00999486
0.0099949
0.00999493
0.00999496
0.00999499
0.00999502
0.00999504
0.00999507
0.00999509
0.00999511
0.00999513
0.00999514
0.00999515
0.00999516
0.00999517
0.00999518
0.00999518
0.00999519
0.00999519
0.00999519
0.00999518
0.00999518
0.00999518
0.00999517
0.00999516
0.00999515
0.00999514
0.00999513
0.00999512
0.00999511
0.0099951
0.00999508
0.00999506
0.00999505
0.00999503
0.00999502
0.00999501
0.009995
0.00999501
0.00999502
0.00999504
0.00999506
0.00999507
0.00999506
0.00999503
0.009995
0.00999497
0.00999493
0.00999489
0.00999485
0.00999481
0.00999477
0.00999473
0.00999469
0.00999466
0.00999464
0.00999462
0.0099946
0.00999458
0.00999455
0.00999453
0.00999451
0.00999448
0.00999446
0.00999443
0.00999441
0.00999438
0.00999435
0.00999432
0.00999429
0.00999426
0.00999424
0.00999421
0.00999417
0.00999413
0.00999408
0.00999401
0.00999394
0.00999386
0.00999379
0.00999372
0.00999365
0.00999359
0.00999354
0.0099935
0.0099935
0.00999349
0.00999348
0.00999347
0.00999347
0.00999348
0.0099935
0.00999357
0.0099937
0.00999392
0.00717279
0.00569968
0.00263986
0.00143553
0.00103441
0.00138748
0.00326275
0.0099986
0.00999845
0.0099981
0.00999783
0.00999768
0.00999762
0.00999759
0.00999759
0.0099976
0.00999761
0.00999763
0.00999765
0.00999767
0.00999771
0.00999774
0.00999778
0.00999782
0.00999786
0.0099979
0.00999794
0.00999798
0.00999802
0.00999806
0.0099981
0.00999814
0.00999817
0.00999821
0.00999824
0.00999828
0.00999831
0.00999834
0.00999837
0.00999841
0.00999844
0.00999847
0.00999851
0.00999856
0.0099986
0.00999864
0.00999868
0.00999871
0.00999875
0.00999878
0.00999881
0.00999884
0.00999886
0.00999889
0.00999891
0.00999894
0.00999896
0.00999898
0.009999
0.00999902
0.00999905
0.00999907
0.00999909
0.00999912
0.00999914
0.00999916
0.00999918
0.00999921
0.00999923
0.00999925
0.00999927
0.00999929
0.00999931
0.00999932
0.00999934
0.00999936
0.00999937
0.00999938
0.0099994
0.00999941
0.00999942
0.00999943
0.00999945
0.00999946
0.00999947
0.00999948
0.00999949
0.0099995
0.00999951
0.00999951
0.00999952
0.00999953
0.00999954
0.00999955
0.00999956
0.00999956
0.00999957
0.00999958
0.00999959
0.0099996
0.00999961
0.00999962
0.00999962
0.00999963
0.00999964
0.00999965
0.00999965
0.00999966
0.00999967
0.00999967
0.00999968
0.00999969
0.00999969
0.0099997
0.00999971
0.00999971
0.00999972
0.00999972
0.00999973
0.00999973
0.00999974
0.00999974
0.00999974
0.00999975
0.00999975
0.00999975
0.00999975
0.00999976
0.00999976
0.00999976
0.00999976
0.00999976
0.00999976
0.00999976
0.00999976
0.00999976
0.00999976
0.00999976
0.00999976
0.00999977
0.00999977
0.00999977
0.00999977
0.00999977
0.00999977
0.00999978
0.00999978
0.00999978
0.00999978
0.00999978
0.00999978
0.00999978
0.00999978
0.00999977
0.00999977
0.00999977
0.00999976
0.00999976
0.00999976
0.00999976
0.00999976
0.00999976
0.00999976
0.00999975
0.00999975
0.00999975
0.00999975
0.00999975
0.00999975
0.00999975
0.00999975
0.00999975
0.00999975
0.00999974
0.00999974
0.00999974
0.00999974
0.00999974
0.00999974
0.00999973
0.00999973
0.00999972
0.00999972
0.00999971
0.00999971
0.0099997
0.0099997
0.00999969
0.00999969
0.00999969
0.00999969
0.00999969
0.00999969
0.00999969
0.00999969
0.00999969
0.0099997
0.00999971
0.00999973
0.00999975
0.00999976
0.00999972
0.00747482
0.00299166
0.00150294
0.00200058
0.00312507
0.00992171
0.0100002
0.0100003
0.0100002
0.0100002
0.0100002
0.0100002
0.0100002
0.0100002
0.0100002
0.0100002
0.0100002
0.0100002
0.0100003
0.0100003
0.0100003
0.0100003
0.0100003
0.0100003
0.0100003
0.0100003
0.0100003
0.0100003
0.0100003
0.0100003
0.0100003
0.0100003
0.0100003
0.0100003
0.0100003
0.0100004
0.0100004
0.0100004
0.0100004
0.0100004
0.0100004
0.0100004
0.0100004
0.0100004
0.0100004
0.0100004
0.0100004
0.0100004
0.0100004
0.0100004
0.0100004
0.0100004
0.0100004
0.0100005
0.0100005
0.0100005
0.0100005
0.0100005
0.0100005
0.0100005
0.0100005
0.0100005
0.0100005
0.0100005
0.0100005
0.0100005
0.0100005
0.0100005
0.0100005
0.0100005
0.0100005
0.0100005
0.0100005
0.0100005
0.0100005
0.0100005
0.0100005
0.0100005
0.0100005
0.0100005
0.0100005
0.0100005
0.0100006
0.0100006
0.0100006
0.0100006
0.0100006
0.0100006
0.0100006
0.0100006
0.0100006
0.0100006
0.0100006
0.0100006
0.0100006
0.0100006
0.0100006
0.0100006
0.0100006
0.0100006
0.0100006
0.0100006
0.0100006
0.0100006
0.0100006
0.0100006
0.0100006
0.0100006
0.0100006
0.0100006
0.0100006
0.0100006
0.0100006
0.0100006
0.0100006
0.0100006
0.0100006
0.0100006
0.0100006
0.0100006
0.0100006
0.0100006
0.0100006
0.0100006
0.0100006
0.0100006
0.0100006
0.0100006
0.0100006
0.0100006
0.0100006
0.0100006
0.0100006
0.0100006
0.0100006
0.0100006
0.0100006
0.0100006
0.0100006
0.0100006
0.0100006
0.0100006
0.0100006
0.0100006
0.0100006
0.0100006
0.0100006
0.0100006
0.0100006
0.0100006
0.0100006
0.0100006
0.0100006
0.0100006
0.0100006
0.0100006
0.0100006
0.0100006
0.0100006
0.0100006
0.0100006
0.0100006
0.0100006
0.0100006
0.0100006
0.0100006
0.0100006
0.0100006
0.0100006
0.0100006
0.0100006
0.0100006
0.0100006
0.0100006
0.0100006
0.0100006
0.0100006
0.0100006
0.0100006
0.0100006
0.0100006
0.0100006
0.0100006
0.0100006
0.0100006
0.0100006
0.0100006
0.0100006
0.0100006
0.0100006
0.0100006
0.0100006
0.0100006
0.0100006
0.0100006
0.0100006
0.0100006
0.0100006
0.00969934
0.00806042
0.0045449
0.0021259
0.00135862
0.00193125
0.00300445
0.00949949
0.0100002
0.0100003
0.0100003
0.0100003
0.0100003
0.0100003
0.0100003
0.0100003
0.0100003
0.0100003
0.0100003
0.0100003
0.0100003
0.0100003
0.0100003
0.0100003
0.0100003
0.0100003
0.0100003
0.0100003
0.0100003
0.0100003
0.0100003
0.0100004
0.0100004
0.0100004
0.0100004
0.0100004
0.0100004
0.0100004
0.0100004
0.0100004
0.0100004
0.0100004
0.0100004
0.0100004
0.0100004
0.0100004
0.0100004
0.0100004
0.0100005
0.0100005
0.0100005
0.0100005
0.0100005
0.0100005
0.0100005
0.0100005
0.0100005
0.0100005
0.0100005
0.0100005
0.0100005
0.0100005
0.0100005
0.0100005
0.0100005
0.0100005
0.0100005
0.0100005
0.0100005
0.0100005
0.0100005
0.0100005
0.0100005
0.0100005
0.0100005
0.0100006
0.0100006
0.0100006
0.0100006
0.0100006
0.0100006
0.0100006
0.0100006
0.0100006
0.0100006
0.0100006
0.0100006
0.0100006
0.0100006
0.0100006
0.0100006
0.0100006
0.0100006
0.0100006
0.0100006
0.0100006
0.0100006
0.0100006
0.0100006
0.0100006
0.0100006
0.0100006
0.0100006
0.0100006
0.0100006
0.0100006
0.0100006
0.0100006
0.0100006
0.0100006
0.0100006
0.0100006
0.0100006
0.0100006
0.0100006
0.0100006
0.0100006
0.0100006
0.0100006
0.0100006
0.0100006
0.0100006
0.0100006
0.0100006
0.0100006
0.0100006
0.0100006
0.0100006
0.0100006
0.0100006
0.0100006
0.0100006
0.0100006
0.0100006
0.0100006
0.0100006
0.0100006
0.0100006
0.0100006
0.0100006
0.0100006
0.0100006
0.0100006
0.0100006
0.0100006
0.0100006
0.0100006
0.0100006
0.0100006
0.0100006
0.0100006
0.0100006
0.0100006
0.0100006
0.0100006
0.0100006
0.0100006
0.0100006
0.0100006
0.0100006
0.0100006
0.0100006
0.0100006
0.0100006
0.0100006
0.0100006
0.0100006
0.0100006
0.0100006
0.0100006
0.0100006
0.0100006
0.0100006
0.0100006
0.0100006
0.0100006
0.0100006
0.0100006
0.0100006
0.0100006
0.0100006
0.0100006
0.0100006
0.0100006
0.0100006
0.0100005
0.0100005
0.0100005
0.0100005
0.0100005
0.0100005
0.0100005
0.0100005
0.0100004
0.0100004
0.0100004
0.0100004
0.0100004
0.00968421
0.00535724
0.00353933
0.00210033
0.00149868
0.0010461
0.000946548
0.00213087
0.0028937
0.00896499
0.00999849
0.00999826
0.00999805
0.00999793
0.00999788
0.00999787
0.00999788
0.0099979
0.00999793
0.00999797
0.009998
0.00999804
0.00999807
0.0099981
0.00999813
0.00999817
0.0099982
0.00999823
0.00999827
0.0099983
0.00999834
0.00999838
0.00999841
0.00999845
0.00999849
0.00999854
0.00999858
0.00999862
0.00999866
0.0099987
0.00999873
0.00999876
0.00999879
0.00999883
0.00999885
0.00999888
0.00999891
0.00999893
0.00999896
0.00999899
0.00999902
0.00999905
0.00999908
0.00999911
0.00999914
0.00999917
0.00999919
0.00999921
0.00999924
0.00999926
0.00999928
0.00999929
0.00999931
0.00999933
0.00999935
0.00999936
0.00999938
0.00999939
0.00999941
0.00999942
0.00999943
0.00999945
0.00999946
0.00999948
0.00999949
0.00999951
0.00999952
0.00999954
0.00999955
0.00999956
0.00999958
0.00999959
0.0099996
0.00999961
0.00999962
0.00999963
0.00999964
0.00999965
0.00999966
0.00999967
0.00999968
0.00999968
0.00999969
0.0099997
0.0099997
0.00999971
0.00999971
0.00999972
0.00999972
0.00999973
0.00999973
0.00999974
0.00999974
0.00999974
0.00999975
0.00999975
0.00999975
0.00999976
0.00999976
0.00999977
0.00999977
0.00999978
0.00999978
0.00999979
0.00999979
0.00999979
0.0099998
0.0099998
0.0099998
0.00999981
0.00999981
0.00999981
0.00999981
0.00999981
0.00999981
0.00999982
0.00999982
0.00999982
0.00999982
0.00999982
0.00999983
0.00999983
0.00999983
0.00999983
0.00999983
0.00999984
0.00999984
0.00999984
0.00999984
0.00999984
0.00999984
0.00999983
0.00999983
0.00999983
0.00999983
0.00999983
0.00999983
0.00999983
0.00999983
0.00999983
0.00999982
0.00999982
0.00999982
0.00999982
0.00999982
0.00999982
0.00999982
0.00999982
0.00999982
0.00999981
0.00999981
0.0099998
0.00999979
0.00999978
0.00999977
0.00999975
0.00999974
0.00999972
0.00999971
0.00999969
0.00999968
0.00999966
0.00999964
0.00999962
0.00999959
0.00999955
0.0099995
0.00999945
0.0099994
0.00999935
0.00999929
0.00999923
0.00999917
0.0099991
0.00999903
0.00999894
0.00999886
0.00999878
0.00999869
0.0099986
0.0099985
0.00999839
0.00999826
0.00999811
0.00999793
0.00999773
0.00999751
0.00999724
0.00999699
0.00999681
0.00438403
0.00218994
0.0014798
0.00124237
0.00103874
0.000780434
0.000856127
0.0020061
0.00279312
0.00829793
0.00998876
0.00998656
0.00998518
0.00998445
0.00998414
0.00998408
0.00998417
0.00998433
0.00998455
0.00998479
0.00998504
0.00998527
0.00998549
0.00998571
0.00998593
0.00998617
0.0099864
0.00998663
0.00998687
0.00998711
0.00998737
0.00998762
0.00998787
0.00998813
0.00998841
0.00998869
0.00998897
0.00998922
0.00998946
0.00998969
0.00998991
0.00999012
0.00999031
0.0099905
0.00999068
0.00999084
0.009991
0.00999115
0.0099913
0.00999146
0.00999165
0.00999183
0.00999202
0.00999222
0.0099924
0.00999256
0.00999271
0.00999285
0.00999298
0.00999311
0.00999322
0.00999333
0.00999344
0.00999354
0.00999363
0.00999372
0.0099938
0.00999388
0.00999395
0.00999402
0.00999408
0.00999415
0.00999422
0.0099943
0.00999439
0.00999447
0.00999454
0.00999462
0.0099947
0.00999477
0.00999483
0.00999489
0.00999495
0.00999501
0.00999506
0.00999511
0.00999515
0.00999519
0.00999523
0.00999527
0.0099953
0.00999533
0.00999535
0.00999538
0.0099954
0.00999542
0.00999544
0.00999546
0.00999547
0.00999549
0.0099955
0.00999551
0.00999552
0.00999553
0.00999553
0.00999554
0.00999554
0.00999555
0.00999556
0.00999557
0.00999558
0.00999559
0.00999559
0.0099956
0.0099956
0.0099956
0.0099956
0.0099956
0.0099956
0.00999559
0.00999558
0.00999557
0.00999556
0.00992361
0.00982412
0.00971046
0.00957635
0.0094384
0.00930693
0.0091848
0.00907032
0.00895382
0.00881917
0.00865851
0.00849218
0.00836125
0.00829038
0.0082318
0.00807315
0.00783365
0.00756449
0.00729357
0.00703406
0.00678948
0.00655939
0.0063431
0.00614114
0.00595502
0.00578687
0.00563831
0.00551001
0.00540185
0.00531271
0.00523702
0.00516031
0.00506151
0.004931
0.00477965
0.00460858
0.00440154
0.00419624
0.00397118
0.00371471
0.00344939
0.00320492
0.0029958
0.0028355
0.00278034
0.00273378
0.00269882
0.00268599
0.00270388
0.00273407
0.002742
0.00271465
0.00266245
0.00260556
0.00255285
0.00250688
0.00246828
0.00243844
0.00242065
0.00242266
0.00244884
0.00249147
0.00253782
0.00258069
0.00262027
0.00266134
0.00270991
0.00277185
0.00285476
0.00296805
0.00312082
0.00332937
0.00362275
0.00408154
0.00492607
0.00636423
0.00638555
0.0028022
0.00136949
0.0012122
0.00113674