/*--------------------------------*- C++ -*----------------------------------*\
| =========                 |                                                 |
| \\      /  F ield         | OpenFOAM: The Open Source CFD Toolbox           |
|  \\    /   O peration     | Version:  5.x                                   |
|   \\  /    A nd           | Web:      www.OpenFOAM.org                      |
|    \\/     M anipulation  |                                                 |
\*---------------------------------------------------------------------------*/
/*   Windows 32 and 64 bit porting by blueCAPE: http://www.bluecape.com.pt   *\
|  Based on Windows porting (2.0.x v4) by Symscape: http://www.symscape.com   |
\*---------------------------------------------------------------------------*/
FoamFile
{
    version     2.0;
    format      ascii;
    class       volScalarField;
    location    "10";
    object      p;
}
// * * * * * * * * * * * * * * * * * * * * * * * * * * * * * * * * * * * * * //

dimensions      [0 2 -2 0 0 0 0];

internalField   nonuniform List<scalar> 
4000
(
16.8653
16.8599
16.8551
16.8501
16.8445
16.8381
16.8308
16.8226
16.8134
16.8033
16.7923
16.7804
16.7676
16.7538
16.7391
16.7236
16.7071
16.6898
16.6716
16.6525
16.6325
16.6116
16.5897
16.567
16.5434
16.5189
16.4935
16.4673
16.4402
16.4123
16.3836
16.354
16.3237
16.2924
16.2604
16.2275
16.1938
16.1592
16.1238
16.0874
16.0502
16.0121
15.9731
15.9332
15.8925
15.8508
15.8083
15.7648
15.7205
15.6753
15.6292
15.5823
15.5344
15.4858
15.4362
15.3858
15.3346
15.2825
15.2295
15.1758
15.1211
15.0657
15.0094
14.9523
14.8944
14.8357
14.7762
14.7159
14.6548
14.5929
14.5302
14.4667
14.4025
14.3374
14.2715
14.2048
14.1374
14.0691
14
13.9301
13.8594
13.7879
13.7156
13.6425
13.5686
13.4939
13.4185
13.3422
13.2651
13.1872
13.1086
13.0291
12.9489
12.868
12.7862
12.7036
12.6203
12.5362
12.4513
12.3656
12.2791
12.1918
12.1038
12.015
11.9255
11.8351
11.744
11.6522
11.5595
11.466
11.3718
11.2768
11.1809
11.0843
10.9869
10.8886
10.7896
10.6898
10.5891
10.4877
10.3855
10.2825
10.1787
10.0742
9.96882
9.86268
9.75576
9.64806
9.53958
9.43033
9.3203
9.2095
9.09794
8.98562
8.87255
8.75874
8.64421
8.52896
8.41301
8.29635
8.17897
8.06089
7.94207
7.82251
7.70222
7.58117
7.45937
7.33682
7.21353
7.08948
6.96469
6.83914
6.71285
6.58582
6.45805
6.32955
6.20031
6.07035
5.93966
5.80824
5.67609
5.54321
5.40961
5.27528
5.14023
5.00445
4.86795
4.73073
4.59279
4.45414
4.31477
4.17467
4.03385
3.89229
3.74998
3.60688
3.46299
3.31828
3.17276
3.02641
2.87925
2.7313
2.5826
2.43319
2.28312
2.13245
1.98125
1.82963
1.67773
1.52574
1.37391
1.22257
1.07208
0.92282
0.775136
0.629245
0.485423
0.342721
0.203063
0.066577
16.8595
16.858
16.8551
16.851
16.8459
16.8398
16.8326
16.8245
16.8154
16.8053
16.7943
16.7823
16.7695
16.7557
16.7411
16.7255
16.7091
16.6918
16.6736
16.6545
16.6345
16.6136
16.5918
16.5691
16.5454
16.5209
16.4956
16.4693
16.4422
16.4143
16.3855
16.3559
16.3255
16.2943
16.2623
16.2295
16.1957
16.1612
16.1257
16.0894
16.0521
16.014
15.975
15.9352
15.8944
15.8527
15.8102
15.7668
15.7224
15.6772
15.6311
15.5841
15.5363
15.4876
15.4381
15.3877
15.3364
15.2843
15.2314
15.1776
15.1229
15.0674
15.0112
14.9541
14.8961
14.8374
14.7779
14.7176
14.6565
14.5946
14.532
14.4685
14.4042
14.3391
14.2732
14.2066
14.1391
14.0708
14.0017
13.9318
13.8612
13.7897
13.7174
13.6443
13.5704
13.4957
13.4202
13.3439
13.2668
13.1889
13.1103
13.0309
12.9507
12.8697
12.7879
12.7054
12.622
12.5379
12.453
12.3673
12.2808
12.1935
12.1055
12.0167
11.9272
11.8368
11.7457
11.6539
11.5612
11.4678
11.3735
11.2785
11.1826
11.086
10.9886
10.8903
10.7913
10.6915
10.5909
10.4894
10.3872
10.2842
10.1804
10.0759
9.97051
9.86437
9.75745
9.64974
9.54126
9.432
9.32197
9.21117
9.0996
8.98727
8.87419
8.76036
8.64582
8.53056
8.4146
8.29795
8.18059
8.06251
7.94371
7.82416
7.70387
7.58283
7.46103
7.33848
7.21518
7.09113
6.96633
6.84079
6.71449
6.58746
6.45969
6.33118
6.20194
6.07197
5.94128
5.80985
5.6777
5.54482
5.41122
5.27688
5.14183
5.00604
4.86954
4.73232
4.59438
4.45572
4.31635
4.17627
4.03546
3.89392
3.75162
3.60855
3.46466
3.31995
3.17441
3.02803
2.88083
2.73283
2.58407
2.4346
2.28445
2.13368
1.98235
1.83055
1.6784
1.52609
1.37388
1.22209
1.07115
0.92151
0.773597
0.627688
0.484142
0.34169
0.202082
0.0662172
16.8606
16.8599
16.8578
16.8542
16.8493
16.8433
16.8362
16.8281
16.819
16.8089
16.7979
16.7858
16.7728
16.759
16.7442
16.7286
16.7121
16.6947
16.6765
16.6575
16.6375
16.6167
16.5949
16.5721
16.5485
16.524
16.4986
16.4724
16.4453
16.4174
16.3886
16.359
16.3286
16.2974
16.2654
16.2326
16.199
16.1645
16.1291
16.0928
16.0556
16.0176
15.9786
15.9387
15.898
15.8563
15.8138
15.7703
15.726
15.6808
15.6347
15.5877
15.5399
15.4912
15.4416
15.3912
15.34
15.288
15.235
15.1812
15.1265
15.0711
15.0148
14.9577
14.8997
14.841
14.7815
14.7212
14.6601
14.5983
14.5356
14.4721
14.4078
14.3428
14.2769
14.2102
14.1428
14.0745
14.0054
13.9356
13.8649
13.7934
13.7211
13.648
13.5741
13.4994
13.4239
13.3476
13.2705
13.1926
13.1139
13.0345
12.9544
12.8734
12.7917
12.7091
12.6258
12.5416
12.4567
12.371
12.2845
12.1973
12.1092
12.0204
11.9309
11.8406
11.7495
11.6577
11.5651
11.4716
11.3774
11.2824
11.1865
11.0899
10.9925
10.8942
10.7952
10.6954
10.5948
10.4933
10.3911
10.2881
10.1843
10.0798
9.9744
9.86825
9.76133
9.65362
9.54514
9.43587
9.32583
9.21502
9.10343
8.99108
8.87797
8.76412
8.64954
8.53427
8.41832
8.30168
8.18435
8.0663
7.94752
7.828
7.70772
7.58669
7.4649
7.34235
7.21904
7.09499
6.97018
6.84462
6.71832
6.59128
6.4635
6.33498
6.20574
6.07576
5.94506
5.81363
5.68147
5.54858
5.41497
5.28062
5.14556
5.00976
4.87325
4.73601
4.59806
4.45939
4.32002
4.17994
4.03916
3.89766
3.75541
3.61236
3.4685
3.32378
3.1782
3.03175
2.88444
2.73632
2.58742
2.43779
2.28747
2.13647
1.98484
1.83263
1.67993
1.5269
1.37376
1.22088
1.06881
0.918182
0.769647
0.623703
0.48094
0.34013
0.20347
0.0672103
16.8658
16.8643
16.8619
16.8584
16.8537
16.8478
16.8408
16.8328
16.8237
16.8137
16.8027
16.7907
16.7776
16.7636
16.7487
16.733
16.7164
16.6989
16.6806
16.6614
16.6413
16.6204
16.5986
16.5757
16.552
16.5274
16.502
16.4756
16.4484
16.4205
16.3917
16.3621
16.3316
16.3003
16.2683
16.2354
16.2018
16.1674
16.1321
16.0959
16.0588
16.0209
15.982
15.9422
15.9015
15.8599
15.8174
15.774
15.7297
15.6845
15.6384
15.5914
15.5436
15.4949
15.4454
15.3951
15.3439
15.2919
15.2391
15.1853
15.1306
15.0752
15.0189
14.9618
14.904
14.8453
14.7859
14.7256
14.6646
14.6027
14.5401
14.4767
14.4124
14.3474
14.2816
14.215
14.1475
14.0793
14.0103
13.9404
13.8698
13.7983
13.7261
13.653
13.5791
13.5044
13.4289
13.3526
13.2755
13.1977
13.1191
13.0397
12.9596
12.8787
12.797
12.7145
12.6311
12.547
12.4621
12.3764
12.2899
12.2027
12.1146
12.0259
11.9363
11.8461
11.755
11.6633
11.5707
11.4773
11.3831
11.2881
11.1923
11.0956
10.9982
10.9
10.801
10.7012
10.6006
10.4992
10.397
10.294
10.1902
10.0856
9.98029
9.87416
9.76724
9.65954
9.55106
9.4418
9.33176
9.22094
9.10934
8.99697
8.88382
8.76992
8.65529
8.53999
8.42407
8.30751
8.19026
8.07229
7.95358
7.83411
7.71387
7.59287
7.47109
7.34855
7.22525
7.10119
6.97638
6.85082
6.72451
6.59746
6.46968
6.34115
6.2119
6.08192
5.95121
5.81977
5.68761
5.55471
5.42109
5.28673
5.15165
5.01584
4.8793
4.74204
4.60406
4.46536
4.32598
4.18592
4.04519
3.90377
3.76159
3.61861
3.47477
3.33005
3.1844
3.03781
2.89032
2.74197
2.59284
2.44298
2.29239
2.14107
1.989
1.83618
1.68264
1.52845
1.37376
1.21895
1.06474
0.912156
0.762253
0.615831
0.474103
0.336842
0.20585
0.0691457
16.8733
16.8714
16.8686
16.865
16.8603
16.8544
16.8475
16.8395
16.8305
16.8206
16.8097
16.7978
16.7849
16.7711
16.7562
16.7405
16.724
16.7065
16.6881
16.6689
16.6488
16.6277
16.6058
16.5828
16.5588
16.534
16.5084
16.4818
16.4544
16.4262
16.3972
16.3674
16.3367
16.3052
16.2729
16.2398
16.2059
16.1713
16.136
16.0998
16.0627
16.0247
15.9858
15.946
15.9053
15.8636
15.8211
15.7777
15.7333
15.6881
15.642
15.595
15.5471
15.4984
15.4488
15.3983
15.3471
15.2952
15.2423
15.1885
15.1338
15.0782
15.0219
14.9649
14.9071
14.8485
14.789
14.7288
14.6678
14.606
14.5434
14.48
14.4158
14.3509
14.2851
14.2185
14.1511
14.0829
14.0139
13.9441
13.8735
13.8021
13.7298
13.6568
13.5829
13.5083
13.4328
13.3564
13.2793
13.2014
13.1228
13.0435
12.9635
12.8827
12.801
12.7186
12.6353
12.5512
12.4663
12.3806
12.2941
12.2069
12.1189
12.0301
11.9405
11.8503
11.7593
11.6675
11.575
11.4817
11.3875
11.2926
11.1968
11.1003
11.0029
10.9047
10.8058
10.706
10.6054
10.5041
10.4019
10.299
10.1952
10.0907
9.9854
9.8793
9.77242
9.66475
9.5563
9.44706
9.33704
9.22624
9.11464
9.00226
8.88907
8.77508
8.66031
8.54485
8.4288
8.31223
8.19509
8.07728
7.95873
7.83941
7.71929
7.59838
7.47668
7.3542
7.23096
7.10694
6.98217
6.85665
6.73037
6.60336
6.47561
6.34712
6.2179
6.08795
5.95727
5.82586
5.69373
5.56086
5.42727
5.29294
5.15787
5.02208
4.88555
4.74829
4.61029
4.47157
4.33217
4.19215
4.05156
3.91036
3.76841
3.62564
3.48197
3.33733
3.19168
3.04497
2.89723
2.74858
2.59918
2.44912
2.29834
2.14675
1.99424
1.84076
1.68625
1.53053
1.37346
1.21531
1.05727
0.901212
0.748941
0.600401
0.45746
0.324594
0.203991
0.0711016
16.8829
16.8808
16.8778
16.874
16.8692
16.8634
16.8565
16.8486
16.8397
16.8298
16.819
16.8072
16.7944
16.7808
16.7661
16.7507
16.7343
16.717
16.6988
16.6797
16.6597
16.6388
16.617
16.5941
16.5702
16.5455
16.5198
16.4933
16.4658
16.4375
16.4084
16.3784
16.3476
16.316
16.2835
16.2503
16.2162
16.1814
16.1459
16.1095
16.0722
16.034
15.995
15.955
15.9142
15.8725
15.8298
15.7862
15.7417
15.6963
15.6501
15.603
15.555
15.5061
15.4564
15.4059
15.3545
15.3024
15.2494
15.1955
15.1405
15.0847
15.0282
14.971
14.9131
14.8543
14.7947
14.7344
14.6732
14.6114
14.5487
14.4852
14.421
14.3559
14.2901
14.2234
14.156
14.0877
14.0187
13.9488
13.8782
13.8067
13.7344
13.6613
13.5874
13.5127
13.4371
13.3607
13.2834
13.2054
13.1268
13.0475
12.9675
12.8867
12.8051
12.7226
12.6393
12.5551
12.4702
12.3844
12.298
12.2107
12.1226
12.0338
11.9442
11.8539
11.7629
11.6711
11.5786
11.4854
11.3912
11.2963
11.2006
11.1041
11.0067
10.9086
10.8097
10.7099
10.6094
10.5081
10.4059
10.303
10.1993
10.0948
9.98952
9.88344
9.77658
9.66893
9.5605
9.45127
9.34127
9.23047
9.11887
9.00646
8.89321
8.77908
8.66406
8.54822
8.43174
8.31489
8.19773
8.08009
7.96182
7.84274
7.72281
7.60204
7.48047
7.3581
7.23494
7.11101
6.98631
6.86085
6.73465
6.6077
6.48001
6.35159
6.22244
6.09257
5.96196
5.83063
5.69857
5.56578
5.43226
5.29801
5.16302
5.02729
4.89083
4.75362
4.61567
4.47695
4.33752
4.19749
4.05703
3.91613
3.77462
3.63231
3.48909
3.34485
3.19948
3.05289
2.90507
2.75611
2.60627
2.45576
2.30463
2.15268
1.99966
1.84539
1.6897
1.53221
1.37247
1.21052
1.04743
0.885326
0.727048
0.570965
0.420598
0.289627
0.184376
0.0674077
16.8939
16.8916
16.8884
16.8845
16.8796
16.8737
16.8668
16.859
16.8501
16.8403
16.8295
16.8178
16.8051
16.7916
16.7771
16.7617
16.7454
16.7281
16.71
16.691
16.6711
16.6502
16.6284
16.6057
16.582
16.5573
16.5318
16.5054
16.4781
16.4499
16.4209
16.391
16.3603
16.3288
16.2964
16.2633
16.2293
16.1945
16.159
16.1226
16.0853
16.0472
16.0081
15.9682
15.9274
15.8857
15.843
15.7994
15.7549
15.7096
15.6633
15.6162
15.5682
15.5194
15.4697
15.4191
15.3677
15.3155
15.2624
15.2085
15.1536
15.0978
15.0412
14.9838
14.9257
14.8668
14.8071
14.7465
14.6853
14.6232
14.5604
14.4968
14.4324
14.3672
14.3012
14.2345
14.1669
14.0986
14.0295
13.9595
13.8888
13.8173
13.7449
13.6718
13.5978
13.523
13.4474
13.371
13.2937
13.2157
13.137
13.0577
12.9775
12.8966
12.8149
12.7323
12.6489
12.5646
12.4795
12.3937
12.3071
12.2198
12.1316
12.0427
11.953
11.8626
11.7715
11.6797
11.5871
11.4938
11.3996
11.3047
11.2089
11.1124
11.015
10.9169
10.8179
10.7182
10.6176
10.5163
10.4142
10.3113
10.2075
10.103
9.99775
9.89167
9.7848
9.67715
9.5687
9.45947
9.34944
9.23862
9.127
9.01455
8.90123
8.78698
8.67175
8.55556
8.43859
8.32124
8.2037
8.0859
7.96763
7.84862
7.72873
7.60797
7.4864
7.36402
7.24084
7.11688
6.99215
6.86667
6.74045
6.61349
6.4858
6.35739
6.22825
6.0984
5.96783
5.83654
5.70452
5.57177
5.4383
5.3041
5.16916
5.03349
4.8971
4.75998
4.62212
4.4835
4.34415
4.2042
4.06381
3.92306
3.78181
3.63986
3.49703
3.35319
3.2082
3.06193
2.91431
2.76533
2.61511
2.46386
2.31184
2.15899
2.00494
1.84936
1.69201
1.53256
1.37069
1.20622
1.03909
0.869992
0.702138
0.534792
0.371646
0.239883
0.148636
0.0560165
16.9059
16.9034
16.9
16.896
16.8911
16.8851
16.8782
16.8704
16.8615
16.8518
16.8411
16.8294
16.8168
16.8033
16.7889
16.7735
16.7573
16.7401
16.7221
16.7031
16.6832
16.6624
16.6406
16.6179
16.5943
16.5698
16.5443
16.518
16.4908
16.4627
16.4338
16.404
16.3734
16.3419
16.3096
16.2764
16.2425
16.2077
16.1721
16.1356
16.0983
16.0601
16.021
15.981
15.9402
15.8984
15.8558
15.8122
15.7678
15.7225
15.6763
15.6292
15.5813
15.5325
15.4828
15.4324
15.381
15.3288
15.2758
15.2219
15.1671
15.1114
15.055
14.9977
14.9396
14.8808
14.8211
14.7606
14.6994
14.6374
14.5746
14.511
14.4467
14.3815
14.3156
14.2489
14.1814
14.1131
14.044
13.9741
13.9034
13.8319
13.7596
13.6864
13.6125
13.5378
13.4623
13.3859
13.3088
13.2309
13.1523
13.0729
12.9928
12.9118
12.8301
12.7476
12.6642
12.58
12.4949
12.409
12.3224
12.235
12.1469
12.058
11.9683
11.8778
11.7867
11.6948
11.6021
11.5087
11.4145
11.3195
11.2237
11.1271
11.0297
10.9315
10.8325
10.7328
10.6322
10.5308
10.4287
10.3258
10.222
10.1175
10.0122
9.90611
9.79922
9.69154
9.58307
9.4738
9.36374
9.25287
9.14121
9.02872
8.91538
8.80115
8.686
8.56998
8.45319
8.33583
8.21804
8.09982
7.98108
7.86167
7.74147
7.62046
7.49864
7.37603
7.25263
7.12845
7.00351
6.87783
6.75141
6.62428
6.49643
6.36788
6.23862
6.10866
5.97798
5.84658
5.71445
5.58159
5.44798
5.31365
5.17859
5.04281
4.90634
4.76916
4.63129
4.49272
4.35348
4.21361
4.07319
3.93223
3.79067
3.64838
3.50522
3.36109
3.21587
3.06948
2.92183
2.77291
2.62271
2.4713
2.31874
2.16496
2.00969
1.85262
1.69347
1.53195
1.36779
1.20088
1.03119
0.859034
0.6855
0.509807
0.335612
0.201756
0.117742
0.0444136
16.9188
16.9162
16.9126
16.9085
16.9035
16.8975
16.8906
16.8827
16.8739
16.8642
16.8535
16.8419
16.8294
16.816
16.8016
16.7863
16.7701
16.753
16.735
16.716
16.6962
16.6754
16.6537
16.6311
16.6076
16.5831
16.5577
16.5315
16.5044
16.4763
16.4475
16.4177
16.3871
16.3557
16.3234
16.2902
16.2563
16.2214
16.1858
16.1493
16.1119
16.0736
16.0345
15.9945
15.9536
15.9118
15.8691
15.8256
15.7812
15.7359
15.6897
15.6427
15.5948
15.5461
15.4965
15.446
15.3947
15.3426
15.2896
15.2357
15.181
15.1254
15.069
15.0118
14.9537
14.8949
14.8353
14.7748
14.7136
14.6516
14.5889
14.5253
14.461
14.3959
14.33
14.2633
14.1958
14.1275
14.0584
13.9886
13.9179
13.8464
13.7742
13.7011
13.6272
13.5525
13.477
13.4007
13.3237
13.2458
13.1672
13.0879
13.0077
12.9268
12.8451
12.7625
12.6791
12.5949
12.5099
12.4241
12.3375
12.2501
12.162
12.0731
11.9834
11.893
11.8018
11.7098
11.6172
11.5237
11.4294
11.3344
11.2386
11.142
11.0446
10.9464
10.8474
10.7476
10.647
10.5457
10.4435
10.3406
10.2369
10.1324
10.0271
9.92096
9.81407
9.70637
9.59788
9.48859
9.3785
9.26762
9.15593
9.04344
8.93012
8.81596
8.70096
8.58516
8.46861
8.35142
8.23366
8.11532
7.99636
7.87672
7.75631
7.63511
7.51309
7.39028
7.26667
7.14228
7.01714
6.89126
6.76466
6.63735
6.50935
6.38066
6.25129
6.12121
5.99043
5.85892
5.72666
5.59364
5.45986
5.32533
5.19007
5.05412
4.9175
4.78022
4.64229
4.5037
4.36447
4.22458
4.08406
3.94288
3.80098
3.65827
3.51468
3.37013
3.22454
3.07786
2.93001
2.78097
2.63067
2.47908
2.32614
2.17168
2.01548
1.85721
1.69656
1.53319
1.36681
1.19728
1.02465
0.849222
0.671366
0.491087
0.316689
0.187299
0.106908
0.0398552
16.9327
16.9299
16.9262
16.9219
16.9168
16.9108
16.9039
16.896
16.8873
16.8776
16.867
16.8554
16.843
16.8296
16.8153
16.8
16.7839
16.7668
16.7489
16.73
16.7102
16.6894
16.6678
16.6452
16.6217
16.5974
16.5721
16.5459
16.5188
16.4909
16.4621
16.4324
16.4018
16.3704
16.3381
16.3049
16.2709
16.2361
16.2004
16.1638
16.1264
16.088
16.0489
16.0088
15.9678
15.9261
15.8834
15.8399
15.7955
15.7502
15.7041
15.6571
15.6092
15.5605
15.511
15.4606
15.4093
15.3572
15.3042
15.2504
15.1957
15.1402
15.0838
15.0266
14.9686
14.9098
14.8502
14.7897
14.7285
14.6666
14.6038
14.5403
14.476
14.4109
14.345
14.2783
14.2108
14.1426
14.0735
14.0037
13.9331
13.8616
13.7894
13.7164
13.6425
13.5679
13.4924
13.4162
13.3392
13.2614
13.1828
13.1034
13.0233
12.9423
12.8606
12.778
12.6947
12.6105
12.5255
12.4397
12.3531
12.2658
12.1776
12.0887
11.999
11.9086
11.8173
11.7254
11.6327
11.5392
11.4449
11.3498
11.254
11.1573
11.0599
10.9617
10.8627
10.7629
10.6623
10.561
10.4588
10.3559
10.2522
10.1477
10.0423
9.93624
9.82933
9.72163
9.61311
9.50379
9.39368
9.28278
9.17109
9.0586
8.94531
8.83122
8.71632
8.60065
8.48424
8.36714
8.24938
8.13097
8.01188
7.89206
7.77147
7.65008
7.52787
7.40483
7.28098
7.15636
7.03098
6.90488
6.77806
6.65056
6.52239
6.39356
6.26407
6.1339
6.00303
5.87142
5.73905
5.60587
5.4719
5.33714
5.20165
5.06549
4.92871
4.79133
4.65335
4.51474
4.37549
4.23559
4.09499
3.95365
3.81151
3.6685
3.52459
3.37974
3.23389
3.08702
2.93906
2.78995
2.63963
2.48799
2.33488
2.18009
2.02337
1.86437
1.70269
1.53788
1.36954
1.1974
1.02141
0.842073
0.659918
0.476803
0.308811
0.189006
0.113895
0.0434067
16.9474
16.9445
16.9406
16.9363
16.9311
16.925
16.9181
16.9103
16.9015
16.8919
16.8814
16.8699
16.8575
16.8442
16.8299
16.8147
16.7986
16.7816
16.7637
16.7449
16.7251
16.7044
16.6828
16.6603
16.6369
16.6126
16.5874
16.5612
16.5342
16.5063
16.4776
16.4479
16.4174
16.386
16.3537
16.3205
16.2865
16.2517
16.2159
16.1793
16.1418
16.1034
16.0642
16.0241
15.9831
15.9413
15.8986
15.8551
15.8107
15.7655
15.7194
15.6724
15.6246
15.5759
15.5264
15.476
15.4248
15.3727
15.3198
15.266
15.2114
15.1559
15.0995
15.0424
14.9844
14.9256
14.8659
14.8055
14.7444
14.6824
14.6196
14.5561
14.4918
14.4268
14.3609
14.2942
14.2268
14.1586
14.0896
14.0198
13.9492
13.8778
13.8056
13.7326
13.6588
13.5842
13.5088
13.4326
13.3556
13.2778
13.1992
13.1199
13.0397
12.9588
12.8771
12.7945
12.7112
12.627
12.542
12.4563
12.3697
12.2823
12.1941
12.1052
12.0155
11.925
11.8338
11.7418
11.6491
11.5555
11.4612
11.3661
11.2703
11.1736
11.0762
10.9779
10.8789
10.7791
10.6785
10.5772
10.475
10.3721
10.2684
10.1639
10.0586
9.95246
9.84555
9.73783
9.62929
9.51994
9.40979
9.29887
9.18718
9.07471
8.96146
8.84742
8.7326
8.61701
8.50068
8.38363
8.26587
8.14741
8.02822
7.90828
7.78754
7.66598
7.54356
7.42028
7.29616
7.17127
7.04563
6.91928
6.79223
6.66451
6.53616
6.40719
6.2776
6.14737
6.01645
5.8848
5.75233
5.61901
5.48482
5.34978
5.214
5.07759
4.94063
4.80316
4.66514
4.52655
4.38732
4.24743
4.10681
3.96539
3.82308
3.67985
3.53568
3.39058
3.24454
3.09755
2.94956
2.80051
2.6503
2.49879
2.34579
2.19099
2.03415
1.87493
1.71279
1.54706
1.37714
1.20243
1.02239
0.838099
0.651715
0.470784
0.318556
0.212652
0.139622
0.0541216
16.9631
16.96
16.9559
16.9515
16.9462
16.9402
16.9332
16.9254
16.9168
16.9072
16.8967
16.8853
16.8729
16.8597
16.8455
16.8304
16.8143
16.7974
16.7795
16.7607
16.741
16.7204
16.6988
16.6764
16.653
16.6288
16.6036
16.5776
16.5506
16.5228
16.494
16.4644
16.4339
16.4025
16.3703
16.3371
16.3031
16.2682
16.2325
16.1958
16.1583
16.1198
16.0805
16.0403
15.9993
15.9574
15.9148
15.8713
15.8269
15.7818
15.7357
15.6888
15.641
15.5924
15.5429
15.4925
15.4413
15.3893
15.3364
15.2827
15.2281
15.1726
15.1163
15.0591
15.0011
14.9423
14.8827
14.8223
14.7611
14.6992
14.6365
14.573
14.5087
14.4437
14.3778
14.3112
14.2438
14.1756
14.1067
14.0369
13.9664
13.895
13.8228
13.7499
13.6761
13.6015
13.5262
13.45
13.373
13.2953
13.2167
13.1374
13.0573
12.9764
12.8947
12.8121
12.7288
12.6447
12.5597
12.4739
12.3873
12.2999
12.2118
12.1228
12.0331
11.9426
11.8514
11.7594
11.6666
11.5731
11.4788
11.3836
11.2878
11.1911
11.0936
10.9954
10.8963
10.7965
10.6959
10.5946
10.4924
10.3895
10.2858
10.1813
10.076
9.96991
9.863
9.75528
9.64673
9.53733
9.42712
9.31618
9.20449
9.09204
8.97882
8.86483
8.75007
8.63455
8.51827
8.40124
8.28348
8.16498
8.04573
7.9257
7.80487
7.68317
7.56055
7.437
7.31255
7.18733
7.06139
6.93477
6.80744
6.67945
6.55089
6.42179
6.29213
6.16187
6.03096
5.89932
5.76682
5.63337
5.49891
5.36349
5.22728
5.09052
4.95335
4.81581
4.67783
4.5393
4.40015
4.26034
4.1198
3.97838
3.83595
3.69248
3.54805
3.40272
3.25653
3.1095
2.96159
2.81272
2.6628
2.51168
2.35911
2.2047
2.04821
1.88941
1.72761
1.56174
1.391
1.21432
1.02999
0.84231
0.657915
0.490147
0.357717
0.258197
0.176187
0.067654
16.9797
16.9765
16.9721
16.9675
16.9622
16.9562
16.9493
16.9415
16.9329
16.9234
16.913
16.9016
16.8894
16.8762
16.8621
16.847
16.831
16.8141
16.7963
16.7775
16.7579
16.7373
16.7158
16.6935
16.6702
16.646
16.6209
16.5949
16.568
16.5403
16.5116
16.482
16.4515
16.4201
16.3879
16.3548
16.3208
16.2859
16.2501
16.2134
16.1758
16.1373
16.0979
16.0577
16.0166
15.9747
15.9321
15.8886
15.8443
15.7992
15.7531
15.7062
15.6585
15.6098
15.5604
15.5101
15.4589
15.4069
15.3541
15.3004
15.2458
15.1904
15.1341
15.0769
15.0189
14.96
14.9004
14.84
14.7789
14.7169
14.6542
14.5908
14.5265
14.4615
14.3957
14.3291
14.2618
14.1936
14.1247
14.055
13.9845
13.9132
13.8411
13.7681
13.6944
13.6199
13.5446
13.4684
13.3915
13.3138
13.2352
13.1559
13.0758
12.9949
12.9132
12.8308
12.7475
12.6634
12.5784
12.4926
12.406
12.3186
12.2304
12.1415
12.0517
11.9613
11.87
11.778
11.6853
11.5917
11.4974
11.4023
11.3064
11.2097
11.1122
11.014
10.9149
10.8151
10.7145
10.6132
10.511
10.4081
10.3045
10.2
10.0947
9.98858
9.88167
9.77395
9.66538
9.55592
9.44563
9.33463
9.22292
9.11046
8.99724
8.88325
8.7685
8.65297
8.53669
8.41964
8.30185
8.18329
8.06398
7.94389
7.823
7.70122
7.57844
7.45458
7.32973
7.20407
7.07777
6.95082
6.82314
6.69476
6.56587
6.43651
6.30665
6.17627
6.0453
5.91364
5.78111
5.64751
5.51267
5.37666
5.2398
5.10247
4.96493
4.82723
4.68921
4.55067
4.41154
4.27179
4.13134
3.98996
3.84737
3.70358
3.55881
3.41323
3.26688
3.1198
2.97196
2.82329
2.67372
2.52311
2.37129
2.21794
2.06276
1.90543
1.74511
1.58027
1.40993
1.23365
1.05071
0.868989
0.694766
0.539262
0.413092
0.309288
0.211111
0.0788517
16.9971
16.9938
16.9891
16.9844
16.9791
16.9731
16.9663
16.9586
16.95
16.9406
16.9303
16.9191
16.907
16.8938
16.8798
16.8648
16.8488
16.832
16.8142
16.7955
16.7759
16.7554
16.7339
16.7116
16.6884
16.6642
16.6392
16.6133
16.5865
16.5588
16.5301
16.5006
16.4701
16.4388
16.4065
16.3734
16.3395
16.3046
16.2688
16.2321
16.1945
16.1559
16.1165
16.0761
16.035
15.993
15.9502
15.9067
15.8623
15.8171
15.771
15.724
15.6762
15.6275
15.5779
15.5276
15.4764
15.4243
15.3714
15.3177
15.2631
15.2076
15.1512
15.094
15.0358
14.9768
14.9171
14.8566
14.7953
14.7332
14.6704
14.6068
14.5425
14.4774
14.4115
14.3448
14.2773
14.2091
14.1402
14.0704
13.9999
13.9285
13.8564
13.7834
13.7097
13.6351
13.5598
13.4837
13.4067
13.329
13.2504
13.1711
13.091
13.0101
12.9284
12.8459
12.7626
12.6785
12.5936
12.5078
12.421
12.3335
12.2452
12.1562
12.0664
11.9759
11.8845
11.7925
11.6996
11.606
11.5115
11.4164
11.3204
11.2236
11.1261
11.0278
10.9287
10.8288
10.7282
10.6268
10.5246
10.4217
10.318
10.2135
10.1082
10.0021
9.89514
9.78733
9.6787
9.56923
9.45894
9.34791
9.23614
9.12362
9.01034
8.89629
8.78146
8.66587
8.54951
8.43238
8.31449
8.19583
8.07641
7.95622
7.83525
7.71343
7.59065
7.46676
7.34174
7.21583
7.08925
6.9621
6.83432
6.7059
6.57692
6.44739
6.31732
6.18669
6.05548
5.92362
5.79098
5.65735
5.52246
5.38633
5.24935
5.11188
4.97415
4.83619
4.69788
4.55909
4.41971
4.27972
4.13904
3.99755
3.85501
3.71137
3.56676
3.42128
3.27499
3.12792
2.98009
2.83145
2.68193
2.53143
2.37981
2.22692
2.07254
1.91633
1.7576
1.59497
1.42705
1.25445
1.08069
0.911445
0.74828
0.597942
0.467555
0.35047
0.231933
0.0831009
17.0148
17.0114
17.0066
17.002
16.9969
16.9909
16.9842
16.9766
16.9682
16.9589
16.9488
16.9377
16.9257
16.9127
16.8987
16.8837
16.8678
16.8509
16.833
16.8142
16.7945
16.7738
16.7521
16.7296
16.7061
16.6818
16.6565
16.6303
16.6033
16.5754
16.5466
16.5169
16.4863
16.4548
16.4224
16.3891
16.355
16.32
16.2841
16.2472
16.2094
16.1706
16.1308
16.0903
16.0489
16.0068
15.9638
15.9201
15.8755
15.83
15.7837
15.7366
15.6886
15.6398
15.5901
15.5396
15.4882
15.436
15.383
15.3291
15.2744
15.2189
15.1625
15.1051
15.0468
14.9877
14.9279
14.8673
14.8059
14.7437
14.6807
14.617
14.5526
14.4873
14.4213
14.3545
14.2869
14.2186
14.1495
14.0796
14.009
13.9376
13.8653
13.7923
13.7185
13.6439
13.5685
13.4924
13.4154
13.3376
13.259
13.1797
13.0995
13.0186
12.9369
12.8544
12.7711
12.687
12.6021
12.5163
12.4296
12.3421
12.2539
12.1648
12.075
11.9844
11.8931
11.8009
11.708
11.6143
11.5199
11.4247
11.3286
11.2319
11.1343
11.036
10.9368
10.837
10.7363
10.6349
10.5327
10.4297
10.326
10.2216
10.1163
10.0102
9.90334
9.79559
9.68703
9.57765
9.46745
9.35647
9.24471
9.13219
9.01888
8.90481
8.78995
8.67432
8.55792
8.44074
8.32278
8.20406
8.08457
7.9643
7.84325
7.72139
7.59865
7.4749
7.35011
7.2244
7.09796
6.97086
6.84314
6.71478
6.5858
6.45621
6.32601
6.19521
6.06376
5.93164
5.79878
5.66506
5.53034
5.39463
5.25811
5.12099
4.98341
4.84542
4.70696
4.56796
4.42837
4.28812
4.14716
4.00544
3.86284
3.7193
3.57484
3.42948
3.28328
3.13626
2.98842
2.83973
2.69016
2.5396
2.38795
2.23509
2.08087
1.92505
1.76725
1.60679
1.44302
1.27657
1.11098
0.94945
0.792393
0.643002
0.505066
0.372845
0.238016
0.0822333
17.0313
17.0275
17.0229
17.0185
17.0136
17.0079
17.0014
16.9939
16.9855
16.9761
16.9658
16.9545
16.9423
16.9291
16.9149
16.8997
16.8835
16.8664
16.8483
16.8292
16.8092
16.7881
16.7662
16.7434
16.7196
16.6949
16.6693
16.6428
16.6154
16.5872
16.5581
16.5281
16.4972
16.4655
16.4329
16.3994
16.3651
16.3299
16.2938
16.2568
16.2189
16.18
16.1402
16.0996
16.0581
16.0158
15.9727
15.9288
15.8841
15.8386
15.7922
15.7449
15.6968
15.6479
15.5982
15.5476
15.4961
15.4439
15.3908
15.3368
15.2821
15.2265
15.17
15.1127
15.0545
14.9955
14.9357
14.8751
14.8137
14.7516
14.6886
14.6249
14.5604
14.4952
14.4291
14.3623
14.2947
14.2264
14.1573
14.0874
14.0167
13.9452
13.873
13.8
13.7261
13.6515
13.5762
13.5
13.423
13.3452
13.2667
13.1873
13.1072
13.0262
12.9445
12.862
12.7787
12.6947
12.6098
12.5241
12.4375
12.3501
12.2619
12.173
12.0832
11.9927
11.9013
11.8092
11.7163
11.6227
11.5282
11.433
11.337
11.2402
11.1427
11.0444
10.9453
10.8454
10.7448
10.6434
10.5412
10.4383
10.3346
10.2301
10.1249
10.0189
9.91216
9.80462
9.69627
9.58708
9.47704
9.36617
9.2545
9.14204
9.02879
8.91475
8.79994
8.68434
8.56796
8.4508
8.33286
8.21414
8.09464
7.97435
7.85328
7.7314
7.60869
7.48513
7.36071
7.23547
7.10942
6.9826
6.85506
6.72682
6.59791
6.46834
6.33812
6.20725
6.07571
5.94346
5.81047
5.6767
5.54208
5.40663
5.27042
5.13355
4.99611
4.85811
4.71957
4.58043
4.44066
4.30023
4.15908
4.01716
3.87442
3.73081
3.58634
3.44099
3.2948
3.14775
2.99986
2.85109
2.7014
2.55074
2.39901
2.24613
2.09199
1.93647
1.7794
1.62063
1.46018
1.2987
1.13761
0.978622
0.82295
0.671835
0.52631
0.381612
0.236212
0.0794573
17.0454
17.0409
17.0365
17.0323
17.0278
17.0224
17.0161
17.0088
17.0003
16.9908
16.9802
16.9686
16.956
16.9423
16.9277
16.9122
16.8957
16.8782
16.8598
16.8404
16.8202
16.799
16.7769
16.7539
16.73
16.7053
16.6796
16.653
16.6255
16.5972
16.5679
16.5379
16.5069
16.4751
16.4424
16.4089
16.3745
16.3393
16.3031
16.2662
16.2283
16.1896
16.15
16.1095
16.0682
16.026
15.9829
15.9391
15.8944
15.8489
15.8025
15.7553
15.7073
15.6584
15.6087
15.5581
15.5067
15.4545
15.4014
15.3475
15.2928
15.2372
15.1808
15.1236
15.0655
15.0066
14.9469
14.8864
14.8251
14.763
14.7001
14.6364
14.572
14.5068
14.4408
14.374
14.3065
14.2382
14.1691
14.0992
14.0285
13.9571
13.8849
13.8119
13.7381
13.6635
13.5882
13.512
13.435
13.3573
13.2788
13.1994
13.1193
13.0384
12.9568
12.8743
12.791
12.707
12.6222
12.5366
12.4501
12.3628
12.2747
12.1858
12.0961
12.0057
11.9144
11.8224
11.7295
11.6359
11.5415
11.4463
11.3504
11.2536
11.1561
11.0579
10.9588
10.859
10.7584
10.657
10.5549
10.452
10.3483
10.2439
10.1387
10.0328
9.92611
9.81869
9.71048
9.60142
9.4915
9.38076
9.26919
9.15683
9.04366
8.92971
8.81496
8.69943
8.58311
8.466
8.34811
8.22942
8.10996
7.9897
7.86864
7.74678
7.62411
7.50062
7.37632
7.25121
7.12532
6.99867
6.87128
6.74317
6.61437
6.48488
6.3547
6.22384
6.09229
5.96002
5.82702
5.69325
5.55871
5.42339
5.28733
5.1506
5.01323
4.87524
4.73665
4.59742
4.45754
4.31696
4.17566
4.03359
3.89072
3.74702
3.60246
3.45704
3.31077
3.16364
3.01563
2.86673
2.71689
2.56608
2.41425
2.26134
2.10729
1.95205
1.79559
1.63794
1.47929
1.3201
1.16116
1.00329
0.847175
0.693173
0.541308
0.387983
0.235473
0.0779567
17.0578
17.0537
17.0496
17.0458
17.0415
17.0364
17.0303
17.0231
17.0148
17.0053
16.9948
16.9832
16.9705
16.9567
16.9419
16.9262
16.9095
16.8918
16.8732
16.8538
16.8334
16.8121
16.7899
16.7669
16.743
16.7183
16.6927
16.6662
16.6388
16.6106
16.5815
16.5514
16.5206
16.4888
16.4563
16.4228
16.3885
16.3533
16.3172
16.2803
16.2425
16.2039
16.1644
16.1241
16.0829
16.0408
15.9979
15.9542
15.9096
15.8642
15.8179
15.7708
15.7228
15.674
15.6244
15.5739
15.5226
15.4704
15.4174
15.3636
15.3089
15.2534
15.1971
15.1399
15.0819
15.0231
14.9635
14.903
14.8418
14.7798
14.717
14.6534
14.589
14.5238
14.4579
14.3911
14.3236
14.2554
14.1863
14.1165
14.0459
13.9745
13.9023
13.8293
13.7555
13.681
13.6056
13.5295
13.4526
13.3749
13.2963
13.217
13.137
13.0561
12.9744
12.892
12.8088
12.7248
12.64
12.5544
12.468
12.3807
12.2927
12.2038
12.1142
12.0238
11.9325
11.8405
11.7477
11.6542
11.5598
11.4646
11.3687
11.272
11.1745
11.0763
10.9773
10.8775
10.7769
10.6756
10.5734
10.4706
10.3669
10.2625
10.1574
10.0514
9.94472
9.83726
9.72901
9.61995
9.51007
9.39937
9.28786
9.17555
9.06243
8.94852
8.83381
8.71831
8.60202
8.48494
8.36706
8.2484
8.12894
8.00869
7.88764
7.76579
7.64313
7.51967
7.3954
7.27035
7.14452
7.01793
6.8906
6.76254
6.63378
6.50431
6.37414
6.24327
6.11169
5.97939
5.84636
5.71258
5.57805
5.44278
5.30678
5.1701
5.03274
4.89474
4.75609
4.61677
4.47678
4.33608
4.19464
4.05244
3.90944
3.76561
3.62095
3.47543
3.32904
3.18178
3.03363
2.88458
2.73458
2.58362
2.43167
2.27869
2.12466
1.96959
1.8135
1.65648
1.49873
1.34056
1.18237
1.02459
0.867458
0.710938
0.554875
0.396446
0.238248
0.07827
17.0668
17.0661
17.064
17.0612
17.0575
17.0527
17.0468
17.0398
17.0317
17.0224
17.012
17.0005
16.9879
16.9743
16.9596
16.9439
16.9273
16.9097
16.8911
16.8717
16.8513
16.8301
16.808
16.785
16.7611
16.7364
16.7109
16.6845
16.6572
16.629
16.6
16.57
16.5393
16.5076
16.4751
16.4417
16.4074
16.3723
16.3363
16.2994
16.2617
16.2231
16.1837
16.1433
16.1022
16.0602