/*--------------------------------*- C++ -*----------------------------------*\
| =========                 |                                                 |
| \\      /  F ield         | OpenFOAM: The Open Source CFD Toolbox           |
|  \\    /   O peration     | Version:  5.x                                   |
|   \\  /    A nd           | Web:      www.OpenFOAM.org                      |
|    \\/     M anipulation  |                                                 |
\*---------------------------------------------------------------------------*/
/*   Windows 32 and 64 bit porting by blueCAPE: http://www.bluecape.com.pt   *\
|  Based on Windows porting (2.0.x v4) by Symscape: http://www.symscape.com   |
\*---------------------------------------------------------------------------*/
FoamFile
{
    version     2.0;
    format      ascii;
    class       surfaceScalarField;
    location    "2672";
    object      phi;
}
// * * * * * * * * * * * * * * * * * * * * * * * * * * * * * * * * * * * * * //

dimensions      [0 3 -1 0 0 0 0];

internalField   nonuniform List<scalar> 
7780
(
4.99612e-005
3.87853e-008
4.98433e-005
1.17917e-007
4.96896e-005
1.53698e-007
4.95176e-005
1.71968e-007
4.93359e-005
1.8178e-007
4.91484e-005
1.87468e-007
4.89581e-005
1.90323e-007
4.8766e-005
1.92108e-007
4.85734e-005
1.9253e-007
4.83811e-005
1.92315e-007
4.81892e-005
1.91951e-007
4.79976e-005
1.91577e-007
4.78065e-005
1.91127e-007
4.76159e-005
1.90579e-007
4.7426e-005
1.89873e-007
4.7237e-005
1.89044e-007
4.70488e-005
1.88181e-007
4.68615e-005
1.87313e-007
4.6675e-005
1.86417e-007
4.64895e-005
1.85497e-007
4.6305e-005
1.84586e-007
4.61213e-005
1.83658e-007
4.59386e-005
1.82708e-007
4.57569e-005
1.81745e-007
4.55761e-005
1.80771e-007
4.53963e-005
1.79791e-007
4.52175e-005
1.78801e-007
4.50397e-005
1.77801e-007
4.48629e-005
1.76799e-007
4.46871e-005
1.75795e-007
4.45123e-005
1.74786e-007
4.43385e-005
1.73773e-007
4.41658e-005
1.72757e-007
4.3994e-005
1.71742e-007
4.38233e-005
1.70728e-007
4.36536e-005
1.69716e-007
4.34849e-005
1.68708e-007
4.33172e-005
1.67702e-007
4.31505e-005
1.66694e-007
4.29848e-005
1.65682e-007
4.28201e-005
1.64665e-007
4.26565e-005
1.63644e-007
4.24939e-005
1.62619e-007
4.23323e-005
1.61596e-007
4.21717e-005
1.60587e-007
4.20121e-005
1.59573e-007
4.18536e-005
1.58553e-007
4.1696e-005
1.5754e-007
4.15395e-005
1.56529e-007
4.1384e-005
1.55516e-007
4.12295e-005
1.54498e-007
4.1076e-005
1.53473e-007
4.09236e-005
1.52438e-007
4.07722e-005
1.51394e-007
4.06218e-005
1.50338e-007
4.04726e-005
1.49273e-007
4.03244e-005
1.48199e-007
4.01773e-005
1.47117e-007
4.00312e-005
1.46027e-007
3.98863e-005
1.44928e-007
3.97425e-005
1.43822e-007
3.95998e-005
1.42707e-007
3.94582e-005
1.41584e-007
3.93177e-005
1.40451e-007
3.91784e-005
1.39309e-007
3.90403e-005
1.38157e-007
3.89033e-005
1.36997e-007
3.87674e-005
1.35827e-007
3.86328e-005
1.34649e-007
3.84993e-005
1.33464e-007
3.83671e-005
1.32272e-007
3.8236e-005
1.31076e-007
3.81061e-005
1.29878e-007
3.79774e-005
1.28684e-007
3.78499e-005
1.27504e-007
3.77236e-005
1.26355e-007
3.75983e-005
1.25277e-007
3.7474e-005
1.24329e-007
3.73504e-005
1.23572e-007
3.72274e-005
1.22989e-007
3.71049e-005
1.22495e-007
3.69829e-005
1.22032e-007
3.68613e-005
1.21579e-007
3.67402e-005
1.2112e-007
3.66195e-005
1.20646e-007
3.64994e-005
1.20153e-007
3.63797e-005
1.1964e-007
3.62606e-005
1.19107e-007
3.61421e-005
1.18553e-007
3.60241e-005
1.1798e-007
3.59067e-005
1.17388e-007
3.57899e-005
1.16779e-007
3.56738e-005
1.16152e-007
3.55583e-005
1.15509e-007
3.54434e-005
1.1485e-007
3.53292e-005
1.14177e-007
3.52157e-005
1.1349e-007
3.5103e-005
1.1279e-007
3.49909e-005
1.12077e-007
3.48795e-005
1.11347e-007
3.47689e-005
1.10598e-007
3.46591e-005
1.09837e-007
3.455e-005
1.09067e-007
3.44417e-005
1.08287e-007
3.43342e-005
1.07497e-007
3.42275e-005
1.06698e-007
3.41217e-005
1.0589e-007
3.40166e-005
1.05074e-007
3.39123e-005
1.04249e-007
3.38089e-005
1.03416e-007
3.37063e-005
1.02576e-007
3.36046e-005
1.01728e-007
3.35037e-005
1.00872e-007
3.34037e-005
1.0001e-007
3.33046e-005
9.91415e-008
3.32063e-005
9.82663e-008
3.31089e-005
9.7385e-008
3.30124e-005
9.64977e-008
3.29168e-005
9.56048e-008
3.28221e-005
9.47064e-008
3.27283e-005
9.38028e-008
3.26354e-005
9.28943e-008
3.25435e-005
9.1981e-008
3.24524e-005
9.10632e-008
3.23622e-005
9.01412e-008
3.2273e-005
8.9215e-008
3.21847e-005
8.8285e-008
3.20974e-005
8.73514e-008
3.2011e-005
8.64143e-008
3.19255e-005
8.54739e-008
3.1841e-005
8.45306e-008
3.17574e-005
8.35844e-008
3.16748e-005
8.26356e-008
3.15931e-005
8.16844e-008
3.15123e-005
8.07309e-008
3.14326e-005
7.97755e-008
3.13537e-005
7.88183e-008
3.12759e-005
7.78594e-008
3.1199e-005
7.68992e-008
3.11231e-005
7.59377e-008
3.10481e-005
7.49753e-008
3.09741e-005
7.40119e-008
3.0901e-005
7.3048e-008
3.08289e-005
7.20836e-008
3.07578e-005
7.11191e-008
3.06877e-005
7.01545e-008
3.06185e-005
6.91901e-008
3.05502e-005
6.82262e-008
3.0483e-005
6.72629e-008
3.04167e-005
6.63003e-008
3.03513e-005
6.53388e-008
3.0287e-005
6.43785e-008
3.02235e-005
6.34195e-008
3.01611e-005
6.24621e-008
3.00996e-005
6.15065e-008
3.0039e-005
6.05527e-008
2.99794e-005
5.96011e-008
2.99208e-005
5.86517e-008
2.98631e-005
5.77048e-008
2.98063e-005
5.67605e-008
2.97505e-005
5.5819e-008
2.96956e-005
5.48804e-008
2.96417e-005
5.39449e-008
2.95886e-005
5.30126e-008
2.95366e-005
5.20838e-008
2.94854e-005
5.11586e-008
2.94352e-005
5.02364e-008
2.93859e-005
4.93184e-008
2.93374e-005
4.84046e-008
2.929e-005
4.74951e-008
2.92434e-005
4.659e-008
2.91977e-005
4.56895e-008
2.91529e-005
4.47938e-008
2.9109e-005
4.39028e-008
2.9066e-005
4.30169e-008
2.90238e-005
4.21363e-008
2.89826e-005
4.1261e-008
2.89422e-005
4.03915e-008
2.89026e-005
3.95278e-008
2.8864e-005
3.86705e-008
2.88262e-005
3.78199e-008
2.87892e-005
3.69763e-008
2.8753e-005
3.61405e-008
2.87177e-005
3.53132e-008
2.86832e-005
3.44951e-008
2.86495e-005
3.36874e-008
2.86166e-005
3.28913e-008
2.85845e-005
3.21088e-008
2.85532e-005
3.13414e-008
2.85226e-005
3.05928e-008
2.84927e-005
2.98634e-008
2.84636e-005
2.91641e-008
2.84351e-005
2.84793e-008
2.84072e-005
2.78673e-008
2.838e-005
2.71933e-008
2.83533e-005
2.67855e-008
2.83273e-005
2.59702e-008
2.8301e-005
2.6312e-008
2.82755e-005
2.54534e-008
2.89685e-008
5.00493e-005
-1.05543e-008
5.01077e-005
5.95585e-008
5.01578e-005
1.03581e-007
5.01966e-005
1.33158e-007
5.02256e-005
1.52761e-007
5.02466e-005
1.6654e-007
5.02611e-005
1.75835e-007
5.02706e-005
1.82598e-007
5.02759e-005
1.87197e-007
5.02776e-005
1.90647e-007
5.0276e-005
1.93515e-007
5.02714e-005
1.96164e-007
5.02642e-005
1.98332e-007
5.02547e-005
2.00073e-007
5.02434e-005
2.01213e-007
5.02305e-005
2.01887e-007
5.02163e-005
2.02387e-007
5.02009e-005
2.02759e-007
5.01843e-005
2.02956e-007
5.01668e-005
2.03013e-007
5.01484e-005
2.03001e-007
5.01292e-005
2.02858e-007
5.01093e-005
2.0261e-007
5.00888e-005
2.0228e-007
5.00677e-005
2.0188e-007
5.0046e-005
2.01426e-007
5.00239e-005
2.00904e-007
5.00014e-005
2.00326e-007
4.99785e-005
1.99719e-007
4.99552e-005
1.99081e-007
4.99316e-005
1.9841e-007
4.99076e-005
1.97704e-007
4.98834e-005
1.96972e-007
4.98589e-005
1.96225e-007
4.98342e-005
1.95464e-007
4.98092e-005
1.94697e-007
4.9784e-005
1.93929e-007
4.97586e-005
1.93156e-007
4.97329e-005
1.92374e-007
4.9707e-005
1.91577e-007
4.96809e-005
1.90764e-007
4.96546e-005
1.89937e-007
4.96281e-005
1.89091e-007
4.96015e-005
1.88232e-007
4.95747e-005
1.87369e-007
4.95478e-005
1.865e-007
4.95207e-005
1.85631e-007
4.94935e-005
1.84768e-007
4.94661e-005
1.83907e-007
4.94386e-005
1.83044e-007
4.94109e-005
1.82177e-007
4.93831e-005
1.81305e-007
4.93551e-005
1.80424e-007
4.93269e-005
1.79534e-007
4.92986e-005
1.78634e-007
4.92702e-005
1.77724e-007
4.92416e-005
1.76808e-007
4.92128e-005
1.75886e-007
4.91839e-005
1.74959e-007
4.91548e-005
1.74026e-007
4.91255e-005
1.73088e-007
4.90961e-005
1.72143e-007
4.90665e-005
1.71191e-007
4.90367e-005
1.70231e-007
4.90067e-005
1.69263e-007
4.89766e-005
1.68286e-007
4.89463e-005
1.67301e-007
4.89158e-005
1.66308e-007
4.88852e-005
1.65308e-007
4.88543e-005
1.64303e-007
4.88233e-005
1.63292e-007
4.87921e-005
1.6228e-007
4.87607e-005
1.61269e-007
4.87291e-005
1.60266e-007
4.86973e-005
1.59279e-007
4.86654e-005
1.5832e-007
4.86332e-005
1.57413e-007
4.8601e-005
1.56562e-007
4.85689e-005
1.55708e-007
4.8537e-005
1.54872e-007
4.85054e-005
1.54108e-007
4.8474e-005
1.5339e-007
4.84429e-005
1.52702e-007
4.8412e-005
1.52029e-007
4.83813e-005
1.51364e-007
4.83507e-005
1.50702e-007
4.83203e-005
1.5004e-007
4.82901e-005
1.49376e-007
4.82599e-005
1.48708e-007
4.82298e-005
1.48035e-007
4.81999e-005
1.47357e-007
4.817e-005
1.46673e-007
4.81402e-005
1.45983e-007
4.81104e-005
1.45287e-007
4.80806e-005
1.44584e-007
4.80509e-005
1.43876e-007
4.80213e-005
1.43162e-007
4.79916e-005
1.42444e-007
4.7962e-005
1.41728e-007
4.79323e-005
1.4099e-007
4.79027e-005
1.40222e-007
4.78731e-005
1.39451e-007
4.78435e-005
1.38679e-007
4.78139e-005
1.37903e-007
4.77842e-005
1.37122e-007
4.77546e-005
1.36337e-007
4.77249e-005
1.35545e-007
4.76953e-005
1.34748e-007
4.76656e-005
1.33944e-007
4.76358e-005
1.33134e-007
4.76061e-005
1.32318e-007
4.75763e-005
1.31495e-007
4.75465e-005
1.30666e-007
4.75167e-005
1.2983e-007
4.74869e-005
1.28988e-007
4.7457e-005
1.2814e-007
4.74271e-005
1.27286e-007
4.73972e-005
1.26426e-007
4.73672e-005
1.2556e-007
4.73372e-005
1.24688e-007
4.73072e-005
1.2381e-007
4.72772e-005
1.22927e-007
4.72471e-005
1.22039e-007
4.72171e-005
1.21145e-007
4.7187e-005
1.20246e-007
4.71568e-005
1.19341e-007
4.71267e-005
1.18432e-007
4.70965e-005
1.17518e-007
4.70663e-005
1.16599e-007
4.70361e-005
1.15676e-007
4.70059e-005
1.14748e-007
4.69757e-005
1.13816e-007
4.69454e-005
1.12879e-007
4.69152e-005
1.11939e-007
4.68849e-005
1.10995e-007
4.68546e-005
1.10047e-007
4.68244e-005
1.09095e-007
4.67941e-005
1.0814e-007
4.67638e-005
1.07181e-007
4.67335e-005
1.0622e-007
4.67032e-005
1.05255e-007
4.6673e-005
1.04287e-007
4.66427e-005
1.03317e-007
4.66124e-005
1.02344e-007
4.65822e-005
1.01369e-007
4.65519e-005
1.00392e-007
4.65217e-005
9.94129e-008
4.64915e-005
9.84319e-008
4.64613e-005
9.74494e-008
4.64312e-005
9.64654e-008
4.6401e-005
9.54803e-008
4.63709e-005
9.4494e-008
4.63408e-005
9.35069e-008
4.63108e-005
9.25191e-008
4.62807e-005
9.15306e-008
4.62508e-005
9.05418e-008
4.62208e-005
8.95528e-008
4.61909e-005
8.85636e-008
4.6161e-005
8.75746e-008
4.61312e-005
8.65858e-008
4.61014e-005
8.55974e-008
4.60717e-005
8.46095e-008
4.6042e-005
8.36223e-008
4.60124e-005
8.2636e-008
4.59828e-005
8.16505e-008
4.59533e-005
8.06662e-008
4.59239e-005
7.9683e-008
4.58945e-005
7.87014e-008
4.58652e-005
7.77216e-008
4.58359e-005
7.67437e-008
4.58067e-005
7.57678e-008
4.57776e-005
7.47941e-008
4.57486e-005
7.38227e-008
4.57197e-005
7.28539e-008
4.56908e-005
7.18877e-008
4.5662e-005
7.09246e-008
4.56333e-005
6.99647e-008
4.56047e-005
6.90084e-008
4.55761e-005
6.8056e-008
4.55477e-005
6.71081e-008
4.55194e-005
6.61652e-008
4.54911e-005
6.52281e-008
4.5463e-005
6.42976e-008
4.54349e-005
6.33748e-008
4.54069e-005
6.24611e-008
4.53791e-005
6.15583e-008
4.53513e-005
6.06684e-008
4.53236e-005
5.97944e-008
4.5296e-005
5.89393e-008
4.52685e-005
5.81083e-008
4.5241e-005
5.73039e-008
4.52137e-005
5.65403e-008
4.51863e-005
5.58024e-008
4.51591e-005
5.51583e-008
4.51318e-005
5.44676e-008
4.51045e-005
5.40916e-008
4.50768e-005
5.36885e-008
4.50493e-005
5.37648e-008
4.50203e-005
5.44413e-008
5.52558e-008
5.00365e-005
-4.70851e-008
5.00887e-005
7.38707e-009
5.01422e-005
5.00605e-008
5.0193e-005
8.23799e-008
5.02393e-005
1.06458e-007
5.02812e-005
1.246e-007
5.0319e-005
1.38126e-007
5.03534e-005
1.48134e-007
5.03845e-005
1.56081e-007
5.04126e-005
1.62627e-007
5.04381e-005
1.67961e-007
5.04616e-005
1.72663e-007
5.04833e-005
1.76632e-007
5.05035e-005
1.79919e-007
5.05224e-005
1.82302e-007
5.05401e-005
1.84163e-007
5.05566e-005
1.85902e-007
5.05719e-005
1.87434e-007
5.05863e-005
1.8853e-007
5.06e-005
1.89378e-007
5.06128e-005
1.90161e-007
5.0625e-005
1.90633e-007
5.06367e-005
1.90936e-007
5.06479e-005
1.91107e-007
5.06586e-005
1.91174e-007
5.06689e-005
1.91159e-007
5.06787e-005
1.91018e-007
5.06883e-005
1.90782e-007
5.06975e-005
1.90507e-007
5.07064e-005
1.90176e-007
5.0715e-005
1.8979e-007
5.07234e-005
1.8934e-007
5.07315e-005
1.88848e-007
5.07394e-005
1.88327e-007
5.07471e-005
1.87783e-007
5.07545e-005
1.87235e-007
5.07618e-005
1.86689e-007
5.07688e-005
1.86136e-007
5.07756e-005
1.85566e-007
5.07822e-005
1.84969e-007
5.07886e-005
1.84349e-007
5.07949e-005
1.8371e-007
5.08009e-005
1.83025e-007
5.08069e-005
1.82311e-007
5.08126e-005
1.816e-007
5.08182e-005
1.80892e-007
5.08237e-005
1.80186e-007
5.0829e-005
1.79481e-007
5.08341e-005
1.78778e-007
5.08391e-005
1.78075e-007
5.08439e-005
1.77369e-007
5.08485e-005
1.7666e-007
5.0853e-005
1.75944e-007
5.08573e-005
1.75216e-007
5.08615e-005
1.74475e-007
5.08655e-005
1.73726e-007
5.08693e-005
1.72971e-007
5.0873e-005
1.72214e-007
5.08765e-005
1.71455e-007
5.08798e-005
1.70695e-007
5.0883e-005
1.69932e-007
5.08859e-005
1.69164e-007
5.08887e-005
1.68392e-007
5.08914e-005
1.67613e-007
5.08938e-005
1.66829e-007
5.0896e-005
1.66037e-007
5.08981e-005
1.6524e-007
5.09e-005
1.64438e-007
5.09017e-005
1.63631e-007
5.09031e-005
1.62821e-007
5.09044e-005
1.62008e-007
5.09055e-005
1.61196e-007
5.09064e-005
1.60387e-007
5.09071e-005
1.59586e-007
5.09075e-005
1.588e-007
5.09078e-005
1.58035e-007
5.09079e-005
1.57296e-007
5.09079e-005
1.56578e-007
5.09078e-005
1.55853e-007
5.09075e-005
1.55127e-007
5.09072e-005
1.54428e-007
5.09068e-005
1.53756e-007
5.09064e-005
1.53105e-007
5.0906e-005
1.52468e-007
5.09055e-005
1.51843e-007
5.0905e-005
1.51225e-007
5.09044e-005
1.50611e-007
5.09038e-005
1.5e-007
5.09031e-005
1.4939e-007
5.09024e-005
1.48779e-007
5.09016e-005
1.48167e-007
5.09007e-005
1.47553e-007
5.08997e-005
1.46935e-007
5.08987e-005
1.46315e-007
5.08976e-005
1.45692e-007
5.08964e-005
1.45066e-007
5.08951e-005
1.44437e-007
5.08938e-005
1.43808e-007
5.08923e-005
1.43183e-007
5.08908e-005
1.42543e-007
5.08891e-005
1.41875e-007
5.08874e-005
1.41201e-007
5.08855e-005
1.40526e-007
5.08836e-005
1.39849e-007
5.08815e-005
1.3917e-007
5.08794e-005
1.38487e-007
5.08771e-005
1.378e-007
5.08748e-005
1.37109e-007
5.08723e-005
1.36414e-007
5.08697e-005
1.35714e-007
5.0867e-005
1.35009e-007
5.08642e-005
1.343e-007
5.08613e-005
1.33585e-007
5.08582e-005
1.32866e-007
5.08551e-005
1.32142e-007
5.08518e-005
1.31413e-007
5.08484e-005
1.30679e-007
5.08449e-005
1.29941e-007
5.08413e-005
1.29197e-007
5.08375e-005
1.28449e-007
5.08336e-005
1.27696e-007
5.08296e-005
1.26939e-007
5.08255e-005
1.26177e-007
5.08212e-005
1.25411e-007
5.08168e-005
1.24641e-007
5.08123e-005
1.23866e-007
5.08076e-005
1.23087e-007
5.08029e-005
1.22304e-007
5.07979e-005
1.21516e-007
5.07929e-005
1.20725e-007
5.07877e-005
1.1993e-007
5.07824e-005
1.19131e-007
5.07769e-005
1.18329e-007
5.07714e-005
1.17522e-007
5.07656e-005
1.16713e-007
5.07598e-005
1.15899e-007
5.07538e-005
1.15083e-007
5.07477e-005
1.14263e-007
5.07414e-005
1.1344e-007
5.0735e-005
1.12615e-007
5.07285e-005
1.11786e-007
5.07218e-005
1.10954e-007
5.0715e-005
1.1012e-007
5.07081e-005
1.09283e-007
5.0701e-005
1.08444e-007
5.06938e-005
1.07602e-007
5.06865e-005
1.06759e-007
5.0679e-005
1.05913e-007
5.06714e-005
1.05066e-007
5.06636e-005
1.04217e-007
5.06557e-005
1.03366e-007
5.06477e-005
1.02514e-007
5.06395e-005
1.01661e-007
5.06313e-005
1.00807e-007
5.06228e-005
9.99516e-008
5.06143e-005
9.90954e-008
5.06056e-005
9.82384e-008
5.05968e-005
9.73808e-008
5.05878e-005
9.65226e-008
5.05788e-005
9.5664e-008
5.05695e-005
9.48051e-008
5.05602e-005
9.39461e-008
5.05507e-005
9.30869e-008
5.05411e-005
9.22278e-008
5.05314e-005
9.13688e-008
5.05216e-005
9.05101e-008
5.05116e-005
8.96517e-008
5.05015e-005
8.87939e-008
5.04913e-005
8.79368e-008
5.0481e-005
8.70805e-008
5.04705e-005
8.62252e-008
5.04599e-005
8.5371e-008
5.04492e-005
8.4518e-008
5.04384e-005
8.36665e-008
5.04275e-005
8.28165e-008
5.04165e-005
8.19685e-008
5.04053e-005
8.11226e-008
5.0394e-005
8.02791e-008
5.03826e-005
7.94386e-008
5.03712e-005
7.86015e-008
5.03596e-005
7.77684e-008
5.03478e-005
7.69403e-008
5.0336e-005
7.61181e-008
5.03241e-005
7.53031e-008
5.03121e-005
7.44969e-008
5.02999e-005
7.37016e-008
5.02877e-005
7.29198e-008
5.02753e-005
7.21549e-008
5.02628e-005
7.1411e-008
5.02502e-005
7.06937e-008
5.02375e-005
7.00092e-008
5.02247e-005
6.93683e-008
5.02117e-005
6.8777e-008
5.01986e-005
6.82627e-008
5.01852e-005
6.78625e-008
5.01718e-005
6.75202e-008
5.0158e-005
6.75451e-008
5.01443e-005
6.74006e-008
5.01305e-005
6.83036e-008
6.80832e-008
5.00312e-005
-7.83252e-008
5.00728e-005
-3.41922e-008
5.0119e-005
3.92527e-009
5.0166e-005
3.53005e-008
5.02119e-005
6.05436e-008
5.02558e-005
8.0722e-008
5.02972e-005
9.67698e-008
5.03358e-005
1.09535e-007
5.03719e-005
1.1998e-007
5.04058e-005
1.28714e-007
5.04377e-005
1.36008e-007
5.04682e-005
1.42251e-007
5.04972e-005
1.47603e-007
5.05251e-005
1.52034e-007
5.05519e-005
1.55523e-007
5.05775e-005
1.58509e-007
5.06021e-005
1.61261e-007
5.06258e-005
1.63762e-007
5.06488e-005
1.65558e-007
5.06713e-005
1.66872e-007
5.06933e-005
1.68166e-007
5.07148e-005
1.69117e-007
5.07359e-005
1.69846e-007
5.07566e-005
1.70396e-007
5.0777e-005
1.70829e-007
5.07969e-005
1.71171e-007
5.08167e-005
1.71271e-007
5.08362e-005
1.7127e-007
5.08554e-005
1.7126e-007
5.08745e-005
1.71152e-007
5.08933e-005
1.70962e-007
5.0912e-005
1.7067e-007
5.09305e-005
1.70333e-007
5.09488e-005
1.69969e-007
5.09671e-005
1.69572e-007
5.09851e-005
1.69178e-007
5.1003e-005
1.68791e-007
5.10207e-005
1.684e-007
5.10383e-005
1.67987e-007
5.10558e-005
1.67521e-007
5.10731e-005
1.67011e-007
5.10903e-005
1.66479e-007
5.11075e-005
1.65899e-007
5.11245e-005
1.65287e-007
5.11414e-005
1.64678e-007
5.11582e-005
1.6408e-007
5.11749e-005
1.63497e-007
5.11915e-005
1.62918e-007
5.12079e-005
1.62341e-007
5.12242e-005
1.61763e-007
5.12404e-005
1.61183e-007
5.12565e-005
1.60601e-007
5.12724e-005
1.60011e-007
5.12882e-005
1.59406e-007
5.13039e-005
1.58781e-007
5.13195e-005
1.58145e-007
5.1335e-005
1.57506e-007
5.13503e-005
1.56868e-007
5.13655e-005
1.56235e-007
5.13806e-005
1.55603e-007
5.13956e-005
1.54971e-007
5.14104e-005
1.54337e-007
5.14251e-005
1.53701e-007
5.14396e-005
1.53061e-007
5.14541e-005
1.52416e-007
5.14683e-005
1.51765e-007
5.14825e-005
1.5111e-007
5.14964e-005
1.50452e-007
5.15103e-005
1.49791e-007
5.1524e-005
1.49128e-007
5.15375e-005
1.48463e-007
5.15509e-005
1.47798e-007
5.15642e-005
1.47137e-007
5.15773e-005
1.46484e-007
5.15902e-005
1.45843e-007
5.1603e-005
1.45218e-007
5.16157e-005
1.44611e-007
5.16283e-005
1.4402e-007
5.16407e-005
1.4343e-007
5.1653e-005
1.42839e-007
5.16652e-005
1.4226e-007
5.16772e-005
1.41697e-007
5.16892e-005
1.41148e-007
5.1701e-005
1.40609e-007
5.17128e-005
1.40077e-007
5.17245e-005
1.39551e-007
5.17361e-005
1.3903e-007
5.17476e-005
1.3851e-007
5.1759e-005
1.37992e-007
5.17703e-005
1.37473e-007
5.17815e-005
1.36953e-007
5.17926e-005
1.36432e-007
5.18036e-005
1.35908e-007
5.18146e-005
1.35382e-007
5.18254e-005
1.34853e-007
5.18361e-005
1.34322e-007
5.18468e-005
1.33788e-007
5.18573e-005
1.33252e-007
5.18678e-005
1.32713e-007
5.18782e-005
1.32165e-007
5.18885e-005
1.31608e-007
5.18986e-005
1.31046e-007
5.19087e-005
1.30479e-007
5.19186e-005
1.29908e-007
5.19284e-005
1.29334e-007
5.19382e-005
1.28757e-007
5.19478e-005
1.28176e-007
5.19573e-005
1.27592e-007
5.19667e-005
1.27004e-007
5.1976e-005
1.26412e-007
5.19852e-005
1.25817e-007
5.19943e-005
1.25217e-007
5.20033e-005
1.24614e-007
5.20121e-005
1.24007e-007
5.20209e-005
1.23395e-007
5.20295e-005
1.2278e-007
5.2038e-005
1.22161e-007
5.20464e-005
1.21538e-007
5.20547e-005
1.20911e-007
5.20629e-005
1.20281e-007
5.20709e-005
1.19646e-007
5.20789e-005
1.19008e-007
5.20867e-005
1.18367e-007
5.20944e-005
1.17722e-007
5.21019e-005
1.17073e-007
5.21094e-005
1.16421e-007
5.21167e-005
1.15766e-007
5.21239e-005
1.15107e-007
5.2131e-005
1.14445e-007
5.21379e-005
1.1378e-007
5.21447e-005
1.13111e-007
5.21514e-005
1.1244e-007
5.2158e-005
1.11766e-007
5.21644e-005
1.11088e-007
5.21707e-005
1.10408e-007
5.21769e-005
1.09725e-007
5.21829e-005
1.09039e-007
5.21889e-005
1.08351e-007
5.21946e-005
1.0766e-007
5.22003e-005
1.06966e-007
5.22058e-005
1.06271e-007
5.22112e-005
1.05572e-007
5.22164e-005
1.04872e-007
5.22215e-005
1.04169e-007
5.22265e-005
1.03464e-007
5.22314e-005
1.02757e-007
5.22361e-005
1.02049e-007
5.22406e-005
1.01339e-007
5.22451e-005
1.00628e-007
5.22494e-005
9.9915e-008
5.22536e-005
9.9201e-008
5.22576e-005
9.84859e-008
5.22615e-005
9.77697e-008
5.22652e-005
9.70525e-008
5.22688e-005
9.63345e-008
5.22723e-005
9.56158e-008
5.22757e-005
9.48963e-008
5.22789e-005
9.41764e-008
5.22819e-005
9.34559e-008
5.22849e-005
9.2735e-008
5.22877e-005
9.20139e-008
5.22903e-005
9.12925e-008
5.22928e-005
9.0571e-008
5.22952e-005
8.98495e-008
5.22974e-005
8.9128e-008
5.22996e-005
8.84067e-008
5.23015e-005
8.76856e-008
5.23033e-005
8.69649e-008
5.2305e-005
8.62447e-008
5.23066e-005
8.55251e-008
5.2308e-005
8.48062e-008
5.23093e-005
8.40883e-008
5.23104e-005
8.33712e-008
5.23115e-005
8.26554e-008
5.23123e-005
8.19409e-008
5.23131e-005
8.12279e-008
5.23137e-005
8.05168e-008
5.23141e-005
7.98079e-008
5.23145e-005
7.91016e-008
5.23147e-005
7.83985e-008
5.23148e-005
7.76993e-008
5.23147e-005
7.70047e-008
5.23145e-005
7.63159e-008
5.23142e-005
7.56343e-008
5.23137e-005
7.49615e-008
5.23131e-005
7.42998e-008
5.23124e-005
7.36521e-008
5.23115e-005
7.30217e-008
5.23105e-005
7.24134e-008
5.23094e-005
7.18327e-008
5.23081e-005
7.12881e-008
5.23067e-005
7.07868e-008
5.23051e-005
7.03489e-008
5.23034e-005
6.99702e-008
5.23015e-005
6.97523e-008
5.22995e-005
6.95327e-008
5.22973e-005
6.96972e-008
5.22951e-005
6.96211e-008
5.2293e-005
7.03873e-008
7.01268e-008
5.00288e-005
-1.07167e-007
5.00651e-005
-7.04246e-008
5.01056e-005
-3.66459e-008
5.01481e-005
-7.18328e-009
5.01908e-005
1.78528e-008
5.02327e-005
3.88475e-008
5.02731e-005
5.63279e-008
5.03118e-005
7.08591e-008
5.03487e-005
8.3067e-008
5.0384e-005
9.34308e-008
5.04178e-005
1.02247e-007
5.04502e-005
1.09811e-007
5.04815e-005
1.163e-007
5.05117e-005
1.21801e-007
5.05409e-005
1.26379e-007
5.05691e-005
1.30281e-007
5.05966e-005
1.33745e-007
5.06235e-005
1.36857e-007
5.06498e-005
1.39284e-007
5.06756e-005
1.41093e-007
5.07011e-005
1.42696e-007
5.07262e-005
1.44007e-007
5.0751e-005
1.45057e-007
5.07755e-005
1.45878e-007
5.07997e-005
1.46623e-007
5.08235e-005
1.47325e-007
5.08472e-005
1.47601e-007
5.08708e-005
1.47657e-007
5.08943e-005
1.47775e-007
5.09176e-005
1.47847e-007
5.09408e-005
1.47793e-007
5.09639e-005
1.47593e-007
5.09868e-005
1.4738e-007
5.10096e-005
1.47141e-007
5.10324e-005
1.46836e-007
5.1055e-005
1.4655e-007
5.10775e-005
1.4628e-007
5.10999e-005
1.46002e-007
5.11222e-005
1.45691e-007
5.11444e-005
1.45312e-007
5.11665e-005
1.44876e-007
5.11886e-005
1.44405e-007
5.12106e-005
1.43892e-007
5.12326e-005
1.43361e-007
5.12544e-005
1.42831e-007
5.12762e-005
1.42322e-007
5.12978e-005
1.41838e-007
5.13194e-005
1.41357e-007
5.13408e-005
1.40878e-007
5.13622e-005
1.40398e-007
5.13835e-005
1.39924e-007
5.14046e-005
1.39451e-007
5.14257e-005
1.38966e-007
5.14466e-005
1.38451e-007
5.14675e-005
1.37906e-007
5.14883e-005
1.37353e-007
5.1509e-005
1.368e-007
5.15296e-005
1.36255e-007
5.15501e-005
1.35724e-007
5.15705e-005
1.35199e-007
5.15908e-005
1.34677e-007
5.1611e-005
1.34155e-007
5.16311e-005
1.33633e-007
5.1651e-005
1.33108e-007
5.16709e-005
1.32576e-007
5.16906e-005
1.32038e-007
5.17102e-005
1.31499e-007
5.17297e-005
1.30961e-007
5.17491e-005
1.30422e-007
5.17683e-005
1.29878e-007
5.17874e-005
1.29333e-007
5.18064e-005
1.28787e-007
5.18253e-005
1.28242e-007
5.18441e-005
1.27704e-007
5.18628e-005
1.27176e-007
5.18813e-005
1.26661e-007
5.18998e-005
1.2616e-007
5.19181e-005
1.25671e-007
5.19364e-005
1.25188e-007
5.19545e-005
1.2471e-007
5.19725e-005
1.2424e-007
5.19905e-005
1.2378e-007
5.20083e-005
1.23328e-007
5.2026e-005
1.22881e-007
5.20436e-005
1.2244e-007
5.20612e-005
1.22003e-007
5.20786e-005
1.21571e-007
5.2096e-005
1.21142e-007
5.21133e-005
1.20715e-007
5.21305e-005
1.20288e-007
5.21476e-005
1.1986e-007
5.21646e-005
1.1943e-007
5.21815e-005
1.18999e-007
5.21983e-005
1.18566e-007
5.2215e-005
1.1813e-007
5.22316e-005
1.17692e-007
5.22482e-005
1.17252e-007
5.22646e-005
1.16808e-007
5.2281e-005
1.16362e-007
5.22972e-005
1.1591e-007
5.23134e-005
1.1545e-007
5.23295e-005
1.14985e-007
5.23454e-005
1.14517e-007
5.23613e-005
1.14045e-007
5.2377e-005
1.13572e-007
5.23927e-005
1.13095e-007
5.24083e-005
1.12616e-007
5.24237e-005
1.12133e-007
5.24391e-005
1.11647e-007
5.24543e-005
1.11158e-007
5.24695e-005
1.10666e-007
5.24845e-005
1.1017e-007
5.24995e-005
1.09671e-007
5.25143e-005
1.09169e-007
5.2529e-005
1.08663e-007
5.25437e-005
1.08154e-007
5.25582e-005
1.07642e-007
5.25726e-005
1.07127e-007
5.25869e-005
1.06608e-007
5.26011e-005
1.06086e-007
5.26152e-005
1.05561e-007
5.26292e-005
1.05033e-007
5.2643e-005
1.04502e-007
5.26568e-005
1.03968e-007
5.26704e-005
1.03432e-007
5.26839e-005
1.02893e-007
5.26974e-005
1.02351e-007
5.27107e-005
1.01806e-007
5.27238e-005
1.01259e-007
5.27369e-005
1.00708e-007
5.27499e-005
1.00156e-007
5.27627e-005
9.96006e-008
5.27754e-005
9.90429e-008
5.2788e-005
9.84828e-008
5.28005e-005
9.79204e-008
5.28129e-005
9.73557e-008
5.28251e-005
9.67888e-008
5.28373e-005
9.62198e-008
5.28493e-005
9.56488e-008
5.28612e-005
9.50756e-008
5.28729e-005
9.45005e-008
5.28846e-005
9.39232e-008
5.28961e-005
9.33438e-008
5.29075e-005
9.27624e-008
5.29188e-005
9.21794e-008
5.293e-005
9.15949e-008
5.2941e-005
9.1009e-008
5.29519e-005
9.04219e-008
5.29627e-005
8.98336e-008
5.29734e-005
8.92443e-008
5.29839e-005
8.86539e-008
5.29944e-005
8.80626e-008
5.30047e-005
8.74705e-008
5.30148e-005
8.68775e-008
5.30249e-005
8.62839e-008
5.30348e-005
8.56897e-008
5.30446e-005
8.5095e-008
5.30543e-005
8.44997e-008
5.30639e-005
8.39041e-008
5.30733e-005
8.33082e-008
5.30826e-005
8.2712e-008
5.30918e-005
8.21156e-008
5.31008e-005
8.15192e-008
5.31097e-005
8.09226e-008
5.31185e-005
8.03262e-008
5.31272e-005
7.97298e-008
5.31358e-005
7.91337e-008
5.31442e-005
7.85379e-008
5.31525e-005
7.79425e-008
5.31607e-005
7.73476e-008
5.31687e-005
7.67532e-008
5.31767e-005
7.61597e-008
5.31845e-005
7.55669e-008
5.31921e-005
7.49752e-008
5.31997e-005
7.43847e-008
5.32071e-005
7.37955e-008
5.32144e-005
7.32081e-008
5.32216e-005
7.26226e-008
5.32287e-005
7.20396e-008
5.32356e-005
7.14595e-008
5.32424e-005
7.08831e-008
5.32491e-005
7.03111e-008
5.32557e-005
6.97446e-008
5.32622e-005
6.9185e-008
5.32685e-005
6.86339e-008
5.32747e-005
6.80935e-008
5.32808e-005
6.75665e-008
5.32867e-005
6.70565e-008
5.32926e-005
6.6568e-008
5.32983e-005
6.61061e-008
5.33039e-005
6.56796e-008
5.33094e-005
6.5294e-008
5.33148e-005
6.49717e-008
5.33201e-005
6.47006e-008
5.33252e-005
6.45691e-008
5.33303e-005
6.44403e-008
5.33354e-005
6.45992e-008
5.33405e-005
6.45852e-008
5.33457e-005
6.51281e-008
6.50336e-008
5.00276e-005
-1.348e-007
5.00605e-005
-1.0333e-007
5.00971e-005
-7.32529e-008
5.01358e-005
-4.58765e-008
5.01753e-005
-2.16302e-008
5.02147e-005
-5.0794e-010
5.02533e-005
1.77126e-008
5.02908e-005
3.33538e-008
5.03271e-005
4.68021e-008
5.03621e-005
5.83985e-008
5.03959e-005
6.8398e-008
5.04287e-005
7.70346e-008
5.04605e-005
8.44834e-008
5.04915e-005
9.08687e-008
5.05216e-005
9.62977e-008
5.05509e-005
1.00945e-007
5.05797e-005
1.04972e-007
5.0608e-005
1.08466e-007
5.0636e-005
1.11362e-007
5.06634e-005
1.13699e-007
5.06904e-005
1.15654e-007
5.07172e-005
1.17263e-007
5.07436e-005
1.18568e-007
5.07699e-005
1.19616e-007
5.0796e-005
1.20553e-007
5.08219e-005
1.21403e-007
5.08476e-005
1.21856e-007
5.08733e-005
1.22038e-007
5.08988e-005
1.22218e-007
5.09243e-005
1.22356e-007
5.09497e-005
1.2237e-007
5.0975e-005
1.22287e-007
5.10002e-005
1.22231e-007
5.10252e-005
1.22096e-007
5.10503e-005
1.21805e-007
5.10753e-005
1.21534e-007
5.11002e-005
1.21335e-007
5.11251e-005
1.21144e-007
5.11499e-005
1.20908e-007
5.11746e-005
1.20606e-007
5.11992e-005
1.20238e-007
5.12238e-005
1.1982e-007
5.12483e-005
1.19341e-007
5.12729e-005
1.18837e-007
5.12973e-005
1.18376e-007
5.13217e-005
1.17982e-007
5.13459e-005
1.1761e-007
5.137e-005
1.17221e-007
5.13941e-005
1.16824e-007
5.1418e-005
1.16428e-007
5.14419e-005
1.16042e-007
5.14657e-005
1.15657e-007
5.14894e-005
1.15256e-007
5.15131e-005
1.14804e-007
5.15367e-005
1.14309e-007
5.15602e-005
1.13818e-007
5.15837e-005
1.13332e-007
5.16071e-005
1.12868e-007
5.16304e-005
1.12431e-007
5.16536e-005
1.12005e-007
5.16766e-005
1.11583e-007
5.16996e-005
1.11163e-007
5.17225e-005
1.10741e-007
5.17453e-005
1.10314e-007
5.1768e-005
1.0988e-007
5.17906e-005
1.09442e-007
5.18131e-005
1.09011e-007
5.18355e-005
1.08582e-007
5.18578e-005
1.08147e-007
5.18799e-005
1.07704e-007
5.1902e-005
1.07259e-007
5.1924e-005
1.06811e-007
5.19459e-005
1.06363e-007
5.19676e-005
1.05923e-007
5.19893e-005
1.05492e-007
5.20109e-005
1.05072e-007
5.20324e-005
1.04667e-007
5.20538e-005
1.04273e-007
5.20751e-005
1.03885e-007
5.20963e-005
1.03502e-007
5.21174e-005
1.03125e-007
5.21385e-005
1.02755e-007
5.21594e-005
1.02389e-007
5.21803e-005
1.02025e-007
5.2201e-005
1.01666e-007
5.22217e-005
1.01311e-007
5.22423e-005
1.00963e-007
5.22628e-005
1.0062e-007
5.22833e-005
1.00279e-007
5.23036e-005
9.99391e-008
5.23239e-005
9.95982e-008
5.23441e-005
9.92563e-008
5.23642e-005
9.8913e-008
5.23842e-005
9.85679e-008
5.24041e-005
9.82209e-008
5.24239e-005
9.78717e-008
5.24436e-005
9.75203e-008
5.24633e-005
9.71661e-008
5.24828e-005
9.68089e-008
5.25023e-005
9.64475e-008
5.25216e-005
9.60813e-008
5.25409e-005
9.57112e-008
5.25601e-005
9.53383e-008
5.25792e-005
9.4963e-008
5.25982e-005
9.45856e-008
5.2617e-005
9.4206e-008
5.26358e-005
9.38239e-008
5.26545e-005
9.34391e-008
5.26731e-005
9.30517e-008
5.26916e-005
9.26614e-008
5.271e-005
9.22684e-008
5.27283e-005
9.18725e-008
5.27465e-005
9.14737e-008
5.27646e-005
9.10721e-008
5.27826e-005
9.06677e-008
5.28005e-005
9.02605e-008
5.28183e-005
8.98506e-008
5.2836e-005
8.94379e-008
5.28536e-005
8.90225e-008
5.28711e-005
8.86044e-008
5.28884e-005
8.81838e-008
5.29057e-005
8.77608e-008
5.29229e-005
8.73353e-008
5.29399e-005