# vtk DataFile Version 2.0
track0
ASCII
DATASET POLYDATA
POINTS 11930 float
-0.0205 0.001 1e-005
-0.0203851 0.00100536 1.5024e-005
-0.0202701 0.00101047 1.96634e-005
-0.0201551 0.00101536 2.3971e-005
-0.0200401 0.00102 2.79421e-005
-0.0198625 0.00102682 3.35471e-005
-0.0196934 0.00103276 3.80951e-005
-0.0195243 0.0010381 4.1611e-005
-0.0193552 0.00104282 4.41041e-005
-0.019186 0.00104694 4.55835e-005
-0.0190172 0.00105044 4.60577e-005
-0.0187132 0.00105596 4.60577e-005
-0.0184093 0.00106083 4.60577e-005
-0.0181054 0.00106519 4.60577e-005
-0.0178014 0.00106901 4.60577e-005
-0.0174976 0.00107232 4.60577e-005
-0.0172058 0.0010752 4.60577e-005
-0.016914 0.00107799 4.60577e-005
-0.0166222 0.00108072 4.60577e-005
-0.0163305 0.00108339 4.60577e-005
-0.0160387 0.00108598 4.60577e-005
-0.0157586 0.00108838 4.60577e-005
-0.0154784 0.00109071 4.60577e-005
-0.0151983 0.00109295 4.60577e-005
-0.0149182 0.00109511 4.60577e-005
-0.0146381 0.00109719 4.60577e-005
-0.0143692 0.00109905 4.60577e-005
-0.0141002 0.00110083 4.60577e-005
-0.0138313 0.00110252 4.60577e-005
-0.0135624 0.00110413 4.60577e-005
-0.0132934 0.00110567 4.60577e-005
-0.0130353 0.00110708 4.60577e-005
-0.0127771 0.00110842 4.60577e-005
-0.0125189 0.00110973 4.60577e-005
-0.0122607 0.00111099 4.60577e-005
-0.0120025 0.00111223 4.60577e-005
-0.0117547 0.00111337 4.60577e-005
-0.0115068 0.0011145 4.60577e-005
-0.0112589 0.0011156 4.60577e-005
-0.0110111 0.00111669 4.60577e-005
-0.0107632 0.00111776 4.60577e-005
-0.0105252 0.00111877 4.60577e-005
-0.0102873 0.00111977 4.60577e-005
-0.0100493 0.00112075 4.60577e-005
-0.00981133 0.00112172 4.60577e-005
-0.00957337 0.00112267 4.60577e-005
-0.00934491 0.00112358 4.60577e-005
-0.00911645 0.00112447 4.60577e-005
-0.00888799 0.00112536 4.60577e-005
-0.00865954 0.00112623 4.60577e-005
-0.00843108 0.0011271 4.60577e-005
-0.00821175 0.00112792 4.60577e-005
-0.00799242 0.00112874 4.60577e-005
-0.00777309 0.00112955 4.60577e-005
-0.00755376 0.00113035 4.60577e-005
-0.00733443 0.00113115 4.60577e-005
-0.00712387 0.00113192 4.60577e-005
-0.0069133 0.00113267 4.60577e-005
-0.00670273 0.00113343 4.60577e-005
-0.00649216 0.00113418 4.60577e-005
-0.0062816 0.00113493 4.60577e-005
-0.00607944 0.00113565 4.60577e-005
-0.00587729 0.00113636 4.60577e-005
-0.00567514 0.00113707 4.60577e-005
-0.00547298 0.00113778 4.60577e-005
-0.00527083 0.00113849 4.60577e-005
-0.00507675 0.00113918 4.60577e-005
-0.00488267 0.00113986 4.60577e-005
-0.0046886 0.00114053 4.60577e-005
-0.00449452 0.00114121 4.60577e-005
-0.00430044 0.00114189 4.60577e-005
-0.00411412 0.00114254 4.60577e-005
-0.0039278 0.00114319 4.60577e-005
-0.00374147 0.00114384 4.60577e-005
-0.00355515 0.00114448 4.60577e-005
-0.00336883 0.00114514 4.60577e-005
-0.00318995 0.00114576 4.60577e-005
-0.00301107 0.00114639 4.60577e-005
-0.00283219 0.00114701 4.60577e-005
-0.00265331 0.00114763 4.60577e-005
-0.00247443 0.00114826 4.60577e-005
-0.0023027 0.00114887 4.60577e-005
-0.00213097 0.00114947 4.60577e-005
-0.00195924 0.00115008 4.60577e-005
-0.0017875 0.00115068 4.60577e-005
-0.00161577 0.00115129 4.60577e-005
-0.0014509 0.00115188 4.60577e-005
-0.00128603 0.00115247 4.60577e-005
-0.00112116 0.00115306 4.60577e-005
-0.000956289 0.00115365 4.60577e-005
-0.000791418 0.00115425 4.60577e-005
-0.000633135 0.00115484 4.60577e-005
-0.000474851 0.00115542 4.60577e-005
-0.000316567 0.001156 4.60577e-005
-0.000158284 0.00115659 4.60577e-005
0 0.00115719 4.60577e-005
0.000105677 0.00115759 4.60577e-005
0.000211355 0.001158 4.60577e-005
0.000317032 0.0011584 4.60577e-005
0.00042271 0.00115881 4.60577e-005
0.000528387 0.00115923 4.60577e-005
0.000634886 0.00115965 4.60577e-005
0.000741385 0.00116008 4.60577e-005
0.000847885 0.0011605 4.60577e-005
0.000954384 0.00116093 4.60577e-005
0.00106088 0.00116137 4.60577e-005
0.00116821 0.00116182 4.60577e-005
0.00127554 0.00116227 4.60577e-005
0.00138286 0.00116272 4.60577e-005
0.00149019 0.00116317 4.60577e-005
0.00159752 0.00116363 4.60577e-005
0.00170568 0.0011641 4.60577e-005
0.00181384 0.00116458 4.60577e-005
0.001922 0.00116505 4.60577e-005
0.00203016 0.00116552 4.60577e-005
0.00213833 0.001166 4.60577e-005
0.00224733 0.00116649 4.60577e-005
0.00235633 0.00116697 4.60577e-005
0.00246533 0.00116746 4.60577e-005
0.00257434 0.00116795 4.60577e-005
0.00268334 0.00116844 4.60577e-005
0.00279319 0.00116894 4.60577e-005
0.00290304 0.00116944 4.60577e-005
0.00301289 0.00116994 4.60577e-005
0.00312274 0.00117045 4.60577e-005
0.00323259 0.00117095 4.60577e-005
0.00334329 0.00117145 4.60577e-005
0.003454 0.00117196 4.60577e-005
0.0035647 0.00117248 4.60577e-005
0.0036754 0.001173 4.60577e-005
0.00378611 0.00117351 4.60577e-005
0.00389767 0.00117401 4.60577e-005
0.00400924 0.00117453 4.60577e-005
0.0041208 0.00117506 4.60577e-005
0.00423237 0.00117559 4.60577e-005
0.00434393 0.00117611 4.60577e-005
0.00445636 0.00117662 4.60577e-005
0.00456879 0.00117714 4.60577e-005
0.00468123 0.00117768 4.60577e-005
0.00479366 0.00117821 4.60577e-005
0.00490609 0.00117874 4.60577e-005
0.0050194 0.00117924 4.60577e-005
0.0051327 0.00117978 4.60577e-005
0.00524601 0.00118031 4.60577e-005
0.00535931 0.00118085 4.60577e-005
0.00547262 0.00118138 4.60577e-005
0.00558681 0.00118189 4.60577e-005
0.005701 0.00118242 4.60577e-005
0.00581518 0.00118296 4.60577e-005
0.00592937 0.0011835 4.60577e-005
0.00604356 0.00118403 4.60577e-005
0.00615863 0.00118455 4.60577e-005
0.00627371 0.00118508 4.60577e-005
0.00638878 0.00118562 4.60577e-005
0.00650386 0.00118616 4.60577e-005
0.00661893 0.0011867 4.60577e-005
0.0067349 0.00118721 4.60577e-005
0.00685087 0.00118775 4.60577e-005
0.00696684 0.00118828 4.60577e-005
0.00708281 0.00118882 4.60577e-005
0.00719878 0.00118935 4.60577e-005
0.00731565 0.00118987 4.60577e-005
0.00743252 0.0011904 4.60577e-005
0.00754939 0.00119094 4.60577e-005
0.00766626 0.00119147 4.60577e-005
0.00778313 0.001192 4.60577e-005
0.00790091 0.00119251 4.60577e-005
0.00801869 0.00119304 4.60577e-005
0.00813647 0.00119357 4.60577e-005
0.00825425 0.00119409 4.60577e-005
0.00837203 0.00119462 4.60577e-005
0.00849073 0.00119513 4.60577e-005
0.00860942 0.00119566 4.60577e-005
0.00872812 0.00119618 4.60577e-005
0.00884682 0.0011967 4.60577e-005
0.00896551 0.00119721 4.60577e-005
0.00908513 0.00119773 4.60577e-005
0.00920475 0.00119824 4.60577e-005
0.00932437 0.00119876 4.60577e-005
0.00944398 0.00119927 4.60577e-005
0.0095636 0.00119978 4.60577e-005
0.00968415 0.00120029 4.60577e-005
0.0098047 0.0012008 4.60577e-005
0.00992525 0.0012013 4.60577e-005
0.0100458 0.00120181 4.60577e-005
0.0101663 0.00120231 4.60577e-005
0.0102878 0.00120281 4.60577e-005
0.0104093 0.00120331 4.60577e-005
0.0105308 0.00120381 4.60577e-005
0.0106523 0.00120431 4.60577e-005
0.0107738 0.0012048 4.60577e-005
0.0108962 0.00120529 4.60577e-005
0.0110186 0.00120578 4.60577e-005
0.0111411 0.00120627 4.60577e-005
0.0112635 0.00120676 4.60577e-005
0.0113859 0.00120725 4.60577e-005
0.0115093 0.00120773 4.60577e-005
0.0116327 0.00120821 4.60577e-005
0.0117561 0.00120869 4.60577e-005
0.0118795 0.00120917 4.60577e-005
0.0120028 0.00120964 4.60577e-005
0.0121272 0.00121011 4.60577e-005
0.0122515 0.00121058 4.60577e-005
0.0123759 0.00121105 4.60577e-005
0.0125002 0.00121152 4.60577e-005
0.0126245 0.00121198 4.60577e-005
0.0127498 0.00121244 4.60577e-005
0.0128752 0.0012129 4.60577e-005
0.0130005 0.00121336 4.60577e-005
0.0131258 0.00121381 4.60577e-005
0.0132511 0.00121426 4.60577e-005
0.0133774 0.0012147 4.60577e-005
0.0135036 0.00121515 4.60577e-005
0.0136299 0.0012156 4.60577e-005
0.0137562 0.00121603 4.60577e-005
0.0138825 0.00121647 4.60577e-005
0.0140098 0.0012169 4.60577e-005
0.014137 0.00121733 4.60577e-005
0.0142643 0.00121776 4.60577e-005
0.0143915 0.00121818 4.60577e-005
0.0145188 0.0012186 4.60577e-005
0.0146471 0.00121901 4.60577e-005
0.0147753 0.00121943 4.60577e-005
0.0149036 0.00121984 4.60577e-005
0.0150318 0.00122024 4.60577e-005
0.0151601 0.00122064 4.60577e-005
0.0152893 0.00122103 4.60577e-005
0.0154186 0.00122143 4.60577e-005
0.0155478 0.00122182 4.60577e-005
0.0156771 0.0012222 4.60577e-005
0.0158063 0.00122258 4.60577e-005
0.0159366 0.00122296 4.60577e-005
0.0160668 0.00122333 4.60577e-005
0.0161971 0.0012237 4.60577e-005
0.0163274 0.00122406 4.60577e-005
0.0164576 0.00122441 4.60577e-005
0.0165889 0.00122476 4.60577e-005
0.0167201 0.00122511 4.60577e-005
0.0168514 0.00122545 4.60577e-005
0.0169827 0.00122579 4.60577e-005
0.0171139 0.00122612 4.60577e-005
0.0171861 0.00122629 4.60577e-005
0.0172583 0.00122647 4.60577e-005
0.0173305 0.00122664 4.60577e-005
0.0174027 0.00122682 4.60577e-005
0.0174731 0.00122698 4.60577e-005
0.0175336 0.00122712 4.60577e-005
0.017594 0.00122726 4.60577e-005
0.0176545 0.0012274 4.60577e-005
0.0177149 0.00122754 4.60577e-005
0.0177754 0.00122767 4.60577e-005
0.0179087 0.00122797 4.60577e-005
0.018042 0.00122826 4.60577e-005
0.0181753 0.00122854 4.60577e-005
0.0183087 0.00122881 4.60577e-005
0.018442 0.00122908 4.60577e-005
0.0185763 0.00122934 4.60577e-005
0.0187107 0.00122959 4.60577e-005
0.018845 0.00122984 4.60577e-005
0.0189794 0.00123008 4.60577e-005
0.0191137 0.00123031 4.60577e-005
0.0192491 0.00123053 4.60577e-005
0.0193845 0.00123074 4.60577e-005
0.0195199 0.00123095 4.60577e-005
0.0196553 0.00123115 4.60577e-005
0.0197907 0.00123134 4.60577e-005
0.0199272 0.00123152 4.60577e-005
0.0200636 0.0012317 4.60577e-005
0.0202001 0.00123186 4.60577e-005
0.0203365 0.00123202 4.60577e-005
0.020473 0.00123216 4.60577e-005
0.0206105 0.0012323 4.60577e-005
0.020748 0.00123243 4.60577e-005
0.0208855 0.00123255 4.60577e-005
0.021023 0.00123266 4.60577e-005
0.0211606 0.00123276 4.60577e-005
0.0212991 0.00123285 4.60577e-005
0.0214377 0.00123293 4.60577e-005
0.0215763 0.001233 4.60577e-005
0.0217149 0.00123306 4.60577e-005
0.0218535 0.00123311 4.60577e-005
0.0219931 0.00123316 4.60577e-005
0.0221328 0.00123318 4.60577e-005
0.0222724 0.0012332 4.60577e-005
0.0224121 0.00123321 4.60577e-005
0.0225517 0.00123321 4.60577e-005
0.0226925 0.0012332 4.60577e-005
[...]
POINT_DATA 11930
 FIELD attributes 2
p 1 11930 float
-1545.65 -1533.07 -1519.28 -1505.63 -1492.14 -1471.53 -1456.88 -1442.15 -1427.35 -1412.47 -1391.71 -1343.62 -1295.61 -1247.66 -1199.78 -1157.36 -1125.74 -1100.33 -1074.92 -1049.52 -1032.75 -1020.99 -1011.52 -1002.05 -992.594 -985.009 -978.237 -970.345 -962.454 -954.562 -945.572 -937.159 -928.524 -919.884 -911.26 -902.822 -894.835 -887.602 -880.457 -873.46 -867.351 -861.51 -856.252 -851.117 -846.139 -841.766 -837.558 -833.587 -829.688 -825.882 -822.338 -818.914 -815.621 -812.383 -809.218 -806.215 -803.303 -800.516 -797.794 -795.156 -792.663 -790.232 -787.913 -785.666 -783.504 -781.467 -779.466 -777.549 -775.695 -773.918 -772.232 -770.561 -768.952 -767.4 -765.916 -764.5 -763.078 -761.702 -760.377 -759.115 -757.908 -756.672 -755.478 -754.337 -753.264 -752.241 -751.165 -750.117 -749.109 -748.172 -747.278 -746.312 -745.395 -744.565 -743.85 -743.197 -742.482 -741.829 -741.289 -740.88 -740.551 -740.059 -739.608 -739.216 -738.913 -738.678 -738.258 -737.941 -737.738 -737.649 -737.671 -737.505 -737.421 -737.409 -737.463 -737.596 -737.682 -737.756 -737.822 -737.883 -737.934 -738.19 -738.347 -738.447 -738.492 -738.429 -738.81 -739.022 -739.157 -739.211 -739.064 -739.526 -739.765 -739.925 -740 -739.798 -740.286 -740.508 -740.66 -740.741 -740.495 -740.947 -741.117 -741.236 -741.306 -741.043 -741.425 -741.55 -741.647 -741.719 -741.49 -741.799 -741.902 -741.993 -742.079 -741.914 -742.153 -742.235 -742.318 -742.4 -742.304 -742.467 -742.532 -742.597 -742.662 -742.625 -742.727 -742.782 -742.837 -742.892 -742.904 -742.972 -743.027 -743.082 -743.137 -743.188 -743.24 -743.298 -743.355 -743.413 -743.487 -743.537 -743.597 -743.657 -743.717 -743.802 -743.862 -743.927 -743.992 -744.057 -744.144 -744.222 -744.296 -744.37 -744.444 -744.528 -744.632 -744.719 -744.805 -744.892 -744.975 -745.106 -745.207 -745.308 -745.409 -745.493 -745.648 -745.763 -745.879 -745.994 -746.081 -746.255 -746.384 -746.513 -746.641 -746.735 -746.924 -747.066 -747.208 -747.35 -747.455 -747.654 -747.81 -747.965 -748.121 -748.243 -748.448 -748.616 -748.785 -748.953 -749.096 -749.306 -749.49 -749.674 -749.858 -750.025 -750.242 -750.444 -750.645 -750.847 -751.043 -751.166 -751.284 -751.403 -751.521 -751.637 -751.736 -751.835 -751.933 -752.032 -752.147 -752.362 -752.592 -752.821 -753.05 -753.33 -753.527 -753.77 -754.012 -754.254 -754.576 -754.762 -755.017 -755.272 -755.527 -755.886 -756.066 -756.333 -756.6 -756.867 -757.254 -757.435 -757.713 -757.992 -758.271 -758.678 -758.867 -759.157 -759.448 -759.738 -760.157 -760.361 -760.662 -760.963 -761.264 -761.685 -761.913 -762.224 -762.535 -762.846 -763.261 -763.517 -763.838 -764.158 -764.479 -764.879 -765.169 -765.498 -765.828 -766.157 -766.536 -766.864 -767.201 -767.539 -767.876 -768.23 -768.596 -768.941 -769.286 -769.631 -769.956 -770.358 -770.713 -771.065 -771.411 -771.712 -772.141 -772.512 -772.87 -773.212 -773.496 -773.947 -774.336 -774.7 -775.035 -775.307 -775.774 -776.182 -776.553 -776.879 -777.146 -777.624 -778.051 -778.43 -778.748 -779.016 -779.504 -779.952 -780.338 -780.647 -780.917 -781.412 -781.88 -782.271 -782.57 -782.841 -783.339 -783.821 -784.215 -784.504 -784.778 -785.271 -785.763 -786.157 -786.439 -786.721 -787.206 -787.69 -788.082 -788.375 -788.668 -789.141 -789.614 -790.006 -790.311 -790.617 -791.077 -791.537 -791.927 -792.246 -792.565 -793.01 -793.456 -793.845 -794.176 -794.508 -794.938 -795.369 -795.756 -796.099 -796.442 -796.857 -797.273 -797.657 -798.01 -798.363 -798.763 -799.163 -799.544 -799.904 -800.264 -800.65 -801.036 -801.411 -801.776 -802.141 -802.513 -802.885 -803.254 -803.621 -803.987 -804.345 -804.705 -805.067 -805.431 -805.796 -806.14 -806.488 -806.841 -807.198 -807.558 -807.888 -808.226 -808.569 -808.915 -809.267 -809.582 -809.909 -810.239 -810.572 -810.913 -811.213 -811.527 -811.844 -812.16 -812.487 -812.771 -813.07 -813.369 -813.668 -813.976 -814.242 -814.522 -814.802 -815.082 -815.371 -815.617 -815.876 -816.136 -816.395 -816.663 -816.889 -817.126 -817.362 -817.599 -817.843 -818.048 -818.261 -818.473 -818.686 -818.902 -819.072 -819.246 -819.419 -819.593 -819.758 -819.773 -819.787 -819.802 -819.816 -819.831 -819.989 -820.148 -820.306 -820.465 -820.622 -820.751 -820.877 -821.004 -821.13 -821.252 -821.351 -821.444 -821.537 -821.63 -821.715 -821.783 -821.84 -821.897 -821.954 -822 -822.035 -822.054 -822.072 -822.092 -822.095 -822.094 -822.073 -822.052 -822.028 -821.989 -821.946 -821.888 -821.824 -821.753 -821.671 -821.585 -821.488 -821.38 -821.26 -821.132 -821.002 -820.864 -820.71 -820.539 -820.363 -820.186 -820.007 -819.804 -819.579 -819.353 -819.127 -818.9 -818.647 -818.37 -818.093 -817.815 -817.538 -817.234 -816.904 -816.574 -816.243 -815.913 -815.556 -815.171 -814.785 -814.4 -814.014 -813.603 -813.161 -812.719 -812.276 -811.83 -811.36 -810.865 -810.364 -809.862 -809.35 -808.819 -808.272 -807.71 -807.148 -806.566 -805.973 -805.372 -804.748 -804.122 -803.468 -802.811 -802.154 -801.466 -800.77 -800.046 -799.322 -798.599 -797.853 -797.081 -796.288 -795.495 -794.703 -793.899 -793.046 -792.182 -791.319 -790.455 -789.591 -789.476 -789.36 -789.244 -789.128 -789.013 -788.196 -787.379 -786.563 -785.747 -784.918 -783.924 -782.917 -781.91 -780.903 -779.868 -778.813 -777.728 -776.643 -775.559 -774.43 -773.312 -772.147 -770.983 -769.81 -768.591 -767.393 -766.163 -764.917 -763.643 -762.341 -761.059 -759.764 -758.434 -757.056 -755.667 -754.3 -752.933 -751.513 -750.036 -748.56 -747.105 -745.65 -744.14 -742.574 -741.007 -739.463 -737.919 -736.316 -734.658 -733 -731.364 -729.715 -728.015 -726.279 -724.528 -722.798 -721.032 -719.237 -717.429 -715.581 -713.757 -711.87 -709.978 -708.086 -706.152 -704.21 -702.219 -700.23 -698.24 -696.232 -694.67 -693.087 -691.504 -689.922 -688.418 -687.9 -687.381 -686.863 -686.344 -685.819 -683.649 -681.474 -679.299 -677.125 -674.914 -672.67 -670.394 -668.119 -665.845 -663.502 -661.174 -658.808 -656.433 -654.026 -651.581 -649.152 -646.714 -644.237 -641.696 -639.15 -636.62 -634.09 -631.503 -628.856 -626.209 -623.578 -620.948 -618.254 -615.507 -612.76 -610.029 -607.269 -604.468 -601.652 -598.805 -595.975 -593.08 -590.18 -587.281 -584.35 -581.39 -578.392 -575.395 -572.399 -569.401 -569.339 -569.276 -569.213 -569.15 -569.088 -566.064 -563.041 -560.018 -556.996 -553.948 -550.786 -547.607 -544.428 -541.247 -538.02 -534.773 -531.512 -528.242 -524.944 -521.627 -518.29 -514.954 -511.589 -508.185 -504.781 -501.356 -497.932 -494.472 -490.984 -487.495 -483.986 -480.462 -476.912 -473.356 -469.787 -466.196 -462.568 -458.938 -455.309 -451.67 -449.155 -446.624 -444.093 -441.562 -439.126 -437.934 -436.743 -435.551 -434.36 -433.16 -429.391 -425.618 -421.846 -418.074 -414.269 -410.441 -406.601 -402.76 -398.902 -395.022 -391.127 -387.232 -383.322 -379.381 -375.438 -371.48 -367.522 -363.538 -359.537 -355.536 -351.518 -347.488 -343.44 -339.39 -335.334 -331.258 -327.156 -323.055 -318.954 -314.85 -313.53 -312.204 -310.877 -309.551 -308.246 -305.418 -302.591 -299.764 -296.937 -294.096 -289.904 -285.708 -281.514 -277.316 -273.093 -268.858 -264.622 -260.385 -256.127 -251.864 -247.589 -243.313 -239.025 -234.727 -230.427 -226.114 -221.795 -217.463 -213.131 -208.798 -204.45 -200.085 -195.721 -191.357 -186.993 -185.833 -184.67 -183.507 -182.344 -181.194 -177.961 -174.727 -171.493 -168.26 -165.016 -160.593 -156.173 -151.753 -147.328 -142.889 -138.442 -133.995 -129.55 -125.091 -120.63 -116.159 -111.689 -107.207 -102.728 -98.2461 -93.7546 -89.2571 -84.7565 -80.2564 -75.7598 -72.6284 -69.4932 -66.3582 -63.2235 -60.1786 -58.7815 -57.3843 -55.9872 -54.5902 -53.1902 -48.6595 -44.1312 -39.6033 -35.0752 -30.5342 -25.9876 -21.4444 -16.9051 -12.3578 -7.8073 -3.25074 1.30528 5.86435 10.4191 14.9757 19.539 24.1046 28.6723 33.2395 37.8009 40.996 44.1932 47.3901 50.5869 53.6949 55.0885 56.4821 57.8756 59.2691 60.6643 65.2463 69.8246 74.4025 78.9805 83.5643 88.1515 92.7357 97.313 101.893 106.474 111.06 115.645 120.23 124.806 129.384 133.965 138.546 143.126 147.705 152.282 153.823 155.363 156.904 158.444 159.964 163.006 166.048 169.09 172.132 175.174 179.756 184.328 188.9 193.47 198.041 202.613 207.184 211.747 216.303 220.862 225.422 229.978 234.531 239.082 243.626 246.607 249.582 252.557 255.532 258.436 260.015 261.595 263.174 264.754 266.331 270.867 275.396 279.925 284.451 288.974 293.494 298.014 302.522 307.021 311.522 316.021 320.516 325.002 329.486 333.964 337.021 340.07 343.118 346.167 349.143 350.575 352.006 353.437 354.869 356.296 360.75 365.197 369.643 374.085 378.52 382.949 387.377 391.792 396.194 400.598 404.996 409.385 413.765 418.144 422.517 424.482 426.44 428.397 430.354 432.284 434.686 437.088 439.49 441.892 444.285 448.62 452.944 457.268 461.578 465.885 470.181 474.476 478.755 483.019 487.284 491.513 495.722 499.928 504.133 508.228 508.276 508.324 508.372 508.421 508.468 512.674 516.879 521.084 525.286 529.47 533.639 537.808 541.959 546.092 550.227 554.345 558.451 562.543 566.635 570.72 572.027 573.326 574.624 575.922 577.211 579.967 582.724 585.48 588.233 590.97 594.987 598.997 602.998 606.969 610.941 614.896 618.843 622.765 626.686 630.593 632.249 633.893 635.533 637.174 638.807 641.038 643.27 645.501 647.728 649.939 653.77 657.59 661.4 665.175 668.949 672.704 676.449 680.161 683.871 687.556 689.051 690.535 692.016 693.496 694.983 697.151 699.32 701.489 703.653 705.801 709.412 712.995 716.549 720.009 723.467 726.904 730.38 733.956 737.531 741.159 742.493 743.586 744.594 745.603 746.631 748.638 750.644 752.65 754.525 755.997 758.301 760.992 764.187 769.036 773.878 778.585 782.398 784.89 787.385 789.898 789.909 789.921 789.938 789.954 789.97 792.031 794.093 796.157 798.767 801.716 804.715 807.68 810.527 813.373 816.184 816.444 816.697 816.941 817.184 817.43 819.955 822.478 825 827.435 829.815 832.452 835.071 837.596 840.118 842.594 842.943 843.283 843.608 843.932 844.263 846.371 848.476 850.578 852.594 854.555 856.825 859.087 861.154 863.214 865.173 865.628 866.06 866.457 866.854 867.267 868.719 870.165 871.608 872.949 874.213 875.813 877.406 878.784 879.979 881.141 881.654 882.094 882.449 882.803 883.195 883.714 884.231 884.744 885.182 885.532 886.099 886.621 886.9 886.883 886.856 886.693 886.282 885.688 885.087 884.386 884.356 884.316 884.271 884.226 884.18 883.03 881.865 880.685 879.352 877.696 875.764 873.821 871.443 868.638 865.82 862.74 859.192 855.461 851.723 847.883 847.34 846.727 846.104 845.48 844.832 840.671 836.496 832.307 828.063 823.322 817.503 811.469 805.077 797.868 790.629 782.916 775.19 766.841 758.119 749.28 739.914 729.279 718.454 707.627 696.395 692.488 688.576 684.664 680.75 676.405 667.948 659.486 651.018 642.545 634.029 620.24 604.378 588.485 571.474 552.004 531.559 511.551 493.939 479.917 465.888 451.107 436.327 408.762 368.86 328.926 287.195 254.854 238.315 228.928 231.74 233.628 176.583 119.225 61.569 0