# vtk DataFile Version 2.0
track0
ASCII
DATASET POLYDATA
POINTS 11980 float
-0.0205 0.001 1e-005
-0.0202034 0.00100022 1e-005
-0.0199069 0.00100067 1e-005
-0.0196103 0.00100132 1e-005
-0.0193137 0.00100219 1e-005
-0.0190172 0.00100326 1e-005
-0.0187132 0.00100466 1e-005
-0.0184093 0.00100588 1e-005
-0.0181054 0.0010071 1e-005
-0.0178015 0.00100832 1e-005
-0.0174976 0.00100953 1e-005
-0.0172058 0.00101083 1e-005
-0.016914 0.00101193 1e-005
-0.0166222 0.00101303 1e-005
-0.0163305 0.00101413 1e-005
-0.0160387 0.00101522 1e-005
-0.0157586 0.00101636 1e-005
-0.0154784 0.00101744 1e-005
-0.0151983 0.00101856 1e-005
-0.0149182 0.00101971 1e-005
-0.0146381 0.0010209 1e-005
-0.0143744 0.00102208 1e-005
-0.0141106 0.00102327 1e-005
-0.0138469 0.00102449 1e-005
-0.0135832 0.00102574 1e-005
-0.0133604 0.00102682 1e-005
-0.013347 0.00102688 1e-005
-0.0133336 0.00102695 1e-005
-0.0133202 0.00102702 1e-005
-0.0133068 0.00102708 1e-005
-0.0132934 0.00102715 1e-005
-0.0130353 0.00102844 1e-005
-0.0127771 0.00102974 1e-005
-0.0125189 0.00103106 1e-005
-0.0122607 0.00103239 1e-005
-0.0120025 0.00103374 1e-005
-0.0117547 0.00103505 1e-005
-0.0115068 0.00103636 1e-005
-0.0112589 0.00103768 1e-005
-0.0110111 0.00103901 1e-005
-0.0107632 0.00104034 1e-005
-0.0105252 0.00104161 1e-005
-0.0102873 0.00104289 1e-005
-0.0100493 0.00104417 1e-005
-0.00981133 0.00104544 1e-005
-0.00957337 0.00104672 1e-005
-0.00934491 0.00104794 1e-005
-0.00911645 0.00104916 1e-005
-0.00888799 0.00105038 1e-005
-0.00865954 0.00105159 1e-005
-0.00843108 0.00105281 1e-005
-0.00821175 0.00105396 1e-005
-0.00799242 0.00105512 1e-005
-0.00777309 0.00105627 1e-005
-0.00755376 0.00105742 1e-005
-0.00733443 0.00105856 1e-005
-0.00712387 0.00105965 1e-005
-0.0069133 0.00106074 1e-005
-0.00670273 0.00106182 1e-005
-0.00649216 0.0010629 1e-005
-0.0062816 0.00106398 1e-005
-0.00607944 0.001065 1e-005
-0.00587729 0.00106603 1e-005
-0.00567514 0.00106704 1e-005
-0.00547298 0.00106806 1e-005
-0.00527083 0.00106907 1e-005
-0.00507675 0.00107003 1e-005
-0.00488267 0.00107099 1e-005
-0.0046886 0.00107195 1e-005
-0.00449452 0.0010729 1e-005
-0.00430044 0.00107385 1e-005
-0.00411412 0.00107475 1e-005
-0.0039278 0.00107566 1e-005
-0.00374147 0.00107656 1e-005
-0.00355515 0.00107745 1e-005
-0.00336883 0.00107835 1e-005
-0.00318995 0.00107919 1e-005
-0.00301107 0.00108004 1e-005
-0.00283219 0.00108089 1e-005
-0.00265331 0.00108173 1e-005
-0.00247443 0.00108258 1e-005
-0.0023027 0.00108337 1e-005
-0.00213097 0.00108418 1e-005
-0.00195924 0.00108498 1e-005
-0.0017875 0.00108577 1e-005
-0.00161577 0.00108657 1e-005
-0.0014509 0.00108732 1e-005
-0.00128603 0.00108808 1e-005
-0.00112116 0.00108884 1e-005
-0.000956289 0.00108959 1e-005
-0.000791418 0.00109035 1e-005
-0.000633135 0.00109106 1e-005
-0.000474851 0.00109179 1e-005
-0.000316567 0.00109251 1e-005
-0.000158284 0.00109322 1e-005
0 0.00109393 1e-005
0.000105677 0.0010944 1e-005
0.000211355 0.00109488 1e-005
0.000317032 0.00109534 1e-005
0.00042271 0.00109581 1e-005
0.000528387 0.00109627 1e-005
0.000634886 0.00109672 1e-005
0.000741385 0.00109718 1e-005
0.000847885 0.00109763 1e-005
0.000954384 0.00109808 1e-005
0.00106088 0.00109853 1e-005
0.00116821 0.00109897 1e-005
0.00127554 0.00109941 1e-005
0.00138286 0.00109985 1e-005
0.00149019 0.00110028 1e-005
0.00159752 0.00110071 1e-005
0.00170568 0.00110113 1e-005
0.00181384 0.00110154 1e-005
0.001922 0.00110195 1e-005
0.00203016 0.00110235 1e-005
0.00213833 0.00110274 1e-005
0.00224733 0.00110312 1e-005
0.00235633 0.0011035 1e-005
0.00246533 0.00110387 1e-005
0.00257434 0.00110423 1e-005
0.00268334 0.00110458 1e-005
0.00279319 0.00110493 1e-005
0.00290304 0.00110527 1e-005
0.00301289 0.0011056 1e-005
0.00312274 0.00110592 1e-005
0.00323259 0.00110624 1e-005
0.00334329 0.00110654 1e-005
0.003454 0.00110685 1e-005
0.0035647 0.00110715 1e-005
0.0036754 0.00110743 1e-005
0.00378611 0.00110772 1e-005
0.00389767 0.00110799 1e-005
0.00400924 0.00110825 1e-005
0.0041208 0.00110851 1e-005
0.00423237 0.00110877 1e-005
0.00434393 0.00110901 1e-005
0.00445636 0.00110925 1e-005
0.00456879 0.00110948 1e-005
0.00468123 0.0011097 1e-005
0.00479366 0.00110992 1e-005
0.00490609 0.00111013 1e-005
0.0050194 0.00111032 1e-005
0.0051327 0.00111052 1e-005
0.00524601 0.00111071 1e-005
0.00535932 0.00111088 1e-005
0.00547262 0.00111106 1e-005
0.00558681 0.00111122 1e-005
0.005701 0.00111138 1e-005
0.00581518 0.00111153 1e-005
0.00592937 0.00111167 1e-005
0.00604356 0.0011118 1e-005
0.00615863 0.00111193 1e-005
0.00627371 0.00111205 1e-005
0.00638878 0.00111216 1e-005
0.00650386 0.00111227 1e-005
0.00661893 0.00111237 1e-005
0.0067349 0.00111246 1e-005
0.00685087 0.00111254 1e-005
0.00696684 0.00111262 1e-005
0.00708281 0.00111269 1e-005
0.00719878 0.00111275 1e-005
0.00726191 0.00111278 1e-005
0.00732505 0.00111281 1e-005
0.00738818 0.00111284 1e-005
0.00745132 0.00111286 1e-005
0.00751262 0.00111288 1e-005
0.00756672 0.00111289 1e-005
0.00762082 0.00111291 1e-005
0.00767493 0.00111292 1e-005
0.00772903 0.00111293 1e-005
0.00778313 0.00111294 1e-005
0.00790091 0.00111296 1e-005
0.00801869 0.00111297 1e-005
0.00813647 0.00111297 1e-005
0.00825425 0.00111296 1e-005
0.00837203 0.00111295 1e-005
0.00849073 0.00111292 1e-005
0.00860942 0.00111289 1e-005
0.00872812 0.00111286 1e-005
0.00884682 0.00111281 1e-005
0.00896551 0.00111276 1e-005
0.00908513 0.00111269 1e-005
0.00920475 0.00111262 1e-005
0.00932437 0.00111254 1e-005
0.00944398 0.00111246 1e-005
0.0095636 0.00111237 1e-005
0.00968415 0.00111226 1e-005
0.0098047 0.00111215 1e-005
0.00992525 0.00111203 1e-005
0.0100458 0.0011119 1e-005
0.0101663 0.00111177 1e-005
0.0102878 0.00111161 1e-005
0.0104093 0.00111146 1e-005
0.0105308 0.0011113 1e-005
0.0106523 0.00111114 1e-005
0.0107738 0.00111096 1e-005
0.0108962 0.00111076 1e-005
0.0110186 0.00111057 1e-005
0.0111411 0.00111037 1e-005
0.0112635 0.00111016 1e-005
0.0113859 0.00110994 1e-005
0.0115093 0.0011097 1e-005
0.0116327 0.00110946 1e-005
0.0117561 0.00110921 1e-005
0.0118795 0.00110896 1e-005
0.0120028 0.0011087 1e-005
0.0121272 0.00110841 1e-005
0.0122515 0.00110813 1e-005
0.0123759 0.00110784 1e-005
0.0125002 0.00110754 1e-005
0.0126245 0.00110723 1e-005
0.0127498 0.0011069 1e-005
0.0128752 0.00110657 1e-005
0.0130005 0.00110624 1e-005
0.0131258 0.00110589 1e-005
0.0132511 0.00110554 1e-005
0.0133774 0.00110516 1e-005
0.0135036 0.00110479 1e-005
0.0136299 0.00110441 1e-005
0.0137562 0.00110402 1e-005
0.0138825 0.00110362 1e-005
0.0140098 0.00110319 1e-005
0.014137 0.00110277 1e-005
0.0142643 0.00110234 1e-005
0.0143915 0.0011019 1e-005
0.0145188 0.00110146 1e-005
0.0146471 0.00110099 1e-005
0.0147753 0.00110052 1e-005
0.0149036 0.00110004 1e-005
0.0150318 0.00109955 1e-005
0.0151601 0.00109905 1e-005
0.0152893 0.00109854 1e-005
0.0154186 0.00109802 1e-005
0.0155478 0.00109749 1e-005
0.0156771 0.00109696 1e-005
0.0158063 0.00109641 1e-005
0.0159366 0.00109585 1e-005
0.0160668 0.00109528 1e-005
0.0161971 0.0010947 1e-005
0.0163274 0.00109412 1e-005
0.0164576 0.00109352 1e-005
0.0165889 0.00109291 1e-005
0.0167201 0.0010923 1e-005
0.0168514 0.00109167 1e-005
0.0169827 0.00109103 1e-005
0.0171139 0.00109039 1e-005
0.0172462 0.00108973 1e-005
0.0173785 0.00108907 1e-005
0.0175108 0.00108839 1e-005
0.0176431 0.0010877 1e-005
0.0177754 0.00108701 1e-005
0.0179087 0.00108631 1e-005
0.018042 0.00108559 1e-005
0.0181753 0.00108486 1e-005
0.0183087 0.00108413 1e-005
0.018442 0.00108339 1e-005
0.0185763 0.00108264 1e-005
0.0187107 0.00108187 1e-005
0.018845 0.00108109 1e-005
0.0189794 0.0010803 1e-005
0.0191137 0.00107951 1e-005
0.0192491 0.00107872 1e-005
0.0193845 0.00107791 1e-005
0.0195199 0.00107708 1e-005
0.0196553 0.00107623 1e-005
0.0197907 0.0010754 1e-005
0.0199272 0.00107455 1e-005
0.0200636 0.00107369 1e-005
0.0202001 0.00107281 1e-005
0.0203365 0.00107192 1e-005
0.020473 0.00107103 1e-005
0.0206105 0.00107014 1e-005
0.020748 0.00106923 1e-005
0.0208855 0.0010683 1e-005
0.021023 0.00106736 1e-005
0.0211606 0.00106642 1e-005
0.0212991 0.00106549 1e-005
0.0214377 0.00106453 1e-005
0.0215763 0.00106354 1e-005
0.0217149 0.00106255 1e-005
0.0218535 0.00106157 1e-005
0.0219931 0.00106058 1e-005
0.0221328 0.00105958 1e-005
0.0222724 0.00105854 1e-005
0.0224121 0.0010575 1e-005
0.0225517 0.00105647 1e-005
0.0226925 0.00105544 1e-005
0.0228332 0.00105438 1e-005
0.022974 0.00105329 1e-005
0.0231147 0.0010522 1e-005
0.0232555 0.00105112 1e-005
0.0233973 0.00105004 1e-005
0.0235391 0.00104893 1e-005
0.023681 0.0010478 1e-005
0.0238228 0.00104666 1e-005
0.0239647 0.00104552 1e-005
0.0241076 0.00104439 1e-005
0.0242505 0.00104324 1e-005
0.0243935 0.00104205 1e-005
0.0245364 0.00104086 1e-005
0.0246794 0.00103968 1e-005
0.0248234 0.0010385 1e-005
0.0249675 0.00103729 1e-005
0.0251115 0.00103605 1e-005
0.0252556 0.00103481 1e-005
0.0253996 0.00103358 1e-005
0.0255448 0.00103235 1e-005
0.02569 0.00103109 1e-005
0.0258351 0.0010298 1e-005
0.0259803 0.00102851 1e-005
0.0261255 0.00102723 1e-005
0.0262718 0.00102595 1e-005
0.0264181 0.00102464 1e-005
0.0265644 0.0010233 1e-005
0.0267107 0.00102196 1e-005
0.026857 0.00102063 1e-005
0.0270044 0.00101929 1e-005
0.0271519 0.00101793 1e-005
0.0272993 0.00101654 1e-005
0.0274468 0.00101515 1e-005
0.0275942 0.00101376 1e-005
0.0277428 0.00101237 1e-005
0.0278914 0.00101095 1e-005
0.0280399 0.00100952 1e-005
0.0281885 0.00100808 1e-005
0.0283371 0.00100663 1e-005
0.0284869 0.00100519 1e-005
0.0286366 0.00100371 1e-005
0.0287863 0.00100222 1e-005
0.0289361 0.00100073 1e-005
0.0290858 0.000999227 1e-005
0.0292367 0.000997725 1e-005
0.0293876 0.000996193 1e-005
0.0295385 0.00099465 1e-005
0.0296894 0.000993099 1e-005
0.0298403 0.000991541 1e-005
0.0299924 0.000989979 1e-005
0.0301445 0.000988389 1e-005
0.0302966 0.000986789 1e-005
0.0304486 0.000985181 1e-005
0.0306007 0.000983564 1e-005
0.030754 0.000981942 1e-005
0.0309072 0.000980293 1e-005
0.0310605 0.000978635 1e-005
0.0312138 0.000976968 1e-005
0.031367 0.000975292 1e-005
0.0315215 0.000973607 1e-005
[...]
POINT_DATA 11980
 FIELD attributes 2
p 1 11980 float
-4.83443 -4.83372 -4.83011 -4.82642 -4.82265 -4.81428 -4.82814 -4.84313 -4.85812 -4.87311 -4.89755 -4.91934 -4.9493 -4.97926 -5.00923 -5.042 -5.05769 -5.07943 -5.10116 -5.12291 -5.14627 -5.16522 -5.18618 -5.20714 -5.22811 -5.24582 -5.24688 -5.24794 -5.24901 -5.25007 -5.25113 -5.27284 -5.29456 -5.31627 -5.33799 -5.35944 -5.37826 -5.3969 -5.41554 -5.43418 -5.45224 -5.46794 -5.48337 -5.4988 -5.51422 -5.5291 -5.54297 -5.55659 -5.57021 -5.58384 -5.59701 -5.60983 -5.6224 -5.63496 -5.64752 -5.65966 -5.67159 -5.68322 -5.69486 -5.70649 -5.71771 -5.72883 -5.73969 -5.75054 -5.76139 -5.77189 -5.78242 -5.79268 -5.80294 -5.8132 -5.82314 -5.83319 -5.84305 -5.85292 -5.86278 -5.87243 -5.88219 -5.89169 -5.90119 -5.9107 -5.91998 -5.92954 -5.93924 -5.94893 -5.95863 -5.96844 -5.97845 -5.98823 -5.998 -6.00778 -6.01735 -6.02735 -6.03811 -6.04887 -6.05963 -6.0705 -6.08025 -6.09062 -6.10099 -6.11136 -6.12126 -6.13025 -6.13874 -6.14723 -6.15572 -6.16345 -6.17043 -6.1785 -6.18658 -6.19465 -6.20349 -6.21159 -6.22019 -6.22878 -6.23738 -6.2461 -6.25416 -6.26125 -6.26834 -6.27543 -6.28169 -6.28832 -6.29367 -6.29903 -6.30438 -6.30871 -6.3143 -6.31885 -6.3234 -6.32795 -6.33156 -6.33641 -6.34037 -6.34433 -6.3483 -6.35145 -6.35534 -6.35848 -6.36162 -6.36476 -6.36729 -6.37015 -6.37246 -6.37477 -6.37709 -6.37903 -6.38114 -6.38289 -6.38465 -6.38641 -6.38798 -6.38972 -6.39125 -6.39278 -6.39431 -6.39575 -6.39729 -6.39872 -6.40015 -6.40158 -6.40298 -6.40373 -6.40445 -6.40517 -6.40589 -6.40659 -6.40721 -6.40783 -6.40845 -6.40907 -6.40973 -6.41094 -6.41221 -6.41347 -6.41474 -6.4162 -6.41723 -6.41849 -6.41975 -6.42101 -6.42269 -6.42351 -6.42481 -6.42611 -6.4274 -6.42941 -6.43002 -6.43142 -6.43281 -6.4342 -6.43667 -6.43709 -6.4386 -6.44012 -6.44164 -6.44457 -6.44477 -6.44638 -6.448 -6.44961 -6.45299 -6.45297 -6.45469 -6.45641 -6.45813 -6.46198 -6.46182 -6.46368 -6.46553 -6.46739 -6.47169 -6.47144 -6.47344 -6.47544 -6.47745 -6.48212 -6.48181 -6.48396 -6.4861 -6.48824 -6.49324 -6.49293 -6.49521 -6.49749 -6.49997 -6.50506 -6.50507 -6.50723 -6.50966 -6.51256 -6.51761 -6.51796 -6.52004 -6.52262 -6.5259 -6.5309 -6.5316 -6.53365 -6.53639 -6.53999 -6.54493 -6.54599 -6.54804 -6.55093 -6.55483 -6.5597 -6.56111 -6.5632 -6.56624 -6.57038 -6.57519 -6.57694 -6.57912 -6.58231 -6.58665 -6.5914 -6.59348 -6.59577 -6.59911 -6.60361 -6.60831 -6.61069 -6.61313 -6.61661 -6.62124 -6.6259 -6.62858 -6.63126 -6.6349 -6.63953 -6.64416 -6.64711 -6.65005 -6.65383 -6.65845 -6.66308 -6.66628 -6.66947 -6.67339 -6.67802 -6.68265 -6.6861 -6.68955 -6.69359 -6.69822 -6.70286 -6.70654 -6.71024 -6.71439 -6.71901 -6.72364 -6.72754 -6.73144 -6.73569 -6.7403 -6.74491 -6.74898 -6.75305 -6.75739 -6.76201 -6.76663 -6.77083 -6.77503 -6.77947 -6.78411 -6.78876 -6.79307 -6.79741 -6.80192 -6.80658 -6.81128 -6.81568 -6.82014 -6.82472 -6.82941 -6.83415 -6.83863 -6.84319 -6.84783 -6.85256 -6.85734 -6.86189 -6.86653 -6.87123 -6.87599 -6.88082 -6.88542 -6.89013 -6.89489 -6.89967 -6.90454 -6.90919 -6.91395 -6.91874 -6.92354 -6.92844 -6.93312 -6.93793 -6.94275 -6.94756 -6.95247 -6.95718 -6.96201 -6.96684 -6.97167 -6.97657 -6.9813 -6.98614 -6.99097 -6.9958 -7.00069 -7.00543 -7.01025 -7.01507 -7.0199 -7.02475 -7.0295 -7.03429 -7.03909 -7.04389 -7.04871 -7.05343 -7.05819 -7.06295 -7.06771 -7.07247 -7.0757 -7.07893 -7.08217 -7.08541 -7.08855 -7.09004 -7.09153 -7.09301 -7.0945 -7.09599 -7.10063 -7.10527 -7.10991 -7.11455 -7.11921 -7.12377 -7.12832 -7.13288 -7.13744 -7.14202 -7.14648 -7.15093 -7.15539 -7.15985 -7.16433 -7.16869 -7.17304 -7.17738 -7.18173 -7.18609 -7.19034 -7.19455 -7.19875 -7.20296 -7.20718 -7.21129 -7.21534 -7.21939 -7.22344 -7.22748 -7.23143 -7.23532 -7.2392 -7.24307 -7.24692 -7.2507 -7.25441 -7.25809 -7.26174 -7.26538 -7.26895 -7.27248 -7.27593 -7.27934 -7.28273 -7.28607 -7.28939 -7.29259 -7.29572 -7.29885 -7.30194 -7.30504 -7.30796 -7.31079 -7.31362 -7.31643 -7.31926 -7.32189 -7.3244 -7.32691 -7.32942 -7.33194 -7.33427 -7.33643 -7.33859 -7.34078 -7.34296 -7.34496 -7.34675 -7.34853 -7.35035 -7.35218 -7.35382 -7.3552 -7.35658 -7.35802 -7.35944 -7.36068 -7.36165 -7.36261 -7.36362 -7.36457 -7.36537 -7.36596 -7.36645 -7.36701 -7.36746 -7.36778 -7.36796 -7.36796 -7.36804 -7.36794 -7.36775 -7.36751 -7.36699 -7.36656 -7.36586 -7.36514 -7.36443 -7.36338 -7.36235 -7.36106 -7.35978 -7.3585 -7.35697 -7.35528 -7.35339 -7.35151 -7.34963 -7.3476 -7.3452 -7.34268 -7.34016 -7.33765 -7.3351 -7.33397 -7.3328 -7.33163 -7.33047 -7.32933 -7.32734 -7.32536 -7.32337 -7.32139 -7.31933 -7.3156 -7.31177 -7.30795 -7.30413 -7.30012 -7.29581 -7.29126 -7.28672 -7.28218 -7.27729 -7.2724 -7.26709 -7.26179 -7.25649 -7.25069 -7.24513 -7.23911 -7.23302 -7.22678 -7.22016 -7.21379 -7.20714 -7.20023 -7.193 -7.18554 -7.17834 -7.17103 -7.16328 -7.155 -7.14667 -7.1386 -7.13054 -7.12188 -7.11264 -7.10341 -7.09444 -7.08548 -7.07593 -7.06576 -7.05559 -7.0457 -7.03582 -7.02533 -7.0142 -7.00308 -6.99224 -6.98127 -6.96976 -6.95784 -6.94572 -6.9339 -6.92171 -6.9092 -6.89651 -6.88339 -6.87056 -6.8571 -6.84356 -6.83002 -6.81594 -6.80189 -6.7873 -6.77271 -6.75812 -6.74325 -6.72786 -6.71219 -6.69652 -6.68086 -6.6652 -6.66516 -6.66512 -6.66507 -6.66503 -6.66498 -6.64839 -6.63181 -6.61524 -6.59867 -6.58183 -6.56436 -6.54662 -6.52889 -6.51117 -6.49288 -6.47456 -6.4557 -6.43685 -6.41781 -6.39826 -6.3788 -6.35909 -6.33909 -6.31859 -6.29787 -6.27726 -6.25665 -6.23542 -6.21353 -6.19164 -6.16986 -6.14808 -6.12565 -6.10257 -6.07949 -6.05652 -6.03348 -6.00976 -5.98563 -5.96135 -5.9372 -5.91257 -5.88764 -5.86266 -5.83718 -5.81174 -5.78559 -5.75945 -5.73332 -5.70692 -5.68738 -5.66753 -5.64768 -5.62784 -5.60897 -5.60129 -5.59362 -5.58594 -5.57827 -5.57051 -5.54208 -5.5136 -5.48512 -5.45665 -5.4278 -5.39838 -5.36869 -5.339 -5.3092 -5.27894 -5.24836 -5.21763 -5.18674 -5.15541 -5.12394 -5.09214 -5.06036 -5.02817 -4.99548 -4.9628 -4.9298 -4.89681 -4.86331 -4.82943 -4.79554 -4.76135 -4.72689 -4.69212 -4.65729 -4.62222 -4.58681 -4.55085 -4.5149 -4.47896 -4.44288 -4.42327 -4.40346 -4.38365 -4.36385 -4.34471 -4.32731 -4.30991 -4.29252 -4.27513 -4.25756 -4.2195 -4.18133 -4.14317 -4.10502 -4.06629 -4.02728 -3.98806 -3.94878 -3.90916 -3.86925 -3.82912 -3.78901 -3.74853 -3.70753 -3.66653 -3.62531 -3.5841 -3.54238 -3.50032 -3.45825 -3.41597 -3.3734 -3.33054 -3.28766 -3.24456 -3.20113 -3.15725 -3.11337 -3.0695 -3.02559 -3.0192 -3.01274 -3.00629 -2.99984 -2.99344 -2.95508 -2.91672 -2.87838 -2.84004 -2.80132 -2.75575 -2.71002 -2.66429 -2.61839 -2.57207 -2.5256 -2.47912 -2.43247 -2.38527 -2.33805 -2.29069 -2.24334 -2.19557 -2.14753 -2.09946 -2.05125 -2.00279 -1.95408 -1.90537 -1.85651 -1.81021 -1.76357 -1.71694 -1.67032 -1.62609 -1.62275 -1.61941 -1.61607 -1.61273 -1.60937 -1.55918 -1.50899 -1.45881 -1.40864 -1.35803 -1.30725 -1.25639 -1.20552 -1.15437 -1.103 -1.05155 -1.00011 -0.948442 -0.896493 -0.844518 -0.792449 -0.7403 -0.687846 -0.635376 -0.582843 -0.530192 -0.477189 -0.424197 -0.371214 -0.318195 -0.31196 -0.305689 -0.299419 -0.293149 -0.286917 -0.239682 -0.192454 -0.145233 -0.0980207 -0.0504983 0.0034285 0.0573651 0.111295 0.165414 0.219702 0.27405 0.328387 0.382826 0.437398 0.492004 0.546682 0.601431 0.656332 0.711215 0.766098 0.812626 0.859306 0.905979 0.952645 0.997437 1.0063 1.01517 1.02403 1.0329 1.0418 1.09723 1.15265 1.20805 1.26346 1.3191 1.37476 1.43038 1.48594 1.54166 1.59742 1.65321 1.70898 1.76486 1.82066 1.87648 1.93234 1.98825 2.04417 2.10008 2.15599 2.16702 2.17807 2.18911 2.20015 2.21109 2.25606 2.30102 2.34598 2.39093 2.43596 2.49205 2.54802 2.60395 2.65989 2.71589 2.77188 2.82786 2.8838 2.93959 2.99542 3.05126 3.10705 3.16282 3.21858 3.2743 3.2889 3.30347 3.31805 3.33262 3.34704 3.38815 3.42926 3.47036 3.51146 3.55253 3.60814 3.6636 3.71901 3.77433 3.82967 3.88497 3.94027 3.99545 4.05038 4.10535 4.1603 4.21509 4.26984 4.32459 4.37934 4.38426 4.38916 4.39406 4.39896 4.40384 4.45346 4.50308 4.5527 4.6023 4.65177 4.70608 4.7603 4.81435 4.86818 4.92205 4.97586 5.02964 5.08318 5.13661 5.18993 5.2288 5.26748 5.30613 5.34478 5.38261 5.39717 5.41173 5.42629 5.44084 5.45533 5.50809 5.56072 5.61335 5.66586 5.71823 5.77049 5.82275 5.87472 5.92639 5.97811 6.02972 6.08111 6.13237 6.18362 6.23479 6.24566 6.25647 6.26726 6.27805 6.2888 6.32879 6.36879 6.40878 6.44874 6.48848 6.53885 6.58912 6.63922 6.68896 6.73873 6.78835 6.83791 6.88714 6.93629 6.98527 7.01408 7.04268 7.07124 7.0998 7.12816 7.14821 7.16825 7.18829 7.2083 7.22817 7.27638 7.32432 7.37226 7.41989 7.46739 7.51478 7.56217 7.60915 7.65585 7.70249 7.73751 7.77223 7.80688 7.84153 7.87613 7.88762 7.89912 7.91062 7.92209 7.93347 7.97916 8.02468 8.0702 8.11547 8.16049 8.2054 8.2503 8.29482 8.33893 8.38304 8.41964 8.4559 8.49206 8.52823 8.56472 8.57202 8.57932 8.58662 8.5939 8.60111 8.64412 8.68703 8.72993 8.77261 8.81498 8.85721 8.89943 8.94126 8.98269 9.02409 9.06098 9.09751 9.13394 9.17036 9.20762 9.21179 9.21596 9.22013 9.22429 9.22841 9.2686 9.30872 9.34885 9.38879 9.42836 9.46776 9.50716 9.54616 9.58476 9.62333 9.66172 9.6997 9.73757 9.77544 9.81325 9.81395 9.81464 9.81533 9.81602 9.81671 9.85324 9.88976 9.92628 9.96271 9.99871 10.0352 10.0716 10.1077 10.1434 10.179 10.2144 10.2496 10.2845 10.3194 10.3541 10.3638 10.3733 10.3829 10.3924 10.4021 10.4267 10.4512 10.4758 10.5003 10.5245 10.5579 10.5912 10.6244 10.6571 10.6898 10.7222 10.7545 10.7864 10.8182 10.8498 10.8752 10.9003 10.9254 10.9505 10.9773 10.9828 10.9883 10.9938 10.9993 11.0047 11.0349 11.0651 11.0952 11.1252 11.1549 11.1842 11.2136 11.2425 11.2713 11.3 11.3284 11.3566 11.3843 11.4117 11.4386 11.4633 11.489 11.5147 11.5404 11.5705 11.5715 11.5726 11.5736 11.5746 11.5757 11.5993 11.6225 11.6457 11.6689 11.6867 11.7032 11.7253 11.7496 11.7814 11.8174 11.8528 11.8881 11.9087 11.9146 11.9205 11.925 11.9335 11.9433 11.9531 11.9642 11.9651 11.966 11.9669 11.9678 11.9693 11.9825 11.9956 12.0086 12.0212 12.0333 12.0445 12.0556 12.065 12.0727 12.0803 12.0869 12.0926 12.0976 12.1026 12.107 12.1077 12.1079 12.1082 12.1084 12.1086 12.1101 12.1116 12.1131 12.1144 12.1146 12.1133 12.1111 12.1083 12.1039 12.099 12.0925 12.0858 12.0772 12.0667 12.056 12.0434 12.0285 12.0131 11.9977 11.9816 11.9774 11.9726 11.9677 11.9629 11.9578 11.9413 11.9248 11.9081 11.8915 11.8729 11.8461 11.8171 11.7877 11.7565 11.7239 11.6881 11.6523 11.6132 11.5709 11.5286 11.4828 11.4358 11.3857 11.3344 11.281 11.2236 11.1617 11.0998 11.0378 10.9745 10.9509 10.926 10.9012 10.8763 10.8489 10.8002 10.7514 10.7026 10.6537 10.6025 10.517 10.4286 10.3402 10.251 10.157 10.0573 9.95476 9.8492 9.73836 9.62564 9.50675 9.38779 9.26309 9.133 9.00278 8.86588 8.72891 8.58112 8.42245 8.26361 8.09712 7.92969 7.76099 7.5916 7.42086 7.24216 7.03541 6.82592 6.61648 6.38767 6.15328 5.93715 5.72097 5.50473 5.29384 5.18394 5.05059 4.91734 4.78417 4.62803 4.45264 4.27709 4.10139 3.92553 3.72232 3.41138 3.15005 2.88801 2.6253 2.49435 2.3631 1.92796 1.49786 0.941047 0