/*--------------------------------*- C++ -*----------------------------------*\
| =========                 |                                                 |
| \\      /  F ield         | OpenFOAM: The Open Source CFD Toolbox           |
|  \\    /   O peration     | Version:  5.x                                   |
|   \\  /    A nd           | Web:      www.OpenFOAM.org                      |
|    \\/     M anipulation  |                                                 |
\*---------------------------------------------------------------------------*/
/*   Windows 32 and 64 bit porting by blueCAPE: http://www.bluecape.com.pt   *\
|  Based on Windows porting (2.0.x v4) by Symscape: http://www.symscape.com   |
\*---------------------------------------------------------------------------*/
FoamFile
{
    version     2.0;
    format      ascii;
    class       volScalarField;
    location    "0.13";
    object      p;
}
// * * * * * * * * * * * * * * * * * * * * * * * * * * * * * * * * * * * * * //

dimensions      [0 2 -2 0 0 0 0];

internalField   nonuniform List<scalar> 
750
(
0.380437
0.38060948
0.38033309
0.38016059
0.37986844
0.37955899
0.37921238
0.37884534
0.37846181
0.37806913
0.37766496
0.37725433
0.3768383
0.37640544
0.37596052
0.3754946
0.37497269
0.37440868
0.37371776
0.37278045
0.37181765
0.36921839
0.36805116
0.35908888
0.35498793
0.38044318
0.38061109
0.38033978
0.38016275
0.3798717
0.3795606
0.37921374
0.37884623
0.3784625
0.37806958
0.37766534
0.37725483
0.37683872
0.37640634
0.37596188
0.3754961
0.37497649
0.37441358
0.37372489
0.37280253
0.37181767
0.36931029
0.36802022
0.35931201
0.35514978
0.38045222
0.38061998
0.38034891
0.38016875
0.37987711
0.37956424
0.37921648
0.37884816
0.37846392
0.37807064
0.37766628
0.37725593
0.37684002
0.37640836
0.375965
0.37550077
0.37498467
0.37442619
0.37374554
0.37283978
0.371867
0.36943084
0.36812719
0.35955431
0.35574641
0.38046543
0.38063434
0.38036188
0.3801781
0.37988488
0.37956983
0.37922059
0.37885107
0.37846605
0.37807224
0.37766776
0.37725752
0.37684203
0.37641138
0.37596962
0.3755082
0.37499657
0.37444545
0.37377837
0.37289254
0.37195516
0.36957837
0.36834336
0.35985341
0.35654786
0.38048326
0.38065345
0.38037926
0.38019052
0.37989525
0.37957724
0.37922603
0.37885493
0.37846885
0.37807437
0.3776697
0.37725955
0.37684468
0.37641532
0.37597554
0.37551799
0.37501195
0.37447061
0.37382203
0.37295996
0.37207459
0.36976673
0.36865132
0.36027496
0.3575617
0.38050578
0.3806774
0.38040111
0.38020599
0.37990821
0.37958643
0.37923276
0.3788597
0.37847231
0.37807699
0.37767204
0.37726198
0.37684796
0.37642016
0.37598265
0.37552978
0.37503063
0.37450101
0.37387388
0.37304433
0.37222049
0.36999799
0.36906503
0.36076595
0.35916266
0.38053294
0.38070654
0.38042738
0.38022455
0.37992363
0.37959738
0.37924073
0.37886534
0.37847639
0.37808003
0.37767477
0.37726486
0.37685182
0.37642578
0.37599096
0.37554344
0.37505238
0.3745365
0.3739332
0.37314485
0.3724005
0.37026837
0.36964901
0.36136729
0.3616238
0.38056455
0.38074127
0.38045801
0.38024618
0.37994148
0.37961004
0.37924991
0.37887183
0.37848105
0.37808351
0.37767794
0.37726817
0.37685613
0.37643217
0.37600056
0.37555902
0.37507702
0.37457619
0.37400004
0.37325761
0.37261977
0.37059032
0.37041413
0.36233293
0.36547378
0.38060108
0.38078056
0.38049357
0.38027078
0.37996178
0.37962436
0.37926028
0.37887912
0.37848627
0.37808741
0.3776814
0.37727186
0.37686088
0.37643929
0.37601137
0.37557624
0.3751043
0.37461994
0.37407469
0.37337848
0.37286451
0.37099795
0.3712958
0.36365054
0.37028918
0.38064612
0.38081954
0.38053692
0.3802982
0.37998435
0.37964021
0.37927165
0.3788871
0.37849193
0.37809149
0.377685
0.37727583
0.37686584
0.37644672
0.37602268
0.37559405
0.3751338
0.37466645
0.37415351
0.37350898
0.37307406
0.37152263
0.37207493
0.36545899
0.37520597
0.33318452
0.32263205
0.307279
0.29437227
0.28036632
0.26676061
0.25299094
0.23931929
0.22563167
0.21195952
0.19828424
0.18460968
0.17093481
0.15726003
0.14358524
0.12991045
0.11623567
0.10256088
0.0888861
0.075211315
0.06153653
0.047861749
0.034186972
0.020512181
0.0068374055
0.33301834
0.32254908
0.30718473
0.29435563
0.28034269
0.26672343
0.25298719
0.2393163
0.22563257
0.21195894
0.19828429
0.18460967
0.17093481
0.15726002
0.14358524
0.12991045
0.11623567
0.10256088
0.0888861
0.075211315
0.061536531
0.047861749
0.03418697
0.020512181
0.006837402
0.3325325
0.32263799
0.30685217
0.29421739
0.28032225
0.26669868
0.25298186
0.23931388
0.22563336
0.21195897
0.19828432
0.18460966
0.1709348
0.15726002
0.14358524
0.12991045
0.11623567
0.10256088
0.088886099
0.075211315
0.061536532
0.047861749
0.034186968
0.020512183
0.0068373994
0.33192259
0.32266206
0.30661355
0.29404365
0.28027532
0.26668215
0.25297665
0.23931178
0.2256338
0.21195947
0.19828441
0.18460967
0.17093479
0.15726002
0.14358524
0.12991045
0.11623567
0.10256088
0.088886099
0.075211314
0.061536532
0.047861749
0.034186967
0.020512186
0.0068373969
0.33142046
0.32250644
0.30655552
0.29389658
0.28020575
0.26666562
0.25297174
0.23931016
0.22563408
0.21195993
0.1982845
0.18460967
0.17093479
0.15726002
0.14358524
0.12991045
0.11623567
0.10256088
0.088886099
0.075211315
0.061536532
0.047861748
0.034186966
0.020512188
0.0068373952
0.3307271
0.32250028
0.30638513
0.29377368
0.28014277
0.26665
0.25296734
0.23930954
0.22563441
0.21196025
0.19828457
0.18460967
0.17093479
0.15726002
0.14358524
0.12991045
0.11623567
0.10256088
0.088886099
0.075211315
0.061536532
0.047861748
0.034186965
0.020512189
0.0068373956
0.32964403
0.32258819
0.30611789
0.29368824
0.28009436
0.26663823
0.2529641
0.23931032
0.22563487
0.21196042
0.1982846
0.18460967
0.17093479
0.15726002
0.14358524
0.12991045
0.11623567
0.10256088
0.088886099
0.075211315
0.061536532
0.047861749
0.034186964
0.02051219
0.0068373979
0.32870584
0.32245107
0.30584358
0.29364771
0.2800611
0.26663257
0.25296295
0.23931225
0.22563546
0.21196051
0.19828458
0.18460966
0.17093479
0.15726002
0.14358524
0.12991045
0.11623567
0.10256088
0.088886099
0.075211315
0.061536532
0.047861749
0.034186965
0.02051219
0.0068374012
0.32734644
0.32226118
0.30569921
0.29363379
0.28004112
0.26663265
0.25296457
0.23931444
0.22563606
0.21196064
0.19828453
0.18460965
0.17093478
0.15726002
0.14358524
0.12991045
0.11623567
0.10256088
0.088886099
0.075211315
0.061536532
0.04786175
0.034186966
0.020512192
0.0068374044
0.32289101
0.32274176
0.30565658
0.29369962
0.28000825
0.26663381
0.25296211
0.23931571
0.22563611
0.21196079
0.19828449
0.18460965
0.17093478
0.15726003
0.14358524
0.12991045
0.11623567
0.10256088
0.088886099
0.075211315
0.061536532
0.04786175
0.034186967
0.020512193
0.0068374057
0.38075734
0.38089601
0.38064032
0.38035961
0.38003307
0.37967456
0.37929581
0.37890407
0.37850378
0.37809957
0.3776923
0.37728376
0.37687552
0.37646156
0.37604491
0.37562924
0.37519601
0.37476027
0.37431123
0.37379525
0.37339995
0.3726604
0.37328891
0.37046771
0.38796072
0.38094886
0.38110076
0.38081443
0.38048425
0.38012482
0.37973943
0.37934065
0.37893529
0.37852531
0.37811523
0.37770649
0.37729741
0.37689179
0.37648784
0.37608302
0.37568863
0.37529522
0.37490516
0.37454253
0.37415824
0.3738768
0.37351927
0.37367692
0.37194801
0.37771194
0.38119627
0.38138224
0.38102527
0.38063454
0.38023129
0.37981229
0.37938956
0.37896791
0.37854759
0.37813152
0.37772002
0.37731035
0.37690621
0.37651189
0.37612114
0.37574332
0.37538448
0.37503898
0.37474451
0.37447179
0.37432374
0.37423334
0.37446398
0.37425355
0.37685414
0.38152591
0.38174063
0.38127484
0.38080417
0.38034579
0.37988761
0.37943847
0.37899889
0.37856834
0.37814544
0.37772983
0.37732082
0.37691914
0.37652921
0.37615193
0.37578811
0.37545442
0.3751477
0.37490312
0.37471102
0.37463454
0.37467217
0.37494914
0.37538477
0.37625029
0.38199328
0.38216517
0.38155685
0.38098304
0.38045816
0.37995864
0.37948278
0.37902474
0.37858417
0.37815486
0.37773604
0.37732643
0.376927
0.37653938
0.37616992
0.37581883
0.37550058
0.37522128
0.37500886
0.37487118
0.37483684
0.37493659
0.37526337
0.37591325
0.37613005
0.38270312
0.38261965
0.38185583
0.38115733
0.38055641
0.38001675
0.37951702
0.37904272
0.3785928
0.37815847
0.37773646
0.37732536
0.37692615
0.37654089
0.37617324
0.37582886
0.37551809
0.37525193
0.3750514
0.37493575
0.37492117
0.37504581
0.37535228
0.37604379
0.37601735
0.38381556
0.38307176
0.382136
0.38130508
0.38063214
0.38005384
0.37953406
0.37904998
0.37859288
0.37815441
0.37772902
0.37731631
0.37691511
0.37652803
0.37615814
0.37581188
0.37549876
0.37523041
0.3750254
0.37490322
0.37488054
0.37499264
0.3752547
0.37591761
0.37583264
0.38573115
0.38336894
0.38232629
0.38137713
0.38066113
0.38006136
0.37952979
0.37904275
0.37858263
0.37814161
0.37771392
0.37729794
0.37689265
0.37649943
0.37612197
0.37576565
0.37543913
0.37515365
0.37492614
0.37477387
0.37471964
0.37479551
0.37501415
0.37561908
0.37556635
0.38943371
0.38319606
0.38243994
0.38135211
0.38062302
0.38002721
0.37949914
0.37901513
0.37855705
0.37811604
0.37768644
0.37726574
0.37685299
0.37644863
0.37605559
0.37567841
0.3753244
0.37500405
0.37473194
0.37452821
0.37441622
0.37443963
0.37462629
0.37518162
0.37520399
0.39097808
0.38213129
0.38286923
0.38142061
0.38068391
0.38005405
0.37951375
0.3790224
0.37856047
0.37811706
0.3776859
0.37726398
0.37685019
0.37644453
0.37604981
0.37567014
0.37531234
0.37498596
0.37470531
0.37449088
0.37436263
0.37436885
0.37450323
0.37501064
0.37506207
)
;

boundaryField
{
    inlet
    {
        type            zeroGradient;
    }
    walls
    {
        type            zeroGradient;
    }
    outlet
    {
        type            fixedValue;
        value           uniform 0;
    }
    centreline
    {
        type            symmetryPlane;
    }
    frontAndBack
    {
        type            empty;
    }
}


// ************************************************************************* //
