/*--------------------------------*- C++ -*----------------------------------*\
| =========                 |                                                 |
| \\      /  F ield         | OpenFOAM: The Open Source CFD Toolbox           |
|  \\    /   O peration     | Version:  5.x                                   |
|   \\  /    A nd           | Web:      www.OpenFOAM.org                      |
|    \\/     M anipulation  |                                                 |
\*---------------------------------------------------------------------------*/
/*   Windows 32 and 64 bit porting by blueCAPE: http://www.bluecape.com.pt   *\
|  Based on Windows porting (2.0.x v4) by Symscape: http://www.symscape.com   |
\*---------------------------------------------------------------------------*/
FoamFile
{
    version     2.0;
    format      ascii;
    class       surfaceScalarField;
    location    "0.13";
    object      phi;
}
// * * * * * * * * * * * * * * * * * * * * * * * * * * * * * * * * * * * * * //

dimensions      [0 3 -1 0 0 0 0];

internalField   nonuniform List<scalar> 
1430
(
5.1123009e-006
-1.1102062e-007
5.25061e-006
-1.3830904e-007
5.3839187e-006
-1.3330876e-007
5.4956801e-006
-1.1176132e-007
5.5882236e-006
-9.254356e-008
5.662745e-006
-7.4521415e-008
5.7236236e-006
-6.087858e-008
5.7747407e-006
-5.1117088e-008
5.8202204e-006
-4.5479733e-008
5.8642735e-006
-4.4053091e-008
5.9114874e-006
-4.7213931e-008
5.9676891e-006
-5.6201702e-008
6.0397611e-006
-7.2072015e-008
6.1371433e-006
-9.7382154e-008
6.2735013e-006
-1.3635801e-007
6.4680767e-006
-1.945754e-007
6.7507156e-006
-2.8263893e-007
7.1677251e-006
-4.1700954e-007
7.7966809e-006
-6.2895576e-007
8.7878015e-006
-9.9112059e-007
1.0345213e-005
-1.5574116e-006
1.2821959e-005
-2.4767461e-006
1.6380638e-005
-3.5586789e-006
2.0967962e-005
-4.5873241e-006
-5.0572044e-006
2.6025166e-005
5.1115594e-006
-2.2129974e-007
5.2523612e-006
-2.7911079e-007
5.384532e-006
-2.6547962e-007
5.4969137e-006
-2.2414296e-007
5.5891917e-006
-1.8482162e-007
5.6635971e-006
-1.4892684e-007
5.7242226e-006
-1.2150405e-007
5.7750953e-006
-1.0198984e-007
5.8202868e-006
-9.0671178e-008
5.8640488e-006
-8.7815127e-008
5.9108909e-006
-9.4056032e-008
5.9666102e-006
-1.1192106e-007
6.0380847e-006
-1.4354649e-007
6.1345661e-006
-1.9386362e-007
6.2695649e-006
-2.7135677e-007
6.4622008e-006
-3.8721133e-007
6.7415397e-006
-5.619778e-007
7.1534593e-006
-8.2892917e-007
7.7747489e-006
-1.2502454e-006
8.7493629e-006
-1.9657346e-006
1.0289619e-005
-3.0976679e-006
1.2699333e-005
-4.8864601e-006
1.62091e-005
-7.0684458e-006
2.0653026e-005
-9.0312504e-006
-1.0122776e-005
2.5718598e-005
5.1123789e-006
-3.3239833e-007
5.2538207e-006
-4.2055259e-007
5.3865867e-006
-3.9824565e-007
5.4990621e-006
-3.3661838e-007
5.5911999e-006
-2.7695946e-007
5.6652637e-006
-2.2299062e-007
5.7254375e-006
-1.8167784e-007
5.7758113e-006
-1.5236365e-007
5.8204632e-006
-1.3532318e-007
5.8636175e-006
-1.3096941e-007
5.9097346e-006
-1.4017311e-007
5.9645404e-006
-1.6672691e-007
6.0347682e-006
-2.1377427e-007
6.1294855e-006
-2.8858091e-007
6.2618709e-006
-4.0374218e-007
6.4504663e-006
-5.7580674e-007
6.7235371e-006
-8.3504862e-007
7.125398e-006
-1.2307901e-006
7.7303543e-006
-1.8552017e-006
8.6773872e-006
-2.9127676e-006
1.0165644e-005
-4.5859248e-006
1.2486142e-005
-7.2069584e-006
1.5838595e-005
-1.0420899e-005
2.0111073e-005
-1.3303728e-005
-1.5015355e-005
2.5003651e-005
5.113574e-006
-4.4469207e-007
5.2560706e-006
-5.6304911e-007
5.3896776e-006
-5.3185276e-007
5.5023246e-006
-4.4926536e-007
5.5942103e-006
-3.6884514e-007
5.667763e-006
-2.965434e-007
5.7272619e-006
-2.4117676e-007
5.7768864e-006
-2.0198815e-007
5.8207286e-006
-1.7916538e-007
5.8629751e-006
-1.7321589e-007
5.9080178e-006
-1.8521582e-007
5.9614614e-006
-2.2017056e-007
6.0298434e-006
-2.821563e-007
6.1219284e-006
-3.8066589e-007
6.250435e-006
-5.3224876e-007
6.4330831e-006
-7.5845491e-007
6.6968511e-006
-1.0988166e-006
7.0838988e-006
-1.6178377e-006
7.6643175e-006
-2.4356205e-006
8.5686421e-006
-3.8170921e-006
9.9814034e-006
-5.9986861e-006
1.2171988e-005
-9.3975434e-006
1.5301945e-005
-1.3550855e-005
1.9312271e-005
-1.7314054e-005
-1.9617002e-005
2.3913918e-005
5.1151938e-006
-5.5860556e-007
5.259099e-006
-7.0695429e-007
5.3938316e-006
-6.6658541e-007
5.5066859e-006
-5.6211969e-007
5.5982113e-006
-4.6037051e-007
5.6710637e-006
-3.6939588e-007
5.7296563e-006
-2.9976934e-007
5.7782786e-006
-2.5061049e-007
5.8210426e-006
-2.2192931e-007
5.8620871e-006
-2.1426043e-007
5.9057142e-006
-2.2884296e-007
5.9573643e-006
-2.7182065e-007
6.0233267e-006
-3.4811874e-007
6.1119548e-006
-4.6929399e-007
6.2353811e-006
-6.556751e-007
6.4102829e-006
-9.3335668e-007
6.6618955e-006
-1.3504292e-006
7.0295971e-006
-1.9855393e-006
7.5775062e-006
-2.9835296e-006
8.4267051e-006
-4.666291e-006
9.7392891e-006
-7.3112701e-006
1.1759545e-005
-1.1417799e-005
1.4603097e-005
-1.6394408e-005
1.8266969e-005
-2.0977926e-005
-2.3820258e-005
2.2470225e-005
5.1172784e-006
-6.7460367e-007
5.2629166e-006
-8.5259252e-007
5.399066e-006
-8.027348e-007
5.5121509e-006
-6.7520462e-007
5.6031924e-006
-5.5141195e-007
5.6751417e-006
-4.4134521e-007
5.7325884e-006
-3.572161e-007
5.7799556e-006
-2.9797771e-007
5.8213705e-006
-2.6334418e-007
5.8609313e-006
-2.5382121e-007
5.9028187e-006
-2.7073041e-007
5.9522521e-006
-3.21254e-007
6.0152403e-006
-4.11107e-007
6.0996223e-006
-5.5367602e-007
6.2168269e-006
-7.7287966e-007
6.3822999e-006
-1.0988297e-006
6.619125e-006
-1.5872543e-006
6.9633691e-006
-2.3297834e-006
7.4718141e-006
-3.4919746e-006
8.2534156e-006
-5.4478925e-006
9.4424735e-006
-8.500328e-006
1.1254633e-005
-1.3229959e-005
1.3749156e-005
-1.888893e-005
1.6990493e-005
-2.4219263e-005
-2.7549403e-005
2.0719638e-005
5.1198505e-006
-7.931739e-007
5.2675228e-006
-1.0002648e-006
5.4054016e-006
-9.4061361e-007
5.5187471e-006
-7.885501e-007
5.6091515e-006
-6.4181641e-007
5.6799782e-006
-5.1217191e-007
5.7360309e-006
-4.1326877e-007
5.7818907e-006
-3.4383752e-007
5.8216876e-006
-3.0314114e-007
5.8594883e-006
-2.9162193e-007
5.8993319e-006
-3.1057397e-007
5.9461398e-006
-3.6806192e-007
6.005617e-006
-4.7058419e-007
6.0850202e-006
-6.3307928e-007
6.1949482e-006
-8.8280769e-007
6.3494532e-006
-1.2533347e-006
6.5691808e-006
-1.806982e-006
6.8861552e-006
-2.6467579e-006
7.3488757e-006
-3.9546951e-006
8.0512218e-006
-6.1502386e-006
9.0966184e-006
-9.5457246e-006
1.0665698e-005
-1.4799038e-005
1.2743551e-005
-2.0966783e-005
1.5521315e-005
-2.6997027e-005
-3.0630059e-005
1.8601971e-005
5.1229733e-006
-9.1486687e-007
5.2729383e-006
-1.1502298e-006
5.4128985e-006
-1.0805739e-006
5.5265378e-006
-9.0218941e-007
5.6161202e-006
-7.3139879e-007
5.6855847e-006
-5.8163642e-007
5.7399826e-006
-4.6766675e-007
5.7840775e-006
-3.8793245e-007
5.8220091e-006
-3.4107268e-007
5.8577679e-006
-3.2738074e-007
5.8952612e-006
-3.4806732e-007
5.9390809e-006
-4.1188159e-007
5.9945506e-006
-5.2605398e-007
6.0683156e-006
-7.0684423e-007
6.1699746e-006
-9.8446674e-007
6.3121571e-006
-1.3955172e-006
6.5128795e-006
-2.0077044e-006
6.7992846e-006
-2.933163e-006
7.2114323e-006
-4.3668428e-006
7.8245675e-006
-6.7633738e-006
8.7076475e-006
-1.0428805e-005
1.000128e-005
-1.6092671e-005
1.1621439e-005
-2.2586941e-005
1.3906586e-005
-2.9282175e-005
-3.2725923e-005
1.600245e-005
5.1268015e-006
-1.0403881e-006
5.2792473e-006
-1.3026757e-006
5.4216898e-006
-1.2230163e-006
5.5356359e-006
-1.0161355e-006
5.6241847e-006
-8.1994759e-007
5.6920209e-006
-6.4947265e-007
5.7444899e-006
-5.2013573e-007
5.7865606e-006
-4.3000322e-007
5.8223783e-006
-3.7689034e-007
5.8558298e-006
-3.608323e-007
5.8906929e-006
-3.8293041e-007
5.931202e-006
-4.5239072e-007
5.9821998e-006
-5.7705172e-007
6.0497383e-006
-7.7438281e-007
6.1422866e-006
-1.077015e-006
6.2709789e-006
-1.5242095e-006
6.4510158e-006
-2.1877412e-006
6.7042718e-006
-3.186419e-006
7.0616481e-006
-4.7242191e-006
7.578561e-006
-7.2802868e-006
8.2850927e-006
-1.1135336e-005
9.2788979e-006
-1.7086477e-005
1.0404051e-005
-2.3712094e-005
1.2151303e-005
-3.1029427e-005
-3.3457912e-005
1.2883293e-005
5.1307919e-006
-1.1698997e-006
5.2873049e-006
-1.4591887e-006
5.4318959e-006
-1.3676072e-006
5.5463105e-006
-1.1305501e-006
5.6335252e-006
-9.0716232e-007
5.699433e-006
-7.1538048e-007
5.749681e-006
-5.7038372e-007
5.7894698e-006
-4.6979197e-007
5.8229217e-006
-4.1034227e-007
5.8538422e-006
-3.9175285e-007
5.8858126e-006
-4.1490081e-007
5.9226818e-006
-4.8925993e-007
5.9688111e-006
-6.2318094e-007
6.0296098e-006
-8.3518155e-007
6.1123715e-006
-1.1597768e-006
6.2264918e-006
-1.6383298e-006
6.3842422e-006
-2.3454917e-006
6.6028709e-006
-3.4050477e-006
6.9024997e-006
-5.0238479e-006
7.3177994e-006
-7.6955864e-006
7.8482979e-006
-1.1665835e-005
8.5096434e-006
-1.7747822e-005
9.0928477e-006
-2.4295298e-005
9.9640753e-006
-3.1900655e-005
8.7122984e-006
-3.2206135e-005
2.8644732e-005
-2.6195658e-006
2.936151e-005
-7.1677728e-007
2.929804e-005
6.3469712e-008
2.9162617e-005
1.3542266e-007
2.9116714e-005
4.5903146e-008
2.9118309e-005
-1.595325e-009
2.9129755e-005
-1.1445507e-008
2.9132714e-005
-2.9593818e-009
2.913132e-005
1.393795e-009
2.9129831e-005
1.4888723e-009
2.9129473e-005
3.5879921e-010
2.9129573e-005
-1.0082808e-010
2.9129668e-005
-9.4221073e-011
2.9129687e-005
-1.9342776e-011
2.9129683e-005
4.3603537e-012
2.912968e-005
2.5792714e-012
2.912968e-005
-1.202079e-013
2.9129681e-005
-5.3743995e-013
2.9129681e-005
-2.4469412e-013
2.9129681e-005
1.0730367e-013
2.9129681e-005
1.6330631e-013
2.912968e-005
6.8231599e-013
2.912968e-005
1.4400013e-013
2.912969e-005
-1.0157146e-011
-1.0453212e-011
2.8130995e-005
-5.031963e-006
2.8877308e-005
-1.4630901e-006
2.8856073e-005
8.4704946e-008
2.8755454e-005
2.3604182e-007
2.8708471e-005
9.288549e-008
2.8710458e-005
-3.5818946e-009
2.8718386e-005
-1.9373747e-008
2.8720031e-005
-4.6040195e-009
2.8718493e-005
2.9311832e-009
2.8717332e-005
2.65032e-009
2.8717104e-005
5.8663841e-010
2.8717217e-005
-2.1353032e-010
2.8717293e-005
-1.7050344e-010
2.8717306e-005
-3.2095698e-011
2.8717302e-005
8.5093441e-012
2.87173e-005
4.4268255e-012
2.87173e-005
-4.8363884e-013
2.87173e-005
-9.5108652e-013
2.87173e-005
-2.9959546e-013
2.87173e-005
2.1976428e-013
2.87173e-005
3.072434e-013
2.87173e-005
1.0028336e-012
2.87173e-005
2.0448932e-013
2.8717306e-005
-1.6471957e-011
-1.7404214e-011
2.7155919e-005
-7.1842308e-006
2.7865356e-005
-2.1725272e-006
2.7912455e-005
3.7606492e-008
2.7848579e-005
2.999172e-007
2.7817986e-005
1.2347906e-007
2.782041e-005
-6.0061707e-009
2.7822734e-005
-2.1697415e-008
2.7821876e-005
-3.7463705e-009
2.7820374e-005
4.4336032e-009
2.7819754e-005
3.270269e-009
2.781975e-005
5.9050882e-010
2.7819861e-005
-3.2447535e-010
2.7819905e-005
-2.1430574e-010
2.7819907e-005
-3.4467757e-011
2.7819903e-005
1.200265e-011
2.7819903e-005
5.102404e-012
2.7819903e-005
-1.0746956e-012
2.7819904e-005
-1.183343e-012
2.7819903e-005
-1.6356106e-013
2.7819904e-005
1.5949306e-013
2.7819904e-005
2.8853244e-013
2.7819903e-005
1.1738822e-012
2.7819903e-005
5.3486253e-013
2.7819903e-005
-1.6764634e-011
-1.8281864e-011
2.5704184e-005
-8.9744963e-006
2.6287738e-005
-2.7560817e-006
2.6343526e-005
-1.818115e-008
2.633599e-005
3.0745319e-007
2.6334818e-005
1.2465113e-007
2.6335337e-005
-6.52503e-009
2.6331441e-005
-1.7801985e-008
2.6328601e-005
-9.0660668e-010
2.6327486e-005
5.548932e-009
2.6327495e-005
3.2609762e-009
2.6327685e-005
4.0100319e-010
2.6327764e-005
-4.0374956e-010
2.6327768e-005
-2.1840877e-010
2.6327761e-005
-2.7575725e-011
2.6327759e-005
1.400194e-011
2.632776e-005
4.5799978e-012
2.632776e-005
-1.6230982e-012
2.632776e-005
-1.1991256e-012
2.632776e-005
4.7311224e-015
2.632776e-005
-3.5129914e-014
2.6327761e-005
4.6095613e-014
2.6327761e-005
1.2040184e-012
2.632776e-005
1.4931224e-012
2.6327754e-005
-1.1247893e-011
-1.3578556e-011
2.3740497e-005
-1.0244768e-005
2.4043604e-005
-3.059189e-006
2.4079357e-005
-5.3933961e-008
2.4136176e-005
2.5063423e-007
2.4157842e-005
1.0298464e-007
2.4155099e-005
-3.7812974e-009
2.414741e-005
-1.0112839e-008
2.4144163e-005
2.3401508e-009
2.4143857e-005
5.8542888e-009
2.4144408e-005
2.7106966e-009
2.4144683e-005
1.252407e-010
2.4144703e-005
-4.228886e-010
2.4144672e-005
-1.8738024e-010
2.414466e-005
-1.5956022e-011
2.414466e-005
1.3849213e-011
2.4144661e-005
3.2899728e-012
2.4144662e-005
-1.9455191e-012
2.4144662e-005
-1.0440096e-012
2.4144661e-005
8.1103024e-014
2.4144662e-005
-1.8085356e-013
2.4144662e-005
-1.8256247e-013
2.4144662e-005
9.3861669e-013
2.4144661e-005
2.7881431e-012
2.4144652e-005
-2.76695e-012
-6.0857633e-012
2.1201003e-005
-1.0726132e-005
2.1090828e-005
-2.9490144e-006
2.1122078e-005
-8.5183344e-008
2.1213328e-005
1.5938437e-007
2.124129e-005
7.5022625e-008
2.1236833e-005
6.7577375e-010
2.122918e-005
-2.4604631e-009
2.1227152e-005
4.3687443e-009
2.1227852e-005
5.1542906e-009
2.1228714e-005
1.8482993e-009
2.1228948e-005
-1.0841993e-010
2.1228897e-005
-3.7193042e-010
2.1228845e-005
-1.3512227e-010
2.1228834e-005
-4.9930834e-012
2.1228836e-005
1.1541458e-011
2.1228837e-005
1.8214612e-012
2.1228837e-005
-1.8443493e-012
2.1228837e-005
-7.8435376e-013
2.1228837e-005
5.8513402e-014
2.1228837e-005
-2.6615268e-013
2.1228837e-005
-2.7501416e-013
2.1228838e-005
6.8443076e-013
2.1228837e-005
3.7154893e-012
2.1228829e-005
4.7511738e-012
8.9729185e-013
1.8012241e-005
-1.0136403e-005
1.749148e-005
-2.4282535e-006
1.7504002e-005
-9.7705131e-008
1.758661e-005
7.6776014e-008
1.7611339e-005
5.0293951e-008
1.7607972e-005
4.0426396e-009
1.7603298e-005
2.2137973e-009
1.7603269e-005
4.3977524e-009
1.7604792e-005
3.6315251e-009
1.7605674e-005
9.6545355e-010
1.760578e-005
-2.1359261e-010
1.7605674e-005
-2.6663843e-010
1.7605618e-005
-7.9043432e-011
1.7605612e-005
1.6115039e-012
1.7605615e-005
7.8673034e-012
1.7605616e-005
6.5594159e-013
1.7605616e-005
-1.377829e-012
1.7605616e-005
-4.6285676e-013
1.7605616e-005
3.457184e-014
1.7605616e-005
-2.9167284e-013
1.7605616e-005
-2.8722212e-013
1.7605616e-005
4.8616417e-013
1.7605616e-005
3.7793365e-012
1.7605612e-005
8.4595707e-012
4.8462992e-012
1.4105503e-005
-8.2394556e-006
1.3298706e-005
-1.621457e-006
1.3276035e-005
-7.5034015e-008
1.3325276e-005
2.7535072e-008
1.3345427e-005
3.0142572e-008
1.3345001e-005
4.4695726e-009
1.3344107e-005
3.1076745e-009
1.3345702e-005
2.8020155e-009
1.3347488e-005
1.8460261e-009
1.3348138e-005
3.1496291e-010
1.3348107e-005
-1.8267035e-010
1.3347984e-005
-1.4349624e-010
1.3347939e-005
-3.383077e-011
1.3347937e-005
3.1686489e-012
1.3347941e-005
4.0355221e-012
1.3347942e-005
3.9574796e-014
1.3347941e-005
-7.5792586e-013
1.3347941e-005
-1.9172001e-013
1.3347941e-005
3.6150014e-014
1.3347941e-005
-2.2276014e-013
1.3347941e-005
-2.4648756e-013
1.3347941e-005
2.6273604e-013
1.3347942e-005
2.8233048e-012
1.3347943e-005
7.5576982e-012
4.9629429e-012
9.4768675e-006
-4.8330304e-006
8.5378323e-006
-6.8242172e-007
8.4853503e-006
-2.2551888e-008
8.507916e-006
4.9693811e-009
8.5250916e-006
1.2966991e-008
8.527484e-006
2.0771887e-009
8.5289788e-006
1.6128726e-009
8.5309433e-006
8.375313e-010
8.532308e-006
4.8128186e-010
8.5326146e-006
8.4127014e-012
8.5325086e-006
-7.669861e-011
8.5324081e-006
-4.3001447e-011
8.5323815e-006
-7.2092935e-012
8.5323831e-006
1.5418141e-012
8.532386e-006
1.150188e-012
8.5323861e-006
-9.2123382e-014
8.5323856e-006
-2.3108343e-013
8.5323854e-006
-3.7168823e-014
8.5323854e-006
2.3075223e-014
8.5323853e-006
-9.5763165e-014
8.5323852e-006
-1.2301058e-013
8.5323854e-006
5.6747603e-014
8.5323871e-006
1.1597122e-012
8.5323913e-006
3.4484026e-012
2.3783991e-012
3.879268e-006
3.1968463e-006
3.1742945e-006
3.1792639e-006
3.1922309e-006
3.1943081e-006
3.1959209e-006
3.1967585e-006
3.1972397e-006
3.1972481e-006
3.1971715e-006
3.1971284e-006
3.1971212e-006
3.1971228e-006
3.1971239e-006
3.1971238e-006
3.1971236e-006
3.1971235e-006
3.1971236e-006
3.1971235e-006
3.1971234e-006
3.1971235e-006
3.1971246e-006
3.1971281e-006
1.5407161e-005
-1.5732198e-006
1.5931639e-005
-1.9836667e-006
1.6369759e-005
-1.8057267e-006
1.6714679e-005
-1.475471e-006
1.6966972e-005
-1.1594547e-006
1.7150735e-005
-8.9914356e-007
1.728624e-005
-7.0588876e-007
1.7390212e-005
-5.7376409e-007
1.7474858e-005
-4.9498855e-007
1.755115e-005
-4.6804429e-007
1.7628203e-005
-4.9195372e-007
1.7714996e-005
-5.7605316e-007
1.782226e-005
-7.3044504e-007
1.7961496e-005
-9.744172e-007
1.8146765e-005
-1.3450463e-006
1.839766e-005
-1.8892242e-006
1.873076e-005
-2.6785916e-006
1.9171074e-005
-3.8453618e-006
1.9727368e-005
-5.5801417e-006
2.0360496e-005
-8.3287152e-006
2.1009692e-005
-1.231503e-005
2.1026778e-005
-1.7764909e-005
1.9618172e-005
-2.2886692e-005
1.4541838e-005
-2.6824321e-005
-1.7664297e-005
1.5485488e-005
-2.0548668e-006
1.6083267e-005
-2.5814461e-006
1.6556916e-005
-2.2793752e-006
1.6896202e-005
-1.8147578e-006
1.7124538e-005
-1.3877898e-006
1.7277106e-005
-1.0517122e-006
1.738073e-005
-8.0951214e-007
1.7454219e-005
-6.472536e-007
1.7509315e-005
-5.5008487e-007
1.7555096e-005
-5.1382531e-007
1.759828e-005
-5.3513721e-007
1.7643807e-005
-6.2158031e-007
1.7696967e-005
-7.8360494e-007
1.7762766e-005
-1.0402161e-006
1.7844563e-005
-1.4268432e-006
1.7946371e-005
-1.9910331e-006
1.8063544e-005
-2.7957639e-006
1.8182466e-005
-3.9642836e-006
1.8257492e-005
-5.6551686e-006
1.8153328e-005
-8.2245512e-006
1.765152e-005
-1.1813222e-005
1.6146773e-005
-1.6260161e-005
1.3037659e-005
-1.9777579e-005
6.8338332e-006
-2.0620495e-005
-1.0830464e-005
1.563446e-005
-2.6854859e-006
1.6347027e-005
-3.2940129e-006
1.6858166e-005
-2.7905138e-006
1.7179616e-005
-2.1362083e-006
1.7366474e-005
-1.574648e-006
1.7473156e-005
-1.1583945e-006
1.7534264e-005
-8.7061985e-007
1.756972e-005
-6.8270943e-007
1.7589992e-005
-5.7035658e-007
1.7601009e-005
-5.248423e-007
1.760651e-005
-5.4063913e-007
1.7607489e-005
-6.2255935e-007
1.7603814e-005
-7.7992949e-007
1.7593466e-005
-1.0298681e-006
1.7570107e-005
-1.4034841e-006
1.7524626e-005
-1.9455526e-006
1.7437068e-005
-2.7082059e-006
1.7265646e-005
-3.7928613e-006
1.6934835e-005
-5.3243577e-006
1.6256151e-005
-7.5458671e-006
1.4968215e-005
-1.0525287e-005
1.2598775e-005
-1.3890721e-005
8.8956122e-006
-1.6074416e-005
3.5381808e-006
-1.5263063e-005
-7.2922834e-006
1.5896589e-005
-3.578234e-006
1.6746506e-005
-4.1439299e-006
1.7270742e-005
-3.3147499e-006
1.754253e-005
-2.407996e-006
1.766145e-005
-1.6935686e-006
1.7703771e-005
-1.2007152e-006
1.7710807e-005
-8.776562e-007
1.7701149e-005
-6.7305079e-007
1.7682382e-005
-5.5159003e-007
1.765659e-005
-4.9904993e-007
1.7623711e-005
-5.0776089e-007
1.7579766e-005
-5.7861412e-007
1.7519855e-005
-7.2001799e-007
1.7435793e-005
-9.4580607e-007
1.7313704e-005
-1.281396e-006
1.7132158e-005
-1.7640059e-006
1.6861105e-005
-2.4371535e-006
1.6442179e-005
-3.3739352e-006
1.5787078e-005
-4.6692563e-006
1.4713892e-005
-6.4726807e-006
1.2980386e-005
-8.7917811e-006
1.0283558e-005
-1.1193893e-005
6.6242388e-006
-1.2415097e-005
2.2928358e-006
-1.093166e-005
-4.9994475e-006
1.6260106e-005
-4.8344994e-006
1.7177363e-005
-5.0611865e-006
1.762747e-005
-3.7648567e-006
1.7787673e-005
-2.5681993e-006
1.7802839e-005
-1.7087344e-006
1.776121e-005
-1.1590861e-006
1.7704149e-005
-8.2059613e-007
1.764492e-005
-6.1382145e-007
1.7585984e-005
-4.9265432e-007
1.7524293e-005
-4.3735866e-007
1.7454824e-005
-4.3829169e-007
1.7369644e-005
-4.934341e-007
1.7259465e-005
-6.0983926e-007
1.7110226e-005
-7.9656697e-007
1.6902766e-005
-1.0739363e-006
1.6607891e-005
-1.4691309e-006
1.6187067e-005
-2.0163287e-006
1.5577119e-005
-2.7639874e-006
1.4686918e-005
-3.7790554e-006
1.3358525e-005
-5.1442876e-006
1.1396093e-005
-6.8293489e-006
8.6342567e-006
-8.4320566e-006
5.2060191e-006
-8.9868589e-006
1.7143888e-006
-7.4400297e-006
-3.2850587e-006
1.6578573e-005
-6.4092317e-006
1.7319638e-005
-5.8022508e-006
1.7517518e-005
-3.9627375e-006
1.7472235e-005
-2.5229155e-006
1.7343932e-005
-1.5804317e-006
1.72038e-005
-1.0189542e-006
1.7078684e-005
-6.9548e-007
1.6971227e-005
-5.0636495e-007
1.6875912e-005
-3.9733952e-007
1.6783634e-005
-3.4508062e-007
1.6684838e-005
-3.3949511e-007
1.6568622e-005
-3.7721852e-007
1.642086e-005
-4.6207695e-007
1.6224625e-005
-6.0033169e-007
1.5956652e-005
-8.0596419e-007
1.5584986e-005
-1.097465e-006
1.5066301e-005
-1.4976435e-006
1.4339447e-005
-2.0371331e-006
1.3319675e-005
-2.7592836e-006
1.187983e-005
-3.7044429e-006
9.8731365e-006
-4.822655e-006
7.2372974e-006
-5.7962175e-006
4.1899923e-006
-5.9395538e-006
1.3549163e-006
-4.6049537e-006
-1.9301423e-006
1.6563156e-005
-7.9685467e-006
1.6679449e-005
-5.9185435e-006
1.6387727e-005
-3.6710156e-006
1.6038224e-005
-2.1734125e-006
1.5737458e-005
-1.2796659e-006
1.5500373e-005
-7.8186988e-007
1.5317051e-005
-5.1215725e-007
1.5172413e-005
-3.6172721e-007
1.5052031e-005
-2.7695734e-007
1.4941628e-005
-2.3467838e-007
1.482797e-005
-2.2583698e-007
1.4697757e-005
-2.4700503e-007
1.4534763e-005
-2.9908364e-007
1.4321295e-005
-3.8686327e-007
1.4032944e-005
-5.1761305e-007
1.3638088e-005
-7.0260945e-007
1.3095326e-005
-9.5488113e-007
1.2349904e-005
-1.2917112e-006
1.1328233e-005
-1.7376127e-006
9.9334604e-006
-2.3096703e-006
8.0714631e-006
-2.9606577e-006
5.7483752e-006
-3.4731295e-006
3.2162307e-006
-3.4074092e-006
1.0248355e-006
-2.4135584e-006
-9.0530683e-007
1.5765632e-005
-8.7303379e-006
1.4718072e-005
-4.8709834e-006
1.3789207e-005
-2.7421508e-006
1.3114175e-005
-1.4983807e-006
1.2663339e-005
-8.288293e-007
1.2360587e-005
-4.7911787e-007
1.214834e-005
-2.999103e-007
1.1991115e-005
-2.045021e-007
1.1866373e-005
-1.5221551e-007
1.1757086e-005
-1.253913e-007
1.1648775e-005
-1.175261e-007
1.1527722e-005
-1.2595264e-007
1.1379033e-005
-1.5039406e-007
1.118579e-005
-1.936208e-007
1.0926653e-005
-2.5847598e-007
1.0574357e-005
-3.5031311e-007
1.0094533e-005
-4.7505703e-007
9.4435358e-006
-6.4071419e-007
8.563481e-006
-8.5755794e-007
7.3842835e-006
-1.1304727e-006
5.8559778e-006
-1.432352e-006
4.0246639e-006
-1.6418156e-006
2.1465276e-006
-1.5292729e-006
6.6117407e-007
-9.2820489e-007
-2.4413274e-007
1.3481739e-005
-7.2082363e-006
1.1114281e-005
-2.5035255e-006
9.6132381e-006
-1.2411075e-006
8.7409717e-006
-6.2611434e-007
8.2419419e-006
-3.2979952e-007
7.9439681e-006
-1.8114411e-007
7.7520101e-006
-1.0795229e-007
7.6184659e-006
-7.0957933e-008
7.5173462e-006
-5.1095793e-008
7.4326205e-006
-4.0665659e-008
7.3520076e-006
-3.6913257e-008
7.2645961e-006
-3.8541114e-008
7.1594305e-006
-4.5228473e-008
7.0237224e-006
-5.7912735e-008
6.842276e-006
-7.7029503e-008
6.5961028e-006
-1.0413997e-007
6.2617291e-006
-1.4068336e-007
5.8097612e-006
-1.887462e-007
5.2026412e-006
-2.5043803e-007
4.3982085e-006
-3.2603996e-007
3.3727708e-006
-4.069143e-007
2.1803917e-006
-4.4943637e-007
1.038848e-006
-3.8772918e-007
2.6916368e-007
-1.5852051e-007
2.5030972e-008
7.7956047e-006
5.2920792e-006
4.0509716e-006
3.4248573e-006
3.0950578e-006
2.9139136e-006
2.8059613e-006
2.7350034e-006
2.6839076e-006
2.6432419e-006
2.6063287e-006
2.5677875e-006
2.5225591e-006
2.4646463e-006
2.3876168e-006
2.2834768e-006
2.1427935e-006
1.9540473e-006
1.7036093e-006
1.3775693e-006
9.7065502e-007
5.2121866e-007
1.3348951e-007
-2.5030972e-008
)
;

boundaryField
{
    inlet
    {
        type            calculated;
        value           nonuniform List<scalar> 
20
(
-5.0012803e-006
-5.0012803e-006
-5.0012803e-006
-5.0012803e-006
-5.0012803e-006
-5.0012803e-006
-5.0012803e-006
-5.0012803e-006
-5.0012803e-006
-5.0012803e-006
-1.5003841e-005
-1.5003841e-005
-1.5003841e-005
-1.5003841e-005
-1.5003841e-005
-1.5003841e-005
-1.5003841e-005
-1.5003841e-005
-1.5003841e-005
-1.5003841e-005
)
;
    }
    walls
    {
        type            calculated;
        value           uniform 0;
    }
    outlet
    {
        type            calculated;
        value           nonuniform List<scalar> 10(2.9129701e-005 2.8717313e-005 2.7819904e-005 2.632775e-005 2.4144645e-005 2.1228822e-005 1.7605608e-005 1.3347943e-005 8.5323938e-006 3.1971305e-006);
    }
    centreline
    {
        type            symmetryPlane;
        value           uniform 0;
    }
    frontAndBack
    {
        type            empty;
        value           nonuniform 0();
    }
}


// ************************************************************************* //
