/*--------------------------------*- C++ -*----------------------------------*\
| =========                 |                                                 |
| \\      /  F ield         | OpenFOAM: The Open Source CFD Toolbox           |
|  \\    /   O peration     | Version:  5.x                                   |
|   \\  /    A nd           | Web:      www.OpenFOAM.org                      |
|    \\/     M anipulation  |                                                 |
\*---------------------------------------------------------------------------*/
/*   Windows 32 and 64 bit porting by blueCAPE: http://www.bluecape.com.pt   *\
|  Based on Windows porting (2.0.x v4) by Symscape: http://www.symscape.com   |
\*---------------------------------------------------------------------------*/
FoamFile
{
    version     2.0;
    format      ascii;
    class       surfaceScalarField;
    location    "0.13";
    object      phi_0;
}
// * * * * * * * * * * * * * * * * * * * * * * * * * * * * * * * * * * * * * //

dimensions      [0 3 -1 0 0 0 0];

internalField   nonuniform List<scalar> 
1430
(
5.1121888e-006
-1.1090843e-007
5.2503449e-006
-1.3815613e-007
5.3834856e-006
-1.3314068e-007
5.4950906e-006
-1.1160503e-007
5.5875047e-006
-9.2414167e-008
5.6619309e-006
-7.4426128e-008
5.7227418e-006
-6.0810909e-008
5.773812e-006
-5.1070235e-008
5.8192594e-006
-4.5447426e-008
5.8632912e-006
-4.4031761e-008
5.9104909e-006
-4.7199761e-008
5.9666825e-006
-5.6191579e-008
6.0387459e-006
-7.2063418e-008
6.1361174e-006
-9.7371485e-008
6.2724583e-006
-1.3634094e-007
6.4670053e-006
-1.9454697e-007
6.749598e-006
-2.8259269e-007
7.1665137e-006
-4.169157e-007
7.7952606e-006
-6.2874691e-007
8.7859775e-006
-9.9071697e-007
1.0342888e-005
-1.5569106e-006
1.2819483e-005
-2.4765951e-006
1.6378903e-005
-3.5594202e-006
2.0967909e-005
-4.5890057e-006
-5.0592194e-006
2.6027128e-005
5.1114475e-006
-2.2107556e-007
5.2520926e-006
-2.7880125e-007
5.3840971e-006
-2.6514519e-007
5.4963217e-006
-2.2382966e-007
5.5884709e-006
-1.845634e-007
5.6627815e-006
-1.4873671e-007
5.7233396e-006
-1.2136901e-007
5.7741658e-006
-1.0189643e-007
5.8193251e-006
-9.0606824e-008
5.8630659e-006
-8.7772558e-008
5.9098941e-006
-9.4027904e-008
5.9656035e-006
-1.1190103e-007
6.0370696e-006
-1.4352951e-007
6.1335408e-006
-1.9384268e-007
6.2685227e-006
-2.7132292e-007
6.461131e-006
-3.8715526e-007
6.7404242e-006
-5.6188585e-007
7.152251e-006
-8.2874259e-007
7.7733359e-006
-1.2498318e-006
8.7475592e-006
-1.9649403e-006
1.0287331e-005
-3.0966825e-006
1.2696902e-005
-4.8861663e-006
1.6207338e-005
-7.0698564e-006
2.0652765e-005
-9.0344322e-006
-1.0126607e-005
2.5720152e-005
5.1122643e-006
-3.3205954e-007
5.2535478e-006
-4.2008482e-007
5.386147e-006
-3.9774438e-007
5.4984662e-006
-3.3614888e-007
5.5904755e-006
-2.7657274e-007
5.6644452e-006
-2.2270639e-007
5.7245522e-006
-1.8147604e-007
5.77488e-006
-1.5222427e-007
5.8195005e-006
-1.3522733e-007
5.8626339e-006
-1.30906e-007
5.9087373e-006
-1.4013125e-007
5.9635337e-006
-1.6669747e-007
6.0337536e-006
-2.1374941e-007
6.1284611e-006
-2.885502e-007
6.2608307e-006
-4.036925e-007
6.4493997e-006
-5.7572431e-007
6.7224263e-006
-8.3491241e-007
7.1241968e-006
-1.2305131e-006
7.7289555e-006
-1.8545904e-006
8.6756252e-006
-2.91161e-006
1.0163443e-005
-4.5845004e-006
1.2483818e-005
-7.2065415e-006
1.5836793e-005
-1.0422832e-005
2.0110477e-005
-1.3308116e-005
-1.5020637e-005
2.5004507e-005
5.113456e-006
-4.442352e-007
5.2557918e-006
-5.6242072e-007
5.3892315e-006
-5.3118409e-007
5.5017232e-006
-4.4864056e-007
5.5934811e-006
-3.6833064e-007
5.6669405e-006
-2.9616581e-007
5.7263736e-006
-2.4090915e-007
5.775953e-006
-2.0180367e-007
5.8197645e-006
-1.7903887e-007
5.8619907e-006
-1.7313223e-007
5.9070202e-006
-1.8516069e-007
5.960455e-006
-2.2013229e-007
6.0288298e-006
-2.8212425e-007
6.1209058e-006
-3.8062624e-007
6.2493979e-006
-5.3218461e-007
6.4320217e-006
-7.5834808e-007
6.6957476e-006
-1.0986383e-006
7.0827088e-006
-1.6174744e-006
7.6629415e-006
-2.4348231e-006
8.5669425e-006
-3.815611e-006
9.9793472e-006
-5.9969051e-006
1.2169846e-005
-9.3970403e-006
1.5300209e-005
-1.3553195e-005
1.9311411e-005
-1.7319318e-005
-1.9623224e-005
2.3913998e-005
5.1150719e-006
-5.5802683e-007
5.2588136e-006
-7.0616235e-007
5.3933778e-006
-6.6574829e-007
5.5060775e-006
-5.6134033e-007
5.5974761e-006
-4.5972928e-007
5.6702363e-006
-3.6892594e-007
5.7287643e-006
-2.9943718e-007
5.7773426e-006
-2.5038205e-007
5.820077e-006
-2.2177326e-007
5.8611021e-006
-2.1415737e-007
5.9047167e-006
-2.2877524e-007
5.9563586e-006
-2.7177426e-007
6.0223147e-006
-3.4808036e-007
6.110935e-006
-4.6924652e-007
6.2343485e-006
-6.5559812e-007
6.4092285e-006
-9.3322807e-007
6.6608023e-006
-1.3502121e-006
7.0284235e-006
-1.9850956e-006
7.5761645e-006
-2.9825642e-006
8.4250853e-006
-4.6645319e-006
9.7373866e-006
-7.3092064e-006
1.1757618e-005
-1.1417272e-005
1.4601543e-005
-1.6397119e-005
1.826599e-005
-2.0983765e-005
-2.3826863e-005
2.2469628e-005
5.1171528e-006
-6.7389934e-007
5.2626244e-006
-8.516339e-007
5.3986033e-006
-8.0172725e-007
5.511534e-006
-6.7427102e-007
5.60245e-006
-5.5064527e-007
5.6743083e-006
-4.4078435e-007
5.7316921e-006
-3.5682096e-007
5.7790168e-006
-2.9770673e-007
5.8204034e-006
-2.6315994e-007
5.8599459e-006
-2.5369988e-007
5.9018216e-006
-2.7065094e-007
5.9512477e-006
-3.212003e-007
6.0142306e-006
-4.1106333e-007
6.0986063e-006
-5.5362218e-007
6.2158e-006
-7.7279184e-007
6.3812544e-006
-1.0986825e-006
6.6180452e-006
-1.5870028e-006
6.962217e-006
-2.3292675e-006
7.4705136e-006
-3.4908608e-006
8.2518807e-006
-5.445899e-006
9.4407158e-006
-8.4980415e-006
1.1252919e-005
-1.3229475e-005
1.3747812e-005
-1.8892013e-005
1.6989511e-005
-2.4225464e-005
-2.7555986e-005
2.0718635e-005
5.119721e-006
-7.9234006e-007
5.2672235e-006
-9.9913637e-007
5.4049287e-006
-9.3943247e-007
5.5181196e-006
-7.8746199e-007
5.6084e-006
-6.4092568e-007
5.6791377e-006
-5.1152202e-007
5.7351293e-006
-4.1281258e-007
5.7809482e-006
-3.4352567e-007
5.8207185e-006
-3.0293024e-007
5.8585024e-006
-2.9148381e-007
5.8983353e-006
-3.1048383e-007
5.9451368e-006
-3.6800178e-007
6.0046099e-006
-4.7053647e-007
6.0840084e-006
-6.3302072e-007
6.193928e-006
-8.827114e-007
6.348418e-006
-1.2531725e-006
6.5681165e-006
-1.8067013e-006
6.8850283e-006
-2.6461793e-006
7.3476204e-006
-3.9534528e-006
8.0497729e-006
-6.1480515e-006
9.0950094e-006
-9.5432779e-006
1.0664187e-005
-1.4798653e-005
1.274241e-005
-2.0970235e-005
1.5520437e-005
-2.700349e-005
-3.0636431e-005
1.8600882e-005
5.122839e-006
-9.1389878e-007
5.2726307e-006
-1.1489281e-006
5.4124129e-006
-1.0792147e-006
5.525897e-006
-9.0094611e-007
5.6153569e-006
-7.3038551e-007
5.6847347e-006
-5.8089987e-007
5.739074e-006
-4.6715187e-007
5.78313e-006
-3.8758171e-007
5.8210365e-006
-3.4083681e-007
5.8567801e-006
-3.2722739e-007
5.8942642e-006
-3.4796797e-007
5.9380786e-006
-4.1181615e-007
5.9935456e-006
-5.2600347e-007
6.0673075e-006
-7.0678266e-007
6.1689608e-006
-9.843647e-007
6.3111324e-006
-1.3953441e-006
6.5118319e-006
-2.0074009e-006
6.7981851e-006
-2.9325325e-006
7.2102244e-006
-4.3654922e-006
7.8232022e-006
-6.7610293e-006
8.7061779e-006
-1.0426254e-005
9.9999444e-006
-1.6092419e-005
1.1620444e-005
-2.2590735e-005
1.3905893e-005
-2.9288939e-005
-3.2732047e-005
1.6001509e-005
5.1266607e-006
-1.0392792e-006
5.2789286e-006
-1.301196e-006
5.4211872e-006
-1.2214733e-006
5.5349773e-006
-1.0147362e-006
5.6234053e-006
-8.1881346e-007
5.6911579e-006
-6.4865247e-007
5.7435709e-006
-5.1956496e-007
5.7856051e-006
-4.2961591e-007
5.8213997e-006
-3.7663137e-007
5.8548377e-006
-3.6066539e-007
5.8896933e-006
-3.8282361e-007
5.9301985e-006
-4.5232135e-007
5.9811947e-006
-5.769997e-007
6.0487321e-006
-7.7432006e-007
6.1412776e-006
-1.0769102e-006
6.2699634e-006
-1.5240299e-006
6.4499845e-006
-2.187422e-006
6.7031993e-006
-3.1857473e-006
7.0604886e-006
-4.7227816e-006
7.5772817e-006
-7.2778224e-006
8.2837595e-006
-1.1132731e-005
9.277713e-006
-1.7086373e-005
1.040321e-005
-2.3716232e-005
1.2150884e-005
-3.1036613e-005
-3.3463852e-005
1.2882689e-005
5.130643e-006
-1.1686418e-006
5.2869689e-006
-1.4575219e-006
5.4313701e-006
-1.3658745e-006
5.5456275e-006
-1.1289936e-006
5.6327237e-006
-9.0590974e-007
5.6985517e-006
-7.144804e-007
5.7487471e-006
-5.6976035e-007
5.788502e-006
-4.6937079e-007
5.821933e-006
-4.1006242e-007
5.8528418e-006
-3.915742e-007
5.8848064e-006
-4.1478826e-007
5.9216732e-006
-4.891881e-007
5.9678025e-006
-6.2312903e-007
6.0286021e-006
-8.3511969e-007
6.1113642e-006
-1.1596722e-006
6.225483e-006
-1.6381488e-006
6.3832244e-006
-2.3451635e-006
6.6018245e-006
-3.4043474e-006
6.9013914e-006
-5.0223484e-006
7.3166092e-006
-7.6930403e-006
7.8470963e-006
-1.1663219e-005
8.5086113e-006
-1.7747888e-005
9.0921867e-006
-2.4299807e-005
9.9638494e-006
-3.1908276e-005
8.7120808e-006
-3.2212083e-005
2.8648032e-005
-2.6209039e-006
2.9365471e-005
-7.1743857e-007
2.9302941e-005
6.2529328e-008
2.9168985e-005
1.339561e-007
2.9124343e-005
4.4642153e-008
2.912646e-005
-2.1170737e-009
2.9137893e-005
-1.1432518e-008
2.9140728e-005
-2.8355684e-009
2.913928e-005
1.4478872e-009
2.9137787e-005
1.493022e-009
2.9137436e-005
3.5143505e-010
2.913754e-005
-1.0386216e-010
2.9137634e-005
-9.3917948e-011
2.9137653e-005
-1.8843317e-011
2.9137648e-005
4.4529129e-012
2.9137646e-005
2.5375232e-012
2.9137646e-005
-1.4956654e-013
2.9137646e-005
-5.4452712e-013
2.9137646e-005
-2.4461962e-013
2.9137646e-005
1.0518222e-013
2.9137646e-005
1.6430553e-013
2.9137646e-005
6.882728e-013
2.9137645e-005
1.4655588e-013
2.9137656e-005
-1.0182752e-011
-1.0478983e-011
2.8133668e-005
-5.0344196e-006
2.8880705e-005
-1.4644762e-006
2.8860411e-005
8.2823966e-008
2.8760934e-005
2.3343258e-007
2.8714872e-005
9.0704403e-008
2.8717216e-005
-4.4616582e-009
2.8725101e-005
-1.9317145e-008
2.8726645e-005
-4.3798382e-009
2.8725069e-005
3.0240396e-009
2.8723908e-005
2.6543759e-009
2.8723686e-005
5.7290072e-010
2.8723801e-005
-2.1853206e-010
2.8723877e-005
-1.6977827e-010
2.8723889e-005
-3.1195324e-011
2.8723885e-005
8.6578589e-012
2.8723883e-005
4.34862e-012
2.8723883e-005
-5.3417997e-013
2.8723884e-005
-9.6228749e-013
2.8723884e-005
-2.9829228e-013
2.8723884e-005
2.1734026e-013
2.8723884e-005
3.0736531e-013
2.8723883e-005
1.0134927e-012
2.8723883e-005
2.1445232e-013
2.872389e-005
-1.6505758e-011
-1.7440661e-011
2.7157584e-005
-7.1874966e-006
2.7867787e-005
-2.1746793e-006
2.7915657e-005
3.4954035e-008
2.7852451e-005
2.9663881e-007
2.7822266e-005
1.2089006e-007
2.7824761e-005
-6.9570195e-009
2.7827005e-005
-2.1561175e-008
2.7826088e-005
-3.4626747e-009
2.7824572e-005
4.5400696e-009
2.7823957e-005
3.2689214e-009
2.7823958e-005
5.7261059e-010
2.7824069e-005
-3.2988962e-010
2.7824112e-005
-2.1305409e-010
2.7824114e-005
-3.3340297e-011
2.7824111e-005
1.2149419e-011
2.782411e-005
4.9955206e-012
2.7824111e-005
-1.1337006e-012
2.7824111e-005
-1.1937021e-012
2.7824111e-005
-1.607896e-013
2.7824111e-005
1.5699463e-013
2.7824111e-005
2.8610442e-013
2.7824111e-005
1.1841795e-012
2.782411e-005
5.5501415e-013
2.7824111e-005
-1.6774439e-011
-1.8300823e-011
2.5704757e-005
-8.9782554e-006
2.6288904e-005
-2.7588258e-006
2.6345174e-005
-2.1316111e-008
2.6337816e-005
3.0399647e-007
2.6336522e-005
1.2218426e-007
2.633685e-005
-7.2847541e-009
2.6332864e-005
-1.7575814e-008
2.6330014e-005
-6.1244965e-010
2.632891e-005
5.6443386e-009
2.6328927e-005
3.2513803e-009
2.6329118e-005
3.82013e-010
2.6329196e-005
-4.081797e-010
2.63292e-005
-2.1670258e-010
2.6329193e-005
-2.6434521e-011
2.6329191e-005
1.4097404e-011
2.6329192e-005
4.4576865e-012
2.6329192e-005
-1.6770132e-012
2.6329192e-005
-1.2055223e-012
2.6329192e-005
7.4748108e-015
2.6329192e-005
-3.7226047e-014
2.6329192e-005
4.2929613e-014
2.6329192e-005
1.2098464e-012
2.6329191e-005
1.5212677e-012
2.6329186e-005
-1.1204769e-011
-1.355247e-011
2.3740051e-005
-1.0248678e-005
2.4043471e-005
-3.0622458e-006
2.4079272e-005
-5.7116497e-008
2.4135818e-005
2.4745054e-007
2.4156971e-005
1.0103136e-007
2.4153907e-005
-4.221512e-009
2.4146159e-005
-9.8271141e-009
2.4142947e-005
2.5992365e-009
2.4142669e-005
5.9226949e-009
2.4143226e-005
2.6942162e-009
2.41435e-005
1.08326e-010
2.4143517e-005
-4.2558659e-010
2.4143486e-005
-1.8549347e-010
2.4143474e-005
-1.4995559e-011
2.4143474e-005
1.3873386e-011
2.4143476e-005
3.1721614e-012
2.4143476e-005
-1.9852787e-012
2.4143476e-005
-1.0460315e-012
2.4143476e-005
8.2937413e-014
2.4143476e-005
-1.8260651e-013
2.4143476e-005
-1.8585104e-013
2.4143477e-005
9.3966386e-013
2.4143475e-005
2.8204482e-012
2.4143467e-005
-2.6635253e-012
-6.0041153e-012
2.1199713e-005
-1.0729757e-005
2.108943e-005
-2.9519625e-006
2.112035e-005
-8.8036319e-008
2.1210937e-005
1.5686284e-007
2.1238228e-005
7.3740651e-008
2.1233469e-005
5.3744304e-010
2.1225817e-005
-2.1745867e-009
2.1223854e-005
4.5617948e-009
2.1224585e-005
5.1921331e-009
2.1225449e-005
1.8297077e-009
2.1225678e-005
-1.2101864e-010
2.1225626e-005
-3.729463e-010
2.1225574e-005
-1.3342326e-010
2.1225563e-005
-4.3266595e-012
2.1225565e-005
1.1507546e-011
2.1225567e-005
1.7264896e-012
2.1225567e-005
-1.868222e-012
2.1225566e-005
-7.8335377e-013
2.1225567e-005
5.9485978e-014
2.1225567e-005
-2.6753829e-013
2.1225567e-005
-2.7809494e-013
2.1225567e-005
6.8159921e-013
2.1225566e-005
3.7468952e-012
2.1225559e-005
4.8967309e-012
1.0214611e-012
1.8010392e-005
-1.0139267e-005
1.748904e-005
-2.43061e-006
1.7500893e-005
-9.988962e-008
1.7582658e-005
7.5097688e-008
1.7606772e-005
4.962725e-008
1.7603217e-005
4.0922807e-009
1.7598604e-005
2.4389545e-009
1.759865e-005
4.51512e-009
1.7600197e-005
3.6456541e-009
1.7601076e-005
9.5012094e-010
1.7601176e-005
-2.2120488e-010
1.760107e-005
-2.6658517e-010
1.7601015e-005
-7.7827106e-011
1.7601008e-005
1.9752878e-012
1.7601012e-005
7.8093673e-012
1.7601013e-005
5.9362425e-013
1.7601013e-005
-1.3888619e-012
1.7601012e-005
-4.6111979e-013
1.7601012e-005
3.5001369e-014
1.7601012e-005
-2.9219731e-013
1.7601012e-005
-2.8966846e-013
1.7601013e-005
4.8098141e-013
1.7601013e-005
3.8042028e-012
1.7601009e-005
8.6080886e-012
4.9782416e-012
1.4103474e-005
-8.2412332e-006
1.3295763e-005
-1.6228986e-006
1.327219e-005
-7.6316645e-008
1.3320605e-005
2.6682523e-008
1.3340326e-005
2.9906224e-008
1.3339851e-005
4.5677344e-009
1.3339052e-005
3.2377283e-009
1.3340712e-005
2.854766e-009
1.334251e-005
1.8478235e-009
1.3343154e-005
3.0603112e-010
1.3343119e-005
-1.8607281e-010
1.3342996e-005
-1.4310898e-010
1.3342951e-005
-3.3194471e-011
1.334295e-005
3.305232e-012
1.3342954e-005
3.9881552e-012
1.3342954e-005
9.33697e-015
1.3342954e-005
-7.6140432e-013
1.3342953e-005
-1.9066585e-013
1.3342953e-005
3.6402154e-014
1.3342953e-005
-2.2256578e-013
1.3342953e-005
-2.480515e-013
1.3342953e-005
2.5744428e-013
1.3342954e-005
2.8372116e-012
1.3342955e-005
7.6645471e-012
5.0608651e-012
9.4751301e-006
-4.8336744e-006
8.5351525e-006
-6.8292082e-007
8.4818148e-006
-2.2978929e-008
8.5037632e-006
4.7341842e-009
8.5207341e-006
1.2935303e-008
8.5231724e-006
2.129522e-009
8.5247556e-006
1.6545015e-009
8.5267606e-006
8.4975105e-010
8.5281283e-006
4.8018821e-010
8.5284286e-006
5.6981716e-012
8.52832e-006
-7.7498482e-011
8.5282197e-006
-4.2784928e-011
8.5281935e-006
-7.0320072e-012
8.5281952e-006
1.5622832e-012
8.5281981e-006
1.1311065e-012
8.5281982e-006
-1.0016774e-013
8.5281977e-006
-2.3145622e-013
8.5281975e-006
-3.7006138e-014
8.5281975e-006
2.3179988e-014
8.5281974e-006
-9.5483559e-014
8.5281973e-006
-1.2356026e-013
8.5281975e-006
5.387777e-014
8.5281992e-006
1.1629846e-012
8.5282034e-006
3.4894073e-012
2.4179954e-012
3.8784064e-006
3.1954856e-006
3.1725067e-006
3.1772409e-006
3.1901762e-006
3.1923058e-006
3.1939603e-006
3.19481e-006
3.1952902e-006
3.1952959e-006
3.1952184e-006
3.1951756e-006
3.1951686e-006
3.1951701e-006
3.1951713e-006
3.1951711e-006
3.1951709e-006
3.1951709e-006
3.1951709e-006
3.1951708e-006
3.1951707e-006
3.1951708e-006
3.195172e-006
3.1951755e-006
1.5406664e-005
-1.5714646e-006
1.593047e-005
-1.9813281e-006
1.6367996e-005
-1.8034006e-006
1.6712436e-005
-1.4734336e-006
1.6964395e-005
-1.1578686e-006
1.7147943e-005
-8.9802882e-007
1.7283314e-005
-7.051311e-007
1.7387203e-005
-5.7325946e-007
1.7471803e-005
-4.9466275e-007
1.754807e-005
-4.6784119e-007
1.7625115e-005
-4.9183341e-007
1.7711912e-005
-5.7598468e-007
1.7819186e-005
-7.3040304e-007
1.7958439e-005
-9.7437321e-007
1.8143729e-005
-1.3449621e-006
1.8394646e-005
-1.8890655e-006
1.8727766e-005
-2.6782833e-006
1.9168082e-005
-3.8446636e-006
1.9724357e-005
-5.5786238e-006
2.0357465e-005
-8.3261475e-006
2.1006824e-005
-1.2312578e-005
2.102449e-005
-1.7765553e-005
1.9617047e-005
-2.2892365e-005
1.4541829e-005
-2.6833057e-005
-1.7670255e-005
1.548474e-005
-2.0523632e-006
1.6081664e-005
-2.5782522e-006
1.6554638e-005
-2.2763747e-006
1.689345e-005
-1.8122461e-006
1.71215e-005
-1.3859181e-006
1.7273912e-005
-1.0504413e-006
1.7377452e-005
-8.0867118e-007
1.7450899e-005
-6.4670609e-007
1.7505979e-005
-5.49743e-007
1.755176e-005
-5.1362255e-007
1.7594955e-005
-5.3502844e-007
1.7640504e-005
-6.2153328e-007
1.7693692e-005
-7.8359126e-007
1.775953e-005
-1.0402111e-006
1.7841381e-005
-1.4268132e-006
1.7943259e-005
-1.9909437e-006
1.8060533e-005
-2.7955566e-006
1.8179605e-005
-3.9637361e-006
1.8254877e-005
-5.653896e-006
1.8151075e-005
-8.2223453e-006
1.7649702e-005
-1.1811205e-005
1.6145483e-005
-1.6261335e-005
1.3037062e-005
-1.9783944e-005
6.8337229e-006
-2.0629718e-005
-1.0836532e-005
1.5633326e-005
-2.6818485e-006
1.6344869e-005
-3.2897951e-006
1.6855308e-005
-2.7868136e-006
1.7176326e-005
-2.1332646e-006
1.7362975e-005
-1.5725662e-006
1.746958e-005
-1.1570469e-006
1.7530672e-005
-8.6976359e-007
1.7566137e-005
-6.8217055e-007
1.7586429e-005
-5.7003543e-007
1.7597476e-005
-5.2466885e-007
1.7603011e-005
-5.4056388e-007
1.7604029e-005
-6.225509e-007
1.7600401e-005
-7.7996405e-007
1.7590117e-005
-1.0299264e-006
1.7566846e-005
-1.4035427e-006
1.7521482e-005
-1.9455791e-006
1.7434093e-005
-2.7081683e-006
1.7262938e-005
-3.7925807e-006
1.6932566e-005
-5.3235244e-006
1.6254555e-005
-7.5443341e-006
1.496739e-005
-1.052404e-005
1.2598546e-005
-1.3892491e-005
8.8956995e-006
-1.6081097e-005
3.5382202e-006
-1.5272239e-005
-7.2983114e-006
1.5895183e-005
-3.5731908e-006
1.6744192e-005
-4.1388041e-006
1.7267893e-005
-3.3105147e-006
1.7539388e-005
-2.4047589e-006
1.7658209e-005
-1.6913875e-006
1.770055e-005
-1.1993881e-006
1.7707651e-005
-8.7686407e-007
1.769806e-005
-6.7257983e-007
1.7679352e-005
-5.5132787e-007
1.7653613e-005
-4.9893006e-007
1.7620786e-005
-5.0773637e-007
1.7576894e-005
-5.7865864e-007
1.7517048e-005
-7.2011837e-007
1.7433067e-005
-9.4594577e-007
1.7311086e-005
-1.2815613e-006
1.7129685e-005
-1.7641784e-006
1.6858835e-005
-2.4373179e-006
1.6440238e-005
-3.3739835e-006
1.5785676e-005
-4.6689624e-006
1.4713314e-005
-6.4719727e-006
1.2980772e-005
-8.7914973e-006
1.0284533e-005
-1.1196252e-005
6.6250463e-006
-1.242161e-005
2.2929727e-006
-1.0940165e-005
-5.0053387e-006
1.6259016e-005
-4.8283656e-006
1.7176046e-005
-5.055834e-006
1.7626102e-005
-3.7605714e-006
1.7786304e-005
-2.5649606e-006
1.7801532e-005
-1.7066153e-006
1.7760032e-005
-1.1578885e-006
1.7703113e-005
-8.1994509e-007
1.7644002e-005
-6.1346924e-007
1.7585156e-005
-4.9248145e-007
1.7523533e-005
-4.3730722e-007
1.7454122e-005
-4.3832534e-007
1.7368999e-005
-4.9353533e-007
1.725888e-005
-6.0999943e-007
1.7109712e-005
-7.9677797e-007
1.6902346e-005
-1.0741954e-006
1.6607605e-005
-1.4694375e-006
1.6186962e-005
-2.0166745e-006
1.5577298e-005
-2.7643199e-006
1.4687569e-005
-3.7792329e-006
1.3359914e-005
-5.1443183e-006
1.1398341e-005
-6.8299241e-006
8.6368747e-006
-8.4347859e-006
5.2079827e-006
-8.9927183e-006
1.7150784e-006
-7.4472607e-006
-3.2902602e-006
1.6578645e-005
-6.4031693e-006
1.7320621e-005
-5.7978102e-006
1.7519172e-005
-3.9591224e-006
1.7474315e-005
-2.5201039e-006
1.7346292e-005
-1.5785927e-006
1.7206394e-005
-1.0179897e-006
1.7081475e-005
-6.9502637e-007
1.6974167e-005
-5.0616084e-007
1.6878952e-005
-3.9726698e-007
1.678674e-005
-3.4509519e-007
1.6687989e-005
-3.3957386e-007
1.6571805e-005
-3.7735221e-007
1.6424067e-005
-4.6226067e-007
1.6227858e-005
-6.0056915e-007
1.5959923e-005
-8.0626073e-007
1.5588311e-005
-1.0978256e-006
1.5069704e-005
-1.4980679e-006
1.4342983e-005
-2.0375985e-006
1.3323464e-005
-2.7597139e-006
1.1884026e-005
-3.7048806e-006
9.8777516e-006
-4.8236493e-006
7.2417782e-006
-5.7988124e-006
4.1932552e-006
-5.9441953e-006
1.3562544e-006
-4.6102599e-006
-1.9340058e-006
1.6564671e-005
-7.9639993e-006
1.6682847e-005
-5.9159858e-006
1.6392365e-005
-3.6686405e-006
1.6043685e-005
-2.1714239e-006
1.5743437e-005
-1.2783453e-006
1.5506671e-005
-7.8122315e-007
1.5323557e-005
-5.1191231e-007
1.5179058e-005
-3.6166212e-007
1.5058758e-005
-2.769676e-007
1.4948397e-005
-2.3473426e-007
1.4834752e-005
-2.2592802e-007
1.4704529e-005
-2.4712926e-007
1.454151e-005
-2.9924171e-007
1.4328003e-005
-3.8706303e-007
1.4039604e-005
-5.1786165e-007
1.364469e-005
-7.0291164e-007
1.3101862e-005
-9.5523964e-007
1.2356377e-005
-1.2921135e-006
1.1334679e-005
-1.7380158e-006
9.9399182e-006
-2.3101198e-006
8.0778003e-006
-2.9615314e-006
5.7540036e-006
-3.4750157e-006
3.2201771e-006
-3.4103687e-006
1.0265233e-006
-2.416606e-006
-9.074825e-007
1.5767853e-005
-8.728011e-006
1.4722083e-005
-4.8702161e-006
1.3794537e-005
-2.7410947e-006
1.3120486e-005
-1.4973733e-006
1.2670272e-005
-8.2813108e-007
1.2367851e-005
-4.7880181e-007
1.2155768e-005
-2.9982935e-007
1.1998626e-005
-2.0452075e-007
1.1873923e-005
-1.5226395e-007
1.1764641e-005
-1.2545223e-007
1.165631e-005
-1.1759687e-007
1.1535215e-005
-1.2603516e-007
1.1386466e-005
-1.5049179e-007
1.1193142e-005
-1.9373927e-007
1.0933901e-005
-2.5862082e-007
1.0581478e-005
-3.5048897e-007
1.0101504e-005
-4.7526588e-007
9.4503329e-006
-6.4094193e-007
8.5700836e-006
-8.5776646e-007
7.390674e-006
-1.1307103e-006
5.8619459e-006
-1.4328032e-006
4.0296803e-006
-1.6427501e-006
2.1498829e-006
-1.5305713e-006
6.6259217e-007
-9.2931525e-007
-2.448903e-007
1.3483407e-005
-7.2075769e-006
1.1116711e-005
-2.5035201e-006
9.6164897e-006
-1.2408736e-006
8.744945e-006
-6.2582865e-007
8.2463969e-006
-3.2958298e-007
7.9486487e-006
-1.8105364e-007
7.7567654e-006
-1.0794605e-007
7.6232313e-006
-7.0986666e-008
7.5220983e-006
-5.1130997e-008
7.4373461e-006
-4.0700069e-008
7.3566961e-006
-3.6946902e-008
7.2692371e-006
-3.8576132e-008
7.1640126e-006
-4.5267273e-008
7.0282311e-006
-5.7957837e-008
6.8466939e-006
-7.7083618e-008
6.6004104e-006
-1.0420551e-007
6.2659053e-006
-1.4076078e-007
5.8137912e-006
-1.888278e-007
5.2065285e-006
-2.5050377e-007
4.4019322e-006
-3.2611392e-007
3.3761658e-006
-4.0703676e-007
2.1830955e-006
-4.4967979e-007
1.040521e-006
-3.8799667e-007
2.698333e-007
-1.5862752e-007
2.4943034e-008
7.7962641e-006
5.2927439e-006
4.0518703e-006
3.4260416e-006
3.0964587e-006
2.915405e-006
2.8074589e-006
2.7364723e-006
2.6853413e-006
2.6446412e-006
2.6076943e-006
2.5691181e-006
2.5238509e-006
2.465893e-006
2.3888094e-006
2.2846039e-006
2.1438431e-006
1.9550153e-006
1.7045115e-006
1.3783976e-006
9.7136088e-007
5.2168111e-007
1.3368446e-007
-2.4943034e-008
)
;

boundaryField
{
    inlet
    {
        type            calculated;
        value           nonuniform List<scalar> 
20
(
-5.0012803e-006
-5.0012803e-006
-5.0012803e-006
-5.0012803e-006
-5.0012803e-006
-5.0012803e-006
-5.0012803e-006
-5.0012803e-006
-5.0012803e-006
-5.0012803e-006
-1.5003841e-005
-1.5003841e-005
-1.5003841e-005
-1.5003841e-005
-1.5003841e-005
-1.5003841e-005
-1.5003841e-005
-1.5003841e-005
-1.5003841e-005
-1.5003841e-005
)
;
    }
    walls
    {
        type            calculated;
        value           uniform 0;
    }
    outlet
    {
        type            calculated;
        value           nonuniform List<scalar> 10(2.9137666e-005 2.8723897e-005 2.7824112e-005 2.6329181e-005 2.4143459e-005 2.1225552e-005 1.7601005e-005 1.3342955e-005 8.5282061e-006 3.1951779e-006);
    }
    centreline
    {
        type            symmetryPlane;
        value           uniform 0;
    }
    frontAndBack
    {
        type            empty;
        value           nonuniform 0();
    }
}


// ************************************************************************* //
