/*--------------------------------*- C++ -*----------------------------------*\
| =========                 |                                                 |
| \\      /  F ield         | OpenFOAM: The Open Source CFD Toolbox           |
|  \\    /   O peration     | Version:  5.x                                   |
|   \\  /    A nd           | Web:      www.OpenFOAM.org                      |
|    \\/     M anipulation  |                                                 |
\*---------------------------------------------------------------------------*/
/*   Windows 32 and 64 bit porting by blueCAPE: http://www.bluecape.com.pt   *\
|  Based on Windows porting (2.0.x v4) by Symscape: http://www.symscape.com   |
\*---------------------------------------------------------------------------*/
FoamFile
{
    version     2.0;
    format      ascii;
    class       volSymmTensorField;
    location    "0.13";
    object      sigma;
}
// * * * * * * * * * * * * * * * * * * * * * * * * * * * * * * * * * * * * * //

dimensions      [0 2 -2 0 0 0 0];

internalField   nonuniform List<symmTensor> 
750
(
(-0.00025619137 1.7628164e-005 0 0.00025309464 0 0)
(-0.00033020889 1.5004817e-006 0 0.00033114588 0 0)
(-0.00031956287 -3.6801788e-006 0 0.00031487897 0 0)
(-0.0002681176 -5.3821912e-006 0 0.00026667688 0 0)
(-0.00022185331 -5.0269257e-006 0 0.000220901 0 0)
(-0.00018359158 -4.3117512e-006 0 0.00018249431 0 0)
(-0.00015328833 -3.321486e-006 0 0.0001529059 0 0)
(-0.00013201445 -2.0914029e-006 0 0.00013149082 0 0)
(-0.00012085805 -8.5832617e-007 0 0.00012049652 0 0)
(-0.00012026735 6.2727725e-007 0 0.00011992634 0 0)
(-0.00013305816 2.4267091e-006 0 0.00013261549 0 0)
(-0.00015819884 4.4206326e-006 0 0.00015744496 0 0)
(-0.00020730504 7.4072479e-006 0 0.00020624555 0 0)
(-0.0002784526 1.1349743e-005 0 0.0002763943 0 0)
(-0.00038609447 1.688012e-005 0 0.00038185309 0 0)
(-0.00055477613 2.5808469e-005 0 0.00054709413 0 0)
(-0.00079649299 3.8692509e-005 0 0.00077916826 0 0)
(-0.0011706904 5.9369519e-005 0 0.0011348345 0 0)
(-0.0017611769 9.6403959e-005 0 0.0016855301 0 0)
(-0.0027056473 0.00015069144 0 0.0025123122 0 0)
(-0.0043406747 0.0002549961 0 0.0039352292 0 0)
(-0.0070360899 0.00039493317 0 0.0058804002 0 0)
(-0.010953428 0.00055988816 0 0.0086521292 0 0)
(-0.01548042 0.00084375674 0 0.010793766 0 0)
(-0.019613882 0.00061245114 0 0.012834685 0 0)
(-0.00025715245 5.2932904e-005 0 0.00025268134 0 0)
(-0.00033052146 4.6397237e-006 0 0.00033391257 0 0)
(-0.00032048735 -1.1211622e-005 0 0.00031435484 0 0)
(-0.00026854094 -1.5954828e-005 0 0.00026750079 0 0)
(-0.00022123978 -1.4993295e-005 0 0.00022021321 0 0)
(-0.00018350331 -1.2773792e-005 0 0.00018232625 0 0)
(-0.00015273371 -9.7798744e-006 0 0.0001523196 0 0)
(-0.00013144732 -6.0846047e-006 0 0.00013084866 0 0)
(-0.00012015302 -2.3467643e-006 0 0.00011972336 0 0)
(-0.00011946165 2.0862043e-006 0 0.00011906213 0 0)
(-0.00013209527 7.4589325e-006 0 0.00013156868 0 0)
(-0.00015689958 1.3439171e-005 0 0.0001560435 0 0)
(-0.0002056554 2.2385148e-005 0 0.00020449567 0 0)
(-0.00027592249 3.4062336e-005 0 0.00027367538 0 0)
(-0.00038238638 5.062233e-005 0 0.00037783374 0 0)
(-0.00054965792 7.7151633e-005 0 0.00054158335 0 0)
(-0.00078746266 0.00011511024 0 0.00076935472 0 0)
(-0.0011570589 0.00017672826 0 0.0011201584 0 0)
(-0.001739964 0.00028492108 0 0.0016629761 0 0)
(-0.0026646084 0.00043937439 0 0.0024669878 0 0)
(-0.0042868733 0.00077371118 0 0.0038809917 0 0)
(-0.0068943053 0.0011384963 0 0.0057206626 0 0)
(-0.010777586 0.0016815186 0 0.0085142729 0 0)
(-0.015192573 0.0025232086 0 0.01043559 0 0)
(-0.019105563 0.0018376423 0 0.012630202 0 0)
(-0.00025837737 8.8486827e-005 0 0.00025331715 0 0)
(-0.00033201301 7.5762732e-006 0 0.0003361399 0 0)
(-0.00032196775 -1.9099921e-005 0 0.00031532487 0 0)
(-0.00026913229 -2.6621068e-005 0 0.00026813588 0 0)
(-0.00022091771 -2.5108749e-005 0 0.00021989762 0 0)
(-0.00018276426 -2.1245162e-005 0 0.00018157866 0 0)
(-0.00015166522 -1.6236397e-005 0 0.0001512961 0 0)
(-0.00013020523 -1.0053525e-005 0 0.00012963493 0 0)
(-0.00011877052 -3.8159255e-006 0 0.00011838221 0 0)
(-0.0001178635 3.5580737e-006 0 0.0001175117 0 0)
(-0.00013019808 1.2449856e-005 0 0.00012972422 0 0)
(-0.00015435116 2.2360667e-005 0 0.00015357748 0 0)
(-0.00020225004 3.7202021e-005 0 0.00020119525 0 0)
(-0.00027111967 5.6439928e-005 0 0.00026899291 0 0)
(-0.00037519049 8.3883934e-005 0 0.00037081981 0 0)
(-0.00053903239 0.00012751842 0 0.00053128585 0 0)
(-0.00077034705 0.00018998355 0 0.0007527053 0 0)
(-0.0011299701 0.00029154262 0 0.0010939511 0 0)
(-0.0016963302 0.00046789083 0 0.0016207789 0 0)
(-0.002587793 0.00073770291 0 0.0023912414 0 0)
(-0.0041660707 0.0012494159 0 0.0037666606 0 0)
(-0.0066653565 0.0018776746 0 0.0055010891 0 0)
(-0.010370406 0.0027596487 0 0.0081799652 0 0)
(-0.014793324 0.0042133634 0 0.009909293 0 0)
(-0.017915558 0.003021483 0 0.012101869 0 0)
(-0.00026014459 0.0001241084 0 0.00025501716 0 0)
(-0.00033453237 1.0116538e-005 0 0.00033841935 0 0)
(-0.00032412705 -2.7398086e-005 0 0.00031764387 0 0)
(-0.00026992551 -3.7665369e-005 0 0.00026877564 0 0)
(-0.00022057511 -3.5497219e-005 0 0.00021960164 0 0)
(-0.00018156222 -2.9904793e-005 0 0.00018035476 0 0)
(-0.00015005426 -2.2854557e-005 0 0.00014970035 0 0)
(-0.00012833191 -1.4172277e-005 0 0.00012776874 0 0)
(-0.00011669947 -5.4455376e-006 0 0.0001163249 0 0)
(-0.0001154741 4.8624582e-006 0 0.00011513569 0 0)
(-0.00012724502 1.7149617e-005 0 0.00012679167 0 0)
(-0.0001506558 3.0955006e-005 0 0.00014988915 0 0)
(-0.00019716885 5.157399e-005 0 0.00019611541 0 0)
(-0.00026397045 7.8192262e-005 0 0.00026186567 0 0)
(-0.00036458389 0.00011624807 0 0.00036024296 0 0)
(-0.00052275464 0.00017645731 0 0.00051507445 0 0)
(-0.00074518292 0.00026272285 0 0.00072765825 0 0)
(-0.0010892958 0.00040309255 0 0.0010534944 0 0)
(-0.0016291064 0.0006455489 0 0.0015541449 0 0)
(-0.0024851211 0.0010076789 0 0.0022898415 0 0)
(-0.0039764124 0.0017152152 0 0.0035764468 0 0)
(-0.006335345 0.0026226941 0 0.0051748653 0 0)
(-0.0097373371 0.0038563574 0 0.0076260829 0 0)
(-0.014344039 0.0056389052 0 0.0092931913 0 0)
(-0.016491961 0.004102137 0 0.011362729 0 0)
(-0.00026271169 0.00015986403 0 0.00025738372 0 0)
(-0.0003379217 1.2285648e-005 0 0.00034159224 0 0)
(-0.00032693761 -3.5994254e-005 0 0.00032056825 0 0)
(-0.00027092297 -4.9083442e-005 0 0.00026960979 0 0)
(-0.00022000335 -4.6070115e-005 0 0.00021907261 0 0)
(-0.00017993459 -3.8632159e-005 0 0.00017870845 0 0)
(-0.00014790236 -2.9467054e-005 0 0.00014755575 0 0)
(-0.00012581675 -1.822743e-005 0 0.00012526767 0 0)
(-0.00011394941 -7.0425333e-006 0 0.00011359053 0 0)
(-0.00011232966 6.1982712e-006 0 0.00011200967 0 0)
(-0.00012335773 2.1747883e-005 0 0.00012293456 0 0)
(-0.00014579403 3.9348867e-005 0 0.00014503639 0 0)
(-0.00019047082 6.5570068e-005 0 0.00018942797 0 0)
(-0.0002545452 9.9274102e-005 0 0.00025249132 0 0)
(-0.00035064388 0.00014745133 0 0.00034634514 0 0)
(-0.00050142035 0.0002233542 0 0.0004938434 0 0)
(-0.00071252054 0.00033183857 0 0.00069520889 0 0)
(-0.0010368122 0.00050697798 0 0.0010012978 0 0)
(-0.0015418237 0.00081162459 0 0.0014681382 0 0)
(-0.002342524 0.0012739725 0 0.0021471752 0 0)
(-0.0037021762 0.0021796514 0 0.0033071451 0 0)
(-0.0059421012 0.0032538337 0 0.0047854869 0 0)
(-0.008925016 0.0048872783 0 0.0068981325 0 0)
(-0.013529058 0.0071199832 0 0.0084143999 0 0)
(-0.01536194 0.0050237355 0 0.010799568 0 0)
(-0.00026627718 0.00019580917 0 0.00026055884 0 0)
(-0.00034216638 1.4144728e-005 0 0.00034571272 0 0)
(-0.00033041148 -4.5035502e-005 0 0.00032408132 0 0)
(-0.00027207588 -6.0970083e-005 0 0.00027060177 0 0)
(-0.00021914589 -5.6910733e-005 0 0.00021825185 0 0)
(-0.00017786052 -4.7459432e-005 0 0.00017661965 0 0)
(-0.00014519474 -3.6078361e-005 0 0.00014485248 0 0)
(-0.00012266004 -2.2227392e-005 0 0.00012213184 0 0)
(-0.00011052148 -8.5934465e-006 0 0.00011018206 0 0)
(-0.00010839461 7.4554284e-006 0 0.00010809464 0 0)
(-0.00011863741 2.6297309e-005 0 0.00011822801 0 0)
(-0.00013985122 4.7527355e-005 0 0.00013912728 0 0)
(-0.00018212043 7.8951322e-005 0 0.00018111897 0 0)
(-0.00024294418 0.00011943574 0 0.00024095249 0 0)
(-0.00033396201 0.00017685984 0 0.00032971012 0 0)
(-0.00047549721 0.0002675172 0 0.00046803001 0 0)
(-0.00067295486 0.00039677393 0 0.0006559162 0 0)
(-0.00097263411 0.00060393483 0 0.00093731397 0 0)
(-0.0014339323 0.00096729786 0 0.0013614304 0 0)
(-0.0021694901 0.0015106911 0 0.0019763498 0 0)
(-0.0033910459 0.0025649379 0 0.003002227 0 0)
(-0.0053914564 0.0039180463 0 0.0042509477 0 0)
(-0.0079088239 0.0058655436 0 0.0059630785 0 0)
(-0.012523049 0.0085247069 0 0.0073420255 0 0)
(-0.012931925 0.0057069189 0 0.0094526465 0 0)
(-0.00027090359 0.00023172202 0 0.00026483503 0 0)
(-0.00034727557 1.5648477e-005 0 0.0003504948 0 0)
(-0.00033453684 -5.4512095e-005 0 0.00032831891 0 0)
(-0.0002733317 -7.3390862e-005 0 0.00027166406 0 0)
(-0.00021799834 -6.8029425e-005 0 0.00021713271 0 0)
(-0.0001752936 -5.6359819e-005 0 0.00017403796 0 0)
(-0.00014189156 -4.2693609e-005 0 0.00014155093 0 0)
(-0.000118872 -2.6142454e-005 0 0.0001183625 0 0)
(-0.00010642746 -1.0086993e-005 0 0.00010611308 0 0)
(-0.00010373211 8.7060669e-006 0 0.00010344278 0 0)
(-0.00011307018 3.076544e-005 0 0.0001126776 0 0)
(-0.00013285519 5.5331328e-005 0 0.0001321729 0 0)
(-0.00017227928 9.1671875e-005 0 0.00017130998 0 0)
(-0.00022936994 0.00013861319 0 0.00022739717 0 0)
(-0.00031417281 0.0002048223 0 0.00030991505 0 0)
(-0.00044540144 0.00030898112 0 0.00043797796 0 0)
(-0.00062706096 0.00045648022 0 0.00061025625 0 0)
(-0.0008990719 0.00069123908 0 0.00086440501 0 0)
(-0.0013132652 0.001102965 0 0.0012421053 0 0)
(-0.0019603717 0.0017251309 0 0.0017703432 0 0)
(-0.0029872323 0.0029369514 0 0.0026031219 0 0)
(-0.0048138954 0.0044118279 0 0.0036885312 0 0)
(-0.0066515762 0.0067827463 0 0.0047988733 0 0)
(-0.011635818 0.0093678317 0 0.0063933496 0 0)
(-0.0093747158 0.0069086969 0 0.006723934 0 0)
(-0.00027681614 0.00026827712 0 0.00027061629 0 0)
(-0.00035308515 1.6813521e-005 0 0.00035564061 0 0)
(-0.00033920307 -6.429857e-005 0 0.00033332715 0 0)
(-0.00027458068 -8.6456123e-005 0 0.00027262526 0 0)
(-0.00021657339 -7.954986e-005 0 0.00021574459 0 0)
(-0.00017219798 -6.5385079e-005 0 0.00017090304 0 0)
(-0.00013798808 -4.925769e-005 0 0.00013764119 0 0)
(-0.00011444365 -2.9996896e-005 0 0.00011394446 0 0)
(-0.00010165661 -1.1618128e-005 0 0.00010134526 0 0)
(-9.8459948e-005 1.0251275e-005 0 9.8186494e-005 0 0)
(-0.00010658965 3.4806723e-005 0 0.0001062405 0 0)
(-0.00012475114 6.2676947e-005 0 0.00012406319 0 0)
(-0.00016117482 0.0001036585 0 0.00016016574 0 0)
(-0.00021401486 0.00015679488 0 0.0002120473 0 0)
(-0.00029184239 0.00023054953 0 0.00028755129 0 0)
(-0.0004115497 0.00034630915 0 0.00040406776 0 0)
(-0.00057565455 0.00051118229 0 0.00055909014 0 0)
(-0.00081479234 0.00077050146 0 0.00078061631 0 0)
(-0.0011723686 0.0012247303 0 0.0011021302 0 0)
(-0.0017316268 0.0019011668 0 0.0015456739 0 0)
(-0.0025304902 0.003231282 0 0.0021564929 0 0)
(-0.0040651242 0.004853063 0 0.0029550468 0 0)
(-0.0051682253 0.0075575311 0 0.0034223322 0 0)
(-0.0098325127 0.010516413 0 0.0046972016 0 0)
(-0.0067617797 0.0077226763 0 0.0045382888 0 0)
(-0.00028438922 0.00030441342 0 0.00027731851 0 0)
(-0.00035945956 1.7962712e-005 0 0.00036257977 0 0)
(-0.00034467224 -7.475183e-005 0 0.00033851804 0 0)
(-0.00027589474 -0.00010053806 0 0.00027361989 0 0)
(-0.0002145864 -9.1679537e-005 0 0.0002138696 0 0)
(-0.0001685552 -7.4718774e-005 0 0.00016720988 0 0)
(-0.00013338272 -5.6009864e-005 0 0.00013306053 0 0)
(-0.00010936437 -3.3921159e-005 0 0.00010888321 0 0)
(-9.6221045e-005 -1.3151795e-005 0 9.5952746e-005 0 0)
(-9.2346171e-005 1.1064922e-005 0 9.2107663e-005 0 0)
(-9.9420575e-005 3.8727088e-005 0 9.908385e-005 0 0)
(-0.00011573803 6.9616775e-005 0 0.00011507635 0 0)
(-0.00014878467 0.00011487666 0 0.00014785792 0 0)
(-0.00019652996 0.0001732047 0 0.00019469156 0 0)
(-0.00026687338 0.00025409134 0 0.00026277522 0 0)
(-0.00037345646 0.00038076374 0 0.00036627101 0 0)
(-0.00051814233 0.00055964182 0 0.0005019248 0 0)
(-0.00072878831 0.00083445468 0 0.00069521776 0 0)
(-0.0010231035 0.0013243202 0 0.00095587364 0 0)
(-0.0014789749 0.0020242387 0 0.0012961599 0 0)
(-0.00200899 0.0034716671 0 0.0016744832 0 0)
(-0.0032830639 0.0050521035 0 0.0022014817 0 0)
(-0.0032931189 0.0081017008 0 0.0017912961 0 0)
(-0.0072261792 0.011019392 0 0.0025274156 0 0)
(-0.00035322904 0.010496325 0 -0.0020620068 0 0)
(-0.00029407985 0.00034050754 0 0.0002828852 0 0)
(-0.00036626368 1.9541141e-005 0 0.00037461538 0 0)
(-0.00035103734 -8.6563021e-005 0 0.00034247075 0 0)
(-0.00027736877 -0.00011622039 0 0.00027459731 0 0)
(-0.00021170915 -0.00010479733 0 0.00021146324 0 0)
(-0.0001643222 -8.4963647e-005 0 0.00016293753 0 0)
(-0.0001280117 -6.3284998e-005 0 0.00012788468 0 0)
(-0.00010364519 -3.8426364e-005 0 0.00010328338 0 0)
(-9.0091151e-005 -1.5187708e-005 0 8.9972555e-005 0 0)
(-8.568666e-005 1.1652209e-005 0 8.561802e-005 0 0)
(-9.1624021e-005 4.2054906e-005 0 9.1484317e-005 0 0)
(-0.00010559127 7.5205108e-005 0 0.00010518705 0 0)
(-0.00013498609 0.00012436354 0 0.00013435193 0 0)
(-0.00017779751 0.00018785916 0 0.00017629044 0 0)
(-0.00023928208 0.00027443953 0 0.00023559055 0 0)
(-0.00033273191 0.00041087528 0 0.00032631135 0 0)
(-0.00045832419 0.00059946496 0 0.00044234679 0 0)
(-0.00062942942 0.00088837439 0 0.00059598543 0 0)
(-0.00085826677 0.0014081659 0 0.0007954536 0 0)
(-0.0012281175 0.0020887212 0 0.0010397162 0 0)
(-0.0014562156 0.0035987373 0 0.0011666583 0 0)
(-0.0022590661 0.0051210999 0 0.0012178253 0 0)
(-0.0011789153 0.0078855272 0 4.8602279e-005 0 0)
(-0.00312391 0.0099606973 0 -0.00078136476 0 0)
(0.0037457115 0.01083824 0 -0.00766616 0 0)
(-0.015143143 0.00060379741 0 0.009953385 0 0)
(-0.008576269 0.0011022413 0 0.0062862464 0 0)
(-0.0033363152 0.0015728531 0 0.0025350763 0 0)
(-0.0011009013 0.0019232424 0 0.00086920666 0 0)
(-0.00050355897 0.0020992092 0 0.00033316609 0 0)
(-0.00020429849 0.0021645573 0 6.2469283e-005 0 0)
(-0.00014011636 0.0021790244 0 -6.688667e-006 0 0)
(-0.0001192548 0.002179956 0 -2.5643231e-005 0 0)
(-0.00013302218 0.002176463 0 -1.2012972e-005 0 0)
(-0.00013978046 0.002174716 0 -4.6500817e-006 0 0)
(-0.00014409215 0.0021738971 0 -3.1467163e-007 0 0)
(-0.0001446418 0.0021737932 0 2.6676964e-007 0 0)
(-0.00014447168 0.0021738051 0 9.4625202e-008 0 0)
(-0.00014437204 0.0021738158 0 -3.5868102e-009 0 0)
(-0.00014436478 0.0021738149 0 -1.0975915e-008 0 0)
(-0.00014437334 0.0021738154 0 -2.1863561e-009 0 0)
(-0.00014437837 0.0021738137 0 2.8257203e-009 0 0)
(-0.0001443776 0.0021738145 0 1.9172993e-009 0 0)
(-0.0001443754 0.0021738147 0 -2.9162642e-010 0 0)
(-0.00014437559 0.0021738148 0 -9.7279318e-011 0 0)
(-0.00014437587 0.0021738143 0 2.8948246e-010 0 0)
(-0.00014437284 0.002173814 0 -2.2930212e-009 0 0)
(-0.00014437246 0.0021738139 0 -5.6123232e-009 0 0)
(-0.00014436445 0.0021738153 0 -1.0061322e-008 0 0)
(-0.00014435249 0.0021738123 0 -1.2344084e-008 0 0)
(-0.014546382 0.0018504938 0 0.0095243515 0 0)
(-0.0082127943 0.0032896411 0 0.0058976876 0 0)
(-0.0037165015 0.00473366 0 0.0023693903 0 0)
(-0.0018016264 0.0058333094 0 0.0006970645 0 0)
(-0.0015294012 0.0061713164 0 0.00031516431 0 0)
(-0.0013060262 0.006380505 0 6.3505252e-005 0 0)
(-0.0012468066 0.0064278427 0 -8.8497256e-006 0 0)
(-0.0012312668 0.0064299877 0 -2.1220793e-005 0 0)
(-0.0012393656 0.0064218004 0 -1.0517418e-005 0 0)
(-0.0012452236 0.0064165752 0 -2.7180368e-006 0 0)
(-0.0012475576 0.0064151794 0 -1.0882531e-007 0 0)
(-0.0012478633 0.0064149949 0 2.4726628e-007 0 0)
(-0.0012476885 0.00641505 0 6.9565846e-008 0 0)
(-0.0012476134 0.0064150746 0 -4.0424446e-009 0 0)
(-0.001247606 0.0064150744 0 -9.3479228e-009 0 0)
(-0.0012476137 0.0064150706 0 -2.8394362e-010 0 0)
(-0.0012476164 0.0064150712 0 2.1852639e-009 0 0)
(-0.0012476155 0.0064150739 0 1.5054152e-009 0 0)
(-0.0012476137 0.0064150715 0 1.4965705e-010 0 0)
(-0.0012476148 0.006415075 0 7.5296801e-011 0 0)
(-0.0012476143 0.0064150723 0 1.6876927e-010 0 0)
(-0.0012476115 0.0064150707 0 -2.0233835e-009 0 0)
(-0.0012476111 0.0064150718 0 -4.765063e-009 0 0)
(-0.0012476026 0.0064150747 0 -9.6446411e-009 0 0)
(-0.0012475875 0.0064150604 0 -1.0600572e-008 0 0)
(-0.013503648 0.003103282 0 0.0088690117 0 0)
(-0.0073426532 0.0056494424 0 0.0050357221 0 0)
(-0.0045505872 0.0079558332 0 0.0020758342 0 0)
(-0.0034019104 0.0094453261 0 0.00067724557 0 0)
(-0.0032844872 0.010108381 0 0.00018864889 0 0)
(-0.0032404117 0.010349131 0 3.0844309e-005 0 0)
(-0.0032269572 0.01040038 0 -1.0194339e-005 0 0)
(-0.0032188327 0.010401548 0 -1.4778468e-005 0 0)
(-0.0032203705 0.010391038 0 -7.3278578e-006 0 0)
(-0.0032220928 0.010383913 0 -1.6201773e-006 0 0)
(-0.0032229597 0.010382035 0 1.637809e-008 0 0)
(-0.0032229787 0.010381827 0 1.618667e-007 0 0)
(-0.0032228706 0.010381896 0 4.3062286e-008 0 0)
(-0.003222825 0.010381932 0 -5.1165733e-009 0 0)
(-0.0032228218 0.010381933 0 -5.7336059e-009 0 0)
(-0.0032228256 0.010381929 0 -1.5248555e-010 0 0)
(-0.0032228255 0.010381928 0 1.3283314e-009 0 0)
(-0.0032228253 0.010381928 0 9.2863879e-010 0 0)
(-0.0032228271 0.010381931 0 8.2753008e-010 0 0)
(-0.0032228263 0.01038193 0 -1.7252475e-010 0 0)
(-0.0032228256 0.010381933 0 -4.1015842e-010 0 0)
(-0.0032228233 0.010381928 0 -6.6447364e-010 0 0)
(-0.0032228207 0.010381922 0 -3.0969051e-009 0 0)
(-0.0032228153 0.010381928 0 -6.7998436e-009 0 0)
(-0.003222798 0.010381908 0 -5.9206616e-009 0 0)
(-0.011955238 0.0042602863 0 0.0078001676 0 0)
(-0.0064651235 0.0088448094 0 0.0035094217 0 0)
(-0.0055883941 0.010990001 0 0.0017140245 0 0)
(-0.0053719337 0.013000992 0 0.00046062899 0 0)
(-0.0056707618 0.013779725 0 7.6531794e-005 0 0)
(-0.0057560324 0.013985493 0 4.0267395e-006 0 0)
(-0.0057762138 0.014022456 0 -9.4513696e-006 0 0)
(-0.0057739635 0.014020119 0 -7.0781867e-006 0 0)
(-0.0057697001 0.014009343 0 -3.0880179e-006 0 0)
(-0.0057672324 0.01400255 0 -4.1962932e-007 0 0)
(-0.0057666752 0.01400082 0 8.5460684e-008 0 0)
(-0.0057664935 0.014000646 0 6.5254495e-008 0 0)
(-0.0057664604 0.014000715 0 1.1645914e-008 0 0)
(-0.0057664532 0.014000751 0 -1.9523212e-009 0 0)
(-0.0057664522 0.014000753 0 -1.2536241e-009 0 0)
(-0.0057664504 0.01400075 0 -1.9341088e-010 0 0)
(-0.0057664505 0.01400075 0 4.4474328e-011 0 0)
(-0.0057664518 0.014000752 0 4.3299802e-010 0 0)
(-0.0057664519 0.014000751 0 5.5586376e-010 0 0)
(-0.0057664506 0.014000753 0 1.1475913e-010 0 0)
(-0.0057664488 0.01400075 0 -3.6993802e-010 0 0)
(-0.0057664509 0.014000751 0 2.8204481e-010 0 0)
(-0.0057664471 0.01400075 0 -1.688395e-009 0 0)
(-0.0057664438 0.014000744 0 -2.7407623e-009 0 0)
(-0.0057664306 0.014000729 0 -1.0562288e-009 0 0)
(-0.0093278612 0.0061344231 0 0.0057786428 0 0)
(-0.0066664755 0.011227582 0 0.0025603754 0 0)
(-0.0070034447 0.014450058 0 0.00094168479 0 0)
(-0.0079151229 0.01652286 0 0.00020341115 0 0)
(-0.0085121956 0.017160291 0 7.5765793e-006 0 0)
(-0.0086535407 0.017305447 0 -1.1446127e-005 0 0)
(-0.0086878005 0.017318218 0 -4.8312171e-006 0 0)
(-0.0086871244 0.017311898 0 8.2011553e-007 0 0)
(-0.0086778768 0.017302673 0 7.4572922e-007 0 0)
(-0.0086724235 0.017297747 0 4.0518201e-007 0 0)
(-0.0086709503 0.017296545 0 4.98225e-008 0 0)
(-0.008670697 0.017296424 0 -3.2317444e-008 0 0)
(-0.0086707414 0.017296469 0 -1.2699259e-008 0 0)
(-0.0086707691 0.017296498 0 3.0232169e-009 0 0)
(-0.0086707686 0.017296503 0 2.5704553e-009 0 0)
(-0.008670764 0.017296502 0 -3.7650187e-010 0 0)
(-0.0086707616 0.017296501 0 -1.0339265e-009 0 0)
(-0.0086707632 0.017296502 0 -8.4749125e-011 0 0)
(-0.0086707631 0.017296503 0 3.698597e-010 0 0)
(-0.008670763 0.017296503 0 -7.917959e-011 0 0)
(-0.0086707637 0.017296502 0 -2.1075919e-010 0 0)
(-0.0086707656 0.017296501 0 1.685449e-009 0 0)
(-0.0086707597 0.017296498 0 1.0046194e-009 0 0)
(-0.0086707596 0.017296494 0 8.1716205e-010 0 0)
(-0.008670754 0.017296482 0 2.3823554e-009 0 0)
(-0.0069711556 0.0088708362 0 0.0032740481 0 0)
(-0.0066726416 0.014577545 0 0.00093616477 0 0)
(-0.0093105423 0.018128844 0 0.00016438808 0 0)
(-0.0111073 0.019911922 0 1.6487329e-005 0 0)
(-0.011761741 0.020319615 0 -2.3960232e-005 0 0)
(-0.01188693 0.020386299 0 -9.8901285e-006 0 0)
(-0.011915964 0.020377767 0 4.1601264e-006 0 0)
(-0.011912277 0.020370871 0 7.6767899e-006 0 0)
(-0.011899992 0.020365243 0 3.3405895e-006 0 0)
(-0.011893439 0.020362955 0 7.4698233e-007 0 0)
(-0.011891728 0.020362365 0 -7.1443657e-008 0 0)
(-0.011891537 0.02036227 0 -1.0542371e-007 0 0)
(-0.011891645 0.020362282 0 -2.3453099e-008 0 0)
(-0.011891696 0.020362305 0 8.1383666e-009 0 0)
(-0.011891696 0.020362313 0 4.1945017e-009 0 0)
(-0.01189169 0.020362314 0 -5.4020503e-010 0 0)
(-0.011891688 0.020362314 0 -1.6603284e-009 0 0)
(-0.011891689 0.020362313 0 -4.9010235e-010 0 0)
(-0.01189169 0.020362314 0 3.2378064e-012 0 0)
(-0.01189169 0.020362314 0 6.1073771e-011 0 0)
(-0.011891689 0.020362314 0 4.1168205e-010 0 0)
(-0.011891691 0.020362312 0 2.2534098e-009 0 0)
(-0.011891688 0.02036231 0 3.094734e-009 0 0)
(-0.01189169 0.020362306 0 4.524282e-009 0 0)
(-0.011891694 0.020362295 0 5.254309e-009 0 0)
(-0.005805518 0.011229555 0 0.0010273617 0 0)
(-0.0083311443 0.018998667 0 -0.00075470069 0 0)
(-0.013209205 0.022029572 0 -0.00033784245 0 0)
(-0.01492683 0.023165667 0 -9.1864289e-005 0 0)
(-0.015460452 0.023322941 0 -2.2817128e-005 0 0)
(-0.015525463 0.02332694 0 4.2329241e-006 0 0)
(-0.015543299 0.023311461 0 1.4215388e-005 0 0)
(-0.015535212 0.023309582 0 1.1546274e-005 0 0)
(-0.015523728 0.023308972 0 4.1816874e-006 0 0)
(-0.015517912 0.02330905 0 6.2886615e-007 0 0)
(-0.015516504 0.02330888 0 -2.1393832e-007 0 0)
(-0.015516447 0.023308764 0 -1.3930006e-007 0 0)
(-0.015516591 0.023308744 0 -2.1843335e-008 0 0)
(-0.015516651 0.023308765 0 1.0730605e-008 0 0)
(-0.015516651 0.023308775 0 4.009329e-009 0 0)
(-0.015516645 0.023308777 0 -1.0153382e-009 0 0)
(-0.015516643 0.023308776 0 -1.6880487e-009 0 0)
(-0.015516644 0.023308776 0 -8.4902912e-010 0 0)
(-0.015516645 0.023308776 0 -7.4852405e-011 0 0)
(-0.015516644 0.023308775 0 1.7644559e-010 0 0)
(-0.015516645 0.023308775 0 4.5960585e-010 0 0)
(-0.015516647 0.023308775 0 2.0223437e-009 0 0)
(-0.015516648 0.023308773 0 4.6347841e-009 0 0)
(-0.015516653 0.023308769 0 8.2265983e-009 0 0)
(-0.015516663 0.023308764 0 6.9364108e-009 0 0)
(-0.0056066436 0.015696085 0 -0.0021899085 0 0)
(-0.012289693 0.023949825 0 -0.0021576727 0 0)
(-0.018316203 0.025794748 0 -0.00051851639 0 0)
(-0.019327666 0.026271446 0 -0.00011193525 0 0)
(-0.0197012 0.02625809 0 1.5011671e-006 0 0)
(-0.019707513 0.026239984 0 2.0328438e-005 0 0)
(-0.019722403 0.026235573 0 2.0376354e-005 0 0)
(-0.019715841 0.02624382 0 1.0936044e-005 0 0)
(-0.019709586 0.026247462 0 3.5523094e-006 0 0)
(-0.019705782 0.02624883 0 4.3728816e-007 0 0)
(-0.019704648 0.026248817 0 -2.9769716e-007 0 0)
(-0.019704673 0.02624865 0 -1.352399e-007 0 0)
(-0.019704825 0.026248613 0 -1.4608879e-008 0 0)
(-0.019704882 0.026248632 0 1.0054327e-008 0 0)
(-0.019704882 0.026248642 0 2.6692802e-009 0 0)
(-0.019704877 0.026248644 0 -1.2386341e-009 0 0)
(-0.019704876 0.026248642 0 -1.4609743e-009 0 0)
(-0.019704876 0.026248642 0 -8.3612327e-010 0 0)
(-0.019704876 0.026248641 0 -1.0379838e-010 0 0)
(-0.019704876 0.026248641 0 1.6972277e-010 0 0)
(-0.019704877 0.026248641 0 2.832225e-010 0 0)
(-0.019704879 0.026248641 0 1.2615221e-009 0 0)
(-0.019704883 0.026248641 0 5.4334745e-009 0 0)
(-0.019704891 0.026248639 0 1.0648214e-008 0 0)
(-0.019704904 0.026248641 0 7.4798421e-009 0 0)
(-0.010394264 0.024301317 0 -0.0055762547 0 0)
(-0.019350985 0.029415412 0 -0.0030982626 0 0)
(-0.024289607 0.029398223 0 -0.00046642579 0 0)
(-0.024284819 0.029283949 0 -0.00010317355 0 0)
(-0.024501723 0.029198409 0 3.5370308e-005 0 0)
(-0.024499268 0.029206408 0 2.7575695e-005 0 0)
(-0.024535767 0.02922427 0 2.05929e-005 0 0)
(-0.02453788 0.029242139 0 7.8675443e-006 0 0)
(-0.024538401 0.029248482 0 2.2433143e-006 0 0)
(-0.02453614 0.029250028 0 -8.9535644e-008 0 0)
(-0.024535557 0.029249755 0 -2.7961609e-007 0 0)
(-0.024535538 0.029249519 0 -1.0291177e-007 0 0)
(-0.024535665 0.029249475 0 -4.9502247e-009 0 0)
(-0.024535704 0.029249493 0 6.3508837e-009 0 0)
(-0.024535705 0.029249501 0 1.141606e-009 0 0)
(-0.024535701 0.029249501 0 -1.1649656e-009 0 0)
(-0.0245357 0.029249499 0 -9.8092256e-010 0 0)
(-0.024535699 0.029249499 0 -6.1615141e-010 0 0)
(-0.024535699 0.029249498 0 -1.1993224e-010 0 0)
(-0.024535699 0.029249498 0 1.1170262e-010 0 0)
(-0.0245357 0.029249498 0 9.6755415e-011 0 0)
(-0.024535701 0.029249498 0 7.1804374e-010 0 0)
(-0.024535706 0.029249499 0 4.4135177e-009 0 0)
(-0.024535719 0.029249502 0 8.8384106e-009 0 0)
(-0.024535739 0.029249517 0 5.3785751e-009 0 0)
(-0.031936575 0.040875222 0 -0.0099362929 0 0)
(-0.028978089 0.03386636 0 -0.0019774645 0 0)
(-0.034694633 0.034654686 0 -0.00023667985 0 0)
(-0.032738101 0.033662456 0 -2.4699946e-005 0 0)
(-0.033481129 0.033912609 0 3.4017492e-005 0 0)
(-0.033390841 0.033903607 0 1.7224066e-005 0 0)
(-0.033520801 0.033971529 0 9.0572385e-006 0 0)
(-0.033523033 0.03398408 0 2.5401625e-006 0 0)
(-0.033535588 0.03399295 0 6.3658792e-007 0 0)
(-0.033532524 0.033992644 0 -2.0194392e-007 0 0)
(-0.03353234 0.033992238 0 -1.4372935e-007 0 0)
(-0.033531956 0.033991865 0 -4.3554284e-008 0 0)
(-0.033532059 0.033991851 0 -7.4654274e-010 0 0)
(-0.033532064 0.033991857 0 1.8485708e-009 0 0)
(-0.033532071 0.033991863 0 1.5206091e-010 0 0)
(-0.033532066 0.033991861 0 -5.251201e-010 0 0)
(-0.033532064 0.033991859 0 -3.6074163e-010 0 0)
(-0.033532062 0.033991858 0 -2.6032474e-010 0 0)
(-0.033532061 0.033991858 0 -1.5685975e-011 0 0)
(-0.033532062 0.033991858 0 5.5064758e-011 0 0)
(-0.033532063 0.033991858 0 -5.9605821e-011 0 0)
(-0.033532063 0.033991859 0 2.5393826e-010 0 0)
(-0.033532065 0.03399186 0 2.8308135e-009 0 0)
(-0.03353207 0.033991865 0 3.9719913e-009 0 0)
(-0.03353209 0.033991893 0 1.4271148e-009 0 0)
(-0.00031694128 0.00041667517 0 0.00029766599 0 0)
(-0.00038201029 1.8812025e-005 0 0.00040485441 0 0)
(-0.00036522963 -0.00011918959 0 0.00035333705 0 0)
(-0.00027957623 -0.00015217376 0 0.00027410028 0 0)
(-0.00020529271 -0.00013624281 0 0.00020526199 0 0)
(-0.00015460147 -0.00010884043 0 0.0001519141 0 0)
(-0.00011615193 -8.0766405e-005 0 0.00011528606 0 0)
(-9.0862714e-005 -4.9866295e-005 0 8.9828191e-005 0 0)
(-7.6959168e-005 -2.2169198e-005 0 7.6292051e-005 0 0)
(-7.1189095e-005 8.8916659e-006 0 7.053014e-005 0 0)
(-7.4539064e-005 4.4779111e-005 0 7.3824728e-005 0 0)
(-8.435195e-005 8.1947763e-005 0 8.3276382e-005 0 0)
(-0.00010658889 0.0001384031 0 0.00010530729 0 0)
(-0.00013810436 0.00020851582 0 0.00013568684 0 0)
(-0.00018340477 0.00030341307 0 0.00017794974 0 0)
(-0.00024990475 0.00045385286 0 0.00024228338 0 0)
(-0.00033175659 0.00065833156 0 0.000315108 0 0)
(-0.00043969792 0.00095222071 0 0.00040465601 0 0)
(-0.0005592138 0.0014953704 0 0.00050437701 0 0)
(-0.00070384663 0.002166842 0 0.00053577412 0 0)
(-0.00067429165 0.003574439 0 0.00042988251 0 0)
(-0.00068150295 0.0049164247 0 -0.00017881207 0 0)
(0.0010440627 0.0070626033 0 -0.0017066395 0 0)
(0.0017226305 0.0074746762 0 -0.0040583456 0 0)
(0.0098298295 0.0062060171 0 -0.012467135 0 0)
(-0.00036851143 0.00054192009 0 0.00033956067 0 0)
(-0.00042811747 4.8971918e-007 0 0.00045902876 0 0)
(-0.00039424826 -0.00019255416 0 0.00037798813 0 0)
(-0.00027965665 -0.00022403688 0 0.00027100824 0 0)
(-0.00018881209 -0.00019684754 0 0.00018939974 0 0)
(-0.00013123873 -0.00015512049 0 0.00012857306 0 0)
(-9.1504714e-005 -0.00011562737 0 9.0915298e-005 0 0)
(-6.5683027e-005 -7.5251839e-005 0 6.5321911e-005 0 0)
(-5.1649407e-005 -3.970719e-005 0 5.1430909e-005 0 0)
(-4.4827785e-005 -2.602432e-006 0 4.4498788e-005 0 0)
(-4.3433694e-005 3.6342129e-005 0 4.360745e-005 0 0)
(-4.6939844e-005 7.9206606e-005 0 4.644331e-005 0 0)
(-5.6292699e-005 0.0001402976 0 5.5691685e-005 0 0)
(-7.0815745e-005 0.00022299429 0 7.0176645e-005 0 0)
(-8.8567374e-005 0.00032074219 0 8.4649965e-005 0 0)
(-0.00011272629 0.00047623857 0 0.0001065439 0 0)
(-0.00013331521 0.00069181703 0 0.00012173286 0 0)
(-0.000153123 0.0009766364 0 0.00012222804 0 0)
(-0.00011496779 0.0014776914 0 6.6674701e-005 0 0)
(-3.5068151e-005 0.002084761 0 -0.00010566581 0 0)
(0.00037599123 0.0031105094 0 -0.0006070566 0 0)
(0.00095609416 0.0038624802 0 -0.00163942 0 0)
(0.0029518957 0.0044019336 0 -0.0036495715 0 0)
(0.0051128048 0.0018499024 0 -0.007206344 0 0)
(0.0063703844 -0.0020522451 0 -0.0094617609 0 0)
(-0.00046577516 0.0006714483 0 0.00042932324 0 0)
(-0.00050512814 -5.2304905e-005 0 0.00053988881 0 0)
(-0.00043172203 -0.00030510059 0 0.00041012061 0 0)
(-0.0002708122 -0.00032677547 0 0.00025929838 0 0)
(-0.00015932762 -0.00027761122 0 0.00015924734 0 0)
(-9.6651628e-005 -0.00021446184 0 9.3639055e-005 0 0)
(-5.8532883e-005 -0.00016128017 0 5.7488425e-005 0 0)
(-3.473113e-005 -0.00011089458 0 3.4424399e-005 0 0)
(-2.1859462e-005 -6.7277209e-005 0 2.1425035e-005 0 0)
(-1.4429093e-005 -2.8971049e-005 0 1.4229693e-005 0 0)
(-9.3738089e-006 1.4721905e-005 0 9.7996607e-006 0 0)
(-6.420948e-006 6.2103437e-005 0 6.3293511e-006 0 0)
(-4.0372075e-006 0.00012198244 0 3.0164376e-006 0 0)
(7.9500738e-007 0.00020558365 0 -1.291833e-006 0 0)
(8.7533874e-006 0.00030683386 0 -1.0951344e-005 0 0)
(2.3126299e-005 0.00044762896 0 -2.9295656e-005 0 0)
(5.9168842e-005 0.00066211723 0 -6.8652653e-005 0 0)
(0.00011260512 0.00091747163 0 -0.00013914256 0 0)
(0.00025341395 0.0013485047 0 -0.00029464006 0 0)
(0.00047612559 0.0018500898 0 -0.00058371614 0 0)
(0.0010308436 0.002586726 0 -0.0012045732 0 0)
(0.0018499475 0.0030103238 0 -0.0022569248 0 0)
(0.0033586695 0.0029099237 0 -0.003726261 0 0)
(0.0046745149 0.00060931929 0 -0.0054181618 0 0)
(0.0036627774 -0.0037690543 0 -0.004098585 0 0)
(-0.0006555122 0.00081856803 0 0.00060551505 0 0)
(-0.00061618238 -0.00014552943 0 0.00065783861 0 0)
(-0.00046669177 -0.00044400581 0 0.00043469599 0 0)
(-0.00024151586 -0.00043326117 0 0.00022720411 0 0)