/*--------------------------------*- C++ -*----------------------------------*\
| =========                 |                                                 |
| \\      /  F ield         | OpenFOAM: The Open Source CFD Toolbox           |
|  \\    /   O peration     | Version:  5.x                                   |
|   \\  /    A nd           | Web:      www.OpenFOAM.org                      |
|    \\/     M anipulation  |                                                 |
\*---------------------------------------------------------------------------*/
/*   Windows 32 and 64 bit porting by blueCAPE: http://www.bluecape.com.pt   *\
|  Based on Windows porting (2.0.x v4) by Symscape: http://www.symscape.com   |
\*---------------------------------------------------------------------------*/
FoamFile
{
    version     2.0;
    format      ascii;
    class       volSymmTensorField;
    location    "0.13";
    object      sigma_0;
}
// * * * * * * * * * * * * * * * * * * * * * * * * * * * * * * * * * * * * * //

dimensions      [0 2 -2 0 0 0 0];

internalField   nonuniform List<symmTensor> 
750
(
(-0.00025580156 1.7604901e-005 0 0.00025273633 0 0)
(-0.00032969775 1.4964532e-006 0 0.0003306017 0 0)
(-0.00031891057 -3.6740683e-006 0 0.00031426338 0 0)
(-0.00026758295 -5.3699499e-006 0 0.00026613348 0 0)
(-0.00022141042 -5.0146493e-006 0 0.00022047198 0 0)
(-0.00018327728 -4.2999447e-006 0 0.00018217834 0 0)
(-0.00015303294 -3.3120213e-006 0 0.00015265483 0 0)
(-0.00013184172 -2.084286e-006 0 0.0001313182 0 0)
(-0.00012072609 -8.5236507e-007 0 0.00012036607 0 0)
(-0.00012017071 6.3049045e-007 0 0.00011983006 0 0)
(-0.00013299943 2.4301557e-006 0 0.00013255743 0 0)
(-0.00015814765 4.4219093e-006 0 0.00015739434 0 0)
(-0.00020725149 7.4064881e-006 0 0.00020619231 0 0)
(-0.00027840032 1.1347949e-005 0 0.00027634387 0 0)
(-0.00038601 1.6875386e-005 0 0.00038177057 0 0)
(-0.00055463933 2.5799639e-005 0 0.00054696284 0 0)
(-0.00079628698 3.8678026e-005 0 0.00077897411 0 0)
(-0.0011703086 5.9341125e-005 0 0.0011344807 0 0)
(-0.0017604991 9.6354191e-005 0 0.0016849252 0 0)
(-0.0027042264 0.00015059942 0 0.0025110895 0 0)
(-0.0043383212 0.00025489174 0 0.0039334067 0 0)
(-0.0070330506 0.00039473743 0 0.0058784111 0 0)
(-0.010951532 0.00055974141 0 0.0086516064 0 0)
(-0.015481336 0.00084365728 0 0.010795088 0 0)
(-0.019619901 0.00061243951 0 0.012839166 0 0)
(-0.00025675563 5.2862544e-005 0 0.00025232162 0 0)
(-0.00033001075 4.6258491e-006 0 0.00033335974 0 0)
(-0.00031983489 -1.1192441e-005 0 0.00031374464 0 0)
(-0.00026801004 -1.5918482e-005 0 0.00026695866 0 0)
(-0.00022080432 -1.4956827e-005 0 0.00021979253 0 0)
(-0.00018317911 -1.2738295e-005 0 0.00018200005 0 0)
(-0.00015247947 -9.7514367e-006 0 0.00015207012 0 0)
(-0.00013127476 -6.0631417e-006 0 0.00013067611 0 0)
(-0.0001200222 -2.328799e-006 0 0.00011959423 0 0)
(-0.00011936573 2.0956169e-006 0 0.0001189664 0 0)
(-0.00013203824 7.4695652e-006 0 0.00013151238 0 0)
(-0.00015684857 1.3442955e-005 0 0.00015599324 0 0)
(-0.00020560155 2.2382892e-005 0 0.0002044422 0 0)
(-0.0002758722 3.4057154e-005 0 0.00027362691 0 0)
(-0.00038230349 5.0608304e-005 0 0.00037775283 0 0)
(-0.00054952427 7.7125739e-005 0 0.00054145546 0 0)
(-0.00078725969 0.00011506701 0 0.00076916375 0 0)
(-0.0011566835 0.0001766453 0 0.0011198121 0 0)
(-0.0017392962 0.00028477438 0 0.0016623803 0 0)
(-0.0026632014 0.00043912851 0 0.0024657789 0 0)
(-0.0042846129 0.0007733859 0 0.003879255 0 0)
(-0.0068914254 0.0011380594 0 0.0057187712 0 0)
(-0.010775922 0.0016810596 0 0.0085138682 0 0)
(-0.015193379 0.0025227544 0 0.01043683 0 0)
(-0.019110938 0.00183746 0 0.012634117 0 0)
(-0.00025797247 8.8367405e-005 0 0.00025295282 0 0)
(-0.00033149938 7.5529587e-006 0 0.00033557983 0 0)
(-0.00032131347 -1.9068422e-005 0 0.00031471571 0 0)
(-0.0002686018 -2.6560828e-005 0 0.00026759268 0 0)
(-0.00022048113 -2.5047505e-005 0 0.00021947671 0 0)
(-0.00018244335 -2.1187069e-005 0 0.00018125531 0 0)
(-0.00015141281 -1.6189205e-005 0 0.00015104857 0 0)
(-0.00013003436 -1.0018257e-005 0 0.0001294639 0 0)
(-0.00011864133 -3.7863138e-006 0 0.00011825471 0 0)
(-0.00011776915 3.5730504e-006 0 0.00011741737 0 0)
(-0.00013014314 1.2467325e-005 0 0.00012967009 0 0)
(-0.00015430056 2.2366258e-005 0 0.00015352764 0 0)
(-0.00020219775 3.719826e-005 0 0.00020114309 0 0)
(-0.0002710726 5.6431257e-005 0 0.00026894759 0 0)
(-0.00037511048 8.3860133e-005 0 0.00037074172 0 0)
(-0.00053890438 0.00012747567 0 0.00053116341 0 0)
(-0.00077015187 0.00018991231 0 0.00075252181 0 0)
(-0.0011296049 0.00029140553 0 0.0010936145 0 0)
(-0.0016956806 0.00046765116 0 0.0016202025 0 0)
(-0.0025864568 0.00073724047 0 0.0023901049 0 0)
(-0.0041639439 0.0012489238 0 0.0037650498 0 0)
(-0.0066627406 0.0018770044 0 0.0054994015 0 0)
(-0.010369053 0.0027589109 0 0.0081797382 0 0)
(-0.014793814 0.0042125107 0 0.009910568 0 0)
(-0.017919766 0.0030210586 0 0.0121049 0 0)
(-0.00025972853 0.00012393637 0 0.00025464328 0 0)
(-0.0003340141 1.0082578e-005 0 0.00033785335 0 0)
(-0.00032346933 -2.7354515e-005 0 0.0003170322 0 0)
(-0.00026939405 -3.758132e-005 0 0.00026823118 0 0)
(-0.00022014223 -3.5412042e-005 0 0.00021918488 0 0)
(-0.00018124292 -2.9824729e-005 0 0.00018003286 0 0)
(-0.00014980413 -2.2789367e-005 0 0.0001494551 0 0)
(-0.00012816369 -1.4124154e-005 0 0.00012760036 0 0)
(-0.00011657274 -5.4053494e-006 0 0.00011619981 0 0)
(-0.00011538226 4.8822571e-006 0 0.00011504397 0 0)
(-0.00012719122 1.7172123e-005 0 0.00012673862 0 0)
(-0.00015060804 3.0962033e-005 0 0.00014984198 0 0)
(-0.00019711967 5.1568189e-005 0 0.00019606625 0 0)
(-0.00026392627 7.8179185e-005 0 0.00026182332 0 0)
(-0.00036450899 0.00011621427 0 0.00036016985 0 0)
(-0.00052263475 0.00017639718 0 0.00051495987 0 0)
(-0.0007450001 0.00026262324 0 0.00072748725 0 0)
(-0.0010889497 0.00040289788 0 0.0010531769 0 0)
(-0.0016284955 0.00064520337 0 0.001553609 0 0)
(-0.0024838612 0.0010070943 0 0.0022887774 0 0)
(-0.0039745551 0.0017144504 0 0.0035750672 0 0)
(-0.0063330115 0.002622022 0 0.0051734015 0 0)
(-0.0097363186 0.003855519 0 0.0076260568 0 0)
(-0.014344121 0.0056390728 0 0.0092939477 0 0)
(-0.016493358 0.004101434 0 0.01136414 0 0)
(-0.0002622818 0.00015963939 0 0.00025699754 0 0)
(-0.00033739736 1.2239543e-005 0 0.00034101966 0 0)
(-0.00032627511 -3.5939171e-005 0 0.00031995219 0 0)
(-0.00027039029 -4.897599e-005 0 0.00026906455 0 0)
(-0.00021957071 -4.5960792e-005 0 0.00021865586 0 0)
(-0.00017962167 -3.8531366e-005 0 0.00017839312 0 0)
(-0.00014765552 -2.9384687e-005 0 0.00014731371 0 0)
(-0.0001256523 -1.8167517e-005 0 0.00012510309 0 0)
(-0.00011382589 -6.9926945e-006 0 0.00011346861 0 0)
(-0.00011224127 6.2218632e-006 0 0.00011192146 0 0)
(-0.00012330534 2.1774239e-005 0 0.00012288272 0 0)
(-0.00014575029 3.9357332e-005 0 0.0001449931 0 0)
(-0.00019042498 6.5561393e-005 0 0.00018938226 0 0)
(-0.00025450453 9.9255714e-005 0 0.00025245257 0 0)
(-0.00035057688 0.00014740727 0 0.0003462799 0 0)
(-0.00050131018 0.0002232766 0 0.00049373823 0 0)
(-0.00071235432 0.00033171247 0 0.00069505473 0 0)
(-0.0010364884 0.00050673825 0 0.0010010021 0 0)
(-0.0015412546 0.00081119824 0 0.0014676413 0 0)
(-0.0023413877 0.0012732522 0 0.002146232 0 0)
(-0.0037005316 0.0021788099 0 0.0033059436 0 0)
(-0.0059406004 0.0032525179 0 0.0047847155 0 0)
(-0.0089243064 0.00488659 0 0.0068982551 0 0)
(-0.013529918 0.0071192854 0 0.0084155237 0 0)
(-0.015361997 0.0050223316 0 0.010800435 0 0)
(-0.00026583126 0.00019553117 0 0.00026015839 0 0)
(-0.00034163456 1.4084614e-005 0 0.00034513254 0 0)
(-0.00032974235 -4.4968711e-005 0 0.0003234589 0 0)
(-0.00027154173 -6.0838894e-005 0 0.00027005584 0 0)
(-0.00021871544 -5.6777707e-005 0 0.00021783672 0 0)
(-0.00017755344 -4.733822e-005 0 0.00017631044 0 0)
(-0.00014495222 -3.5979533e-005 0 0.0001446146 0 0)
(-0.00012250041 -2.215653e-005 0 0.0001219721 0 0)
(-0.00011040209 -8.5344571e-006 0 0.00011006424 0 0)
(-0.00010831012 7.4815378e-006 0 0.00010801009 0 0)
(-0.00011858865 2.6328368e-005 0 0.00011817975 0 0)
(-0.00013981045 4.7535578e-005 0 0.00013908719 0 0)
(-0.00018207859 7.8938536e-005 0 0.00018107723 0 0)
(-0.00024290856 0.00011941214 0 0.00024091855 0 0)
(-0.00033390338 0.00017680841 0 0.00032965343 0 0)
(-0.00047539848 0.0002674223 0 0.00046793619 0 0)
(-0.00067280675 0.00039662492 0 0.00065578038 0 0)
(-0.00097234793 0.00060364193 0 0.00093705548 0 0)
(-0.0014334192 0.00096678911 0 0.0013609921 0 0)
(-0.002168504 0.0015098263 0 0.0019755554 0 0)
(-0.0033896863 0.0025639711 0 0.003001308 0 0)
(-0.005390036 0.0039172518 0 0.0042501722 0 0)
(-0.0079089031 0.0058647975 0 0.0059637773 0 0)
(-0.012523686 0.0085245851 0 0.0073427259 0 0)
(-0.012932107 0.0057044794 0 0.0094537401 0 0)
(-0.00027044005 0.00023139116 0 0.00026441853 0 0)
(-0.00034673509 1.5572992e-005 0 0.00034990624 0 0)
(-0.00033385846 -5.4432578e-005 0 0.00032768729 0 0)
(-0.00027279516 -7.3234099e-005 0 0.00027111655 0 0)
(-0.00021757166 -6.7871493e-005 0 0.00021672093 0 0)
(-0.00017499303 -5.6217406e-005 0 0.00017373551 0 0)
(-0.00014165444 -4.2578117e-005 0 0.00014131834 0 0)
(-0.00011871814 -2.6060768e-005 0 0.0001182086 0 0)
(-0.0001063129 -1.001925e-005 0 0.0001059999 0 0)
(-0.00010365243 8.7361945e-006 0 0.00010336309 0 0)
(-0.00011302503 3.0800238e-005 0 0.00011263313 0 0)
(-0.00013281757 5.5339296e-005 0 0.000132136 0 0)
(-0.00017224266 9.1656388e-005 0 0.00017127313 0 0)
(-0.00022934054 0.00013858576 0 0.00022736933 0 0)
(-0.00031412498 0.00020476119 0 0.00030986919 0 0)
(-0.00044531449 0.00030887387 0 0.00043789603 0 0)
(-0.00062693588 0.00045630992 0 0.00061014351 0 0)
(-0.00089881495 0.00069091097 0 0.00086417372 0 0)
(-0.0013128195 0.0011023916 0 0.0012417358 0 0)
(-0.0019594981 0.0017242058 0 0.0017696551 0 0)
(-0.0029861835 0.0029359002 0 0.0026024611 0 0)
(-0.0048129688 0.0044109706 0 0.0036882043 0 0)
(-0.0066519753 0.0067824848 0 0.0047995833 0 0)
(-0.01163738 0.0093671978 0 0.0063947916 0 0)
(-0.0093736196 0.0069057839 0 0.0067243925 0 0)
(-0.00027633291 0.00026789215 0 0.00027018241 0 0)
(-0.00035253664 1.6725287e-005 0 0.00035504236 0 0)
(-0.00033851238 -6.420582e-005 0 0.00033268434 0 0)
(-0.00027404034 -8.6270287e-005 0 0.00027207397 0 0)
(-0.00021615305 -7.9364824e-005 0 0.00021533932 0 0)
(-0.00017190456 -6.5219257e-005 0 0.00017060798 0 0)
(-0.00013775759 -4.9123611e-005 0 0.00013741521 0 0)
(-0.00011429651 -2.9902722e-005 0 0.00011379729 0 0)
(-0.0001015477 -1.1539985e-005 0 0.00010123768 0 0)
(-9.8386612e-005 1.0288365e-005 0 9.8113442e-005 0 0)
(-0.00010654643 3.4842633e-005 0 0.00010619766 0 0)
(-0.00012471974 6.2689115e-005 0 0.00012403215 0 0)
(-0.00016114478 0.00010364298 0 0.00016013543 0 0)
(-0.00021399099 0.00015676391 0 0.00021202509 0 0)
(-0.00029180547 0.00023048523 0 0.0002875164 0 0)
(-0.00041148042 0.0003461862 0 0.00040400265 0 0)
(-0.00057555372 0.00051099637 0 0.00055900187 0 0)
(-0.00081458282 0.0007701361 0 0.00078043343 0 0)
(-0.001171993 0.0012241038 0 0.001101829 0 0)
(-0.0017309448 0.001900167 0 0.0015451755 0 0)
(-0.0025297102 0.0032301865 0 0.0021560398 0 0)
(-0.0040644393 0.0048524188 0 0.0029548643 0 0)
(-0.0051692029 0.007557473 0 0.0034233722 0 0)
(-0.009835073 0.010515658 0 0.0046991394 0 0)
(-0.0067606342 0.0077195068 0 0.0045387693 0 0)
(-0.00028388231 0.00030397285 0 0.00027686848 0 0)
(-0.00035890198 1.7867039e-005 0 0.0003619647 0 0)
(-0.00034396448 -7.4639169e-005 0 0.00033786258 0 0)
(-0.00027535113 -0.00010031721 0 0.00027306521 0 0)
(-0.00021417366 -9.1462086e-005 0 0.00021347193 0 0)
(-0.00016826893 -7.452546e-005 0 0.00016692209 0 0)
(-0.00013316053 -5.5853812e-005 0 0.00013284277 0 0)
(-0.00010922477 -3.3811038e-005 0 0.00010874355 0 0)
(-9.6118491e-005 -1.3059924e-005 0 9.5851561e-005 0 0)
(-9.2279148e-005 1.1109324e-005 0 9.2040521e-005 0 0)
(-9.9383046e-005 3.8773644e-005 0 9.9046314e-005 0 0)
(-0.00011571176 6.9635512e-005 0 0.00011505065 0 0)
(-0.00014875967 0.00011486235 0 0.00014783279 0 0)
(-0.00019651346 0.0001731751 0 0.0001946764 0 0)
(-0.00026684854 0.00025402785 0 0.00026275227 0 0)
(-0.0003734048 0.00038063437 0 0.0003662229 0 0)
(-0.00051806354 0.00055944857 0 0.00050185823 0 0)
(-0.00072862382 0.00083406825 0 0.00069508012 0 0)
(-0.001022805 0.0013236515 0 0.0009556477 0 0)
(-0.0014783746 0.0020232353 0 0.0012957376 0 0)
(-0.0020083683 0.0034705772 0 0.0016741787 0 0)
(-0.003282644 0.0050515428 0 0.0022014825 0 0)
(-0.0032937911 0.0081021395 0 0.0017920797 0 0)
(-0.0072267975 0.011019483 0 0.0025281401 0 0)
(-0.00035189699 0.010493243 0 -0.0020615109 0 0)
(-0.0002935436 0.00034001188 0 0.00028242637 0 0)
(-0.00036569401 1.9446599e-005 0 0.00037396829 0 0)
(-0.00035031163 -8.6423406e-005 0 0.00034180901 0 0)
(-0.00027682264 -0.00011595592 0 0.00027403894 0 0)
(-0.00021130363 -0.00010454207 0 0.00021107335 0 0)
(-0.00016404343 -8.4734634e-005 0 0.00016265599 0 0)
(-0.00012780078 -6.3101471e-005 0 0.00012767786 0 0)
(-0.00010351343 -3.8293423e-005 0 0.0001031511 0 0)
(-8.9996307e-005 -1.5076909e-005 0 8.9878846e-005 0 0)
(-8.5627538e-005 1.1711403e-005 0 8.5557653e-005 0 0)
(-9.1592058e-005 4.2117857e-005 0 9.1452315e-005 0 0)
(-0.00010556867 7.5232915e-005 0 0.00010516507 0 0)
(-0.00013496723 0.0001243575 0 0.00013433241 0 0)
(-0.00017778973 0.00018783972 0 0.00017628372 0 0)
(-0.00023926939 0.00027438283 0 0.00023557901 0 0)
(-0.00033269604 0.00041074751 0 0.00032627795 0 0)
(-0.00045827495 0.00059927488 0 0.00044231101 0 0)
(-0.00062932958 0.00088796023 0 0.00059590331 0 0)
(-0.00085803149 0.0014074883 0 0.00079528993 0 0)
(-0.0012276887 0.0020876706 0 0.0010394534 0 0)
(-0.001455654 0.0035976613 0 0.0011664364 0 0)
(-0.0022589158 0.0051205446 0 0.0012179966 0 0)
(-0.0011797425 0.007885984 0 4.9572096e-005 0 0)
(-0.0031248919 0.0099606814 0 -0.0007800577 0 0)
(0.0037473032 0.010834191 0 -0.0076653445 0 0)
(-0.015149967 0.00060441863 0 0.0099588054 0 0)
(-0.0085846881 0.0011040706 0 0.006293873 0 0)
(-0.0033434319 0.0015768131 0 0.0025420657 0 0)
(-0.0011053976 0.0019288071 0 0.00087354348 0 0)
(-0.00050519834 0.0021053428 0 0.00033447787 0 0)
(-0.00020448139 0.0021708494 0 6.2229399e-005 0 0)
(-0.00014005061 0.0021852371 0 -7.1770758e-006 0 0)
(-0.00011940786 0.0021860966 0 -2.5909891e-005 0 0)
(-0.00013341477 0.0021825598 0 -1.2033279e-005 0 0)
(-0.00014023643 0.0021808051 0 -4.6061223e-006 0 0)
(-0.00014452031 0.0021799933 0 -2.9907709e-007 0 0)
(-0.00014505555 0.0021798921 0 2.6760518e-007 0 0)
(-0.00014488282 0.0021799043 0 9.2875856e-008 0 0)
(-0.0001447841 0.0021799148 0 -4.4188062e-009 0 0)
(-0.00014477766 0.0021799138 0 -1.0980406e-008 0 0)
(-0.00014478631 0.0021799143 0 -2.0961466e-009 0 0)
(-0.00014479127 0.0021799126 0 2.8535874e-009 0 0)
(-0.00014479047 0.0021799134 0 1.9098415e-009 0 0)
(-0.00014478827 0.0021799136 0 -3.0316796e-010 0 0)
(-0.00014478848 0.0021799138 0 -9.4807352e-011 0 0)
(-0.00014478876 0.0021799132 0 2.9679566e-010 0 0)
(-0.00014478571 0.0021799129 0 -2.2970114e-009 0 0)
(-0.00014478533 0.0021799128 0 -5.6352029e-009 0 0)
(-0.00014477712 0.0021799142 0 -1.0251828e-008 0 0)
(-0.00014476509 0.002179911 0 -1.2564821e-008 0 0)
(-0.014551784 0.0018519794 0 0.0095286417 0 0)
(-0.0082194301 0.0032950877 0 0.005903362 0 0)
(-0.003723689 0.004744518 0 0.0023745501 0 0)
(-0.0018077944 0.0058479247 0 0.00070012679 0 0)
(-0.001533941 0.0061875225 0 0.00031636378 0 0)
(-0.0013091458 0.0063971801 0 6.3278366e-005 0 0)
(-0.001249663 0.0064442406 0 -9.2154664e-006 0 0)
(-0.0012342664 0.0064462048 0 -2.1405752e-005 0 0)
(-0.0012425295 0.0064379104 0 -1.0517098e-005 0 0)
(-0.0012484179 0.0064326835 0 -2.689503e-006 0 0)
(-0.0012507381 0.0064313 0 -9.8636333e-008 0 0)
(-0.0012510342 0.0064311208 0 2.4706037e-007 0 0)
(-0.001250858 0.0064311762 0 6.7987721e-008 0 0)
(-0.0012507838 0.0064312003 0 -4.6315686e-009 0 0)
(-0.001250777 0.0064311998 0 -9.3220051e-009 0 0)
(-0.0012507847 0.006431196 0 -2.2387068e-010 0 0)
(-0.0012507874 0.0064311967 0 2.1991003e-009 0 0)
(-0.0012507865 0.0064311994 0 1.502879e-009 0 0)
(-0.0012507846 0.006431197 0 1.4497231e-010 0 0)
(-0.0012507858 0.0064312004 0 7.7555239e-011 0 0)
(-0.0012507853 0.0064311978 0 1.7048956e-010 0 0)
(-0.0012507825 0.0064311962 0 -2.025947e-009 0 0)
(-0.001250782 0.0064311972 0 -4.7805675e-009 0 0)
(-0.0012507734 0.0064312002 0 -9.7595875e-009 0 0)
(-0.0012507582 0.0064311854 0 -1.0733509e-008 0 0)
(-0.013507081 0.0031046773 0 0.0088718709 0 0)
(-0.0073463159 0.005657566 0 0.0050379058 0 0)
(-0.0045578019 0.0079689359 0 0.0020791566 0 0)
(-0.0034092587 0.0094641596 0 0.00067858709 0 0)
(-0.0032917261 0.010129484 0 0.0001889153 0 0)
(-0.0032469104 0.01037037 0 3.0686771e-005 0 0)
(-0.0032331859 0.010421317 0 -1.0387554e-005 0 0)
(-0.0032250796 0.010422273 0 -1.4869589e-005 0 0)
(-0.0032266693 0.010411627 0 -7.3151855e-006 0 0)
(-0.0032284046 0.010404507 0 -1.6024495e-006 0 0)
(-0.0032292666 0.010402645 0 2.1354278e-008 0 0)
(-0.0032292819 0.010402443 0 1.6106662e-007 0 0)
(-0.0032291735 0.010402512 0 4.1967577e-008 0 0)
(-0.0032291286 0.010402548 0 -5.3710724e-009 0 0)
(-0.0032291254 0.010402548 0 -5.7058912e-009 0 0)
(-0.0032291293 0.010402544 0 -1.2149774e-010 0 0)
(-0.0032291292 0.010402543 0 1.3306587e-009 0 0)
(-0.0032291289 0.010402543 0 9.2875886e-010 0 0)
(-0.0032291308 0.010402546 0 8.3305846e-010 0 0)
(-0.00322913 0.010402545 0 -1.762398e-010 0 0)
(-0.0032291292 0.010402548 0 -4.1453504e-010 0 0)
(-0.0032291269 0.010402544 0 -6.6797298e-010 0 0)
(-0.0032291244 0.010402538 0 -3.0937391e-009 0 0)
(-0.0032291189 0.010402543 0 -6.8012871e-009 0 0)
(-0.0032291014 0.010402522 0 -5.9287333e-009 0 0)
(-0.011956043 0.0042612924 0 0.0078009917 0 0)
(-0.0064661006 0.0088528087 0 0.0035087979 0 0)
(-0.0055929985 0.011001402 0 0.0017142752 0 0)
(-0.005378989 0.013018242 0 0.00046029042 0 0)
(-0.0056783201 0.013798587 0 7.6385126e-005 0 0)
(-0.0057633407 0.014004545 0 3.9625055e-006 0 0)
(-0.0057833142 0.014041269 0 -9.4557663e-006 0 0)
(-0.0057809806 0.014038777 0 -7.0708472e-006 0 0)
(-0.0057766679 0.014027897 0 -3.0723874e-006 0 0)
(-0.0057742027 0.014021111 0 -4.1512552e-007 0 0)
(-0.0057736494 0.014019394 0 8.4977902e-008 0 0)
(-0.0057734696 0.014019225 0 6.4352111e-008 0 0)
(-0.005773437 0.014019294 0 1.1306587e-008 0 0)
(-0.0057734298 0.014019329 0 -1.9757647e-009 0 0)
(-0.0057734287 0.014019331 0 -1.2385422e-009 0 0)
(-0.0057734269 0.014019328 0 -1.9531223e-010 0 0)
(-0.005773427 0.014019327 0 3.6808191e-011 0 0)
(-0.0057734283 0.01401933 0 4.3692397e-010 0 0)
(-0.0057734284 0.014019329 0 5.6271184e-010 0 0)
(-0.0057734271 0.014019331 0 1.0973931e-010 0 0)
(-0.0057734253 0.014019328 0 -3.7827596e-010 0 0)
(-0.0057734274 0.014019329 0 2.8612291e-010 0 0)
(-0.0057734236 0.014019328 0 -1.6809799e-009 0 0)
(-0.0057734204 0.014019322 0 -2.62558e-009 0 0)
(-0.005773407 0.014019307 0 -9.4807612e-010 0 0)
(-0.0093253916 0.0061349589 0 0.0057768988 0 0)
(-0.006664705 0.011232279 0 0.0025577496 0 0)
(-0.0070039254 0.014458697 0 0.00093889159 0 0)
(-0.0079181621 0.016533879 0 0.00020180416 0 0)
(-0.0085161414 0.01717198 0 7.0864046e-006 0 0)
(-0.008657759 0.017317203 0 -1.1394483e-005 0 0)
(-0.0086919281 0.017329877 0 -4.6931409e-006 0 0)
(-0.0086911295 0.017323505 0 8.9102746e-007 0 0)
(-0.0086817808 0.017314235 0 7.5445327e-007 0 0)
(-0.0086763248 0.017309314 0 3.9899331e-007 0 0)
(-0.0086748613 0.017308118 0 4.6145516e-008 0 0)
(-0.0086746133 0.017307999 0 -3.2697513e-008 0 0)
(-0.0086746584 0.017308044 0 -1.2341064e-008 0 0)
(-0.0086746856 0.017308073 0 3.154235e-009 0 0)
(-0.0086746848 0.017308078 0 2.5651761e-009 0 0)
(-0.0086746801 0.017308077 0 -4.0640084e-010 0 0)
(-0.0086746778 0.017308076 0 -1.0438153e-009 0 0)
(-0.0086746794 0.017308077 0 -8.0590353e-011 0 0)
(-0.0086746793 0.017308078 0 3.7442922e-010 0 0)
(-0.0086746792 0.017308078 0 -8.4871343e-011 0 0)
(-0.0086746799 0.017308077 0 -2.1496635e-010 0 0)
(-0.0086746818 0.017308075 0 1.6940533e-009 0 0)
(-0.0086746759 0.017308073 0 1.0303033e-009 0 0)
(-0.008674676 0.017308069 0 9.7400066e-010 0 0)
(-0.0086746703 0.017308057 0 2.541368e-009 0 0)
(-0.0069654825 0.0088709422 0 0.0032698868 0 0)
(-0.0066670036 0.014578325 0 0.00093180894 0 0)
(-0.0093061961 0.018131375 0 0.00016060116 0 0)
(-0.01110384 0.019914856 0 1.4349435e-005 0 0)
(-0.011759257 0.020322247 0 -2.4538346e-005 0 0)
(-0.011885057 0.020388887 0 -9.7407969e-006 0 0)
(-0.011914148 0.020380429 0 4.3620673e-006 0 0)
(-0.011910344 0.020373574 0 7.7627515e-006 0 0)
(-0.011897957 0.020367952 0 3.3369795e-006 0 0)
(-0.011891399 0.020365661 0 7.3383448e-007 0 0)
(-0.011889699 0.02036507 0 -7.5671674e-008 0 0)
(-0.011889515 0.020364975 0 -1.0489381e-007 0 0)
(-0.011889623 0.020364986 0 -2.2644097e-008 0 0)
(-0.011889673 0.02036501 0 8.3126757e-009 0 0)
(-0.011889673 0.020365018 0 4.1543978e-009 0 0)
(-0.011889667 0.020365019 0 -5.7254475e-010 0 0)
(-0.011889665 0.020365018 0 -1.6670022e-009 0 0)
(-0.011889666 0.020365018 0 -4.8721068e-010 0 0)
(-0.011889667 0.020365018 0 3.5995877e-012 0 0)
(-0.011889667 0.020365019 0 5.9760566e-011 0 0)
(-0.011889666 0.020365018 0 4.1389759e-010 0 0)
(-0.011889668 0.020365017 0 2.2599551e-009 0 0)
(-0.011889665 0.020365014 0 3.1222273e-009 0 0)
(-0.011889668 0.02036501 0 4.6567307e-009 0 0)
(-0.011889672 0.020365 0 5.3932532e-009 0 0)
(-0.0057995923 0.011227436 0 0.0010236454 0 0)
(-0.0083229147 0.018997486 0 -0.00075971208 0 0)
(-0.013199387 0.022027021 0 -0.0003418477 0 0)
(-0.014916321 0.023161319 0 -9.3892302e-005 0 0)
(-0.015451055 0.023317751 0 -2.3252118e-005 0 0)
(-0.015516819 0.023321694 0 4.4374521e-006 0 0)
(-0.015534813 0.023306408 0 1.4414024e-005 0 0)
(-0.015526621 0.02330463 0 1.1603158e-005 0 0)
(-0.01551506 0.023304037 0 4.1673128e-006 0 0)
(-0.015509237 0.023304104 0 6.1408711e-007 0 0)
(-0.01550784 0.023303927 0 -2.1680067e-007 0 0)
(-0.015507788 0.023303811 0 -1.379592e-007 0 0)
(-0.015507932 0.023303791 0 -2.0908424e-008 0 0)
(-0.015507991 0.023303813 0 1.0864639e-008 0 0)
(-0.015507991 0.023303823 0 3.9458355e-009 0 0)
(-0.015507985 0.023303824 0 -1.0426277e-009 0 0)
(-0.015507983 0.023303824 0 -1.6886651e-009 0 0)
(-0.015507984 0.023303823 0 -8.4876771e-010 0 0)
(-0.015507985 0.023303823 0 -7.4540809e-011 0 0)
(-0.015507984 0.023303822 0 1.7824935e-010 0 0)
(-0.015507985 0.023303822 0 4.6282934e-010 0 0)
(-0.015507987 0.023303822 0 2.0226481e-009 0 0)
(-0.015507988 0.023303821 0 4.6489665e-009 0 0)
(-0.015507993 0.023303816 0 8.2931017e-009 0 0)
(-0.015508003 0.023303812 0 7.0070927e-009 0 0)
(-0.005600502 0.015692845 0 -0.0021931378 0 0)
(-0.012278888 0.023946259 0 -0.0021618744 0 0)
(-0.018301766 0.025788253 0 -0.00052159883 0 0)
(-0.019312064 0.026262457 0 -0.00011338702 0 0)
(-0.01968655 0.026248175 0 1.2787149e-006 0 0)
(-0.019693557 0.026230073 0 2.0533677e-005 0 0)
(-0.01970863 0.026225884 0 2.0526188e-005 0 0)
(-0.019701975 0.026234246 0 1.0959608e-005 0 0)
(-0.019695655 0.026237889 0 3.5367015e-006 0 0)
(-0.019691837 0.02623924 0 4.2362939e-007 0 0)
(-0.019690713 0.026239218 0 -2.9868944e-007 0 0)
(-0.019690743 0.026239052 0 -1.3360443e-007 0 0)
(-0.019690895 0.026239015 0 -1.3818874e-008 0 0)
(-0.019690951 0.026239035 0 1.0107635e-008 0 0)
(-0.019690951 0.026239045 0 2.6025768e-009 0 0)
(-0.019690946 0.026239046 0 -1.2571039e-009 0 0)
(-0.019690944 0.026239045 0 -1.4571232e-009 0 0)
(-0.019690944 0.026239044 0 -8.3629826e-010 0 0)
(-0.019690945 0.026239044 0 -1.0416234e-010 0 0)
(-0.019690945 0.026239044 0 1.724149e-010 0 0)
(-0.019690946 0.026239044 0 2.8410768e-010 0 0)
(-0.019690948 0.026239044 0 1.2604631e-009 0 0)
(-0.019690952 0.026239044 0 5.4235874e-009 0 0)
(-0.01969096 0.026239041 0 1.0638322e-008 0 0)
(-0.019690973 0.026239044 0 7.4747815e-009 0 0)
(-0.010387822 0.024297472 0 -0.0055778746 0 0)
(-0.019336972 0.029409632 0 -0.0031010897 0 0)
(-0.024272043 0.029389346 0 -0.00046826575 0 0)
(-0.024266119 0.029272776 0 -0.00010396445 0 0)
(-0.02448367 0.029186545 0 3.5313136e-005 0 0)
(-0.02448176 0.02919467 0 2.7725345e-005 0 0)
(-0.0245184 0.02921276 0 2.0673717e-005 0 0)
(-0.024520412 0.029230694 0 7.8699215e-006 0 0)
(-0.024520869 0.029237019 0 2.2267584e-006 0 0)
(-0.024518597 0.029238543 0 -9.6428098e-008 0 0)
(-0.02451802 0.029238264 0 -2.7921401e-007 0 0)
(-0.024518005 0.02923803 0 -1.0151063e-007 0 0)
(-0.024518132 0.029237988 0 -4.4584281e-009 0 0)
(-0.02451817 0.029238006 0 6.344805e-009 0 0)
(-0.024518172 0.029238014 0 1.0906022e-009 0 0)
(-0.024518168 0.029238013 0 -1.1737345e-009 0 0)
(-0.024518166 0.029238012 0 -9.7597811e-010 0 0)
(-0.024518166 0.029238011 0 -6.1681924e-010 0 0)
(-0.024518165 0.02923801 0 -1.206115e-010 0 0)
(-0.024518166 0.02923801 0 1.1423847e-010 0 0)
(-0.024518166 0.02923801 0 9.6834374e-011 0 0)
(-0.024518168 0.029238011 0 7.1173999e-010 0 0)
(-0.024518173 0.029238011 0 4.3874215e-009 0 0)
(-0.024518185 0.029238014 0 8.7693249e-009 0 0)
(-0.024518205 0.02923803 0 5.3253216e-009 0 0)
(-0.031926593 0.040869825 0 -0.0099364453 0 0)
(-0.028961916 0.033858456 0 -0.0019784358 0 0)
(-0.034676431 0.034644721 0 -0.0002372911 0 0)
(-0.032717901 0.033650316 0 -2.4903241e-005 0 0)
(-0.033461338 0.033900293 0 3.403471e-005 0 0)
(-0.033371241 0.033891469 0 1.7290215e-005 0 0)
(-0.033501329 0.033959605 0 9.0827223e-006 0 0)
(-0.033503477 0.03397218 0 2.5373793e-006 0 0)
(-0.033515973 0.033981021 0 6.3067458e-007 0 0)
(-0.033512894 0.033980696 0 -2.0381983e-007 0 0)
(-0.033512715 0.033980289 0 -1.4312381e-007 0 0)
(-0.033512336 0.033979919 0 -4.2966124e-008 0 0)
(-0.033512439 0.033979907 0 -5.9477016e-010 0 0)
(-0.033512445 0.033979912 0 1.8283136e-009 0 0)
(-0.033512451 0.033979919 0 1.2994941e-010 0 0)
(-0.033512446 0.033979917 0 -5.2691334e-010 0 0)
(-0.033512444 0.033979915 0 -3.5832296e-010 0 0)
(-0.033512442 0.033979914 0 -2.6134409e-010 0 0)
(-0.033512441 0.033979913 0 -1.6172505e-011 0 0)
(-0.033512442 0.033979913 0 5.6883919e-011 0 0)
(-0.033512443 0.033979914 0 -5.9628994e-011 0 0)
(-0.033512444 0.033979914 0 2.4670966e-010 0 0)
(-0.033512445 0.033979915 0 2.8076066e-009 0 0)
(-0.03351245 0.033979921 0 3.9111882e-009 0 0)
(-0.03351247 0.033979948 0 1.3834935e-009 0 0)
(-0.00031633304 0.00041605542 0 0.00029716919 0 0)
(-0.00038140391 1.8744988e-005 0 0.0004041212 0 0)
(-0.00036446159 -0.00011896117 0 0.0003526501 0 0)
(-0.00027902578 -0.00015179563 0 0.00027353663 0 0)
(-0.0002049061 -0.00013588014 0 0.00020489578 0 0)
(-0.00015434064 -0.00010852028 0 0.00015165046 0 0)
(-0.00011596457 -8.0506856e-005 0 0.00011510478 0 0)
(-9.0751208e-005 -4.9671983e-005 0 8.971676e-005 0 0)
(-7.6880705e-005 -2.2001272e-005 0 7.6215107e-005 0 0)
(-7.1143666e-005 8.9991074e-006 0 7.0484396e-005 0 0)
(-7.4517102e-005 4.4890211e-005 0 7.380337e-005 0 0)
(-8.4341788e-005 8.2020245e-005 0 8.3266863e-005 0 0)
(-0.00010658578 0.00013843449 0 0.00010530184 0 0)
(-0.00013811389 0.00020853441 0 0.00013569695 0 0)
(-0.00018341684 0.00030339921 0 0.00017796504 0 0)
(-0.00024990663 0.00045373923 0 0.0002422845 0 0)
(-0.00033176629 0.00065817052 0 0.00031513327 0 0)
(-0.00043966458 0.0009518447 0 0.00040464569 0 0)
(-0.00055919133 0.0014946703 0 0.00050442242 0 0)
(-0.00070376285 0.0021658239 0 0.00053584579 0 0)
(-0.00067418503 0.0035733933 0 0.00043008188 0 0)
(-0.00068175279 0.0049161026 0 -0.00017832353 0 0)
(0.0010431727 0.0070632296 0 -0.0017056967 0 0)
(0.0017217969 0.0074748447 0 -0.0040572707 0 0)
(0.0098303017 0.0062019531 0 -0.012465753 0 0)
(-0.00036770703 0.00054109939 0 0.00033891397 0 0)
(-0.00042738295 4.9074715e-007 0 0.00045813458 0 0)
(-0.00039338882 -0.00019213506 0 0.00037722953 0 0)
(-0.00027910305 -0.0002234532 0 0.00027044693 0 0)
(-0.00018846279 -0.00019630231 0 0.00018907288 0 0)
(-0.00013103025 -0.00015465236 0 0.00012836096 0 0)
(-9.1364572e-005 -0.00011524044 0 9.0781192e-005 0 0)
(-6.5605244e-005 -7.4937914e-005 0 6.5243188e-005 0 0)
(-5.1613079e-005 -3.9472093e-005 0 5.1395298e-005 0 0)
(-4.4809101e-005 -2.3917151e-006 0 4.4480295e-005 0 0)
(-4.3432494e-005 3.6516692e-005 0 4.360505e-005 0 0)
(-4.69502e-005 7.93538e-005 0 4.6453697e-005 0 0)
(-5.6318179e-005 0.00014042028 0 5.5715092e-005 0 0)
(-7.085204e-005 0.00022306453 0 7.0210071e-005 0 0)
(-8.8619156e-005 0.00032080647 0 8.4706899e-005 0 0)
(-0.00011278952 0.00047619211 0 0.00010660451 0 0)
(-0.00013341877 0.00069171581 0 0.00012183969 0 0)
(-0.00015324896 0.00097637176 0 0.00012237862 0 0)
(-0.00011522244 0.0014770731 0 6.6968674e-005 0 0)
(-3.5426492e-005 0.0020838929 0 -0.00010518514 0 0)
(0.00037529838 0.0031097959 0 -0.00060617591 0 0)
(0.00095525489 0.0038625013 0 -0.0016384128 0 0)
(0.0029510282 0.0044031196 0 -0.0036486342 0 0)
(0.0051125199 0.0018503851 0 -0.0072057301 0 0)
(0.0063703836 -0.0020551248 0 -0.009462252 0 0)
(-0.00046461696 0.00067037541 0 0.00042836292 0 0)
(-0.00050418918 -5.2218852e-005 0 0.00053876954 0 0)
(-0.00043075285 -0.00030450655 0 0.00040927288 0 0)
(-0.0002702705 -0.00032603765 0 0.00025875755 0 0)
(-0.00015905263 -0.0002769685 0 0.00015899485 0 0)
(-9.6522071e-005 -0.00021394771 0 9.3508505e-005 0 0)
(-5.8460519e-005 -0.00016087411 0 5.7421776e-005 0 0)
(-3.4709164e-005 -0.00011059477 0 3.4403107e-005 0 0)
(-2.1859215e-005 -6.7045381e-005 0 2.1426005e-005 0 0)
(-1.4441861e-005 -2.8778035e-005 0 1.4242702e-005 0 0)
(-9.3995558e-006 1.4867522e-005 0 9.8228041e-006 0 0)
(-6.4551651e-006 6.2228411e-005 0 6.3632475e-006 0 0)
(-4.0833304e-006 0.00012205096 0 3.065972e-006 0 0)
(7.2618393e-007 0.00020564822 0 -1.2282285e-006 0 0)
(8.6663228e-006 0.00030687313 0 -1.0863506e-005 0 0)
(2.3009742e-005 0.0004476084 0 -2.9175741e-005 0 0)
(5.8993336e-005 0.00066198003 0 -6.8476475e-005 0 0)
(0.00011235626 0.00091724387 0 -0.00013886957 0 0)
(0.00025298166 0.0013479682 0 -0.00029416007 0 0)
(0.00047542952 0.0018493986 0 -0.00058290928 0 0)
(0.00102984 0.0025862055 0 -0.0012033796 0 0)
(0.0018487614 0.0030106323 0 -0.0022556038 0 0)
(0.0033579672 0.0029111143 0 -0.0037255112 0 0)
(0.0046746257 0.00061004749 0 -0.0054181623 0 0)
(0.0036628707 -0.0037729725 0 -0.004099595 0 0)
(-0.0006538742 0.00081705161 0 0.00060414647 0 0)
(-0.00061508746 -0.00014549673 0 0.00065654459 0 0)
(-0.00046570625 -0.00044350656 0 0.00043385216 0 0)