/*--------------------------------*- C++ -*----------------------------------*\
| =========                 |                                                 |
| \\      /  F ield         | OpenFOAM: The Open Source CFD Toolbox           |
|  \\    /   O peration     | Version:  5.x                                   |
|   \\  /    A nd           | Web:      www.OpenFOAM.org                      |
|    \\/     M anipulation  |                                                 |
\*---------------------------------------------------------------------------*/
/*   Windows 32 and 64 bit porting by blueCAPE: http://www.bluecape.com.pt   *\
|  Based on Windows porting (2.0.x v4) by Symscape: http://www.symscape.com   |
\*---------------------------------------------------------------------------*/
FoamFile
{
    version     2.0;
    format      ascii;
    class       volVectorField;
    location    "0.13";
    object      U;
}
// * * * * * * * * * * * * * * * * * * * * * * * * * * * * * * * * * * * * * //

dimensions      [0 1 -1 0 0 0 0];

internalField   nonuniform List<vector> 
750
(
(0.039176656 -0.00010771236 0)
(0.040089572 -0.0001333469 0)
(0.041272268 -0.00012938661 0)
(0.04218784 -0.00010816236 0)
(0.042991165 -8.9664753e-005 0)
(0.043627276 -7.2283104e-005 0)
(0.044144756 -5.9080844e-005 0)
(0.044571423 -4.9625292e-005 0)
(0.044936929 -4.4170441e-005 0)
(0.045276763 -4.279321e-005 0)
(0.045619455 -4.5884765e-005 0)
(0.046008729 -5.4630828e-005 0)
(0.046491112 -7.0073628e-005 0)
(0.047125182 -9.4676103e-005 0)
(0.048001088 -0.00013261791 0)
(0.049239837 -0.00018933102 0)
(0.051014968 -0.0002750386 0)
(0.053624859 -0.00040606904 0)
(0.057480037 -0.00061268353 0)
(0.063359622 -0.00096539895 0)
(0.072918074 -0.0015183914 0)
(0.087306698 -0.0024197921 0)
(0.11181066 -0.0034766745 0)
(0.14157496 -0.0044850441 0)
(0.18433925 -0.0049189605 0)
(0.039179138 -0.00032186748 0)
(0.040093725 -0.00040384302 0)
(0.041279225 -0.00038635403 0)
(0.042196335 -0.00032531082 0)
(0.042999176 -0.00026875062 0)
(0.043634579 -0.00021659095 0)
(0.044150235 -0.00017684849 0)
(0.044575071 -0.00014849634 0)
(0.044938556 -0.00013208505 0)
(0.045276224 -0.0001279532 0)
(0.045616357 -0.0001371169 0)
(0.046002558 -0.00016318048 0)
(0.046480877 -0.00020930984 0)
(0.047109332 -0.00028274803 0)
(0.047977286 -0.00039587489 0)
(0.049203586 -0.00056503687 0)
(0.05095993 -0.0008203663 0)
(0.053540246 -0.0012105314 0)
(0.057346482 -0.0018260219 0)
(0.063149833 -0.0028739459 0)
(0.072571841 -0.0045272419 0)
(0.086719534 -0.0071650893 0)
(0.11072964 -0.010349222 0)
(0.13967483 -0.013250358 0)
(0.18198822 -0.014738054 0)
(0.039183128 -0.00053604155 0)
(0.040102396 -0.00067717771 0)
(0.041293446 -0.00064279483 0)
(0.042213537 -0.00054309748 0)
(0.04301554 -0.00044749791 0)
(0.043649201 -0.00036047737 0)
(0.044161498 -0.00029397612 0)
(0.044582623 -0.00024669985 0)
(0.044942113 -0.00021925509 0)
(0.045275394 -0.00021231007 0)
(0.045610498 -0.00022734364 0)
(0.045990515 -0.00027048179 0)
(0.0464608 -0.0003468866 0)
(0.047078015 -0.00046843032 0)
(0.047929847 -0.00065555829 0)
(0.049131651 -0.00093529503 0)
(0.050850061 -0.0013571086 0)
(0.053370868 -0.0020012609 0)
(0.05708055 -0.0030182888 0)
(0.062728607 -0.0047434153 0)
(0.071872667 -0.0074731662 0)
(0.085507829 -0.011769211 0)
(0.10861895 -0.017032432 0)
(0.13604152 -0.021756476 0)
(0.17732017 -0.02442285 0)
(0.03918861 -0.00075214034 0)
(0.040115692 -0.00095226027 0)
(0.041315009 -0.0009005751 0)
(0.042239569 -0.00076122062 0)
(0.043040272 -0.00062578543 0)
(0.043671029 -0.0005035833 0)
(0.044178443 -0.00041001572 0)
(0.044593946 -0.00034369895 0)
(0.044947468 -0.00030511451 0)
(0.045274141 -0.00029519298 0)
(0.045601805 -0.00031580723 0)
(0.045972594 -0.00037556648 0)
(0.046430973 -0.00048146963 0)
(0.047031508 -0.00064980792 0)
(0.047859176 -0.00090888568 0)
(0.04902503 -0.0012958358 0)
(0.050687154 -0.0018786385 0)
(0.05311989 -0.0027678361 0)
(0.056688287 -0.0041702308 0)
(0.062096642 -0.0065433268 0)
(0.070818297 -0.010295284 0)
(0.083707888 -0.016161877 0)
(0.10554725 -0.023343238 0)
(0.13077163 -0.029814195 0)
(0.17034805 -0.033762438 0)
(0.039196066 -0.00097105614 0)
(0.040133629 -0.0012295889 0)
(0.041344046 -0.0011603716 0)
(0.042274462 -0.00097967997 0)
(0.043073262 -0.00080348947 0)
(0.043699912 -0.00064551397 0)
(0.04420077 -0.00052453246 0)
(0.04460872 -0.00043899674 0)
(0.044954287 -0.00038914718 0)
(0.045272178 -0.00037601157 0)
(0.045590023 -0.0004018788 0)
(0.045948649 -0.00047759259 0)
(0.046391402 -0.00061188829 0)
(0.046970072 -0.00082525941 0)
(0.04776593 -0.0011535496 0)
(0.048884954 -0.0016430811 0)
(0.050473649 -0.0023792331 0)
(0.052791241 -0.0035011076 0)
(0.056175523 -0.0052670506 0)
(0.061262124 -0.0082486107 0)
(0.069453563 -0.012948154 0)
(0.08131773 -0.020254679 0)
(0.10154634 -0.029170675 0)
(0.1239124 -0.037262659 0)
(0.16115486 -0.042358605 0)
(0.039206116 -0.0011935377 0)
(0.040156223 -0.0015099661 0)
(0.0413807 -0.0014226407 0)
(0.042318339 -0.0011985502 0)
(0.043114472 -0.00098041371 0)
(0.043735719 -0.00078589048 0)
(0.044228232 -0.00063706401 0)
(0.044626692 -0.00053211003 0)
(0.044962323 -0.00047082369 0)
(0.045269218 -0.00045422805 0)
(0.045575079 -0.00048489469 0)
(0.045918688 -0.00057572564 0)
(0.046342126 -0.0007370536 0)
(0.046894007 -0.00099322862 0)
(0.047650714 -0.0013872025 0)
(0.048712593 -0.0019736436 0)
(0.050212082 -0.0028536253 0)
(0.052389496 -0.0041928304 0)
(0.05555065 -0.0062939339 0)
(0.060247429 -0.0098330923 0)
(0.06778254 -0.015385195 0)
(0.078383415 -0.023988089 0)
(0.096665839 -0.034376759 0)
(0.11548696 -0.044038396 0)
(0.15004988 -0.050023217 0)
(0.039219359 -0.0014204955 0)
(0.040183307 -0.001793957 0)
(0.041425036 -0.0016879387 0)
(0.042371505 -0.0014178723 0)
(0.043163983 -0.0011562971 0)
(0.043778363 -0.00092431195 0)
(0.044260619 -0.0007471428 0)
(0.044647651 -0.00062254936 0)
(0.044971379 -0.00054962011 0)
(0.045265059 -0.00052933401 0)
(0.045556892 -0.00056420061 0)
(0.045882805 -0.00066912908 0)
(0.046283269 -0.0008559551 0)
(0.046803694 -0.0011522688 0)
(0.047514565 -0.0016077385 0)
(0.048509615 -0.002284341 0)
(0.049905724 -0.0032969388 0)
(0.05192138 -0.0048348304 0)
(0.054821424 -0.007237511 0)
(0.059069596 -0.0112764 0)
(0.065828131 -0.017555339 0)
(0.074962638 -0.027281593 0)
(0.09099062 -0.038821326 0)
(0.10544282 -0.049884203 0)
(0.13772601 -0.056877917 0)
(0.039237042 -0.0016531905 0)
(0.040214738 -0.0020817835 0)
(0.041477398 -0.0019571109 0)
(0.042434602 -0.0016377298 0)
(0.043222126 -0.0013307559 0)
(0.043828006 -0.0010603424 0)
(0.044297947 -0.00085426484 0)
(0.044671567 -0.00070981003 0)
(0.04498138 -0.0006250481 0)
(0.045260021 -0.00060070235 0)
(0.045535294 -0.00063922994 0)
(0.045841279 -0.00075709913 0)
(0.046215362 -0.00096756061 0)
(0.046700071 -0.0013009 0)
(0.047359142 -0.0018131257 0)
(0.048277921 -0.0025722601 0)
(0.049559122 -0.0037050634 0)
(0.051394852 -0.0054213301 0)
(0.054000973 -0.0080870581 0)
(0.057756634 -0.012554629 0)
(0.063632419 -0.019430476 0)
(0.071105494 -0.030074717 0)
(0.084585641 -0.042406185 0)
(0.09427891 -0.054726192 0)
(0.12440279 -0.061694841 0)
(0.039260316 -0.0018929363 0)
(0.040251441 -0.0023739535 0)
(0.041538549 -0.0022309535 0)
(0.042508702 -0.0018582239 0)
(0.043289654 -0.0015033641 0)
(0.043885208 -0.0011934706 0)
(0.044340591 -0.00095789566 0)
(0.044698775 -0.00079339697 0)
(0.044992679 -0.00069657983 0)
(0.045254436 -0.00066782744 0)
(0.045510852 -0.0007094884 0)
(0.045794903 -0.00083892021 0)
(0.046139581 -0.0010708316 0)
(0.046584411 -0.0014380039 0)
(0.047186755 -0.0020014798 0)
(0.048021067 -0.0028350746 0)
(0.049177522 -0.0040746751 0)
(0.050816948 -0.0059443311 0)
(0.053106122 -0.0088333979 0)
(0.056325282 -0.013653869 0)
(0.061253371 -0.020963522 0)
(0.066916233 -0.032293459 0)
(0.077598177 -0.045055599 0)
(0.082220601 -0.058780335 0)
(0.10985113 -0.064879338 0)
(0.039289191 -0.0021392923 0)
(0.040296262 -0.0026737552 0)
(0.041610098 -0.0025084909 0)
(0.042595628 -0.0020794751 0)
(0.043368162 -0.0016738021 0)
(0.043951028 -0.0013231799 0)
(0.04438955 -0.0010575481 0)
(0.044730155 -0.00087281115 0)
(0.045006301 -0.00076381293 0)
(0.045249217 -0.00073032898 0)
(0.045485206 -0.00077434599 0)
(0.045744884 -0.00091399854 0)
(0.046057647 -0.0011651394 0)
(0.046458743 -0.0015626324 0)
(0.04700032 -0.002171734 0)
(0.04774423 -0.0030709795 0)
(0.048764276 -0.0044026471 0)
(0.050195276 -0.0064023141 0)
(0.052157722 -0.0094716203 0)
(0.054798797 -0.014558362 0)
(0.058751115 -0.022181772 0)
(0.062604885 -0.033893637 0)
(0.070091029 -0.046805927 0)
(0.069015783 -0.061527777 0)
(0.090384797 -0.065192902 0)
(0.21788681 -0.0025978301 0)
(0.22675782 -0.00070635582 0)
(0.22805175 9.2419014e-005 0)
(0.22621348 0.00017137873 0)
(0.22574669 3.2647133e-005 0)
(0.22558632 -3.7572236e-006 0)
(0.22573779 -1.2389614e-005 0)
(0.22577896 -3.5555464e-006 0)
(0.22577771 1.3567934e-006 0)
(0.22575942 1.4109698e-006 0)
(0.22575371 4.0663714e-007 0)
(0.22575406 -9.2199023e-008 0)
(0.22575522 -9.7762925e-008 0)
(0.22575554 -2.2083509e-008 0)
(0.22575551 4.2528977e-009 0)
(0.22575547 2.5684226e-009 0)
(0.22575547 1.1202716e-010 0)
(0.22575547 -5.9568377e-010 0)
(0.22575548 -3.4070854e-010 0)
(0.22575548 8.8817675e-011 0)
(0.22575548 1.0253285e-010 0)
(0.22575548 8.4868026e-010 0)
(0.22575547 2.5331326e-010 0)
(0.22575547 -1.1582726e-008 0)
(0.22575563 -1.1900003e-008 0)
(0.21463357 -0.0075183801 0)
(0.22255391 -0.0021186584 0)
(0.22451817 0.00017306148 0)
(0.22301827 0.00037132171 0)
(0.22257828 0.00014049947 0)
(0.22244128 -5.228917e-006 0)
(0.22255851 -3.2397528e-005 0)
(0.2225831 -8.4268916e-006 0)
(0.22257657 4.213469e-006 0)
(0.22256179 4.1661353e-006 0)
(0.22255765 9.953566e-007 0)
(0.22255837 -3.0178934e-007 0)
(0.22255935 -2.6855582e-007 0)
(0.22255958 -5.3970057e-008 0)
(0.22255955 1.2715696e-008 0)
(0.22255952 7.178982e-009 0)
(0.22255952 -5.6152939e-010 0)
(0.22255952 -1.4546414e-009 0)
(0.22255952 -6.893616e-010 0)
(0.22255952 3.7146023e-010 0)
(0.22255952 6.0588936e-010 0)
(0.22255952 1.6449826e-009 0)
(0.22255952 1.7501044e-010 0)
(0.22255952 -2.8101293e-008 0)
(0.22255962 -2.9442466e-008 0)
(0.20802972 -0.012035971 0)
(0.21422256 -0.003489681 0)
(0.21704962 0.00011513778 0)
(0.21591145 0.00052370662 0)
(0.21563149 0.00022666968 0)
(0.21557475 -8.0405769e-006 0)
(0.21563228 -4.3093432e-005 0)
(0.21562546 -9.3336205e-006 0)
(0.2156131 7.2111306e-006 0)
(0.21560404 6.1406705e-006 0)
(0.21560298 1.2596229e-006 0)
(0.21560403 -5.2652729e-007 0)
(0.21560466 -3.9208432e-007 0)
(0.21560473 -6.9551312e-008 0)
(0.21560469 2.0400567e-008 0)
(0.21560468 1.0040335e-008 0)
(0.21560468 -1.385517e-009 0)
(0.21560468 -2.2207602e-009 0)
(0.21560468 -5.3202974e-010 0)
(0.21560468 3.8998966e-010 0)
(0.21560468 6.8868524e-010 0)
(0.21560468 2.4542892e-009 0)
(0.21560468 4.8062047e-010 0)
(0.21560468 -3.5337154e-008 0)
(0.21560469 -3.7724018e-008 0)
(0.19787174 -0.015869133 0)
(0.20207229 -0.0048974013 0)
(0.20466281 1.965431e-005 0)
(0.20399722 0.00062262277 0)
(0.2041127 0.00025067871 0)
(0.20409867 -1.3613647e-005 0)
(0.20408889 -4.1008908e-005 0)
(0.20405319 -5.189084e-006 0)
(0.20403973 9.9296047e-006 0)
(0.20403744 6.6555906e-006 0)
(0.20403948 1.0418093e-006 0)
(0.20404049 -7.2838032e-007 0)
(0.20404066 -4.3903191e-007 0)
(0.20404057 -6.4092059e-008 0)
(0.20404054 2.6078322e-008 0)
(0.20404054 9.9817131e-009 0)
(0.20404055 -2.6781919e-009 0)
(0.20404055 -2.4159632e-009 0)
(0.20404055 -9.8338247e-011 0)
(0.20404055 1.653587e-010 0)
(0.20404055 3.5358032e-010 0)
(0.20404055 2.2206536e-009 0)
(0.20404055 1.7722108e-009 0)
(0.20404054 -2.9361447e-008 0)
(0.20404047 -3.3349732e-008 0)
(0.18445758 -0.018822461 0)
(0.1851839 -0.0058704604 0)
(0.18676183 -6.7953912e-005 0)
(0.18677993 0.00056919612 0)
(0.18724618 0.00022506373 0)
(0.18722326 -1.1895929e-005 0)
(0.18716809 -2.8046549e-005 0)
(0.18712089 1.6178606e-006 0)
(0.18711324 1.151559e-005 0)
(0.1871175 6.0058575e-006 0)
(0.18712143 5.1975052e-007 0)
(0.18712196 -8.3537988e-007 0)
(0.18712167 -4.0752974e-007 0)
(0.18712149 -4.3162959e-008 0)
(0.18712148 2.8126115e-008 0)
(0.1871215 7.8352009e-009 0)
(0.1871215 -3.6177742e-009 0)
(0.1871215 -2.2745174e-009 0)
(0.1871215 1.3252535e-010 0)
(0.1871215 -2.408819e-010 0)
(0.1871215 -1.8654427e-010 0)
(0.1871215 2.1098172e-009 0)
(0.18712151 4.0070953e-009 0)
(0.18712149 -1.4035426e-008 0)
(0.18712137 -1.9627319e-008 0)
(0.16806569 -0.020817945 0)
(0.16245386 -0.0059675313 0)
(0.16365073 -0.00014260035 0)
(0.16406761 0.00039851691 0)
(0.16465607 0.00017192926 0)
(0.16460845 -3.3606166e-006 0)
(0.16454755 -1.129639e-005 0)
(0.16450845 7.3886634e-006 0)
(0.16451177 1.1154458e-005 0)
(0.16452074 4.5034644e-006 0)
(0.16452483 -3.2007704e-008 0)
(0.16452458 -8.0338777e-007 0)
(0.16452398 -3.182994e-007 0)
(0.16452378 -1.865648e-008 0)
(0.1645238 2.5568759e-008 0)
(0.16452382 4.8389595e-009 0)
(0.16452382 -3.877547e-009 0)
(0.16452382 -1.7707459e-009 0)
(0.16452382 1.5340114e-010 0)
(0.16452382 -5.144441e-010 0)
(0.16452382 -5.3333929e-010 0)
(0.16452382 1.6290284e-009 0)
(0.16452382 6.5932315e-009 0)
(0.16452381 3.1862352e-009 0)
(0.1645237 -3.8691722e-009 0)
(0.14701542 -0.020894069 0)
(0.13445352 -0.0053734278 0)
(0.1357213 -0.00020498803 0)
(0.13596596 0.00021689083 0)
(0.13653277 0.00011859042 0)
(0.13646944 5.7480675e-006 0)
(0.13643735 1.5793261e-006 0)
(0.13641735 9.628772e-006 0)
(0.13643222 8.8008022e-006 0)
(0.13644275 2.6389947e-006 0)
(0.13644559 -3.8544872e-007 0)
(0.1364446 -6.3722422e-007 0)
(0.13644389 -2.047261e-007 0)
(0.13644374 -5.56862e-010 0)
(0.13644378 1.9197801e-008 0)
(0.1364438 2.1573251e-009 0)
(0.1364438 -3.2873919e-009 0)
(0.13644379 -1.1852968e-009 0)
(0.13644379 9.4736514e-011 0)
(0.13644379 -5.7157007e-010 0)
(0.13644379 -5.8043114e-010 0)
(0.1364438 1.1626271e-009 0)
(0.1364438 7.8142511e-009 0)
(0.1364438 1.4928259e-008 0)
(0.13644374 7.5388121e-009 0)
(0.11939343 -0.01822888 0)
(0.10186533 -0.0040838465 0)
(0.10324065 -0.00019767542 0)
(0.10295504 8.5516994e-005 0)
(0.10347451 7.6802241e-005 0)
(0.10340931 1.0110763e-005 0)
(0.1034196 6.8760975e-006 0)
(0.10341774 7.645099e-006 0)
(0.10343902 5.3040929e-006 0)
(0.10344766 1.0739398e-006 0)
(0.10344876 -4.4628015e-007 0)
(0.10344739 -3.9674303e-007 0)
(0.10344678 -1.0133281e-007 0)
(0.1034467 6.8534988e-009 0)
(0.10344674 1.1273623e-008 0)
(0.10344676 3.9906169e-010 0)
(0.10344675 -2.0974357e-009 0)
(0.10344675 -6.0555293e-010 0)
(0.10344675 5.7509761e-011 0)
(0.10344675 -5.2067065e-010 0)
(0.10344675 -5.1990066e-010 0)
(0.10344675 7.2716183e-010 0)
(0.10344675 6.939342e-009 0)
(0.10344677 1.7771752e-008 0)
(0.10344676 1.1532822e-008 0)
(0.084901611 -0.013062612 0)
(0.064940861 -0.0023637775 0)
(0.066317835 -8.6638675e-005 0)
(0.065634164 1.2993555e-005 0)
(0.066114543 4.5119358e-005 0)
(0.066057185 8.0972488e-006 0)
(0.066098639 6.2271765e-006 0)
(0.066104179 3.4830099e-006 0)
(0.066123401 1.9846582e-006 0)
(0.066127903 1.3876322e-007 0)
(0.066127755 -2.7177659e-007 0)
(0.06612648 -1.6316994e-007 0)
(0.066126105 -3.0049352e-008 0)
(0.066126081 5.3804688e-009 0)
(0.06612612 4.3115591e-009 0)
(0.066126127 -2.6750316e-010 0)
(0.066126122 -8.9208429e-010 0)
(0.066126119 -1.9145219e-010 0)
(0.066126119 6.6374245e-011 0)
(0.066126119 -2.9653051e-010 0)
(0.066126118 -3.6577619e-010 0)
(0.066126118 2.6561581e-010 0)
(0.06612612 4.0231395e-009 0)
(0.066126147 1.1701538e-008 0)
(0.066126183 8.0525985e-009 0)
(0.039293926 -0.0068178289 0)
(0.023443669 -0.00010746447 0)
(0.025139896 7.350072e-006 0)
(0.024391414 1.3701794e-005 0)
(0.024785514 -3.3001421e-007 0)
(0.024725015 3.6283036e-007 0)
(0.024770592 -7.38374e-007 0)
(0.024769212 -1.7285339e-007 0)
(0.024778753 -2.0729668e-007 0)
(0.024778832 -9.7583721e-008 0)
(0.024778491 -3.1052329e-008 0)
(0.02477784 -3.2159923e-010 0)
(0.024777744 2.0971411e-009 0)
(0.024777741 1.087462e-009 0)
(0.024777759 1.6516398e-010 0)
(0.02477776 -5.0861393e-011 0)
(0.024777758 1.1571987e-011 0)
(0.024777757 6.4896053e-011 0)
(0.024777757 2.4812125e-011 0)
(0.024777757 -1.1107543e-010 0)
(0.024777756 -1.5627285e-010 0)
(0.024777756 -3.3251241e-011 0)
(0.024777757 6.8854057e-010 0)
(0.024777776 1.9274412e-009 0)
(0.024777809 1.1432022e-009 0)
(0.039356483 -0.0026390088 0)
(0.040409058 -0.0033027691 0)
(0.04178176 -0.003065138 0)
(0.042801811 -0.002524065 0)
(0.043553039 -0.0020096468 0)
(0.044104747 -0.0015749582 0)
(0.044504773 -0.0012482238 0)
(0.044805708 -0.0010227038 0)
(0.045042316 -0.00088896672 0)
(0.045244017 -0.00084571379 0)
(0.04543642 -0.00089289518 0)
(0.045642288 -0.001050055 0)
(0.045887225 -0.0013347048 0)
(0.046193872 -0.0017854567 0)
(0.046605812 -0.0024741139 0)
(0.047159264 -0.0034855115 0)
(0.047890613 -0.0049683451 0)
(0.048888267 -0.0071821517 0)
(0.050182602 -0.010519261 0)
(0.051674748 -0.01593773 0)
(0.053680268 -0.023927918 0)
(0.054371559 -0.03567328 0)
(0.055383764 -0.047880123 0)
(0.042820957 -0.060964856 0)
(0.035962152 -0.049143786 0)
(0.039490475 -0.0034695659 0)
(0.040713258 -0.0043779925 0)
(0.042238082 -0.0039404649 0)
(0.043298392 -0.0031902941 0)
(0.043998171 -0.0024811673 0)
(0.044472444 -0.0019066507 0)
(0.044789681 -0.0014847864 0)
(0.045009704 -0.0011984774 0)
(0.045168747 -0.0010276034 0)
(0.045295421 -0.00096650073 0)
(0.045406645 -0.0010114849 0)
(0.04551639 -0.0011809608 0)
(0.045643971 -0.0014938729 0)
(0.04579165 -0.0019870636 0)
(0.045978349 -0.0027352978 0)
(0.046221962 -0.003829647 0)
(0.046500578 -0.0054034041 0)
(0.046817749 -0.0077108022 0)
(0.047144921 -0.011092186 0)
(0.047134275 -0.016346149 0)
(0.046730713 -0.023786071 0)
(0.044252319 -0.033457022 0)
(0.039843717 -0.041461273 0)
(0.025939379 -0.044746584 0)
(0.010852687 -0.023517408 0)
(0.039745207 -0.0045042644 0)
(0.041267438 -0.0056269621 0)
(0.043009512 -0.0048935878 0)
(0.044079873 -0.0038386987 0)
(0.044683846 -0.0028928883 0)
(0.045036938 -0.0021656959 0)
(0.045238856 -0.0016497603 0)
(0.04535466 -0.0013078324 0)
(0.045421018 -0.0011027069 0)
(0.045460637 -0.0010229515 0)
(0.045479028 -0.0010605483 0)
(0.045486531 -0.0012266036 0)
(0.045483977 -0.0015424957 0)
(0.0454713 -0.0020414895 0)
(0.045425073 -0.0027897099 0)
(0.045350989 -0.0038824306 0)
(0.045195033 -0.0054250831 0)
(0.044881213 -0.0076430038 0)
(0.044336419 -0.010812779 0)
(0.043116917 -0.015509641 0)
(0.040902686 -0.021933755 0)
(0.036329504 -0.029484469 0)
(0.02902583 -0.034866474 0)
(0.016234907 -0.034441623 0)
(0.0027157798 -0.016948504 0)
(0.04024265 -0.0059250558 0)
(0.042171617 -0.0071331149 0)
(0.04411554 -0.0059161636 0)
(0.045106679 -0.0044335471 0)
(0.045535734 -0.0032034458 0)
(0.045710462 -0.0023192938 0)
(0.045758518 -0.0017212608 0)
(0.045747636 -0.0013357149 0)
(0.045708817 -0.0011054963 0)
(0.045650554 -0.0010094961 0)
(0.045575551 -0.0010342564 0)
(0.04548002 -0.0011844675 0)
(0.045347103 -0.0014779796 0)
(0.0451716 -0.0019490909 0)
(0.044913233 -0.0026459978 0)
(0.044534187 -0.0036539939 0)
(0.043982603 -0.0050664285 0)
(0.043118804 -0.0070486466 0)
(0.041836071 -0.0098138576 0)
(0.039702508 -0.013727962 0)
(0.036322146 -0.018866204 0)
(0.030691615 -0.0243942 0)
(0.022471689 -0.027488827 0)
(0.011664197 -0.024954532 0)
(0.00041621516 -0.011402279 0)
(0.041023772 -0.0079836345 0)
(0.043288369 -0.0089057237 0)
(0.045178107 -0.0069194938 0)
(0.045889204 -0.0048896528 0)
(0.04602469 -0.0033524596 0)
(0.045956174 -0.0023287503 0)
(0.045812208 -0.0016765093 0)
(0.045659814 -0.0012705254 0)
(0.045508091 -0.0010305259 0)
(0.04535337 -0.00092353093 0)
(0.045189574 -0.00093207101 0)
(0.044993287 -0.001056749 0)
(0.044749175 -0.0013102716 0)
(0.044422481 -0.0017147753 0)
(0.043979919 -0.0023185241 0)
(0.043345218 -0.0031783629 0)
(0.042459209 -0.0043750568 0)
(0.04116226 -0.0060213063 0)
(0.039315902 -0.0082740905 0)
(0.036552521 -0.011344862 0)
(0.032455078 -0.015197194 0)
(0.026386266 -0.018992422 0)
(0.018178678 -0.020588476 0)
(0.0089421619 -0.017509622 0)
(-0.00015436982 -0.0078073711 0)
(0.041848643 -0.01081661 0)
(0.04401481 -0.010686564 0)
(0.045199803 -0.0076515065 0)
(0.045295209 -0.0050504819 0)
(0.044994283 -0.0032633442 0)
(0.044623544 -0.0021577913 0)
(0.044268399 -0.0014995335 0)
(0.043972584 -0.001106419 0)
(0.043715935 -0.00087755749 0)
(0.043477711 -0.00077017118 0)
(0.043238495 -0.00076526498 0)
(0.042966318 -0.00085442701 0)
(0.042637391 -0.0010517976 0)
(0.042202431 -0.0013689429 0)
(0.041622183 -0.0018408531 0)
(0.040816167 -0.0025111754 0)
(0.039701438 -0.0034338158 0)
(0.038131787 -0.00468434 0)
(0.035947251 -0.0063665125 0)
(0.032862477 -0.0085878533 0)
(0.028501401 -0.011262087 0)
(0.022491176 -0.013677834 0)
(0.014817545 -0.014255748 0)
(0.0071038874 -0.011390916 0)
(-0.00024445969 -0.0048862381 0)
(0.042117609 -0.014166832 0)
(0.043279523 -0.011725202 0)
(0.04276773 -0.0076680955 0)
(0.041882518 -0.0047011006 0)
(0.041008074 -0.0028486692 0)
(0.040316529 -0.0017860144 0)
(0.039778429 -0.0011928221 0)
(0.039363631 -0.00085362868 0)
(0.039031127 -0.00066097534 0)
(0.038740066 -0.00056625606 0)
(0.038458732 -0.00055017814 0)
(0.038153165 -0.00060643293 0)
(0.037784279 -0.00073789405 0)
(0.037310707 -0.00095646407 0)
(0.036679891 -0.0012804854 0)
(0.035819556 -0.0017397361 0)
(0.034638688 -0.0023670704 0)
(0.033012334 -0.0032068998 0)
(0.030786956 -0.0043223451 0)
(0.027733995 -0.0057662375 0)
(0.023573985 -0.0074274301 0)
(0.018121976 -0.0087912573 0)
(0.011480451 -0.0087820905 0)
(0.0053948291 -0.0064970889 0)
(-0.00023602098 -0.0025876079 0)
(0.040729007 -0.017022751 0)
(0.039850486 -0.011080234 0)
(0.036577976 -0.0065674307 0)
(0.034611447 -0.0037117386 0)
(0.033192547 -0.0021011441 0)
(0.032254777 -0.0012382729 0)
(0.03161892 -0.00078902872 0)
(0.031155064 -0.00054496112 0)
(0.030802694 -0.00040978493 0)
(0.030509571 -0.00034101443 0)
(0.03023632 -0.000322448 0)
(0.029949603 -0.0003482279 0)
(0.029609845 -0.00041787082 0)
(0.029180237 -0.00053883154 0)
(0.028610717 -0.00071997085 0)
(0.027839893 -0.00097600744 0)
(0.026789118 -0.0013244275 0)
(0.025358602 -0.0017878811 0)
(0.023425033 -0.0023979151 0)
(0.020809543 -0.0031706898 0)
(0.017328405 -0.004030138 0)
(0.012922817 -0.004654895 0)
(0.0077801611 -0.0044146953 0)
(0.0035213025 -0.0028683454 0)
(-0.00020958098 -0.00091122671 0)
(0.035286824 -0.015984716 0)
(0.032557347 -0.0076273772 0)
(0.025977288 -0.0041804803 0)
(0.023460785 -0.0021553037 0)
(0.021787877 -0.0011575644 0)
(0.02082302 -0.00064689999 0)
(0.020231369 -0.00039263052 0)
(0.019829046 -0.00026200013 0)
(0.019537269 -0.00019143296 0)
(0.019305054 -0.00015475991 0)
(0.01909816 -0.00014265233 0)
(0.018887778 -0.00015057696 0)
(0.018645878 -0.00017793024 0)
(0.018343264 -0.00022812083 0)
(0.017943955 -0.00030371181 0)
(0.017404577 -0.00041090388 0)
(0.016670578 -0.00055556451 0)
(0.01567499 -0.00074637174 0)
(0.01433338 -0.00099223579 0)
(0.012536612 -0.0012949256 0)
(0.010169152 -0.0016249661 0)
(0.0072458803 -0.0018267514 0)
(0.0039481842 -0.0016232847 0)
(0.0015653034 -0.00082049429 0)
(-0.00023398179 -7.9415686e-005 0)
(0.020813254 -0.012158207 0)
(0.017635701 -0.0024079991 0)
(0.010920096 -0.00048947325 0)
(0.0095488554 -0.00023084779 0)
(0.0082902714 -8.814957e-005 0)
(0.0077070286 -3.7251702e-005 0)
(0.0073612015 -1.4068385e-005 0)
(0.0071429507 -4.9553136e-006 0)
(0.0069916995 -5.3641875e-007 0)
(0.0068773815 2.1963149e-006 0)
(0.0067805079 4.3288595e-006 0)
(0.0066859665 6.2860234e-006 0)
(0.0065809676 8.6533606e-006 0)
(0.0064513177 1.1270525e-005 0)
(0.006281275 1.5087766e-005 0)
(0.0060523942 2.0323224e-005 0)
(0.0057422428 2.7377459e-005 0)
(0.005323863 3.6815819e-005 0)
(0.0047655963 4.9642093e-005 0)
(0.0040294679 6.6266578e-005 0)
(0.0030732507 8.9462443e-005 0)
(0.0019451682 0.00013066392 0)
(0.00070135531 0.00015470647 0)
(4.3740343e-005 0.00022533947 0)
(-0.00019033618 0.00018379713 0)
)
;

boundaryField
{
    inlet
    {
        type            fixedValue;
        value           uniform (0.03876 0 0);
    }
    walls
    {
        type            fixedValue;
        value           uniform (0 0 0);
    }
    outlet
    {
        type            zeroGradient;
    }
    centreline
    {
        type            symmetryPlane;
    }
    frontAndBack
    {
        type            empty;
    }
}


// ************************************************************************* //
