/*--------------------------------*- C++ -*----------------------------------*\
| =========                 |                                                 |
| \\      /  F ield         | OpenFOAM: The Open Source CFD Toolbox           |
|  \\    /   O peration     | Version:  5.x                                   |
|   \\  /    A nd           | Web:      www.OpenFOAM.org                      |
|    \\/     M anipulation  |                                                 |
\*---------------------------------------------------------------------------*/
/*   Windows 32 and 64 bit porting by blueCAPE: http://www.bluecape.com.pt   *\
|  Based on Windows porting (2.0.x v4) by Symscape: http://www.symscape.com   |
\*---------------------------------------------------------------------------*/
FoamFile
{
    version     2.0;
    format      ascii;
    class       volVectorField;
    location    "0.13";
    object      U_0;
}
// * * * * * * * * * * * * * * * * * * * * * * * * * * * * * * * * * * * * * //

dimensions      [0 1 -1 0 0 0 0];

internalField   nonuniform List<vector> 
750
(
(0.039176202 -0.00010760365 0)
(0.040088253 -0.00013319959 0)
(0.04126951 -0.00012922417 0)
(0.042183867 -0.00010801144 0)
(0.042986011 -8.9540096e-005 0)
(0.043621283 -7.218917e-005 0)
(0.044138131 -5.9015239e-005 0)
(0.04456438 -4.9579658e-005 0)
(0.044929577 -4.4139133e-005 0)
(0.045269219 -4.2772478e-005 0)
(0.045611774 -4.5871101e-005 0)
(0.046000962 -5.4620935e-005 0)
(0.046483277 -7.0064995e-005 0)
(0.047117283 -9.4665697e-005 0)
(0.047993084 -0.00013260128 0)
(0.049231678 -0.00018930323 0)
(0.051006519 -0.00027499344 0)
(0.053615988 -0.00040597808 0)
(0.057470127 -0.00061247906 0)
(0.06334752 -0.00096499877 0)
(0.072901907 -0.0015179018 0)
(0.087286806 -0.0024196514 0)
(0.11179225 -0.0034774438 0)
(0.14156641 -0.0044867591 0)
(0.18434704 -0.0049210194 0)
(0.039178676 -0.00032154245 0)
(0.040092393 -0.00040339565 0)
(0.041276445 -0.00038586758 0)
(0.042192345 -0.0003248559 0)
(0.042994005 -0.00026837538 0)
(0.043628571 -0.00021631349 0)
(0.0441436 -0.00017665197 0)
(0.044568019 -0.00014836019 0)
(0.044931198 -0.00013199126 0)
(0.045268676 -0.00012789115 0)
(0.045608673 -0.00013707603 0)
(0.045994788 -0.00016315092 0)
(0.046473043 -0.00020928477 0)
(0.047101435 -0.00028271738 0)
(0.047969286 -0.00039582519 0)
(0.049195436 -0.00056495457 0)
(0.050951496 -0.00082023188 0)
(0.053531393 -0.001210259 0)
(0.0573366 -0.0018254167 0)
(0.06313782 -0.0028727767 0)
(0.0725559 -0.0045257828 0)
(0.086699975 -0.0071646489 0)
(0.11071164 -0.010351366 0)
(0.13966539 -0.013255212 0)
(0.18199371 -0.014743903 0)
(0.039182653 -0.0005354978 0)
(0.040101037 -0.00067642584 0)
(0.041290627 -0.00064198501 0)
(0.042209515 -0.00054233853 0)
(0.043010339 -0.00044687255 0)
(0.043643167 -0.00036001816 0)
(0.044154844 -0.0002936494 0)
(0.044575556 -0.00024647403 0)
(0.044934745 -0.00021909953 0)
(0.04526784 -0.00021220719 0)
(0.045602808 -0.00022727562 0)
(0.045982743 -0.00027043352 0)
(0.046452968 -0.00034684594 0)
(0.047070124 -0.00046837999 0)
(0.047921858 -0.0006554767 0)
(0.04912352 -0.00093516011 0)
(0.050841658 -0.0013568868 0)
(0.053362057 -0.0020008105 0)
(0.057070739 -0.003017291 0)
(0.062716742 -0.0047415099 0)
(0.071857218 -0.0074708045 0)
(0.08548914 -0.011768474 0)
(0.10860174 -0.017035709 0)
(0.13603064 -0.021763932 0)
(0.17732201 -0.024431815 0)
(0.039188117 -0.0007513713 0)
(0.040114296 -0.00095119984 0)
(0.041312137 -0.00089944183 0)
(0.0422355 -0.00076016002 0)
(0.043035032 -0.00062491181 0)
(0.043664961 -0.00050294208 0)
(0.044171761 -0.00040956042 0)
(0.044586859 -0.00034338474 0)
(0.044940085 -0.0003048986 0)
(0.045266579 -0.0002950502 0)
(0.045594112 -0.00031571271 0)
(0.045964821 -0.00037550084 0)
(0.046423146 -0.00048141423 0)
(0.047023626 -0.00064973912 0)
(0.047851203 -0.00090877476 0)
(0.049016931 -0.0012956514 0)
(0.050678799 -0.0018783325 0)
(0.053111142 -0.0027672129 0)
(0.056678587 -0.0041688595 0)
(0.062085018 -0.0065407459 0)
(0.070803571 -0.010292149 0)
(0.083690722 -0.016161002 0)
(0.10553135 -0.023347402 0)
(0.13076043 -0.029823722 0)
(0.17034621 -0.033773737 0)
(0.039195553 -0.00097005466 0)
(0.040132192 -0.0012282145 0)
(0.041341112 -0.0011589136 0)
(0.042270335 -0.00097831956 0)
(0.043067972 -0.00080236919 0)
(0.043693801 -0.00064469231 0)
(0.044194054 -0.00052395076 0)
(0.044601609 -0.00043859611 0)
(0.044946889 -0.00038887286 0)
(0.045264609 -0.00037583015 0)
(0.045582327 -0.00040175953 0)
(0.04594088 -0.0004775103 0)
(0.046383583 -0.00061181947 0)
(0.046962207 -0.00082517429 0)
(0.047757983 -0.001153412 0)
(0.048876897 -0.0016428515 0)
(0.050465361 -0.0023788482 0)
(0.052782585 -0.0035003231 0)
(0.056165986 -0.0052653332 0)
(0.061250865 -0.0082454535 0)
(0.06943972 -0.012944373 0)
(0.081302052 -0.020253659 0)
(0.10153229 -0.029175607 0)
(0.12390218 -0.037273515 0)
(0.16115014 -0.042371439 0)
(0.039205579 -0.0011922966 0)
(0.040154749 -0.0015082718 0)
(0.041377698 -0.0014208549 0)
(0.042314142 -0.0011968908 0)
(0.043109119 -0.00097904907 0)
(0.043729557 -0.00078489101 0)
(0.044221477 -0.00063635861 0)
(0.044619554 -0.00053162548 0)
(0.044954908 -0.00047049328 0)
(0.045261643 -0.00045401002 0)
(0.045567384 -0.00048475198 0)
(0.045910926 -0.00057562788 0)
(0.04633432 -0.00073697351 0)
(0.046886166 -0.00099312993 0)
(0.047642802 -0.0013870417 0)
(0.048704591 -0.0019733744 0)
(0.050203878 -0.002853169 0)
(0.052380961 -0.0041918959 0)
(0.055541327 -0.0062919096 0)
(0.060236591 -0.0098294352 0)
(0.067769596 -0.015380965 0)
(0.078369102 -0.023987042 0)
(0.096653666 -0.034382399 0)
(0.1154782 -0.044050135 0)
(0.15004353 -0.050036194 0)
(0.039218792 -0.0014190074 0)
(0.040181799 -0.001791937 0)
(0.041421961 -0.0016858201 0)
(0.042367223 -0.001415914 0)
(0.043158553 -0.0011546908 0)
(0.043772138 -0.00092313808 0)
(0.044253816 -0.00074631699 0)
(0.044640479 -0.00062198388 0)
(0.044963943 -0.00054923651 0)
(0.045257472 -0.00052908204 0)
(0.045549199 -0.00056403537 0)
(0.045875049 -0.00066901833 0)
(0.046275477 -0.00085586627 0)
(0.046795879 -0.001152159 0)
(0.047506692 -0.001607559 0)
(0.048501676 -0.0022840397 0)
(0.049897618 -0.0032964208 0)
(0.05191299 -0.0048337645 0)
(0.054812349 -0.0072352197 0)
(0.05905921 -0.011272335 0)
(0.065816054 -0.017550736 0)
(0.07494979 -0.027280749 0)
(0.090980143 -0.038827663 0)
(0.10543546 -0.049896645 0)
(0.13771988 -0.056890424 0)
(0.039236433 -0.0016514468 0)
(0.040213194 -0.0020794322 0)
(0.041474234 -0.0019546517 0)
(0.042430213 -0.0016354717 0)
(0.043216596 -0.0013289107 0)
(0.043821698 -0.0010589981 0)
(0.044291081 -0.00085332277 0)
(0.044664348 -0.00070916713 0)
(0.044973912 -0.00062461449 0)
(0.045252413 -0.00060041911 0)
(0.045527594 -0.00063904538 0)
(0.045833524 -0.00075697736 0)
(0.046207581 -0.00096746482 0)
(0.046692278 -0.0013007826 0)
(0.047351306 -0.0018129322 0)
(0.048270044 -0.0025719337 0)
(0.049551115 -0.0037044938 0)
(0.051386618 -0.0054201535 0)
(0.053992167 -0.0080845362 0)
(0.057746717 -0.01255022 0)
(0.063621162 -0.01942561 0)
(0.071093986 -0.030074077 0)
(0.084576556 -0.042413162 0)
(0.09427242 -0.054738825 0)
(0.12439874 -0.061706928 0)
(0.039259657 -0.0018909261 0)
(0.040249845 -0.0023712629 0)
(0.041535265 -0.0022281445 0)
(0.042504171 -0.0018556643 0)
(0.043283988 -0.0015012828 0)
(0.043878786 -0.0011919609 0)
(0.044333637 -0.0009568427 0)
(0.044691485 -0.00079268068 0)
(0.044985159 -0.00069609942 0)
(0.045246786 -0.00066751649 0)
(0.045503125 -0.00070928825 0)
(0.045787134 -0.00083878872 0)
(0.046131794 -0.0010707312 0)
(0.046576623 -0.0014378826 0)
(0.047178942 -0.0020012781 0)
(0.048013241 -0.0028347304 0)
(0.049169609 -0.0040740686 0)
(0.05080887 -0.0059430661 0)
(0.053097581 -0.0088306835 0)
(0.056315849 -0.013649185 0)
(0.061242967 -0.020958486 0)
(0.066905971 -0.032293108 0)
(0.077590194 -0.045063253 0)
(0.082215442 -0.058793719 0)
(0.10984997 -0.06489099 0)
(0.039288476 -0.0021370049 0)
(0.040294577 -0.0026707105 0)
(0.041606645 -0.0025053217 0)
(0.042590904 -0.002076612 0)
(0.043362311 -0.0016714889 0)
(0.043944449 -0.0013215113 0)
(0.044382468 -0.0010563898 0)
(0.044722759 -0.00087202666 0)
(0.044998697 -0.00076328963 0)
(0.045241494 -0.00072999342 0)
(0.045477423 -0.00077413262 0)
(0.04573707 -0.00091386066 0)
(0.046049825 -0.001165038 0)
(0.046450936 -0.0015625108 0)
(0.046992504 -0.0021715296 0)
(0.047736432 -0.0030706275 0)
(0.048756441 -0.0044020162 0)
(0.050187326 -0.0064009785 0)
(0.052149461 -0.009468763 0)
(0.054789873 -0.014553495 0)
(0.058741595 -0.022176691 0)
(0.062595765 -0.033893591 0)
(0.070084285 -0.04681434 0)
(0.06901223 -0.06154224 0)
(0.090385027 -0.065204355 0)
(0.2179093 -0.0025991608 0)
(0.22678645 -0.00070698895 0)
(0.2280846 9.1428198e-005 0)
(0.22625662 0.00016977781 0)
(0.22580225 3.1240317e-005 0)
(0.22564901 -4.4556917e-006 0)
(0.22580147 -1.2398371e-005 0)
(0.22584142 -3.4235627e-006 0)
(0.22583947 1.4158185e-006 0)
(0.22582105 1.4188646e-006 0)
(0.2258154 3.9928389e-007 0)
(0.2258158 -9.5624777e-008 0)
(0.22581696 -9.7541531e-008 0)
(0.22581727 -2.1553942e-008 0)
(0.22581724 4.3590842e-009 0)
(0.22581721 2.5286616e-009 0)
(0.2258172 7.9702875e-011 0)
(0.22581721 -6.0518257e-010 0)
(0.22581721 -3.4174327e-010 0)
(0.22581721 8.6591362e-011 0)
(0.22581721 1.060589e-010 0)
(0.22581721 8.5395591e-010 0)
(0.2258172 2.5292798e-010 0)
(0.2258172 -1.1616059e-008 0)
(0.22581736 -1.1932868e-008 0)
(0.21465192 -0.0075222013 0)
(0.22257703 -0.0021205566 0)
(0.22454776 0.00017033571 0)
(0.22305599 0.00036722339 0)
(0.2226254 0.0001369707 0)
(0.22249345 -6.7969173e-006 0)
(0.22261109 -3.2348116e-005 0)
(0.22263462 -8.0726589e-006 0)
(0.22262757 4.3653133e-006 0)
(0.22261272 4.1768303e-006 0)
(0.22260865 9.7431576e-007 0)
(0.2226094 -3.1017977e-007 0)
(0.22261038 -2.6760898e-007 0)
(0.2226106 -5.2559845e-008 0)
(0.22261057 1.2971067e-008 0)
(0.22261054 7.0613147e-009 0)
(0.22261054 -6.4375604e-010 0)
(0.22261054 -1.4737462e-009 0)
(0.22261055 -6.8794507e-010 0)
(0.22261055 3.6600276e-010 0)
(0.22261054 6.0669585e-010 0)
(0.22261054 1.6639392e-009 0)
(0.22261054 1.8393182e-010 0)
(0.22261054 -2.8170992e-008 0)
(0.22261064 -2.9514648e-008 0)
(0.20804076 -0.012041814 0)
(0.2142376 -0.0034931131 0)
(0.21707206 0.00011076112 0)
(0.21593894 0.00051776455 0)
(0.21566389 0.00022179152 0)
(0.21560874 -9.9295701e-006 0)
(0.21566574 -4.2916797e-005 0)
(0.21565821 -8.8182926e-006 0)
(0.21564562 7.4183547e-006 0)
(0.21563659 6.1444951e-006 0)
(0.21563558 1.2274715e-006 0)
(0.21563664 -5.3740909e-007 0)
(0.21563727 -3.901851e-007 0)
(0.21563734 -6.7488517e-008 0)
(0.2156373 2.0717689e-008 0)
(0.21563728 9.8521548e-009 0)
(0.21563729 -1.4990575e-009 0)
(0.21563729 -2.2431847e-009 0)
(0.21563729 -5.2824791e-010 0)
(0.21563729 3.8554424e-010 0)
(0.21563729 6.8790267e-010 0)
(0.21563729 2.4760214e-009 0)
(0.21563729 5.0920038e-010 0)
(0.21563729 -3.5393739e-008 0)
(0.2156373 -3.7791387e-008 0)
(0.19787428 -0.015876141 0)
(0.20207894 -0.0049023481 0)
(0.2046742 1.4482249e-005 0)
(0.20401141 0.0006158145 0)
(0.20412683 0.00024551665 0)
(0.20411098 -1.5360643e-005 0)
(0.20410004 -4.0653985e-005 0)
(0.2040641 -4.6033905e-006 0)
(0.20405071 1.0136989e-005 0)
(0.20404852 6.6453047e-006 0)
(0.20405059 1.0043761e-006 0)
(0.20405159 -7.3852055e-007 0)
(0.20405175 -4.3609571e-007 0)
(0.20405167 -6.1776507e-008 0)
(0.20405164 2.633418e-008 0)
(0.20405164 9.7515966e-009 0)
(0.20405165 -2.792252e-009 0)
(0.20405165 -2.4339861e-009 0)
(0.20405165 -9.1574672e-011 0)
(0.20405165 1.6187223e-010 0)
(0.20405165 3.474173e-010 0)
(0.20405165 2.2371086e-009 0)
(0.20405165 1.8215276e-009 0)
(0.20405164 -2.934077e-008 0)
(0.20405156 -3.3355602e-008 0)
(0.1844526 -0.018829851 0)
(0.1851822 -0.005876303 0)
(0.18676137 -7.3776995e-005 0)
(0.18677922 0.00056257154 0)
(0.18724133 0.00022065824 0)
(0.18721462 -1.3091176e-005 0)
(0.18715827 -2.7526378e-005 0)
(0.18711132 2.1748757e-006 0)
(0.18710396 1.1679281e-005 0)
(0.18710835 5.9788912e-006 0)
(0.18711227 4.8350263e-007 0)
(0.18711277 -8.4246213e-007 0)
(0.18711248 -4.0387573e-007 0)
(0.1871123 -4.1043853e-008 0)
(0.18711229 2.8242436e-008 0)
(0.18711231 7.5938035e-009 0)
(0.18711231 -3.7118924e-009 0)
(0.18711231 -2.2818268e-009 0)
(0.18711231 1.3834274e-010 0)
(0.18711231 -2.4432302e-010 0)
(0.18711231 -1.9354802e-010 0)
(0.18711232 2.1163363e-009 0)
(0.18711232 4.0664483e-009 0)
(0.1871123 -1.3889997e-008 0)
(0.18711218 -1.9522692e-008 0)
(0.16805622 -0.020825409 0)
(0.16244346 -0.0059734461 0)
(0.16363938 -0.00014874618 0)
(0.16405229 0.00039283407 0)
(0.16463437 0.00016878129 0)
(0.16458271 -3.8688105e-006 0)
(0.16452116 -1.0705841e-005 0)
(0.1644827 7.8380158e-006 0)
(0.16448641 1.1255638e-005 0)
(0.16449546 4.4666234e-006 0)
(0.1644995 -6.1376795e-008 0)
(0.16449923 -8.0677752e-007 0)
(0.16449863 -3.1463968e-007 0)
(0.16449844 -1.7053866e-008 0)
(0.16449845 2.5544584e-008 0)
(0.16449847 4.6254091e-009 0)
(0.16449847 -3.9386801e-009 0)
(0.16449847 -1.7703897e-009 0)
(0.16449847 1.5576669e-010 0)
(0.16449847 -5.1785519e-010 0)
(0.16449847 -5.3969053e-010 0)
(0.16449847 1.6272798e-009 0)
(0.16449847 6.6578979e-009 0)
(0.16449846 3.4424254e-009 0)
(0.16449835 -3.6546598e-009 0)
(0.14700435 -0.020900694 0)
(0.13443619 -0.0053787702 0)
(0.13570063 -0.00021010356 0)
(0.13593862 0.00021278393 0)
(0.13649889 0.00011676776 0)
(0.13643254 5.7486119e-006 0)
(0.13640056 2.1034071e-006 0)
(0.13638138 9.9303242e-006 0)
(0.1363966 8.8449018e-006 0)
(0.13640715 2.6040945e-006 0)
(0.13640993 -4.0494224e-007 0)
(0.13640892 -6.3776196e-007 0)
(0.13640821 -2.017968e-007 0)
(0.13640807 4.1622677e-010 0)
(0.1364081 1.9089971e-008 0)
(0.13640812 2.0028051e-009 0)
(0.13640812 -3.3188378e-009 0)
(0.13640812 -1.1817427e-009 0)
(0.13640812 9.5824874e-011 0)
(0.13640812 -5.7353158e-010 0)
(0.13640812 -5.8570986e-010 0)
(0.13640812 1.1533293e-009 0)
(0.13640812 7.8732812e-009 0)
(0.13640812 1.523528e-008 0)
(0.13640806 7.8107861e-009 0)
(0.11938243 -0.018233477 0)
(0.10184529 -0.0040876769 0)
(0.10321483 -0.00020112771 0)
(0.10292145 8.3188491e-005 0)
(0.10343572 7.6037971e-005 0)
(0.10336905 1.0319176e-005 0)
(0.10338004 7.2329516e-006 0)
(0.10337895 7.7996597e-006 0)
(0.10340046 5.313722e-006 0)
(0.10340906 1.0495673e-006 0)
(0.10341011 -4.5621107e-007 0)
(0.10340872 -3.9595443e-007 0)
(0.10340812 -9.954255e-008 0)
(0.10340804 7.2860798e-009 0)
(0.10340809 1.1157434e-008 0)
(0.1034081 3.0644631e-010 0)
(0.1034081 -2.1088303e-009 0)
(0.10340809 -6.0259974e-010 0)
(0.10340809 5.8103466e-011 0)
(0.10340809 -5.2067987e-010 0)
(0.10340809 -5.2369495e-010 0)
(0.10340809 7.1504548e-010 0)
(0.1034081 6.977481e-009 0)
(0.10340811 1.803336e-008 0)
(0.10340811 1.1771473e-008 0)
(0.084892861 -0.013064916 0)
(0.064923127 -0.0023656108 0)
(0.066293791 -8.8192892e-005 0)
(0.065603554 1.204842e-005 0)
(0.066080839 4.4961884e-005 0)
(0.066023343 8.2724212e-006 0)
(0.066065644 6.382281e-006 0)
(0.066071711 3.5320444e-006 0)
(0.066091035 1.9820763e-006 0)
(0.066095482 1.2729623e-007 0)
(0.066095294 -2.7490028e-007 0)
(0.066094017 -1.6240911e-007 0)
(0.066093647 -2.9354091e-008 0)
(0.066093625 5.4786655e-009 0)
(0.066093664 4.2433806e-009 0)
(0.066093671 -3.040702e-010 0)
(0.066093665 -8.937799e-010 0)
(0.066093662 -1.9052566e-010 0)
(0.066093663 6.668575e-011 0)
(0.066093663 -2.956918e-010 0)
(0.066093661 -3.6783222e-010 0)
(0.066093661 2.5670096e-010 0)
(0.066093664 4.0347917e-009 0)
(0.06609369 1.1839504e-008 0)
(0.066093728 8.1842364e-009 0)
(0.039289765 -0.0068182634 0)
(0.023434762 -0.00010762944 0)
(0.025127568 7.2494854e-006 0)
(0.024376152 1.3581314e-005 0)
(0.024769431 -2.9371199e-007 0)
(0.024709257 4.0172304e-007 0)
(0.024755305 -7.3368104e-007 0)
(0.024754105 -1.738262e-007 0)
(0.024763659 -2.0899776e-007 0)
(0.024763709 -9.8481167e-008 0)
(0.024763354 -3.1055161e-008 0)
(0.024762705 -2.4553257e-010 0)
(0.02476261 2.0923549e-009 0)
(0.024762608 1.0672121e-009 0)
(0.024762626 1.5663658e-010 0)
(0.024762627 -5.057619e-011 0)
(0.024762625 1.1904575e-011 0)
(0.024762624 6.4774739e-011 0)
(0.024762624 2.5077358e-011 0)
(0.024762624 -1.1085895e-010 0)
(0.024762623 -1.5654157e-010 0)
(0.024762622 -3.5180021e-011 0)
(0.024762623 6.9202637e-010 0)
(0.024762642 1.967236e-009 0)
(0.024762677 1.1816619e-009 0)
(0.039355628 -0.0026361528 0)
(0.040407097 -0.0032989657 0)
(0.041777848 -0.0030612328 0)
(0.042796576 -0.0025205902 0)
(0.043546701 -0.0020068789 0)
(0.044097753 -0.0015729857 0)
(0.044497342 -0.0012468657 0)
(0.044798014 -0.0010217931 0)
(0.045034465 -0.0008883682 0)
(0.045236074 -0.00084533308 0)
(0.04542845 -0.00089266157 0)
(0.045634307 -0.0010499109 0)
(0.04587926 -0.0013346078 0)
(0.046185963 -0.0017853433 0)
(0.046597925 -0.0024739139 0)
(0.047151455 -0.0034851636 0)
(0.047882871 -0.0049676931 0)
(0.048880516 -0.0071807147 0)
(0.050174904 -0.010516223 0)
(0.051666887 -0.01593261 0)
(0.053672484 -0.02392296 0)
(0.054364531 -0.035673953 0)
(0.055379152 -0.047890051 0)
(0.04281978 -0.060980848 0)
(0.035963122 -0.049155397 0)
(0.039489153 -0.0034655938 0)
(0.040710393 -0.0043727545 0)
(0.042232875 -0.0039353419 0)
(0.043291797 -0.0031858855 0)
(0.043990563 -0.0024777882 0)
(0.044464337 -0.0019043079 0)
(0.044781283 -0.0014832087 0)
(0.045001161 -0.0011974343 0)
(0.045160139 -0.00102694 0)
(0.045286788 -0.0009660953 0)
(0.045398038 -0.0010112536 0)
(0.045507823 -0.0011808415 0)
(0.045635467 -0.0014938061 0)
(0.045783235 -0.0019870025 0)
(0.045970056 -0.0027351673 0)
(0.046213798 -0.0038293849 0)
(0.046492673 -0.0054028701 0)
(0.046810101 -0.0077095347 0)
(0.047137764 -0.011089363 0)
(0.047127928 -0.016341351 0)
(0.046725416 -0.023781591 0)
(0.044248227 -0.033458824 0)
(0.03984131 -0.041473203 0)
(0.025938602 -0.044764462 0)
(0.010852862 -0.023529259 0)
(0.039743056 -0.0044985092 0)
(0.041263316 -0.0056198632 0)
(0.043002772 -0.004887091 0)
(0.0440718 -0.0038333827 0)
(0.044674941 -0.0028890169 0)
(0.04502774 -0.0021631141 0)
(0.04522957 -0.0016480779 0)
(0.045345383 -0.0013067513 0)
(0.04541178 -0.0011020458 0)
(0.04545147 -0.0010225721 0)
(0.045469936 -0.0010603593 0)
(0.045477543 -0.0012265392 0)
(0.045475087 -0.0015425024 0)
(0.045462542 -0.0020415366 0)
(0.045416541 -0.0027897253 0)
(0.045342665 -0.0038823406 0)
(0.045187096 -0.0054248169 0)
(0.044873794 -0.0076421501 0)
(0.044329824 -0.010810648 0)
(0.043111778 -0.015505878 0)
(0.040899607 -0.021930403 0)
(0.03632831 -0.02948727 0)
(0.029025962 -0.034879295 0)
(0.016235157 -0.034459549 0)
(0.0027156999 -0.016959992 0)
(0.040239644 -0.0059166735 0)
(0.042166908 -0.0071239129 0)
(0.044108615 -0.0059083238 0)
(0.045098823 -0.0044274572 0)
(0.045527369 -0.0031992535 0)
(0.045702057 -0.0023166511 0)
(0.045750271 -0.0017196227 0)
(0.04573957 -0.0013347071 0)
(0.045700918 -0.0011049112 0)
(0.0456428 -0.0010092002 0)
(0.045567926 -0.0010341481 0)
(0.045472526 -0.0011844991 0)
(0.045339757 -0.0014781124 0)
(0.045164437 -0.0019492714 0)
(0.044906316 -0.0026462156 0)
(0.044527582 -0.0036541811 0)
(0.043976412 -0.005066543 0)
(0.043113277 -0.0070484116 0)
(0.041831549 -0.0098127618 0)
(0.039699751 -0.013725786 0)
(0.036321967 -0.018864698 0)
(0.030693778 -0.024398208 0)
(0.022474515 -0.027501817 0)
(0.011665839 -0.02497198 0)
(0.00041513115 -0.011414015 0)
(0.04102081 -0.0079724397 0)
(0.043285359 -0.008895076 0)
(0.045174538 -0.006910911 0)
(0.045885665 -0.0048831937 0)
(0.046021169 -0.0033481958 0)
(0.045952911 -0.0023262498 0)
(0.045809373 -0.0016750742 0)
(0.045657298 -0.0012697011 0)
(0.045505855 -0.0010300923 0)
(0.045351325 -0.00092336106 0)
(0.045187692 -0.00093208382 0)
(0.044991539 -0.0010568922 0)
(0.044747586 -0.0013105328 0)
(0.044421053 -0.0017151297 0)
(0.043978679 -0.002318951 0)
(0.043344293 -0.0031788568 0)
(0.042458644 -0.0043755853 0)
(0.041162288 -0.0060217368 0)
(0.039316792 -0.0082740571 0)
(0.036554951 -0.011344306 0)
(0.032459864 -0.015197614 0)
(0.026393099 -0.018997542 0)
(0.018185219 -0.020600702 0)
(0.0089460995 -0.017525155 0)
(-0.00015512269 -0.0078184298 0)
(0.041847538 -0.010804058 0)
(0.044016271 -0.010676412 0)
(0.045203386 -0.0076435155 0)
(0.045300203 -0.0050443947 0)
(0.045000049 -0.0032593739 0)
(0.044629931 -0.0021556379 0)
(0.044275395 -0.0014984473 0)
(0.04398002 -0.0011058775 0)
(0.043723682 -0.00087731647 0)
(0.043485666 -0.00077014109 0)
(0.043246585 -0.0007653851 0)
(0.042974508 -0.00085467274 0)
(0.042645645 -0.0010521519 0)
(0.042210748 -0.0013694097 0)
(0.041630564 -0.00184143 0)
(0.040824684 -0.0025118745 0)
(0.039710093 -0.0034346319 0)
(0.038140707 -0.0046852066 0)
(0.035956604 -0.006367229 0)
(0.032872662 -0.0085885153 0)
(0.028512919 -0.011263886 0)
(0.022503491 -0.013683294 0)
(0.014828217 -0.014266186 0)
(0.0071104545 -0.011403369 0)
(-0.00024441703 -0.0048952993 0)
(0.042119379 -0.014155889 0)
(0.043286003 -0.011718162 0)
(0.042778476 -0.0076620655 0)
(0.041895803 -0.0046962844 0)
(0.041022986 -0.0028455202 0)
(0.040332479 -0.0017844298 0)
(0.039795006 -0.0011921416 0)
(0.039380668 -0.00085337776 0)
(0.039048425 -0.00066093136 0)
(0.038757523 -0.00056633885 0)
(0.03847625 -0.00055035822 0)
(0.038170685 -0.00060670245 0)
(0.037801747 -0.00073824794 0)
(0.037328093 -0.00095691502 0)
(0.036697164 -0.0012810506 0)
(0.035836693 -0.0017404228 0)
(0.034655656 -0.0023678865 0)
(0.033029132 -0.003207816 0)
(0.030803598 -0.0043232804 0)
(0.027750632 -0.0057672533 0)
(0.02359072 -0.0074294609 0)
(0.018137982 -0.0087958101 0)
(0.01149335 -0.0087895875 0)
(0.0054027129 -0.0065052145 0)
(-0.00023548136 -0.0025934969 0)
(0.040732999 -0.0170162 0)
(0.039858405 -0.01107748 0)
(0.036590331 -0.0065643274 0)
(0.034626707 -0.0037089087 0)
(0.033209852 -0.0020992199 0)
(0.032273276 -0.0012373733 0)
(0.031637956 -0.00078875897 0)
(0.0311744 -0.0005449577 0)
(0.030822172 -0.00040987121 0)
(0.030529102 -0.00034114661 0)
(0.030255826 -0.00032261628 0)
(0.029969028 -0.00034843394 0)
(0.029629136 -0.00041812106 0)
(0.029199348 -0.00053913996 0)
(0.028629588 -0.00072035 0)
(0.027858468 -0.00097646653 0)
(0.02680733 -0.0013249709 0)
(0.025376409 -0.0017884846 0)
(0.023442334 -0.0023984992 0)
(0.020826352 -0.0031713524 0)
(0.017344606 -0.0040314222 0)
(0.01293747 -0.0046575575 0)
(0.00779122 -0.0044185646 0)
(0.0035279495 -0.0028718972 0)
(-0.00020916444 -0.00091368447 0)
(0.035290732 -0.015982031 0)
(0.03256226 -0.0076266725 0)
(0.025984756 -0.0041791703 0)
(0.023470194 -0.0021540338 0)
(0.02179895 -0.0011566752 0)
(0.020834951 -0.00064652014 0)
(0.020243623 -0.00039256897 0)
(0.019841368 -0.0002620699 0)
(0.019549573 -0.00019153354 0)
(0.019317305 -0.00015486746 0)
(0.019110327 -0.00014276585 0)
(0.018899836 -0.00015070188 0)
(0.018657799 -0.00017807439 0)
(0.018355017 -0.00022829246 0)
(0.017955496 -0.00030392172 0)
(0.017415861 -0.00041116206 0)
(0.016681547 -0.00055587501 0)
(0.015685591 -0.00074670896 0)
(0.014343603 -0.00099253052 0)
(0.01254647 -0.0012952753 0)
(0.010178539 -0.0016255526 0)
(0.0072540575 -0.0018278865 0)
(0.0039537646 -0.0016246708 0)
(0.0015686413 -0.00082146953 0)
(-0.00023404016 -8.0047282e-005 0)
(0.020815443 -0.012158892 0)
(0.017637029 -0.0024088842 0)
(0.010922149 -0.00049004588 0)
(0.0095514615 -0.00023113184 0)
(0.0082937241 -8.8261033e-005 0)
(0.0077108239 -3.7309066e-005 0)
(0.0073651013 -1.4114416e-005 0)
(0.0071467921 -4.9985708e-006 0)
(0.0069954495 -5.7078311e-007 0)
(0.0068810408 2.1741879e-006 0)
(0.0067840803 4.3177083e-006 0)
(0.0066894509 6.2831757e-006 0)
(0.0065843584 8.6579248e-006 0)
(0.0064546012 1.1281637e-005 0)
(0.0062844317 1.5106688e-005 0)
(0.0060553977 2.0351641e-005 0)
(0.0057450588 2.7418889e-005 0)
(0.0053264636 3.6877433e-005 0)
(0.0047680071 4.9734453e-005 0)
(0.0040317085 6.6394613e-005 0)
(0.0030752974 8.9660005e-005 0)
(0.001946806 0.00013096786 0)
(0.00070198267 0.00015518948 0)
(4.4231535e-005 0.00022601467 0)
(-0.00019038728 0.00018411233 0)
)
;

boundaryField
{
    inlet
    {
        type            fixedValue;
        value           uniform (0.03876 0 0);
    }
    walls
    {
        type            fixedValue;
        value           uniform (0 0 0);
    }
    outlet
    {
        type            zeroGradient;
    }
    centreline
    {
        type            symmetryPlane;
    }
    frontAndBack
    {
        type            empty;
    }
}


// ************************************************************************* //
