# vtk DataFile Version 2.0
track0
ASCII
DATASET POLYDATA
POINTS 11930 float
-0.0205 0.001 1e-005
-0.0203851 0.00100536 1.50243e-005
-0.0202701 0.00101047 1.9664e-005
-0.0201551 0.00101535 2.39719e-005
-0.0200401 0.00102 2.79433e-005
-0.0198624 0.00102682 3.35509e-005
-0.0196933 0.00103276 3.8098e-005
-0.0195242 0.00103809 4.16134e-005
-0.0193551 0.00104281 4.41062e-005
-0.019186 0.00104693 4.55855e-005
-0.0190172 0.00105043 4.60598e-005
-0.0187132 0.00105594 4.60598e-005
-0.0184093 0.0010608 4.60598e-005
-0.0181054 0.00106514 4.60598e-005
-0.0178014 0.00106896 4.60598e-005
-0.0174976 0.00107225 4.60598e-005
-0.0172058 0.00107512 4.60598e-005
-0.016914 0.00107791 4.60598e-005
-0.0166222 0.00108063 4.60598e-005
-0.0163305 0.00108328 4.60598e-005
-0.0160387 0.00108587 4.60598e-005
-0.0157586 0.00108826 4.60598e-005
-0.0154784 0.00109058 4.60598e-005
-0.0151983 0.00109282 4.60598e-005
-0.0149182 0.00109498 4.60598e-005
-0.0146381 0.00109706 4.60598e-005
-0.0143692 0.00109893 4.60598e-005
-0.0141002 0.0011007 4.60598e-005
-0.0138313 0.0011024 4.60598e-005
-0.0135624 0.00110402 4.60598e-005
-0.0132934 0.00110556 4.60598e-005
-0.0130353 0.00110697 4.60598e-005
-0.0127771 0.00110832 4.60598e-005
-0.0125189 0.00110963 4.60598e-005
-0.0122607 0.00111091 4.60598e-005
-0.0120025 0.00111214 4.60598e-005
-0.0117547 0.0011133 4.60598e-005
-0.0115068 0.00111443 4.60598e-005
-0.0112589 0.00111554 4.60598e-005
-0.0110111 0.00111664 4.60598e-005
-0.0107632 0.00111772 4.60598e-005
-0.0105252 0.00111873 4.60598e-005
-0.0102873 0.00111974 4.60598e-005
-0.0100493 0.00112072 4.60598e-005
-0.00981133 0.0011217 4.60598e-005
-0.00957337 0.00112267 4.60598e-005
-0.00934491 0.00112358 4.60598e-005
-0.00911645 0.00112448 4.60598e-005
-0.00888799 0.00112537 4.60598e-005
-0.00865954 0.00112625 4.60598e-005
-0.00843108 0.00112712 4.60598e-005
-0.00821175 0.00112795 4.60598e-005
-0.00799242 0.00112878 4.60598e-005
-0.00777309 0.00112959 4.60598e-005
-0.00755376 0.0011304 4.60598e-005
-0.00733443 0.00113121 4.60598e-005
-0.00712387 0.00113198 4.60598e-005
-0.0069133 0.00113274 4.60598e-005
-0.00670273 0.0011335 4.60598e-005
-0.00649216 0.00113425 4.60598e-005
-0.0062816 0.00113501 4.60598e-005
-0.00607944 0.00113573 4.60598e-005
-0.00587729 0.00113645 4.60598e-005
-0.00567514 0.00113717 4.60598e-005
-0.00547298 0.00113788 4.60598e-005
-0.00527083 0.0011386 4.60598e-005
-0.00507675 0.00113928 4.60598e-005
-0.00488267 0.00113997 4.60598e-005
-0.0046886 0.00114065 4.60598e-005
-0.00449452 0.00114133 4.60598e-005
-0.00430044 0.00114201 4.60598e-005
-0.00411412 0.00114267 4.60598e-005
-0.0039278 0.00114332 4.60598e-005
-0.00374147 0.00114397 4.60598e-005
-0.00355515 0.00114462 4.60598e-005
-0.00336883 0.00114528 4.60598e-005
-0.00318995 0.00114591 4.60598e-005
-0.00301107 0.00114654 4.60598e-005
-0.00283219 0.00114716 4.60598e-005
-0.00265331 0.00114779 4.60598e-005
-0.00247443 0.00114842 4.60598e-005
-0.0023027 0.00114904 4.60598e-005
-0.00213097 0.00114964 4.60598e-005
-0.00195924 0.00115025 4.60598e-005
-0.0017875 0.00115086 4.60598e-005
-0.00161577 0.00115147 4.60598e-005
-0.0014509 0.00115207 4.60598e-005
-0.00128603 0.00115266 4.60598e-005
-0.00112116 0.00115325 4.60598e-005
-0.000956289 0.00115384 4.60598e-005
-0.000791418 0.00115444 4.60598e-005
-0.000633135 0.00115503 4.60598e-005
-0.000474851 0.00115561 4.60598e-005
-0.000316567 0.00115619 4.60598e-005
-0.000158284 0.00115678 4.60598e-005
0 0.00115738 4.60598e-005
0.000105677 0.00115779 4.60598e-005
0.000211355 0.00115819 4.60598e-005
0.000317032 0.0011586 4.60598e-005
0.00042271 0.001159 4.60598e-005
0.000528387 0.00115942 4.60598e-005
0.000634886 0.00115985 4.60598e-005
0.000741385 0.00116027 4.60598e-005
0.000847885 0.0011607 4.60598e-005
0.000954384 0.00116113 4.60598e-005
0.00106088 0.00116157 4.60598e-005
0.00116821 0.00116202 4.60598e-005
0.00127554 0.00116248 4.60598e-005
0.00138286 0.00116293 4.60598e-005
0.00149019 0.00116339 4.60598e-005
0.00159752 0.00116386 4.60598e-005
0.00170568 0.00116434 4.60598e-005
0.00181384 0.00116481 4.60598e-005
0.001922 0.00116529 4.60598e-005
0.00203016 0.00116577 4.60598e-005
0.00213833 0.00116625 4.60598e-005
0.00224733 0.00116674 4.60598e-005
0.00235633 0.00116724 4.60598e-005
0.00246533 0.00116773 4.60598e-005
0.00257434 0.00116822 4.60598e-005
0.00268334 0.00116871 4.60598e-005
0.00279319 0.00116921 4.60598e-005
0.00290304 0.00116972 4.60598e-005
0.00301289 0.00117022 4.60598e-005
0.00312274 0.00117073 4.60598e-005
0.00323259 0.00117123 4.60598e-005
0.00334329 0.00117173 4.60598e-005
0.003454 0.00117225 4.60598e-005
0.0035647 0.00117277 4.60598e-005
0.0036754 0.00117328 4.60598e-005
0.00378611 0.0011738 4.60598e-005
0.00389767 0.00117431 4.60598e-005
0.00400924 0.00117483 4.60598e-005
0.0041208 0.00117536 4.60598e-005
0.00423237 0.00117589 4.60598e-005
0.00434393 0.00117641 4.60598e-005
0.00445636 0.00117692 4.60598e-005
0.00456879 0.00117746 4.60598e-005
0.00468123 0.00117799 4.60598e-005
0.00479366 0.00117853 4.60598e-005
0.00490609 0.00117906 4.60598e-005
0.0050194 0.00117957 4.60598e-005
0.0051327 0.00118011 4.60598e-005
0.00524601 0.00118065 4.60598e-005
0.00535931 0.00118119 4.60598e-005
0.00547262 0.00118173 4.60598e-005
0.00558681 0.00118224 4.60598e-005
0.005701 0.00118278 4.60598e-005
0.00581518 0.00118333 4.60598e-005
0.00592937 0.00118387 4.60598e-005
0.00604356 0.00118441 4.60598e-005
0.00615863 0.00118493 4.60598e-005
0.00627371 0.00118547 4.60598e-005
0.00638878 0.00118601 4.60598e-005
0.00650386 0.00118655 4.60598e-005
0.00661893 0.0011871 4.60598e-005
0.0067349 0.00118762 4.60598e-005
0.00685087 0.00118816 4.60598e-005
0.00696684 0.0011887 4.60598e-005
0.00708281 0.00118924 4.60598e-005
0.00719878 0.00118978 4.60598e-005
0.00731565 0.0011903 4.60598e-005
0.00743252 0.00119084 4.60598e-005
0.00754939 0.00119137 4.60598e-005
0.00766626 0.00119191 4.60598e-005
0.00778313 0.00119245 4.60598e-005
0.00790091 0.00119297 4.60598e-005
0.00801869 0.0011935 4.60598e-005
0.00813647 0.00119403 4.60598e-005
0.00825425 0.00119456 4.60598e-005
0.00837203 0.00119509 4.60598e-005
0.00849073 0.00119561 4.60598e-005
0.00860942 0.00119614 4.60598e-005
0.00872812 0.00119666 4.60598e-005
0.00884682 0.00119719 4.60598e-005
0.00896551 0.00119771 4.60598e-005
0.00908513 0.00119822 4.60598e-005
0.00920475 0.00119875 4.60598e-005
0.00932437 0.00119926 4.60598e-005
0.00944398 0.00119978 4.60598e-005
0.0095636 0.0012003 4.60598e-005
0.00968415 0.00120081 4.60598e-005
0.0098047 0.00120132 4.60598e-005
0.00992525 0.00120183 4.60598e-005
0.0100458 0.00120234 4.60598e-005
0.0101663 0.00120285 4.60598e-005
0.0102878 0.00120335 4.60598e-005
0.0104093 0.00120386 4.60598e-005
0.0105308 0.00120436 4.60598e-005
0.0106523 0.00120486 4.60598e-005
0.0107738 0.00120536 4.60598e-005
0.0108962 0.00120586 4.60598e-005
0.0110186 0.00120636 4.60598e-005
0.0111411 0.00120685 4.60598e-005
0.0112635 0.00120734 4.60598e-005
0.0113859 0.00120783 4.60598e-005
0.0115093 0.00120832 4.60598e-005
0.0116327 0.00120881 4.60598e-005
0.0117561 0.00120929 4.60598e-005
0.0118795 0.00120978 4.60598e-005
0.0120028 0.00121025 4.60598e-005
0.0121272 0.00121073 4.60598e-005
0.0122515 0.00121121 4.60598e-005
0.0123759 0.00121168 4.60598e-005
0.0125002 0.00121215 4.60598e-005
0.0126245 0.00121262 4.60598e-005
0.0127498 0.00121308 4.60598e-005
0.0128752 0.00121355 4.60598e-005
0.0130005 0.00121401 4.60598e-005
0.0131258 0.00121447 4.60598e-005
0.0132511 0.00121492 4.60598e-005
0.0133774 0.00121537 4.60598e-005
0.0135036 0.00121582 4.60598e-005
0.0136299 0.00121627 4.60598e-005
0.0137562 0.00121672 4.60598e-005
0.0138825 0.00121716 4.60598e-005
0.0140098 0.00121759 4.60598e-005
0.014137 0.00121803 4.60598e-005
0.0142643 0.00121846 4.60598e-005
0.0143915 0.00121889 4.60598e-005
0.0145188 0.00121931 4.60598e-005
0.0146471 0.00121972 4.60598e-005
0.0147753 0.00122014 4.60598e-005
0.0149036 0.00122056 4.60598e-005
0.0150318 0.00122096 4.60598e-005
0.0151601 0.00122137 4.60598e-005
0.0152893 0.00122176 4.60598e-005
0.0154186 0.00122216 4.60598e-005
0.0155478 0.00122255 4.60598e-005
0.0156771 0.00122294 4.60598e-005
0.0158063 0.00122332 4.60598e-005
0.0159366 0.0012237 4.60598e-005
0.0160668 0.00122407 4.60598e-005
0.0161971 0.00122444 4.60598e-005
0.0163274 0.0012248 4.60598e-005
0.0164576 0.00122516 4.60598e-005
0.0165889 0.00122551 4.60598e-005
0.0167201 0.00122586 4.60598e-005
0.0168514 0.0012262 4.60598e-005
0.0169827 0.00122654 4.60598e-005
0.0171139 0.00122687 4.60598e-005
0.0172028 0.00122709 4.60598e-005
0.0172917 0.0012273 4.60598e-005
0.0173806 0.00122752 4.60598e-005
0.0174695 0.00122773 4.60598e-005
0.0175557 0.00122793 4.60598e-005
0.0175997 0.00122803 4.60598e-005
0.0176436 0.00122813 4.60598e-005
0.0176875 0.00122823 4.60598e-005
0.0177315 0.00122833 4.60598e-005
0.0177754 0.00122843 4.60598e-005
0.0179087 0.00122872 4.60598e-005
0.018042 0.00122901 4.60598e-005
0.0181753 0.00122929 4.60598e-005
0.0183087 0.00122956 4.60598e-005
0.018442 0.00122982 4.60598e-005
0.0185763 0.00123008 4.60598e-005
0.0187107 0.00123033 4.60598e-005
0.018845 0.00123058 4.60598e-005
0.0189794 0.00123081 4.60598e-005
0.0191137 0.00123104 4.60598e-005
0.0192491 0.00123126 4.60598e-005
0.0193845 0.00123147 4.60598e-005
0.0195199 0.00123168 4.60598e-005
0.0196553 0.00123187 4.60598e-005
0.0197907 0.00123206 4.60598e-005
0.0199272 0.00123224 4.60598e-005
0.0200636 0.00123241 4.60598e-005
0.0202001 0.00123257 4.60598e-005
0.0203365 0.00123272 4.60598e-005
0.020473 0.00123286 4.60598e-005
0.0206105 0.001233 4.60598e-005
0.020748 0.00123312 4.60598e-005
0.0208855 0.00123323 4.60598e-005
0.021023 0.00123334 4.60598e-005
0.0211606 0.00123343 4.60598e-005
0.0212991 0.00123352 4.60598e-005
0.0214377 0.0012336 4.60598e-005
0.0215763 0.00123366 4.60598e-005
0.0217149 0.00123372 4.60598e-005
0.0218535 0.00123376 4.60598e-005
0.0219931 0.0012338 4.60598e-005
0.0221328 0.00123382 4.60598e-005
0.0222724 0.00123383 4.60598e-005
0.0224121 0.00123384 4.60598e-005
0.0225517 0.00123383 4.60598e-005
0.0226925 0.00123382 4.60598e-005
[...]
POINT_DATA 11930
 FIELD attributes 2
p 1 11930 float
-1548.47 -1535.9 -1522.12 -1508.49 -1495.01 -1474.42 -1459.78 -1445.07 -1430.28 -1415.42 -1394.7 -1346.63 -1298.61 -1250.66 -1202.78 -1160.31 -1128.65 -1103.16 -1077.69 -1052.22 -1035.38 -1023.59 -1014.1 -1004.62 -995.133 -987.513 -980.749 -972.845 -964.941 -957.036 -948.001 -939.552 -930.905 -922.254 -913.62 -905.203 -897.226 -890.026 -882.916 -875.957 -869.905 -864.113 -858.899 -853.806 -848.869 -844.527 -840.351 -836.402 -832.524 -828.736 -825.2 -821.789 -818.507 -815.278 -812.123 -809.129 -806.23 -803.455 -800.744 -798.116 -795.63 -793.213 -790.908 -788.674 -786.523 -784.492 -782.506 -780.603 -778.764 -776.998 -775.32 -773.662 -772.066 -770.528 -769.056 -767.651 -766.239 -764.874 -763.56 -762.308 -761.111 -759.88 -758.691 -757.556 -756.489 -755.473 -754.394 -753.342 -752.331 -751.393 -750.499 -749.519 -748.587 -747.743 -747.017 -746.354 -745.614 -744.936 -744.369 -743.94 -743.594 -743.072 -742.592 -742.17 -741.844 -741.592 -741.154 -740.824 -740.615 -740.527 -740.557 -740.397 -740.327 -740.336 -740.412 -740.569 -740.674 -740.768 -740.854 -740.932 -740.996 -741.263 -741.426 -741.528 -741.571 -741.503 -741.885 -742.093 -742.223 -742.269 -742.112 -742.575 -742.813 -742.97 -743.042 -742.834 -743.326 -743.551 -743.704 -743.784 -743.536 -743.991 -744.164 -744.284 -744.354 -744.089 -744.471 -744.599 -744.697 -744.769 -744.538 -744.846 -744.95 -745.041 -745.126 -744.961 -745.196 -745.278 -745.358 -745.439 -745.343 -745.501 -745.564 -745.626 -745.689 -745.653 -745.749 -745.802 -745.855 -745.908 -745.923 -745.985 -746.04 -746.095 -746.149 -746.204 -746.254 -746.312 -746.37 -746.429 -746.508 -746.557 -746.619 -746.682 -746.744 -746.834 -746.894 -746.962 -747.03 -747.098 -747.189 -747.27 -747.347 -747.424 -747.501 -747.589 -747.695 -747.785 -747.874 -747.963 -748.049 -748.183 -748.287 -748.391 -748.495 -748.581 -748.74 -748.859 -748.978 -749.096 -749.186 -749.365 -749.497 -749.63 -749.762 -749.858 -750.051 -750.195 -750.34 -750.484 -750.591 -750.792 -750.949 -751.105 -751.262 -751.383 -751.59 -751.759 -751.927 -752.096 -752.237 -752.448 -752.632 -752.816 -753 -753.166 -753.384 -753.585 -753.786 -753.987 -754.181 -754.332 -754.477 -754.622 -754.767 -754.907 -754.979 -755.05 -755.122 -755.193 -755.276 -755.493 -755.72 -755.948 -756.175 -756.448 -756.646 -756.884 -757.123 -757.361 -757.676 -757.86 -758.109 -758.359 -758.608 -758.957 -759.134 -759.394 -759.654 -759.913 -760.29 -760.466 -760.736 -761.007 -761.277 -761.673 -761.856 -762.138 -762.419 -762.7 -763.107 -763.306 -763.598 -763.89 -764.182 -764.59 -764.813 -765.115 -765.417 -765.719 -766.12 -766.373 -766.685 -766.996 -767.308 -767.695 -767.983 -768.304 -768.626 -768.947 -769.312 -769.64 -769.971 -770.302 -770.633 -770.972 -771.341 -771.682 -772.023 -772.364 -772.678 -773.085 -773.44 -773.791 -774.136 -774.431 -774.868 -775.241 -775.603 -775.947 -776.228 -776.687 -777.082 -777.454 -777.794 -778.069 -778.545 -778.963 -779.344 -779.68 -779.956 -780.445 -780.885 -781.277 -781.608 -781.889 -782.388 -782.85 -783.25 -783.575 -783.86 -784.366 -784.845 -785.251 -785.568 -785.858 -786.363 -786.854 -787.263 -787.573 -787.87 -788.369 -788.865 -789.276 -789.583 -789.89 -790.379 -790.868 -791.276 -791.596 -791.916 -792.394 -792.871 -793.278 -793.611 -793.943 -794.407 -794.871 -795.276 -795.62 -795.964 -796.413 -796.863 -797.265 -797.618 -797.972 -798.406 -798.84 -799.238 -799.6 -799.962 -800.38 -800.798 -801.191 -801.559 -801.927 -802.329 -802.732 -803.119 -803.49 -803.861 -804.248 -804.634 -805.013 -805.385 -805.756 -806.127 -806.498 -806.869 -807.238 -807.607 -807.962 -808.32 -808.681 -809.044 -809.408 -809.748 -810.092 -810.442 -810.796 -811.152 -811.477 -811.809 -812.146 -812.487 -812.833 -813.141 -813.461 -813.784 -814.109 -814.442 -814.734 -815.039 -815.347 -815.654 -815.971 -816.246 -816.535 -816.824 -817.113 -817.411 -817.667 -817.936 -818.206 -818.476 -818.754 -818.991 -819.24 -819.49 -819.739 -819.997 -820.214 -820.443 -820.671 -820.899 -821.133 -821.331 -821.537 -821.743 -821.949 -822.158 -822.331 -822.507 -822.684 -822.861 -823.029 -823.036 -823.043 -823.05 -823.057 -823.064 -823.221 -823.377 -823.534 -823.691 -823.846 -823.976 -824.103 -824.23 -824.358 -824.481 -824.583 -824.678 -824.774 -824.87 -824.959 -825.032 -825.095 -825.157 -825.22 -825.274 -825.316 -825.344 -825.372 -825.4 -825.415 -825.426 -825.417 -825.409 -825.398 -825.373 -825.347 -825.304 -825.256 -825.203 -825.138 -825.072 -824.993 -824.904 -824.804 -824.696 -824.587 -824.471 -824.338 -824.189 -824.035 -823.882 -823.727 -823.548 -823.347 -823.145 -822.945 -822.745 -822.517 -822.265 -822.013 -821.763 -821.514 -821.236 -820.931 -820.626 -820.324 -820.022 -819.692 -819.331 -818.97 -818.613 -818.256 -817.871 -817.452 -817.033 -816.617 -816.199 -815.753 -815.279 -814.799 -814.323 -813.835 -813.327 -812.799 -812.255 -811.715 -811.154 -810.58 -809.996 -809.386 -808.779 -808.141 -807.499 -806.856 -806.176 -805.495 -804.781 -804.067 -803.353 -802.612 -801.847 -801.058 -800.27 -799.481 -798.678 -797.825 -796.959 -796.093 -795.227 -794.359 -794.151 -793.941 -793.73 -793.52 -793.313 -792.581 -791.849 -791.117 -790.386 -789.642 -788.632 -787.609 -786.587 -785.565 -784.513 -783.437 -782.329 -781.222 -780.116 -778.96 -777.816 -776.622 -775.428 -774.225 -772.971 -771.741 -770.475 -769.193 -767.881 -766.536 -765.215 -763.879 -762.506 -761.081 -759.644 -758.231 -756.819 -755.349 -753.817 -752.286 -750.779 -749.273 -747.708 -746.081 -744.454 -742.852 -741.251 -739.587 -737.864 -736.141 -734.442 -732.731 -730.964 -729.161 -727.34 -725.544 -723.709 -721.844 -719.966 -718.048 -716.153 -714.193 -712.229 -710.265 -708.259 -706.242 -704.178 -702.115 -700.052 -697.972 -696.491 -694.99 -693.49 -691.99 -690.559 -689.887 -689.215 -688.543 -687.871 -687.19 -684.948 -682.7 -680.452 -678.204 -675.918 -673.604 -671.256 -668.91 -666.561 -664.148 -661.748 -659.316 -656.871 -654.393 -651.882 -649.384 -646.881 -644.339 -641.732 -639.124 -636.529 -633.934 -631.286 -628.582 -625.878 -623.187 -620.496 -617.742 -614.948 -612.15 -609.364 -606.547 -603.697 -600.837 -597.946 -595.066 -592.123 -589.181 -586.239 -583.273 -580.692 -578.082 -575.473 -572.864 -570.39 -569.94 -569.49 -569.041 -568.591 -568.138 -565.024 -561.909 -558.794 -555.68 -552.539 -549.354 -546.152 -542.952 -539.744 -536.501 -533.235 -529.96 -526.676 -523.362 -520.036 -516.687 -513.338 -509.965 -506.559 -503.153 -499.724 -496.295 -492.833 -489.35 -485.867 -482.36 -478.837 -475.294 -471.748 -468.191 -464.607 -460.991 -457.375 -453.76 -450.139 -448.33 -446.51 -444.691 -442.871 -441.099 -439.226 -437.352 -435.479 -433.606 -431.721 -427.977 -424.228 -420.48 -416.733 -412.95 -409.148 -405.338 -401.526 -397.694 -393.846 -389.981 -386.116 -382.237 -378.33 -374.423 -370.498 -366.574 -362.623 -358.661 -354.697 -350.716 -346.719 -342.709 -338.699 -334.683 -330.642 -326.58 -322.518 -318.457 -314.395 -313.748 -313.099 -312.451 -311.802 -311.158 -307.697 -304.236 -300.776 -297.316 -293.839 -289.687 -285.533 -281.38 -277.219 -273.038 -268.843 -264.648 -260.452 -256.231 -252.009 -247.773 -243.537 -239.286 -235.027 -230.766 -226.492 -222.209 -217.914 -213.62 -209.324 -205.011 -200.682 -196.354 -192.026 -187.697 -187.112 -186.525 -185.938 -185.352 -184.769 -180.994 -177.22 -173.446 -169.673 -165.885 -161.494 -157.105 -152.717 -148.322 -143.913 -139.496 -135.079 -130.662 -126.23 -121.798 -117.355 -112.914 -108.457 -104.002 -99.546 -95.0797 -90.6048 -86.1269 -81.6495 -77.1738 -74.5605 -71.9435 -69.3266 -66.7099 -64.1575 -62.2672 -60.3769 -58.4867 -56.5967 -54.7023 -50.1903 -45.6808 -41.1718 -36.6615 -32.1385 -27.61 -23.0835 -18.5613 -14.0289 -9.49425 -4.95351 -0.413313 4.13228 8.67289 13.2155 17.7646 22.3169 26.8708 31.4244 35.9738 38.6786 41.3853 44.0918 46.7982 49.4401 51.3069 53.1737 55.0403 56.9069 58.776 63.3461 67.9116 72.4766 77.0421 81.6126 86.1866 90.7589 95.3232 99.8888 104.457 109.028 113.599 118.169 122.732 127.294 131.86 136.424 140.987 145.55 150.111 151.182 152.252 153.322 154.392 155.452 158.945 162.438 165.93 169.422 172.914 177.476 182.028 186.579 191.126 195.674 200.223 204.771 209.311 213.84 218.372 222.905 227.433 231.957 236.48 240.995 243.533 246.065 248.596 251.128 253.61 255.597 257.584 259.57 261.557 263.54 268.042 272.535 277.027 281.515 285.999 290.48 294.961 299.428 303.884 308.341 312.797 317.246 321.686 326.125 330.554 333.259 335.954 338.648 341.343 343.984 345.716 347.448 349.179 350.911 352.638 357.039 361.431 365.823 370.208 374.586 378.958 383.329 387.685 392.025 396.368 400.703 405.029 409.345 413.661 417.969 419.745 421.513 423.28 425.047 426.793 429.317 431.841 434.365 436.888 439.401 443.667 447.921 452.174 456.412 460.646 464.87 469.093 473.298 477.486 481.676 485.854 490.012 494.167 498.321 502.406 502.42 502.435 502.449 502.463 502.478 506.605 510.732 514.858 518.982 523.088 527.178 531.268 535.339 539.392 543.446 547.485 551.512 555.525 559.537 563.54 565.05 566.552 568.052 569.552 571.041 573.515 575.988 578.462 580.932 583.39 587.328 591.256 595.178 599.074 602.968 606.846 610.719 614.566 618.408 622.239 624.268 626.283 628.294 630.305 632.305 634.09 635.875 637.66 639.441 641.211 644.971 648.713 652.453 656.165 659.87 663.558 667.244 670.891 674.528 678.15 680.163 682.162 684.157 686.152 688.158 689.746 691.334 692.922 694.507 696.082 699.635 703.14 706.638 710.064 713.471 716.857 720.251 723.78 727.333 730.921 732.923 734.555 736.066 737.578 739.129 740.5 741.87 743.239 744.524 745.527 747.791 750.875 754.008 758.43 763.247 767.946 772.265 774.745 777.228 779.157 779.416 779.731 780.135 780.54 780.948 782.686 784.425 786.164 788.368 790.869 793.863 796.856 799.705 802.543 805.32 805.995 806.657 807.294 807.931 808.582 810.694 812.806 814.916 816.958 818.958 821.609 824.259 826.818 829.344 831.827 832.539 833.235 833.901 834.566 835.256 837.026 838.793 840.559 842.257 843.912 846.224 848.532 850.687 852.738 854.75 855.49 856.197 856.848 857.5 858.195 859.412 860.627 861.839 862.972 864.044 865.713 867.376 868.835 870.086 871.328 872.028 872.638 873.14 873.641 874.208 874.626 875.042 875.457 875.816 876.113 876.778 877.316 877.763 877.852 877.931 877.874 877.623 877.127 876.625 876.019 875.888 875.71 875.507 875.303 875.091 874.18 873.257 872.323 871.256 869.909 868.111 866.301 864.048 861.381 858.703 855.765 852.44 848.852 845.257 841.48 840.531 839.459 838.365 837.271 836.097 832.528 828.947 825.356 821.715 817.637 811.974 806.007 799.772 792.795 785.71 778.155 770.586 762.443 753.816 745.13 735.92 725.539 714.861 704.18 692.997 688.281 683.555 678.828 674.1 668.728 661.265 653.799 646.327 638.852 631.334 617.492 601.775 586.025 569.32 549.978 529.664 509.939 492.368 478.38 464.456 449.784 435.113 407.642 367.84 328.005 286.375 253.513 237.094 228.399 231.302 234.013 177.331 119.957 62.2895 0