/*--------------------------------*- C++ -*----------------------------------*\
| =========                 |                                                 |
| \\      /  F ield         | OpenFOAM: The Open Source CFD Toolbox           |
|  \\    /   O peration     | Version:  5.x                                   |
|   \\  /    A nd           | Web:      www.OpenFOAM.org                      |
|    \\/     M anipulation  |                                                 |
\*---------------------------------------------------------------------------*/
/*   Windows 32 and 64 bit porting by blueCAPE: http://www.bluecape.com.pt   *\
|  Based on Windows porting (2.0.x v4) by Symscape: http://www.symscape.com   |
\*---------------------------------------------------------------------------*/
FoamFile
{
    version     2.0;
    format      ascii;
    class       volVectorField;
    location    "2000";
    object      U;
}
// * * * * * * * * * * * * * * * * * * * * * * * * * * * * * * * * * * * * * //

dimensions      [0 1 -1 0 0 0 0];

internalField   nonuniform List<vector> 
4000
(
(604584 -995486 5.39968e-013)
(1.25947e+006 -355049 0)
(891327 321309 0)
(-53255.6 645829 0)
(-1.30809e+006 901685 0)
(-2.83041e+006 1.03049e+006 0)
(-4.28985e+006 995787 -1.23537e-013)
(-5.69914e+006 920976 0)
(-7.00875e+006 838147 0)
(-8.20923e+006 753071 -6.98011e-014)
(-9.29324e+006 668610 0)
(-1.02602e+007 587292 0)
(-1.11133e+007 511081 -4.90269e-014)
(-1.18597e+007 441638 0)
(-1.25077e+007 378951 -4.16421e-014)
(-1.30656e+007 322832 -3.90265e-014)
(-1.35426e+007 273184 -3.69277e-014)
(-1.39479e+007 229801 -3.52408e-014)
(-1.42904e+007 192378 -3.38845e-014)
(-1.45787e+007 160530 -3.27942e-014)
(-1.4821e+007 133816 -3.19181e-014)
(-1.50248e+007 111762 -3.12143e-014)
(-1.51968e+007 93875.9 0)
(-1.53431e+007 79660.2 -3.01913e-014)
(-1.54689e+007 68622.2 -2.98208e-014)
(-1.5579e+007 60282 -2.95174e-014)
(-1.56771e+007 54179.1 -2.92659e-014)
(-1.57664e+007 49877.3 -2.90539e-014)
(-1.58495e+007 46969.5 -2.8872e-014)
(-1.59283e+007 45080.7 -2.87127e-014)
(-1.60043e+007 43870.5 0)
(-1.60781e+007 43035 -2.8443e-014)
(-1.61504e+007 42307.3 -2.83269e-014)
(-1.62212e+007 41458.2 -2.82219e-014)
(-1.62901e+007 40295.8 -2.8128e-014)
(-1.63567e+007 38664.7 -2.80462e-014)
(-1.64201e+007 36443.7 -2.79782e-014)
(-1.64795e+007 33542.5 -2.7926e-014)
(-1.65338e+007 29897.6 -2.7892e-014)
(-1.65817e+007 25461.2 0)
(-1.66222e+007 20187.4 -2.78888e-014)
(-1.66541e+007 14039.1 -2.79253e-014)
(-1.66761e+007 6917.59 -2.79908e-014)
(-1.66868e+007 -1682.49 -2.80882e-014)
(-1.66852e+007 -10792.8 -2.82204e-014)
(-1.66707e+007 -19140.2 -2.83763e-014)
(-1.66431e+007 -28426.7 -2.8565e-014)
(-1.66016e+007 -37642.9 0)
(-1.65459e+007 -47046.9 -2.90469e-014)
(-1.64756e+007 -56536.6 -2.9342e-014)
(-1.63908e+007 -65993.9 -2.96738e-014)
(-1.62914e+007 -75301.9 -3.00424e-014)
(-1.61778e+007 -84343.2 -3.04478e-014)
(-1.60504e+007 -93001 -3.08894e-014)
(-1.59097e+007 -101161 -3.13666e-014)
(-1.57566e+007 -108712 -3.18784e-014)
(-1.55919e+007 -115549 0)
(-1.54168e+007 -121575 -3.30007e-014)
(-1.52326e+007 -126699 -3.36079e-014)
(-1.50404e+007 -130843 -3.42433e-014)
(-1.48419e+007 -133939 -3.49046e-014)
(-1.46386e+007 -135932 -3.55893e-014)
(-1.44321e+007 -136783 -3.62946e-014)
(-1.42242e+007 -136477 -3.70173e-014)
(-1.40164e+007 -135030 0)
(-1.38105e+007 -132443 -3.85027e-014)
(-1.36082e+007 -128728 -3.9258e-014)
(-1.34112e+007 -123944 -4.00165e-014)
(-1.32208e+007 -118170 -4.07742e-014)
(-1.30387e+007 -111504 -4.15269e-014)
(-1.2866e+007 -104066 -4.22705e-014)
(-1.27039e+007 -95994.7 -4.30006e-014)
(-1.25532e+007 -87446.2 -4.37132e-014)
(-1.24147e+007 -78594 -4.44045e-014)
(-1.22889e+007 -69625.6 -4.50711e-014)
(-1.21758e+007 -60740.1 -4.571e-014)
(-1.20753e+007 -52151.7 -4.63188e-014)
(-1.19871e+007 -44118.2 -4.68961e-014)
(-1.19104e+007 -36886 -4.74412e-014)
(-1.1844e+007 -30648.8 -4.79551e-014)
(-1.17865e+007 -25639.4 -4.84397e-014)
(-1.17362e+007 -22090.8 0)
(-1.1691e+007 -20254.8 -4.93362e-014)
(-1.16481e+007 -20421.9 -4.97603e-014)
(-1.16047e+007 -22839.1 -5.01799e-014)
(-1.15574e+007 -27741.4 -5.06055e-014)
(-1.15025e+007 -35312.3 -5.10498e-014)
(-1.14359e+007 -45821.1 -5.15281e-014)
(-1.1353e+007 -59609.2 -5.20578e-014)
(-1.12488e+007 -76995.3 -5.26598e-014)
(-1.11178e+007 -98308.8 0)
(-1.09539e+007 -123890 -5.41802e-014)
(-1.07506e+007 -154091 -5.51589e-014)
(-1.0501e+007 -189271 -5.6332e-014)
(-1.01977e+007 -229791 -5.77446e-014)
(-9.83302e+006 -276014 -5.94506e-014)
(-9.39905e+006 -328300 -6.1516e-014)
(-8.88775e+006 -387035 -6.40233e-014)
(-8.2911e+006 -452691 -6.70783e-014)
(-7.60128e+006 -525933 -7.08217e-014)
(-6.81072e+006 -607758 -7.54476e-014)
(-5.91222e+006 -699332 -8.12371e-014)
(-4.90073e+006 -800168 -8.86192e-014)
(-3.77477e+006 -898592 -9.82988e-014)
(-2.49289e+006 -946706 -1.11549e-013)
(-1.21205e+006 -975259 -1.30102e-013)
(160733 -1.0405e+006 -1.39146e-013)
(1.59546e+006 -1.06628e+006 -1.23444e-013)
(3.07898e+006 -1.10724e+006 -1.02819e-013)
(4.68566e+006 -1.14503e+006 -8.67316e-014)
(6.28745e+006 -1.13561e+006 -7.40358e-014)
(7.89194e+006 -1.09959e+006 -6.37404e-014)
(9.50627e+006 -1.06083e+006 -5.51014e-014)
(1.10954e+007 -1.0224e+006 -4.77393e-014)
(1.26484e+007 -983367 -4.1382e-014)
(1.41665e+007 -944558 -3.58072e-014)
(1.56465e+007 -907213 -3.08624e-014)
(1.70854e+007 -872238 -2.64402e-014)
(1.84844e+007 -840340 -2.24524e-014)
(1.98477e+007 -812256 -1.88265e-014)
(2.11801e+007 -788686 -1.55042e-014)
(2.24884e+007 -770165 -1.24374e-014)
(2.37799e+007 -756776 -9.58421e-015)
(2.50632e+007 -748645 -6.91057e-015)
(2.63475e+007 -746180 -4.3879e-015)
(2.76433e+007 -749552 -1.98968e-015)
(2.89612e+007 -758885 3.04979e-016)
(3.03126e+007 -774626 2.51143e-015)
(3.17098e+007 -797579 4.64181e-015)
(3.31661e+007 -828867 6.70616e-015)
(3.46954e+007 -869758 8.71412e-015)
(3.63125e+007 -921315 1.06771e-014)
(3.80318e+007 -984002 1.26096e-014)
(3.98667e+007 -1.05736e+006 1.45291e-014)
(4.18291e+007 -1.14051e+006 1.6455e-014)
(4.39283e+007 -1.23137e+006 1.84067e-014)
(4.61712e+007 -1.32755e+006 2.0402e-014)
(4.85615e+007 -1.42667e+006 2.24571e-014)
(5.11e+007 -1.52648e+006 2.45851e-014)
(5.37846e+007 -1.62493e+006 2.67969e-014)
(5.66102e+007 -1.72013e+006 2.91003e-014)
(5.9569e+007 -1.81031e+006 3.15004e-014)
(6.26507e+007 -1.89375e+006 3.39996e-014)
(6.58426e+007 -1.96944e+006 3.6598e-014)
(6.91298e+007 -2.03608e+006 3.92923e-014)
(7.24957e+007 -2.09234e+006 4.2077e-014)
(7.59219e+007 -2.13701e+006 4.49441e-014)
(7.93891e+007 -2.16937e+006 4.78826e-014)
(8.28777e+007 -2.1892e+006 5.08792e-014)
(8.63672e+007 -2.19623e+006 5.39215e-014)
(8.98374e+007 -2.19013e+006 5.69956e-014)
(9.32678e+007 -2.1709e+006 6.00851e-014)
(9.66387e+007 -2.13879e+006 6.31733e-014)
(9.9931e+007 -2.09423e+006 6.62432e-014)
(1.03126e+008 -2.03781e+006 6.92778e-014)
(1.06207e+008 -1.97023e+006 7.22602e-014)
(1.09158e+008 -1.89225e+006 7.5174e-014)
(1.11964e+008 -1.80474e+006 7.80035e-014)
(1.14611e+008 -1.70858e+006 8.07338e-014)
(1.17088e+008 -1.60472e+006 8.33511e-014)
(1.19384e+008 -1.4941e+006 8.58429e-014)
(1.2149e+008 -1.37769e+006 8.81976e-014)
(1.23399e+008 -1.25643e+006 9.04051e-014)
(1.25105e+008 -1.13123e+006 9.24567e-014)
(1.26604e+008 -1.00295e+006 9.43445e-014)
(1.27893e+008 -872363 9.60622e-014)
(1.28968e+008 -740125 9.76042e-014)
(1.2983e+008 -606989 9.89664e-014)
(1.30475e+008 -470823 1.00147e-013)
(1.30905e+008 -325380 1.01142e-013)
(1.31121e+008 -195559 1.01945e-013)
(1.31118e+008 -48076.2 1.02501e-013)
(1.30888e+008 112616 1.02756e-013)
(1.30429e+008 265313 1.02812e-013)
(1.29746e+008 409754 1.0266e-013)
(1.28841e+008 554824 1.02291e-013)
(1.27714e+008 702257 1.01698e-013)
(1.26363e+008 850252 1.00876e-013)
(1.24789e+008 998377 9.98179e-014)
(1.22993e+008 1.1468e+006 9.85175e-014)
(1.20974e+008 1.29572e+006 9.69679e-014)
(1.18731e+008 1.44521e+006 9.51619e-014)
(1.16267e+008 1.59525e+006 9.30922e-014)
(1.13581e+008 1.7457e+006 9.07513e-014)
(1.10675e+008 1.89631e+006 8.81316e-014)
(1.0755e+008 2.04673e+006 8.5225e-014)
(1.0421e+008 2.19651e+006 8.20233e-014)
(1.00657e+008 2.34506e+006 7.85181e-014)
(9.68984e+007 2.49172e+006 7.47004e-014)
(9.29385e+007 2.63571e+006 7.05606e-014)
(8.87857e+007 2.77612e+006 6.60881e-014)
(8.44491e+007 2.9121e+006 6.12718e-014)
(7.99405e+007 3.04242e+006 5.60951e-014)
(7.52698e+007 3.1674e+006 5.05491e-014)
(7.04598e+007 3.28253e+006 4.45816e-014)
(6.54988e+007 3.40021e+006 3.8256e-014)
(6.04806e+007 3.49519e+006 3.12411e-014)
(5.51397e+007 3.63263e+006 2.43486e-014)
(5.04577e+007 3.82335e+006 1.49904e-014)
(4.23903e+007 4.3917e+006 1.09885e-014)
(-34899.1 -1.1851e+006 2.71217e-013)
(-40368 132189 0)
(-707002 1.06323e+006 0)
(-1.65208e+006 1.66001e+006 0)
(-2.74801e+006 1.96953e+006 0)
(-3.8704e+006 2.05955e+006 0)
(-5.00398e+006 2.02028e+006 -5.41428e-014)
(-6.12455e+006 1.9204e+006 0)
(-7.19241e+006 1.78644e+006 0)
(-8.18734e+006 1.6345e+006 -3.43507e-014)
(-9.09857e+006 1.47474e+006 0)
(-9.92243e+006 1.31504e+006 0)
(-1.06596e+007 1.16116e+006 -2.44228e-014)
(-1.13121e+007 1.01621e+006 0)
(-1.18845e+007 881929 -2.05033e-014)
(-1.23829e+007 759570 -1.90497e-014)
(-1.28139e+007 649773 -1.78506e-014)
(-1.31846e+007 552657 -1.68597e-014)
(-1.35021e+007 467955 -1.60397e-014)
(-1.37731e+007 395113 -1.53606e-014)
(-1.40041e+007 333381 -1.47975e-014)
(-1.42012e+007 281874 -1.43298e-014)
(-1.43699e+007 239622 0)
(-1.45154e+007 205608 -1.36158e-014)
(-1.4642e+007 178800 -1.33433e-014)
(-1.47538e+007 158168 -1.31132e-014)
(-1.48541e+007 142713 -1.29174e-014)
(-1.49457e+007 131473 -1.2749e-014)
(-1.5031e+007 123543 -1.26025e-014)
(-1.51117e+007 118082 -1.24732e-014)
(-1.51891e+007 114319 0)
(-1.52642e+007 111562 -1.22534e-014)
(-1.53374e+007 109197 -1.2158e-014)
(-1.54089e+007 106693 -1.20702e-014)
(-1.54785e+007 103600 -1.1989e-014)
(-1.5546e+007 99548 -1.19141e-014)
(-1.56107e+007 94243.1 -1.18453e-014)
(-1.56718e+007 87462.2 -1.17828e-014)
(-1.57285e+007 79047.9 -1.17271e-014)
(-1.57799e+007 68903.1 0)
(-1.58248e+007 56983.9 -1.16388e-014)
(-1.58624e+007 43285.1 -1.16081e-014)
(-1.58916e+007 27857.9 -1.15877e-014)
(-1.59117e+007 10832.9 -1.15787e-014)
(-1.59219e+007 -7606.34 -1.15835e-014)
(-1.59211e+007 -26839.5 -1.16008e-014)
(-1.59089e+007 -46941.4 -1.1628e-014)
(-1.58847e+007 -67959.3 0)
(-1.58478e+007 -89582.1 -1.17189e-014)
(-1.57982e+007 -111527 -1.17835e-014)
(-1.57355e+007 -133539 -1.18614e-014)
(-1.56597e+007 -155364 -1.19527e-014)
(-1.5571e+007 -176742 -1.20577e-014)
(-1.54695e+007 -197415 -1.21764e-014)
(-1.53558e+007 -217124 -1.23088e-014)
(-1.52303e+007 -235619 -1.24548e-014)
(-1.50938e+007 -252660 0)
(-1.4947e+007 -268022 -1.27872e-014)
(-1.47909e+007 -281498 -1.29731e-014)
(-1.46266e+007 -292904 -1.31719e-014)
(-1.44552e+007 -302080 -1.3383e-014)
(-1.4278e+007 -308895 -1.36063e-014)
(-1.40963e+007 -313249 -1.38412e-014)
(-1.39114e+007 -315076 -1.40872e-014)
(-1.37249e+007 -314346 0)
(-1.35381e+007 -311077 -1.46106e-014)
(-1.33525e+007 -305324 -1.48867e-014)
(-1.31694e+007 -297172 -1.51716e-014)
(-1.29903e+007 -286757 -1.54643e-014)
(-1.28162e+007 -274260 -1.57641e-014)
(-1.26486e+007 -259910 -1.607e-014)
(-1.24882e+007 -243975 -1.63811e-014)
(-1.23361e+007 -226762 -1.66961e-014)
(-1.21931e+007 -208616 -1.70141e-014)
(-1.20595e+007 -189916 -1.73337e-014)
(-1.19358e+007 -171078 -1.76535e-014)
(-1.18221e+007 -152552 -1.79723e-014)
(-1.17182e+007 -134822 -1.82886e-014)
(-1.16237e+007 -118380 -1.86008e-014)
(-1.15379e+007 -103728 -1.89078e-014)
(-1.14599e+007 -91411.1 -1.92082e-014)
(-1.13882e+007 -82008 0)
(-1.13211e+007 -76135.1 -1.97844e-014)
(-1.12566e+007 -74457 -2.00587e-014)
(-1.11923e+007 -77568.2 -2.03235e-014)
(-1.11253e+007 -86021.4 -2.05783e-014)
(-1.10522e+007 -100482 -2.08236e-014)
(-1.09693e+007 -121672 -2.10603e-014)
(-1.08724e+007 -150354 -2.12898e-014)
(-1.07567e+007 -187325 -2.1514e-014)
(-1.06169e+007 -233387 0)
(-1.04472e+007 -289328 -2.19568e-014)
(-1.02413e+007 -355903 -2.21823e-014)
(-9.99243e+006 -433807 -2.24159e-014)
(-9.69343e+006 -523640 -2.26626e-014)
(-9.33686e+006 -625856 -2.29274e-014)
(-8.91511e+006 -740714 -2.32161e-014)
(-8.42065e+006 -868222 -2.35346e-014)
(-7.84626e+006 -1.00808e+006 -2.38891e-014)
(-7.18537e+006 -1.15964e+006 -2.42859e-014)
(-6.43262e+006 -1.32181e+006 -2.47317e-014)
(-5.58456e+006 -1.49278e+006 -2.52342e-014)
(-4.64071e+006 -1.6694e+006 -2.58053e-014)
(-3.60386e+006 -1.84482e+006 -2.6469e-014)
(-2.47087e+006 -1.99987e+006 -2.72753e-014)
(-1.24113e+006 -2.13333e+006 -2.82345e-014)
(90745.6 -2.2502e+006 -2.86345e-014)
(1.49923e+006 -2.34348e+006 -2.77474e-014)
(2.96164e+006 -2.42051e+006 -2.62195e-014)
(4.46386e+006 -2.48143e+006 -2.46586e-014)
(5.98595e+006 -2.50992e+006 -2.31019e-014)
(7.52949e+006 -2.50971e+006 -2.15446e-014)
(9.08895e+006 -2.49169e+006 -1.99637e-014)
(1.06463e+007 -2.4584e+006 -1.83618e-014)
(1.21874e+007 -2.41228e+006 -1.67474e-014)
(1.37062e+007 -2.35765e+006 -1.51249e-014)
(1.51963e+007 -2.29901e+006 -1.35012e-014)
(1.66537e+007 -2.24017e+006 -1.18834e-014)
(1.80784e+007 -2.18458e+006 -1.0275e-014)
(1.9473e+007 -2.13543e+006 -8.67884e-015)
(2.08415e+007 -2.09546e+006 -7.09719e-015)
(2.21906e+007 -2.06673e+006 -5.5301e-015)
(2.35277e+007 -2.05063e+006 -3.97726e-015)
(2.48632e+007 -2.04916e+006 -2.44269e-015)
(2.62069e+007 -2.0641e+006 -9.31076e-016)
(2.75709e+007 -2.09654e+006 5.54433e-016)
(2.8968e+007 -2.14769e+006 2.00451e-015)
(3.04116e+007 -2.21895e+006 3.40682e-015)
(3.19155e+007 -2.31163e+006 4.74996e-015)
(3.34929e+007 -2.4266e+006 6.0262e-015)
(3.51559e+007 -2.56409e+006 7.23515e-015)
(3.6915e+007 -2.72339e+006 8.38562e-015)
(3.8779e+007 -2.90284e+006 9.49432e-015)
(4.07548e+007 -3.09991e+006 1.05823e-014)
(4.28478e+007 -3.31112e+006 1.1671e-014)
(4.50615e+007 -3.53284e+006 1.27791e-014)
(4.73976e+007 -3.76107e+006 1.39211e-014)
(4.98559e+007 -3.99154e+006 1.51076e-014)
(5.24341e+007 -4.21988e+006 1.63454e-014)
(5.51275e+007 -4.44174e+006 1.76388e-014)
(5.79291e+007 -4.65284e+006 1.89902e-014)
(6.08297e+007 -4.84913e+006 2.04003e-014)
(6.38183e+007 -5.0268e+006 2.18685e-014)
(6.68818e+007 -5.18199e+006 2.33931e-014)
(7.00054e+007 -5.31167e+006 2.49716e-014)
(7.31734e+007 -5.41337e+006 2.66007e-014)
(7.63687e+007 -5.48547e+006 2.82747e-014)
(7.95743e+007 -5.52675e+006 2.99875e-014)
(8.27724e+007 -5.53613e+006 3.17339e-014)
(8.59438e+007 -5.51327e+006 3.35073e-014)
(8.9071e+007 -5.45839e+006 3.53008e-014)
(9.21364e+007 -5.37214e+006 3.71062e-014)
(9.51232e+007 -5.25549e+006 3.8915e-014)
(9.80152e+007 -5.10965e+006 4.07185e-014)
(1.00797e+008 -4.9361e+006 4.25078e-014)
(1.03455e+008 -4.73652e+006 4.42737e-014)
(1.05975e+008 -4.51283e+006 4.60071e-014)
(1.08346e+008 -4.26714e+006 4.7699e-014)
(1.10557e+008 -4.0017e+006 4.93406e-014)
(1.12599e+008 -3.71891e+006 5.09233e-014)
(1.14465e+008 -3.42121e+006 5.24392e-014)
(1.16148e+008 -3.11104e+006 5.38807e-014)
(1.17644e+008 -2.79074e+006 5.52409e-014)
(1.18948e+008 -2.46248e+006 5.65135e-014)
(1.20058e+008 -2.12816e+006 5.76931e-014)
(1.20973e+008 -1.78938e+006 5.8775e-014)
(1.2169e+008 -1.44741e+006 5.97556e-014)
(1.22211e+008 -1.10354e+006 6.06327e-014)
(1.22535e+008 -760626 6.1402e-014)
(1.22665e+008 -426353 6.20622e-014)
(1.22603e+008 -78755.5 6.25867e-014)
(1.22342e+008 271369 6.2886e-014)
(1.2189e+008 622554 6.30329e-014)
(1.21248e+008 974917 6.3096e-014)
(1.20413e+008 1.32697e+006 6.30571e-014)
(1.19383e+008 1.67823e+006 6.29034e-014)
(1.18158e+008 2.02912e+006 6.26267e-014)
(1.16739e+008 2.38005e+006 6.22198e-014)
(1.15125e+008 2.7311e+006 6.1675e-014)
(1.13317e+008 3.08217e+006 6.09842e-014)
(1.11314e+008 3.43302e+006 6.01401e-014)
(1.09117e+008 3.78324e+006 5.91351e-014)
(1.06726e+008 4.13223e+006 5.79615e-014)
(1.04143e+008 4.47922e+006 5.66114e-014)
(1.01368e+008 4.82317e+006 5.5077e-014)
(9.8404e+007 5.16284e+006 5.33499e-014)
(9.5254e+007 5.49671e+006 5.14216e-014)
(9.19215e+007 5.82299e+006 4.92834e-014)
(8.84114e+007 6.13963e+006 4.69261e-014)
(8.47296e+007 6.44431e+006 4.43407e-014)
(8.08837e+007 6.73443e+006 4.15169e-014)
(7.6882e+007 7.00722e+006 3.84452e-014)
(7.27369e+007 7.25971e+006 3.51121e-014)
(6.84547e+007 7.49002e+006 3.15174e-014)
(6.40698e+007 7.69403e+006 2.76121e-014)
(5.95319e+007 7.8798e+006 2.35035e-014)
(5.50641e+007 8.03078e+006 1.8824e-014)
(5.0083e+007 8.21329e+006 1.46071e-014)
(4.62627e+007 8.42992e+006 8.29488e-015)
(3.93583e+007 8.72907e+006 7.11968e-015)
(-451188 -837553 -4.0027e-013)
(-864233 708055 0)
(-1.68479e+006 1.84926e+006 0)
(-2.53391e+006 2.59245e+006 0)
(-3.44419e+006 2.9888e+006 0)
(-4.36855e+006 3.13009e+006 0)
(-5.29796e+006 3.09904e+006 6.3239e-014)
(-6.2103e+006 2.96592e+006 0)
(-7.08481e+006 2.77207e+006 0)
(-7.90772e+006 2.54563e+006 4.07092e-014)
(-8.67023e+006 2.30537e+006 0)
(-9.36761e+006 2.06395e+006 0)
(-9.99847e+006 1.82938e+006 2.875e-014)
(-1.05636e+007 1.60702e+006 0)
(-1.10655e+007 1.40044e+006 2.39797e-014)
(-1.1508e+007 1.21172e+006 2.22095e-014)
(-1.18954e+007 1.04189e+006 2.0749e-014)
(-1.22326e+007 891154 1.95416e-014)
(-1.25248e+007 759157 1.85412e-014)
(-1.2777e+007 645122 1.77105e-014)
(-1.29944e+007 547981 1.7019e-014)
(-1.31817e+007 466462 1.64415e-014)
(-1.33437e+007 399158 0)
(-1.34844e+007 344578 1.55495e-014)
(-1.36078e+007 301192 1.52038e-014)
(-1.37174e+007 267466 1.49085e-014)
(-1.38159e+007 241894 1.46541e-014)
(-1.39061e+007 223018 1.44327e-014)
(-1.39901e+007 209453 4.29667e-014)
(-1.40694e+007 199905 1.40649e-014)
(-1.41453e+007 193178 0)
(-1.42188e+007 188190 1.37683e-014)
(-1.42904e+007 183977 1.36395e-014)
(-1.43604e+007 179698 1.35214e-014)
(-1.44287e+007 174632 4.04357e-014)
(-1.4495e+007 168187 1.33135e-014)
(-1.45589e+007 159885 1.32231e-014)
(-1.46199e+007 149359 1.31418e-014)
(-1.46771e+007 136347 1.30701e-014)
(-1.47297e+007 120679 0)
(-1.4777e+007 102275 3.8981e-014)
(-1.4818e+007 81137.2 1.29194e-014)
(-1.48519e+007 57338.7 1.28939e-014)
(-1.4878e+007 31044.6 1.28824e-014)
(-1.48955e+007 2606.23 1.28868e-014)
(-1.49035e+007 -27541.6 1.29075e-014)
(-1.49014e+007 -59141.4 3.87762e-014)
(-1.48886e+007 -92011.2 0)
(-1.48648e+007 -125869 1.30402e-014)
(-1.48297e+007 -160346 1.31128e-014)
(-1.47829e+007 -195055 1.31998e-014)
(-1.47245e+007 -229599 1.33013e-014)
(-1.46543e+007 -263579 1.34172e-014)
(-1.45725e+007 -296592 1.35475e-014)
(-1.44794e+007 -328243 1.3692e-014)
(-1.43754e+007 -358141 1.38505e-014)
(-1.4261e+007 -385916 0)
(-1.41368e+007 -411216 1.42085e-014)
(-1.40035e+007 -433716 1.44073e-014)
(-1.38621e+007 -453125 1.46188e-014)
(-1.37135e+007 -469191 1.48427e-014)
(-1.35587e+007 -481702 1.50786e-014)
(-1.33987e+007 -490494 1.5326e-014)
(-1.32348e+007 -495453 1.55846e-014)
(-1.30682e+007 -496506 0)
(-1.29e+007 -493653 1.61337e-014)
(-1.27314e+007 -486967 1.64232e-014)
(-1.25638e+007 -476572 1.67222e-014)
(-1.23982e+007 -462655 1.703e-014)
(-1.22358e+007 -445468 1.73462e-014)
(-1.20777e+007 -425338 1.76701e-014)
(-1.19248e+007 -402652 1.80011e-014)
(-1.17779e+007 -377860 1.83385e-014)
(-1.16378e+007 -351465 1.86815e-014)
(-1.1505e+007 -324032 1.90292e-014)
(-1.138e+007 -296177 1.93807e-014)
(-1.12629e+007 -268572 1.97348e-014)
(-1.11537e+007 -241942 2.00905e-014)
(-1.10522e+007 -217056 2.04464e-014)
(-1.09579e+007 -194722 2.08014e-014)
(-1.087e+007 -175806 2.11541e-014)
(-1.07875e+007 -161227 0)
(-1.07088e+007 -151963 2.1848e-014)
(-1.06323e+007 -149040 -2.19449e-014)
(-1.05559e+007 -153483 -2.22672e-014)
(-1.04769e+007 -166332 2.28466e-014)
(-1.03925e+007 -188710 2.31662e-014)
(-1.02992e+007 -221840 2.34793e-014)
(-1.01931e+007 -267024 2.37867e-014)
(-1.00697e+007 -325607 2.40898e-014)
(-9.92416e+006 -398947 -4.82862e-014)
(-9.75098e+006 -488374 2.46915e-014)
(-9.54421e+006 -595150 2.49956e-014)
(-9.29747e+006 -720411 2.53066e-014)
(-9.00396e+006 -865095 2.56284e-014)
(-8.65665e+006 -1.02986e+006 2.59656e-014)
(-8.24838e+006 -1.21496e+006 -2.51222e-014)
(-7.77207e+006 -1.42017e+006 2.67049e-014)
(-7.221e+006 -1.6446e+006 2.71164e-014)
(-6.58914e+006 -1.88657e+006 2.75618e-014)
(-5.87155e+006 -2.14338e+006 2.80452e-014)
(-5.06486e+006 -2.41089e+006 2.85711e-014)
(-4.16767e+006 -2.68282e+006 -2.67143e-014)
(-3.18024e+006 -2.94969e+006 2.97822e-014)
(-2.10159e+006 -3.19816e+006 3.05151e-014)
(-929521 -3.42078e+006 3.13484e-014)
(331709 -3.61786e+006 3.17464e-014)
(1.66809e+006 -3.78824e+006 3.139e-014)
(3.06712e+006 -3.93085e+006 3.06944e-014)
(4.51374e+006 -4.04233e+006 -2.62049e-014)
(5.99309e+006 -4.11351e+006 2.8883e-014)
(7.49827e+006 -4.14288e+006 2.77819e-014)
(9.01896e+006 -4.13728e+006 2.65076e-014)
(1.054e+007 -4.10203e+006 2.507e-014)
(1.20486e+007 -4.0426e+006 2.34824e-014)
(1.35363e+007 -3.96596e+006 -1.8348e-014)
(1.49965e+007 -3.87945e+006 1.98873e-014)
(1.64251e+007 -3.79004e+006 1.79126e-014)
(1.78217e+007 -3.70425e+006 1.58436e-014)
(1.91887e+007 -3.62793e+006 1.36981e-014)
(2.05307e+007 -3.5661e+006 1.1496e-014)
(2.18546e+007 -3.52321e+006 -6.54107e-015)
(2.31688e+007 -3.50279e+006 7.00588e-015)
(2.4485e+007 -3.50801e+006 4.7699e-015)
(2.58144e+007 -3.54179e+006 2.58261e-015)
(2.71705e+007 -3.60642e+006 4.75209e-016)
(2.85669e+007 -3.70393e+006 -1.51925e-015)
(3.00169e+007 -3.83563e+006 6.15367e-015)
(3.15334e+007 -4.00193e+006 -5.07031e-015)
(3.31277e+007 -4.2022e+006 -6.61177e-015)
(3.48092e+007 -4.43478e+006 -8.01291e-015)
(3.65856e+007 -4.69712e+006 -9.30157e-015)
(3.84625e+007 -4.98593e+006 -1.05123e-014)
(4.04437e+007 -5.29725e+006 1.55043e-014)
(4.25313e+007 -5.62641e+006 -1.28401e-014)
(4.47259e+007 -5.9681e+006 -1.40181e-014)
(4.70262e+007 -6.31639e+006 -1.52374e-014)
(4.94291e+007 -6.66487e+006 -1.65151e-014)
(5.19299e+007 -7.00688e+006 -1.78642e-014)
(5.45219e+007 -7.33573e+006 2.44562e-014)
(5.71966e+007 -7.64488e+006 -2.08117e-014)
(5.99439e+007 -7.92818e+006 -2.24212e-014)
(6.2752e+007 -8.17996e+006 -2.41251e-014)
(6.56082e+007 -8.39514e+006 -2.59242e-014)
(6.84984e+007 -8.56947e+006 -2.78174e-014)
(7.14078e+007 -8.69951e+006 -2.98024e-014)
(7.43216e+007 -8.78265e+006 3.80506e-014)
(7.72231e+007 -8.81682e+006 -3.40277e-014)
(8.0097e+007 -8.80079e+006 -3.62554e-014)
(8.29277e+007 -8.73441e+006 -3.85502e-014)
(8.57003e+007 -8.6183e+006 -4.09036e-014)
(8.84e+007 -8.45354e+006 -4.33055e-014)
(9.10128e+007 -8.2417e+006 5.16055e-014)
(9.35256e+007 -7.98483e+006 -4.82096e-014)
(9.59258e+007 -7.6854e+006 -5.06878e-014)
(9.82022e+007 -7.34629e+006 -5.31664e-014)
(1.00344e+008 -6.97068e+006 -5.5632e-014)
(1.02343e+008 -6.56207e+006 -5.80714e-014)
(1.0419e+008 -6.12415e+006 6.4965e-014)
(1.05879e+008 -5.66077e+006 -6.28172e-014)
(1.07405e+008 -5.17577e+006 -6.50974e-014)
(1.08761e+008 -4.67293e+006 -6.72991e-014)
(1.09946e+008 -4.15582e+006 -6.94107e-014)
(1.10957e+008 -3.62775e+006 -7.14213e-014)
(1.11791e+008 -3.09164e+006 7.5868e-014)
(1.12449e+008 -2.55011e+006 -7.51014e-014)
(1.1293e+008 -2.00552e+006 -7.67547e-014)
(1.13234e+008 -1.46013e+006 -7.82752e-014)
(1.13363e+008 -915202 -7.96568e-014)
(1.13312e+008 -367495 -8.08946e-014)
(1.13081e+008 182043 8.24712e-014)
(1.12675e+008 734855 -8.26607e-014)
(1.12093e+008 1.29015e+006 -8.32533e-014)
(1.11336e+008 1.84573e+006 -8.37228e-014)
(1.10403e+008 2.40139e+006 -8.40552e-014)
(1.09294e+008 2.95755e+006 -8.42387e-014)
(1.08008e+008 3.51454e+006 -8.4263e-014)
(1.06546e+008 4.07235e+006 8.25633e-014)
(1.04909e+008 4.63091e+006 -8.37928e-014)
(1.03096e+008 5.19e+006 -8.32751e-014)
(1.01108e+008 5.74924e+006 -8.25524e-014)
(9.89462e+007 6.30798e+006 -8.16115e-014)
(9.66116e+007 6.86532e+006 -8.04386e-014)
(9.41058e+007 7.42004e+006 7.62197e-014)
(9.14311e+007 7.9706e+006 -7.73368e-014)
(8.85902e+007 8.51505e+006 -7.53756e-014)
(8.55866e+007 9.05109e+006 -7.31176e-014)
(8.24246e+007 9.57594e+006 -7.05443e-014)
(7.91096e+007 1.00864e+007 -6.76358e-014)
(7.56482e+007 1.05788e+007 6.12077e-014)
(7.20484e+007 1.10492e+007 -6.07287e-014)
(6.83193e+007 1.14928e+007 -5.66851e-014)
(6.44734e+007 1.19053e+007 -5.22118e-014)
(6.05205e+007 1.22812e+007 -4.72937e-014)
(5.64912e+007 1.26175e+007 -4.18586e-014)
(5.2361e+007 1.2908e+007 3.39114e-014)
(4.82918e+007 1.3167e+007 -2.92887e-014)
(4.39199e+007 1.33672e+007 -2.28648e-014)
(4.03801e+007 1.36441e+007 -1.35397e-014)
(3.46459e+007 1.38106e+007 -1.15659e-014)
(-639210 -41535.5 6.76697e-013)
(-1.29539e+006 1.51185e+006 0)
(-2.15855e+006 2.66572e+006 0)
(-2.94206e+006 3.42257e+006 0)
(-3.72314e+006 3.82376e+006 0)
(-4.49354e+006 3.95947e+006 0)
(-5.257e+006 3.91581e+006 -8.88044e-014)
(-6.00224e+006 3.75813e+006 0)
(-6.71822e+006 3.52938e+006 0)
(-7.39633e+006 3.259e+006 -5.85566e-014)
(-8.03049e+006 2.96809e+006 0)
(-8.61674e+006 2.67187e+006 0)
(-9.15282e+006 2.38128e+006 -4.19428e-014)
(-9.63828e+006 2.10354e+006 0)
(-1.0074e+007 1.84345e+006 -3.51322e-014)
(-1.04621e+007 1.60406e+006 -3.25632e-014)
(-1.08051e+007 1.38704e+006 -3.04213e-014)
(-1.11064e+007 1.19309e+006 -2.86317e-014)
(-1.13696e+007 1.02213e+006 -2.71335e-014)
(-1.15987e+007 873487 -2.58767e-014)
(-1.17976e+007 746085 -2.48201e-014)
(-1.19702e+007 638518 -2.39292e-014)
(-1.21203e+007 549159 0)
(-1.22515e+007 476229 -2.25351e-014)
(-1.23671e+007 417863 -2.1988e-014)
(-1.247e+007 372156 -2.15174e-014)
(-1.25628e+007 337211 -2.11095e-014)
(-1.26479e+007 311174 -2.07525e-014)
(-1.27271e+007 292264 -4.06608e-014)
(-1.28019e+007 278803 -2.01552e-014)
(-1.28736e+007 269232 0)
(-1.29431e+007 262129 -1.9669e-014)
(-1.30108e+007 256219 -1.94559e-014)
(-1.30772e+007 250380 -1.92586e-014)
(-1.31421e+007 243651 -3.79915e-014)
(-1.32055e+007 235231 -1.89051e-014)
(-1.3267e+007 224471 -1.8747e-014)
(-1.3326e+007 210871 -1.86011e-014)
(-1.33821e+007 194067 -1.84676e-014)
(-1.34345e+007 173825 0)
(-1.34824e+007 150033 -3.63953e-014)
(-1.35251e+007 122690 -1.8151e-014)
(-1.35619e+007 91903.7 -1.80772e-014)
(-1.35921e+007 57884.7 -1.80218e-014)
(-1.36148e+007 20965.2 -1.79864e-014)
(-1.36296e+007 -18425.3 -1.79723e-014)
(-1.36356e+007 -59905.7 -3.59565e-014)
(-1.36323e+007 -103143 0)
(-1.36195e+007 -147757 -1.80295e-014)
(-1.35966e+007 -193303 -1.80875e-014)
(-1.35635e+007 -239297 -1.81659e-014)
(-1.352e+007 -285231 -1.8265e-014)
(-1.3466e+007 -330587 -1.83851e-014)
(-1.34015e+007 -374842 -1.85262e-014)
(-1.33268e+007 -417475 -1.86886e-014)
(-1.32421e+007 -457977 -1.88721e-014)
(-1.31478e+007 -495858 0)
(-1.30443e+007 -530654 -1.93024e-014)
(-1.29322e+007 -561933 -1.95487e-014)
(-1.28122e+007 -589307 -1.98155e-014)
(-1.26851e+007 -612434 -2.01023e-014)
(-1.25516e+007 -631024 -2.04089e-014)
(-1.24128e+007 -644850 -2.07348e-014)
(-1.22695e+007 -653744 -2.10796e-014)
(-1.21228e+007 -657604 0)
(-1.19736e+007 -656405 -2.18233e-014)
(-1.18231e+007 -650202 -2.22212e-014)
(-1.16722e+007 -639130 -2.26354e-014)
(-1.1522e+007 -623417 -2.30652e-014)
(-1.13735e+007 -603364 -2.35097e-014)
(-1.12276e+007 -579370 -2.39678e-014)
(-1.10853e+007 -551917 -2.44386e-014)
(-1.09473e+007 -521564 -2.49206e-014)
(-1.08142e+007 -488944 -2.54127e-014)
(-1.06867e+007 -454771 -2.59131e-014)
(-1.05652e+007 -419831 -2.64203e-014)
(-1.04498e+007 -384987 -2.69322e-014)
(-1.03407e+007 -351177 -2.74469e-014)
(-1.02378e+007 -319405 -2.79622e-014)
(-1.01406e+007 -290749 -2.84756e-014)
(-1.00486e+007 -266362 -2.89847e-014)
(-9.96085e+006 -247477 0)
(-9.87617e+006 -235410 -2.99803e-014)
(-9.79299e+006 -231547 2.01196e-016)
(-9.70953e+006 -237310 2.09664e-016)
(-9.62345e+006 -254182 -3.13853e-014)
(-9.53206e+006 -283751 -3.18228e-014)
(-9.43223e+006 -327729 -3.2243e-014)
(-9.32033e+006 -387926 -3.2646e-014)
(-9.19225e+006 -466219 -3.30324e-014)
(-9.04338e+006 -564500 3.37659e-014)
(-8.86861e+006 -684628 -3.37624e-014)
(-8.66234e+006 -828361 -3.41119e-014)
(-8.41855e+006 -997272 -3.44567e-014)
(-8.13082e+006 -1.19264e+006 -3.48024e-014)
(-7.79251e+006 -1.41534e+006 -3.51555e-014)
(-7.39685e+006 -1.66565e+006 7.76678e-016)
(-6.93716e+006 -1.94315e+006 -3.59149e-014)
(-6.40709e+006 -2.24646e+006 -3.6339e-014)
(-5.80089e+006 -2.57308e+006 -3.68059e-014)
(-5.1138e+006 -2.91908e+006 -3.73263e-014)
(-4.34227e+006 -3.27884e+006 -3.79124e-014)
(-3.48418e+006 -3.6446e+006 1.45704e-015)
(-2.53864e+006 -4.00616e+006 -3.93403e-014)
(-1.50515e+006 -4.35127e+006 -4.02167e-014)
(-383655 -4.66941e+006 -4.1141e-014)
(821585 -4.9541e+006 -4.15293e-014)
(2.10184e+006 -5.19974e+006 -4.1301e-014)
(3.4471e+006 -5.40184e+006 -4.0898e-014)
(4.84315e+006 -5.55679e+006 2.26519e-015)
(6.27531e+006 -5.65951e+006 -3.94318e-014)
(7.73162e+006 -5.70892e+006 -3.83095e-014)
(9.19888e+006 -5.70955e+006 -3.68803e-014)
(1.06623e+007 -5.66742e+006 -3.51331e-014)
(1.21084e+007 -5.58992e+006 -3.3067e-014)
(1.35276e+007 -5.48655e+006 2.49394e-015)
(1.49128e+007 -5.36779e+006 -2.80074e-014)
(1.62601e+007 -5.24394e+006 -2.5052e-014)
(1.75698e+007 -5.12465e+006 -2.18483e-014)
(1.88453e+007 -5.01936e+006 -1.84305e-014)
(2.00924e+007 -4.93537e+006 -1.48424e-014)
(2.13202e+007 -4.87862e+006 2.17199e-015)
(2.25391e+007 -4.85539e+006 -7.38655e-015)
(2.37623e+007 -4.87091e+006 -3.65528e-015)
(2.50027e+007 -4.929e+006 -1.64203e-017)
(2.62751e+007 -5.03258e+006 3.46845e-015)
(2.75935e+007 -5.18352e+006 6.74427e-015)
(2.8971e+007 -5.38225e+006 2.22289e-015)
(3.04196e+007 -5.62769e+006 1.25644e-014)
(3.1949e+007 -5.91739e+006 1.51202e-014)
(3.35668e+007 -6.24764e+006 1.74818e-014)
(3.52786e+007 -6.61379e+006 1.96961e-014)
(3.70876e+007 -7.01039e+006 2.18138e-014)
(3.89949e+007 -7.43138e+006 2.74428e-015)
(4.1e+007 -7.87005e+006 2.59503e-014)
(4.31001e+007 -8.31917e+006 2.80491e-014)
(4.52913e+007 -8.77099e+006 3.0209e-014)
(4.75677e+007 -9.21738e+006 3.24516e-014)
(4.99223e+007 -9.65002e+006 3.47921e-014)
(5.23465e+007 -1.00606e+007 3.41029e-015)
(5.48309e+007 -1.04411e+007 3.98011e-014)
(5.73647e+007 -1.07841e+007 4.24773e-014)
(5.99364e+007 -1.10825e+007 4.52681e-014)
(6.25338e+007 -1.13303e+007 4.81698e-014)
(6.51438e+007 -1.15225e+007 5.1177e-014)
(6.77531e+007 -1.16549e+007 5.42827e-014)
(7.03481e+007 -1.17246e+007 4.00446e-015)
(7.29154e+007 -1.17296e+007 6.07552e-014)
(7.54419e+007 -1.16692e+007 6.41012e-014)
(7.79149e+007 -1.15436e+007 6.75047e-014)
(8.03223e+007 -1.1354e+007 7.0953e-014)
(8.26523e+007 -1.11019e+007 7.44323e-014)
(8.48937e+007 -1.07897e+007 3.86136e-015)
(8.70361e+007 -1.04202e+007 8.1424e-014)