# vtk DataFile Version 2.0
track0
ASCII
DATASET POLYDATA
POINTS 11930 float
-0.0205 0.001 1e-005
-0.020385 0.00100536 1.50272e-005
-0.02027 0.00101047 1.96696e-005
-0.0201549 0.00101535 2.39798e-005
-0.0200398 0.00102 2.79532e-005
-0.0198618 0.00102682 3.35705e-005
-0.0196929 0.00103275 3.81125e-005
-0.0195239 0.00103806 4.16243e-005
-0.0193549 0.00104277 4.41149e-005
-0.0191859 0.00104687 4.55935e-005
-0.0190172 0.00105035 4.60684e-005
-0.0187132 0.00105583 4.60684e-005
-0.0184093 0.00106068 4.60684e-005
-0.0181054 0.001065 4.60684e-005
-0.0178014 0.00106881 4.60684e-005
-0.0174976 0.0010721 4.60684e-005
-0.0172058 0.00107496 4.60684e-005
-0.016914 0.00107775 4.60684e-005
-0.0166222 0.00108049 4.60684e-005
-0.0163305 0.00108316 4.60684e-005
-0.0160387 0.00108577 4.60684e-005
-0.0157586 0.00108817 4.60684e-005
-0.0154784 0.00109049 4.60684e-005
-0.0151983 0.00109274 4.60684e-005
-0.0149182 0.0010949 4.60684e-005
-0.0146381 0.00109698 4.60684e-005
-0.0143692 0.00109885 4.60684e-005
-0.0141002 0.00110064 4.60684e-005
-0.0138313 0.00110235 4.60684e-005
-0.0135624 0.00110399 4.60684e-005
-0.0132934 0.00110555 4.60684e-005
-0.0130353 0.00110697 4.60684e-005
-0.0127771 0.00110834 4.60684e-005
-0.0125189 0.00110968 4.60684e-005
-0.0122607 0.00111097 4.60684e-005
-0.0120025 0.00111222 4.60684e-005
-0.0117547 0.00111339 4.60684e-005
-0.0115068 0.00111453 4.60684e-005
-0.0112589 0.00111566 4.60684e-005
-0.0110111 0.00111676 4.60684e-005
-0.0107632 0.00111785 4.60684e-005
-0.0105252 0.00111887 4.60684e-005
-0.0102873 0.00111988 4.60684e-005
-0.0100493 0.00112088 4.60684e-005
-0.00981133 0.00112186 4.60684e-005
-0.00957337 0.00112283 4.60684e-005
-0.00934491 0.00112375 4.60684e-005
-0.00911645 0.00112465 4.60684e-005
-0.00888799 0.00112555 4.60684e-005
-0.00865954 0.00112644 4.60684e-005
-0.00843108 0.00112732 4.60684e-005
-0.00821175 0.00112815 4.60684e-005
-0.00799242 0.00112897 4.60684e-005
-0.00777309 0.00112979 4.60684e-005
-0.00755376 0.00113061 4.60684e-005
-0.00733443 0.00113142 4.60684e-005
-0.00712387 0.00113219 4.60684e-005
-0.0069133 0.00113296 4.60684e-005
-0.00670273 0.00113372 4.60684e-005
-0.00649216 0.00113448 4.60684e-005
-0.0062816 0.00113524 4.60684e-005
-0.00607944 0.00113596 4.60684e-005
-0.00587729 0.00113669 4.60684e-005
-0.00567514 0.00113741 4.60684e-005
-0.00547298 0.00113812 4.60684e-005
-0.00527083 0.00113884 4.60684e-005
-0.00507675 0.00113953 4.60684e-005
-0.00488267 0.00114022 4.60684e-005
-0.0046886 0.0011409 4.60684e-005
-0.00449452 0.00114158 4.60684e-005
-0.00430044 0.00114227 4.60684e-005
-0.00411412 0.00114293 4.60684e-005
-0.0039278 0.00114358 4.60684e-005
-0.00374147 0.00114424 4.60684e-005
-0.00355515 0.00114489 4.60684e-005
-0.00336883 0.00114555 4.60684e-005
-0.00318995 0.00114618 4.60684e-005
-0.00301107 0.00114681 4.60684e-005
-0.00283219 0.00114744 4.60684e-005
-0.00265331 0.00114807 4.60684e-005
-0.00247443 0.00114871 4.60684e-005
-0.0023027 0.00114933 4.60684e-005
-0.00213097 0.00114994 4.60684e-005
-0.00195924 0.00115055 4.60684e-005
-0.0017875 0.00115116 4.60684e-005
-0.00161577 0.00115178 4.60684e-005
-0.0014509 0.00115238 4.60684e-005
-0.00128603 0.00115298 4.60684e-005
-0.00112116 0.00115357 4.60684e-005
-0.000956289 0.00115417 4.60684e-005
-0.000791418 0.00115478 4.60684e-005
-0.000633135 0.00115537 4.60684e-005
-0.000474851 0.00115597 4.60684e-005
-0.000316567 0.00115656 4.60684e-005
-0.000158284 0.00115716 4.60684e-005
0 0.00115776 4.60684e-005
0.000105677 0.00115818 4.60684e-005
0.000211355 0.00115859 4.60684e-005
0.000317032 0.001159 4.60684e-005
0.00042271 0.00115941 4.60684e-005
0.000528387 0.00115983 4.60684e-005
0.000634886 0.00116026 4.60684e-005
0.000741385 0.00116069 4.60684e-005
0.000847885 0.00116112 4.60684e-005
0.000954384 0.00116156 4.60684e-005
0.00106088 0.001162 4.60684e-005
0.00116821 0.00116246 4.60684e-005
0.00127554 0.00116292 4.60684e-005
0.00138286 0.00116337 4.60684e-005
0.00149019 0.00116383 4.60684e-005
0.00159752 0.00116429 4.60684e-005
0.00170568 0.00116477 4.60684e-005
0.00181384 0.00116525 4.60684e-005
0.001922 0.00116573 4.60684e-005
0.00203016 0.0011662 4.60684e-005
0.00213833 0.00116668 4.60684e-005
0.00224733 0.00116717 4.60684e-005
0.00235633 0.00116767 4.60684e-005
0.00246533 0.00116816 4.60684e-005
0.00257434 0.00116865 4.60684e-005
0.00268334 0.00116915 4.60684e-005
0.00279319 0.00116964 4.60684e-005
0.00290304 0.00117015 4.60684e-005
0.00301289 0.00117066 4.60684e-005
0.00312274 0.00117117 4.60684e-005
0.00323259 0.00117167 4.60684e-005
0.00334329 0.00117217 4.60684e-005
0.003454 0.00117269 4.60684e-005
0.0035647 0.00117321 4.60684e-005
0.0036754 0.00117374 4.60684e-005
0.00378611 0.00117425 4.60684e-005
0.00389767 0.00117476 4.60684e-005
0.00400924 0.00117529 4.60684e-005
0.0041208 0.00117582 4.60684e-005
0.00423237 0.00117636 4.60684e-005
0.00434393 0.00117688 4.60684e-005
0.00445636 0.0011774 4.60684e-005
0.00456879 0.00117793 4.60684e-005
0.00468123 0.00117847 4.60684e-005
0.00479366 0.00117901 4.60684e-005
0.00490609 0.00117955 4.60684e-005
0.0050194 0.00118006 4.60684e-005
0.0051327 0.0011806 4.60684e-005
0.00524601 0.00118114 4.60684e-005
0.00535931 0.00118169 4.60684e-005
0.00547262 0.00118223 4.60684e-005
0.00558681 0.00118275 4.60684e-005
0.005701 0.00118329 4.60684e-005
0.00581518 0.00118383 4.60684e-005
0.00592937 0.00118438 4.60684e-005
0.00604356 0.00118492 4.60684e-005
0.00615863 0.00118544 4.60684e-005
0.00627371 0.00118599 4.60684e-005
0.00638878 0.00118653 4.60684e-005
0.00650386 0.00118708 4.60684e-005
0.00661893 0.00118762 4.60684e-005
0.0067349 0.00118815 4.60684e-005
0.00685087 0.00118869 4.60684e-005
0.00696684 0.00118923 4.60684e-005
0.00708281 0.00118978 4.60684e-005
0.00719878 0.00119032 4.60684e-005
0.00731565 0.00119084 4.60684e-005
0.00743252 0.00119138 4.60684e-005
0.00754939 0.00119192 4.60684e-005
0.00766626 0.00119246 4.60684e-005
0.00778313 0.00119299 4.60684e-005
0.00790091 0.00119352 4.60684e-005
0.00801869 0.00119405 4.60684e-005
0.00813647 0.00119459 4.60684e-005
0.00825425 0.00119512 4.60684e-005
0.00837203 0.00119565 4.60684e-005
0.00849073 0.00119617 4.60684e-005
0.00860942 0.0011967 4.60684e-005
0.00872812 0.00119723 4.60684e-005
0.00884682 0.00119775 4.60684e-005
0.00896551 0.00119828 4.60684e-005
0.00908513 0.00119879 4.60684e-005
0.00920475 0.00119932 4.60684e-005
0.00932437 0.00119984 4.60684e-005
0.00944398 0.00120036 4.60684e-005
0.0095636 0.00120087 4.60684e-005
0.00968415 0.00120139 4.60684e-005
0.0098047 0.0012019 4.60684e-005
0.00992525 0.00120242 4.60684e-005
0.0100458 0.00120293 4.60684e-005
0.0101663 0.00120344 4.60684e-005
0.0102878 0.00120394 4.60684e-005
0.0104093 0.00120445 4.60684e-005
0.0105308 0.00120495 4.60684e-005
0.0106523 0.00120546 4.60684e-005
0.0107738 0.00120596 4.60684e-005
0.0108962 0.00120645 4.60684e-005
0.0110186 0.00120695 4.60684e-005
0.0111411 0.00120745 4.60684e-005
0.0112635 0.00120794 4.60684e-005
0.0113859 0.00120844 4.60684e-005
0.0115093 0.00120892 4.60684e-005
0.0116327 0.00120941 4.60684e-005
0.0117561 0.0012099 4.60684e-005
0.0118795 0.00121038 4.60684e-005
0.0120028 0.00121086 4.60684e-005
0.0121272 0.00121134 4.60684e-005
0.0122515 0.00121182 4.60684e-005
0.0123759 0.0012123 4.60684e-005
0.0125002 0.00121277 4.60684e-005
0.0126245 0.00121324 4.60684e-005
0.0127498 0.0012137 4.60684e-005
0.0128752 0.00121417 4.60684e-005
0.0130005 0.00121463 4.60684e-005
0.0131258 0.00121509 4.60684e-005
0.0132511 0.00121555 4.60684e-005
0.0133774 0.001216 4.60684e-005
0.0135036 0.00121645 4.60684e-005
0.0136299 0.0012169 4.60684e-005
0.0137562 0.00121734 4.60684e-005
0.0138825 0.00121778 4.60684e-005
0.0140098 0.00121822 4.60684e-005
0.014137 0.00121866 4.60684e-005
0.0142643 0.00121909 4.60684e-005
0.0143915 0.00121952 4.60684e-005
0.0145188 0.00121994 4.60684e-005
0.0146471 0.00122036 4.60684e-005
0.0147753 0.00122077 4.60684e-005
0.0149036 0.00122119 4.60684e-005
0.0150318 0.0012216 4.60684e-005
0.0151601 0.001222 4.60684e-005
0.0152893 0.0012224 4.60684e-005
0.0154186 0.0012228 4.60684e-005
0.0155478 0.00122319 4.60684e-005
0.0156771 0.00122358 4.60684e-005
0.0158063 0.00122396 4.60684e-005
0.0159366 0.00122433 4.60684e-005
0.0160668 0.00122471 4.60684e-005
0.0161971 0.00122508 4.60684e-005
0.0163274 0.00122544 4.60684e-005
0.0164576 0.0012258 4.60684e-005
0.0165889 0.00122615 4.60684e-005
0.0167201 0.0012265 4.60684e-005
0.0168514 0.00122684 4.60684e-005
0.0169827 0.00122718 4.60684e-005
0.0171139 0.00122751 4.60684e-005
0.017217 0.00122776 4.60684e-005
0.0173201 0.00122801 4.60684e-005
0.0174232 0.00122826 4.60684e-005
0.0175263 0.0012285 4.60684e-005
0.0176257 0.00122873 4.60684e-005
0.0176557 0.0012288 4.60684e-005
0.0176856 0.00122887 4.60684e-005
0.0177155 0.00122893 4.60684e-005
0.0177455 0.001229 4.60684e-005
0.0177754 0.00122907 4.60684e-005
0.0179087 0.00122936 4.60684e-005
0.018042 0.00122965 4.60684e-005
0.0181753 0.00122993 4.60684e-005
0.0183087 0.0012302 4.60684e-005
0.018442 0.00123047 4.60684e-005
0.0185763 0.00123073 4.60684e-005
0.0187107 0.00123098 4.60684e-005
0.018845 0.00123123 4.60684e-005
0.0189794 0.00123146 4.60684e-005
0.0191137 0.00123169 4.60684e-005
0.0192491 0.00123191 4.60684e-005
0.0193845 0.00123213 4.60684e-005
0.0195199 0.00123233 4.60684e-005
0.0196553 0.00123253 4.60684e-005
0.0197907 0.00123272 4.60684e-005
0.0199272 0.0012329 4.60684e-005
0.0200636 0.00123307 4.60684e-005
0.0202001 0.00123323 4.60684e-005
0.0203365 0.00123339 4.60684e-005
0.020473 0.00123353 4.60684e-005
0.0206105 0.00123367 4.60684e-005
0.020748 0.00123379 4.60684e-005
0.0208855 0.00123391 4.60684e-005
0.021023 0.00123402 4.60684e-005
0.0211606 0.00123412 4.60684e-005
0.0212991 0.00123421 4.60684e-005
0.0214377 0.00123429 4.60684e-005
0.0215763 0.00123435 4.60684e-005
0.0217149 0.00123441 4.60684e-005
0.0218535 0.00123446 4.60684e-005
0.0219931 0.0012345 4.60684e-005
0.0221328 0.00123453 4.60684e-005
0.0222724 0.00123455 4.60684e-005
0.0224121 0.00123456 4.60684e-005
0.0225517 0.00123455 4.60684e-005
0.0226925 0.00123454 4.60684e-005
[...]
POINT_DATA 11930
 FIELD attributes 2
p 1 11930 float
-1548.26 -1535.64 -1521.81 -1508.13 -1494.6 -1473.91 -1459.24 -1444.49 -1429.66 -1414.76 -1394 -1345.84 -1297.76 -1249.73 -1201.78 -1159.26 -1127.66 -1102.22 -1076.79 -1051.37 -1034.55 -1022.82 -1013.35 -1003.88 -994.415 -986.767 -979.991 -972.065 -964.138 -956.212 -947.147 -938.687 -930.036 -921.381 -912.744 -904.33 -896.367 -889.185 -882.094 -875.156 -869.128 -863.368 -858.18 -853.113 -848.199 -843.873 -839.724 -835.794 -831.932 -828.158 -824.624 -821.229 -817.958 -814.737 -811.588 -808.591 -805.702 -802.933 -800.227 -797.601 -795.111 -792.702 -790.398 -788.163 -786.01 -783.973 -781.989 -780.083 -778.237 -776.463 -774.773 -773.112 -771.508 -769.959 -768.475 -767.055 -765.637 -764.262 -762.937 -761.673 -760.462 -759.227 -758.031 -756.887 -755.81 -754.783 -753.704 -752.652 -751.64 -750.7 -749.804 -748.837 -747.918 -747.089 -746.377 -745.728 -745.016 -744.365 -743.829 -743.424 -743.098 -742.61 -742.162 -741.773 -741.474 -741.242 -740.83 -740.518 -740.318 -740.231 -740.252 -740.095 -740.015 -740.007 -740.061 -740.188 -740.285 -740.367 -740.438 -740.499 -740.545 -740.812 -740.976 -741.079 -741.122 -741.05 -741.439 -741.654 -741.788 -741.836 -741.676 -742.144 -742.384 -742.541 -742.608 -742.393 -742.886 -743.11 -743.259 -743.332 -743.076 -743.532 -743.704 -743.822 -743.886 -743.615 -743.998 -744.126 -744.222 -744.289 -744.055 -744.363 -744.466 -744.556 -744.637 -744.469 -744.704 -744.784 -744.863 -744.943 -744.845 -745.001 -745.062 -745.124 -745.185 -745.149 -745.243 -745.295 -745.347 -745.399 -745.415 -745.475 -745.53 -745.584 -745.639 -745.696 -745.744 -745.803 -745.863 -745.922 -746.005 -746.053 -746.117 -746.181 -746.246 -746.341 -746.401 -746.471 -746.542 -746.613 -746.71 -746.791 -746.872 -746.952 -747.032 -747.127 -747.234 -747.327 -747.421 -747.514 -747.606 -747.742 -747.849 -747.956 -748.064 -748.155 -748.315 -748.436 -748.556 -748.677 -748.77 -748.948 -749.081 -749.214 -749.346 -749.444 -749.636 -749.781 -749.926 -750.071 -750.177 -750.38 -750.537 -750.694 -750.851 -750.972 -751.18 -751.349 -751.518 -751.686 -751.826 -752.038 -752.221 -752.404 -752.587 -752.75 -752.967 -753.167 -753.366 -753.565 -753.756 -753.929 -754.095 -754.261 -754.427 -754.587 -754.636 -754.684 -754.732 -754.78 -754.836 -755.053 -755.278 -755.503 -755.727 -755.994 -756.194 -756.43 -756.667 -756.904 -757.215 -757.401 -757.651 -757.9 -758.15 -758.497 -758.676 -758.938 -759.199 -759.46 -759.838 -760.016 -760.289 -760.562 -760.835 -761.234 -761.419 -761.704 -761.988 -762.273 -762.683 -762.884 -763.18 -763.475 -763.771 -764.185 -764.408 -764.714 -765.02 -765.326 -765.734 -765.987 -766.303 -766.619 -766.935 -767.33 -767.616 -767.942 -768.267 -768.593 -768.968 -769.292 -769.627 -769.962 -770.298 -770.649 -771.012 -771.355 -771.699 -772.043 -772.367 -772.768 -773.122 -773.474 -773.82 -774.122 -774.552 -774.922 -775.281 -775.626 -775.911 -776.364 -776.753 -777.12 -777.458 -777.733 -778.202 -778.612 -778.986 -779.316 -779.587 -780.068 -780.498 -780.88 -781.204 -781.476 -781.968 -782.419 -782.808 -783.124 -783.399 -783.899 -784.369 -784.765 -785.071 -785.347 -785.85 -786.336 -786.735 -787.029 -787.307 -787.806 -788.301 -788.699 -788.986 -789.27 -789.76 -790.25 -790.644 -790.938 -791.232 -791.709 -792.187 -792.58 -792.885 -793.19 -793.653 -794.117 -794.508 -794.824 -795.141 -795.588 -796.036 -796.425 -796.752 -797.079 -797.511 -797.942 -798.326 -798.663 -799.001 -799.415 -799.829 -800.209 -800.554 -800.899 -801.297 -801.695 -802.069 -802.42 -802.771 -803.153 -803.534 -803.902 -804.257 -804.612 -804.977 -805.343 -805.704 -806.06 -806.416 -806.766 -807.118 -807.471 -807.824 -808.178 -808.514 -808.853 -809.197 -809.544 -809.893 -810.214 -810.542 -810.875 -811.211 -811.552 -811.858 -812.175 -812.495 -812.818 -813.149 -813.439 -813.744 -814.051 -814.358 -814.675 -814.95 -815.241 -815.532 -815.823 -816.124 -816.383 -816.657 -816.93 -817.203 -817.486 -817.728 -817.983 -818.237 -818.492 -818.755 -818.979 -819.213 -819.448 -819.683 -819.924 -820.129 -820.342 -820.555 -820.768 -820.985 -821.17 -821.36 -821.549 -821.739 -821.929 -821.936 -821.943 -821.95 -821.957 -821.964 -822.122 -822.28 -822.438 -822.597 -822.753 -822.892 -823.028 -823.165 -823.301 -823.434 -823.545 -823.65 -823.755 -823.861 -823.96 -824.042 -824.114 -824.187 -824.26 -824.323 -824.374 -824.411 -824.448 -824.485 -824.509 -824.528 -824.526 -824.525 -824.521 -824.504 -824.483 -824.446 -824.403 -824.355 -824.295 -824.232 -824.157 -824.071 -823.975 -823.869 -823.763 -823.648 -823.516 -823.368 -823.215 -823.062 -822.906 -822.725 -822.523 -822.319 -822.116 -821.913 -821.682 -821.425 -821.168 -820.913 -820.658 -820.374 -820.061 -819.749 -819.439 -819.129 -818.79 -818.42 -818.049 -817.681 -817.314 -816.917 -816.486 -816.055 -815.627 -815.196 -814.737 -814.248 -813.755 -813.264 -812.762 -812.238 -811.694 -811.135 -810.578 -810.001 -809.411 -808.809 -808.183 -807.558 -806.903 -806.243 -805.583 -804.886 -804.187 -803.454 -802.722 -801.99 -801.232 -800.45 -799.644 -798.838 -798.032 -797.211 -796.342 -795.46 -794.577 -793.695 -792.81 -792.572 -792.33 -792.089 -791.847 -791.61 -790.894 -790.178 -789.463 -788.748 -788.021 -786.998 -785.963 -784.929 -783.894 -782.832 -781.745 -780.629 -779.513 -778.397 -777.235 -776.083 -774.884 -773.685 -772.478 -771.222 -769.988 -768.72 -767.437 -766.126 -764.784 -763.464 -762.129 -760.76 -759.343 -757.914 -756.507 -755.1 -753.639 -752.122 -750.604 -749.108 -747.613 -746.062 -744.455 -742.847 -741.262 -739.677 -738.034 -736.336 -734.638 -732.961 -731.273 -729.533 -727.759 -725.969 -724.2 -722.396 -720.564 -718.718 -716.836 -714.974 -713.052 -711.126 -709.2 -707.233 -705.258 -703.237 -701.216 -699.196 -697.158 -695.599 -694.02 -692.441 -690.863 -689.36 -688.812 -688.263 -687.715 -687.167 -686.611 -684.42 -682.223 -680.026 -677.83 -675.598 -673.336 -671.044 -668.752 -666.461 -664.106 -661.762 -659.386 -657 -654.583 -652.133 -649.694 -647.248 -644.767 -642.225 -639.679 -637.146 -634.613 -632.028 -629.387 -626.747 -624.119 -621.491 -618.804 -616.071 -613.336 -610.614 -607.865 -605.079 -602.279 -599.451 -596.636 -593.759 -590.879 -588 -585.093 -582.166 -579.205 -576.244 -573.284 -570.502 -570.455 -570.409 -570.362 -570.315 -570.268 -567.212 -564.156 -561.1 -558.045 -554.965 -551.836 -548.691 -545.546 -542.398 -539.209 -535.998 -532.774 -529.542 -526.282 -523.006 -519.708 -516.411 -513.087 -509.725 -506.364 -502.981 -499.598 -496.18 -492.736 -489.292 -485.826 -482.345 -478.838 -475.326 -471.801 -468.254 -464.669 -461.083 -457.498 -453.902 -451.43 -448.942 -446.454 -443.966 -441.57 -440.379 -439.187 -437.996 -436.804 -435.604 -431.876 -428.144 -424.412 -420.681 -416.915 -413.126 -409.323 -405.52 -401.699 -397.854 -393.994 -390.135 -386.259 -382.347 -378.434 -374.507 -370.58 -366.624 -362.648 -358.67 -354.678 -350.672 -346.645 -342.615 -338.577 -334.519 -330.432 -326.345 -322.258 -318.167 -316.753 -315.332 -313.91 -312.489 -311.092 -308.367 -305.641 -302.916 -300.191 -297.45 -293.26 -289.064 -284.87 -280.671 -276.443 -272.204 -267.962 -263.717 -259.446 -255.169 -250.88 -246.593 -242.287 -237.966 -233.644 -229.309 -224.968 -220.609 -216.248 -211.884 -207.506 -203.106 -198.707 -194.308 -189.906 -188.674 -187.436 -186.199 -184.962 -183.741 -180.538 -177.336 -174.134 -170.932 -167.716 -163.247 -158.777 -154.307 -149.831 -145.338 -140.837 -136.337 -131.835 -127.315 -122.793 -118.263 -113.734 -109.19 -104.643 -100.094 -95.5366 -90.9706 -86.4002 -81.8303 -77.2607 -74.2317 -71.1978 -68.1642 -65.1308 -62.1854 -60.6127 -59.04 -57.4674 -55.8949 -54.3186 -49.7111 -45.1053 -40.5 -35.894 -31.2741 -26.6493 -22.0266 -17.4072 -12.7784 -8.14682 -3.50966 1.12692 5.76779 10.4045 15.0434 19.6884 24.3356 28.9841 33.632 38.2761 41.0479 43.8205 46.593 49.3653 52.0701 53.9645 55.8588 57.753 59.6472 61.5432 66.2046 70.861 75.5169 80.1727 84.8321 89.4947 94.1557 98.8076 103.458 108.111 112.768 117.424 122.076 126.721 131.365 136.012 140.654 145.295 149.936 154.576 155.345 156.114 156.882 157.651 158.414 162.283 166.15 170.018 173.885 177.749 182.383 187.006 191.626 196.239 200.853 205.468 210.082 214.685 219.275 223.867 228.46 233.045 237.625 242.204 246.776 248.761 250.74 252.718 254.697 256.646 259.235 261.824 264.412 267.001 269.583 274.136 278.675 283.214 287.745 292.271 296.795 301.318 305.826 310.318 314.813 319.305 323.787 328.26 332.732 337.196 339.162 341.12 343.077 345.035 346.965 349.46 351.954 354.449 356.943 359.428 363.858 368.275 372.69 377.094 381.493 385.885 390.277 394.651 399.006 403.365 407.716 412.051 416.379 420.707 425.031 425.971 426.906 427.841 428.775 429.704 433.07 436.436 439.801 443.165 446.515 450.788 455.052 459.31 463.546 467.783 472.009 476.234 480.435 484.627 488.816 492.122 495.41 498.696 501.982 505.207 506.089 506.972 507.854 508.736 509.613 513.74 517.862 521.983 526.095 530.193 534.276 538.359 542.421 546.464 550.508 554.536 558.547 562.548 566.549 570.546 571.219 571.888 572.556 573.225 573.891 577.186 580.482 583.777 587.068 590.341 594.265 598.187 602.089 605.966 609.845 613.707 617.556 621.386 625.216 629.034 630.271 631.499 632.725 633.951 635.173 637.73 640.287 642.844 645.396 647.931 651.673 655.407 659.126 662.812 666.499 670.168 673.824 677.452 681.08 684.685 685.972 687.251 688.527 689.803 691.084 693.378 695.673 697.968 700.258 702.533 706.066 709.577 713.051 716.439 719.825 723.19 726.598 730.106 733.614 737.174 738.48 739.543 740.527 741.512 742.514 744.482 746.45 748.417 750.262 751.699 753.943 756.604 759.718 764.512 769.303 773.978 777.812 780.272 782.735 785.093 785.142 785.202 785.278 785.355 785.432 787.404 789.377 791.352 793.856 796.701 799.665 802.604 805.421 808.238 811.01 811.369 811.72 812.057 812.395 812.736 815.135 817.533 819.929 822.246 824.513 827.13 829.739 832.251 834.762 837.215 837.674 838.121 838.549 838.977 839.415 841.404 843.391 845.375 847.281 849.138 851.409 853.677 855.762 857.809 859.779 860.333 860.861 861.348 861.834 862.345 863.708 865.067 866.422 867.687 868.881 870.504 872.12 873.541 874.744 875.937 876.523 877.029 877.443 877.856 878.317 878.798 879.277 879.753 880.164 880.498 881.111 881.645 881.999 882.034 882.058 881.946 881.598 881.048 880.492 879.877 879.801 879.699 879.583 879.467 879.349 878.318 877.273 876.215 875.013 873.508 871.651 869.782 867.475 864.749 862.01 859.011 855.581 851.933 848.278 844.485 843.763 842.947 842.117 841.286 840.41 836.53 832.638 828.733 824.775 820.347 814.619 808.638 802.337 795.251 788.102 780.48 772.846 764.608 755.95 747.199 737.924 727.417 716.675 705.932 694.744 690.519 686.287 682.054 677.82 673.074 665.032 656.985 648.932 640.875 632.773 618.988 603.204 587.387 570.511 551.106 530.728 510.84 493.236 479.268 465.292 450.566 435.841 408.32 368.46 328.566 286.876 254.411 237.929 228.741 231.599 233.778 176.721 119.352 61.6874 0