# vtk DataFile Version 2.0
track0
ASCII
DATASET POLYDATA
POINTS 11930 float
-0.0205 0.001 1e-005
-0.0203851 0.00100536 1.50243e-005
-0.0202701 0.00101047 1.9664e-005
-0.0201551 0.00101535 2.39719e-005
-0.0200401 0.00102 2.79433e-005
-0.0198624 0.00102682 3.35507e-005
-0.0196933 0.00103276 3.80975e-005
-0.0195242 0.00103809 4.16127e-005
-0.0193551 0.00104281 4.41052e-005
-0.019186 0.00104693 4.55844e-005
-0.0190172 0.00105042 4.60587e-005
-0.0187132 0.00105594 4.60587e-005
-0.0184093 0.0010608 4.60587e-005
-0.0181054 0.00106514 4.60587e-005
-0.0178014 0.00106896 4.60587e-005
-0.0174976 0.00107226 4.60587e-005
-0.0172058 0.00107513 4.60587e-005
-0.016914 0.00107792 4.60587e-005
-0.0166222 0.00108064 4.60587e-005
-0.0163305 0.0010833 4.60587e-005
-0.0160387 0.00108589 4.60587e-005
-0.0157586 0.00108827 4.60587e-005
-0.0154784 0.00109059 4.60587e-005
-0.0151983 0.00109283 4.60587e-005
-0.0149182 0.00109499 4.60587e-005
-0.0146381 0.00109707 4.60587e-005
-0.0143692 0.00109894 4.60587e-005
-0.0141002 0.00110071 4.60587e-005
-0.0138313 0.00110241 4.60587e-005
-0.0135624 0.00110404 4.60587e-005
-0.0132934 0.00110559 4.60587e-005
-0.0130353 0.001107 4.60587e-005
-0.0127771 0.00110836 4.60587e-005
-0.0125189 0.00110967 4.60587e-005
-0.0122607 0.00111095 4.60587e-005
-0.0120025 0.00111219 4.60587e-005
-0.0117547 0.00111335 4.60587e-005
-0.0115068 0.00111448 4.60587e-005
-0.0112589 0.00111559 4.60587e-005
-0.0110111 0.00111669 4.60587e-005
-0.0107632 0.00111776 4.60587e-005
-0.0105252 0.00111878 4.60587e-005
-0.0102873 0.00111978 4.60587e-005
-0.0100493 0.00112077 4.60587e-005
-0.00981133 0.00112174 4.60587e-005
-0.00957337 0.00112271 4.60587e-005
-0.00934491 0.00112362 4.60587e-005
-0.00911645 0.00112452 4.60587e-005
-0.00888799 0.00112541 4.60587e-005
-0.00865954 0.00112629 4.60587e-005
-0.00843108 0.00112716 4.60587e-005
-0.00821175 0.00112799 4.60587e-005
-0.00799242 0.00112882 4.60587e-005
-0.00777309 0.00112963 4.60587e-005
-0.00755376 0.00113044 4.60587e-005
-0.00733443 0.00113125 4.60587e-005
-0.00712387 0.00113202 4.60587e-005
-0.0069133 0.00113278 4.60587e-005
-0.00670273 0.00113354 4.60587e-005
-0.00649216 0.0011343 4.60587e-005
-0.0062816 0.00113505 4.60587e-005
-0.00607944 0.00113578 4.60587e-005
-0.00587729 0.0011365 4.60587e-005
-0.00567514 0.00113721 4.60587e-005
-0.00547298 0.00113793 4.60587e-005
-0.00527083 0.00113864 4.60587e-005
-0.00507675 0.00113933 4.60587e-005
-0.00488267 0.00114001 4.60587e-005
-0.0046886 0.0011407 4.60587e-005
-0.00449452 0.00114138 4.60587e-005
-0.00430044 0.00114206 4.60587e-005
-0.00411412 0.00114272 4.60587e-005
-0.0039278 0.00114337 4.60587e-005
-0.00374147 0.00114402 4.60587e-005
-0.00355515 0.00114468 4.60587e-005
-0.00336883 0.00114533 4.60587e-005
-0.00318995 0.00114596 4.60587e-005
-0.00301107 0.00114659 4.60587e-005
-0.00283219 0.00114722 4.60587e-005
-0.00265331 0.00114785 4.60587e-005
-0.00247443 0.00114848 4.60587e-005
-0.0023027 0.00114909 4.60587e-005
-0.00213097 0.0011497 4.60587e-005
-0.00195924 0.00115031 4.60587e-005
-0.0017875 0.00115092 4.60587e-005
-0.00161577 0.00115154 4.60587e-005
-0.0014509 0.00115214 4.60587e-005
-0.00128603 0.00115273 4.60587e-005
-0.00112116 0.00115332 4.60587e-005
-0.000956289 0.00115392 4.60587e-005
-0.000791418 0.00115453 4.60587e-005
-0.000633135 0.00115512 4.60587e-005
-0.000474851 0.00115571 4.60587e-005
-0.000316567 0.00115629 4.60587e-005
-0.000158284 0.00115689 4.60587e-005
0 0.00115749 4.60587e-005
0.000105677 0.0011579 4.60587e-005
0.000211355 0.0011583 4.60587e-005
0.000317032 0.00115871 4.60587e-005
0.00042271 0.00115912 4.60587e-005
0.000528387 0.00115953 4.60587e-005
0.000634886 0.00115996 4.60587e-005
0.000741385 0.00116039 4.60587e-005
0.000847885 0.00116081 4.60587e-005
0.000954384 0.00116124 4.60587e-005
0.00106088 0.00116168 4.60587e-005
0.00116821 0.00116214 4.60587e-005
0.00127554 0.00116259 4.60587e-005
0.00138286 0.00116304 4.60587e-005
0.00149019 0.00116349 4.60587e-005
0.00159752 0.00116395 4.60587e-005
0.00170568 0.00116443 4.60587e-005
0.00181384 0.0011649 4.60587e-005
0.001922 0.00116538 4.60587e-005
0.00203016 0.00116585 4.60587e-005
0.00213833 0.00116633 4.60587e-005
0.00224733 0.00116682 4.60587e-005
0.00235633 0.00116731 4.60587e-005
0.00246533 0.0011678 4.60587e-005
0.00257434 0.00116829 4.60587e-005
0.00268334 0.00116878 4.60587e-005
0.00279319 0.00116928 4.60587e-005
0.00290304 0.00116978 4.60587e-005
0.00301289 0.00117029 4.60587e-005
0.00312274 0.00117079 4.60587e-005
0.00323259 0.0011713 4.60587e-005
0.00334329 0.0011718 4.60587e-005
0.003454 0.00117231 4.60587e-005
0.0035647 0.00117283 4.60587e-005
0.0036754 0.00117335 4.60587e-005
0.00378611 0.00117387 4.60587e-005
0.00389767 0.00117437 4.60587e-005
0.00400924 0.0011749 4.60587e-005
0.0041208 0.00117543 4.60587e-005
0.00423237 0.00117596 4.60587e-005
0.00434393 0.00117648 4.60587e-005
0.00445636 0.00117699 4.60587e-005
0.00456879 0.00117752 4.60587e-005
0.00468123 0.00117806 4.60587e-005
0.00479366 0.0011786 4.60587e-005
0.00490609 0.00117913 4.60587e-005
0.0050194 0.00117964 4.60587e-005
0.0051327 0.00118018 4.60587e-005
0.00524601 0.00118072 4.60587e-005
0.00535931 0.00118126 4.60587e-005
0.00547262 0.00118179 4.60587e-005
0.00558681 0.00118231 4.60587e-005
0.005701 0.00118285 4.60587e-005
0.00581518 0.00118339 4.60587e-005
0.00592937 0.00118393 4.60587e-005
0.00604356 0.00118447 4.60587e-005
0.00615863 0.00118499 4.60587e-005
0.00627371 0.00118553 4.60587e-005
0.00638878 0.00118607 4.60587e-005
0.00650386 0.00118662 4.60587e-005
0.00661893 0.00118716 4.60587e-005
0.0067349 0.00118768 4.60587e-005
0.00685087 0.00118822 4.60587e-005
0.00696684 0.00118876 4.60587e-005
0.00708281 0.0011893 4.60587e-005
0.00719878 0.00118983 4.60587e-005
0.00731565 0.00119036 4.60587e-005
0.00743252 0.00119089 4.60587e-005
0.00754939 0.00119143 4.60587e-005
0.00766626 0.00119196 4.60587e-005
0.00778313 0.0011925 4.60587e-005
0.00790091 0.00119302 4.60587e-005
0.00801869 0.00119355 4.60587e-005
0.00813647 0.00119408 4.60587e-005
0.00825425 0.00119461 4.60587e-005
0.00837203 0.00119513 4.60587e-005
0.00849073 0.00119565 4.60587e-005
0.00860942 0.00119618 4.60587e-005
0.00872812 0.0011967 4.60587e-005
0.00884682 0.00119723 4.60587e-005
0.00896551 0.00119775 4.60587e-005
0.00908513 0.00119826 4.60587e-005
0.00920475 0.00119878 4.60587e-005
0.00932437 0.0011993 4.60587e-005
0.00944398 0.00119982 4.60587e-005
0.0095636 0.00120033 4.60587e-005
0.00968415 0.00120084 4.60587e-005
0.0098047 0.00120135 4.60587e-005
0.00992525 0.00120186 4.60587e-005
0.0100458 0.00120237 4.60587e-005
0.0101663 0.00120288 4.60587e-005
0.0102878 0.00120338 4.60587e-005
0.0104093 0.00120389 4.60587e-005
0.0105308 0.00120439 4.60587e-005
0.0106523 0.00120489 4.60587e-005
0.0107738 0.00120539 4.60587e-005
0.0108962 0.00120588 4.60587e-005
0.0110186 0.00120638 4.60587e-005
0.0111411 0.00120687 4.60587e-005
0.0112635 0.00120736 4.60587e-005
0.0113859 0.00120785 4.60587e-005
0.0115093 0.00120834 4.60587e-005
0.0116327 0.00120882 4.60587e-005
0.0117561 0.00120931 4.60587e-005
0.0118795 0.00120979 4.60587e-005
0.0120028 0.00121027 4.60587e-005
0.0121272 0.00121074 4.60587e-005
0.0122515 0.00121122 4.60587e-005
0.0123759 0.00121169 4.60587e-005
0.0125002 0.00121216 4.60587e-005
0.0126245 0.00121263 4.60587e-005
0.0127498 0.00121309 4.60587e-005
0.0128752 0.00121356 4.60587e-005
0.0130005 0.00121402 4.60587e-005
0.0131258 0.00121447 4.60587e-005
0.0132511 0.00121493 4.60587e-005
0.0133774 0.00121537 4.60587e-005
0.0135036 0.00121583 4.60587e-005
0.0136299 0.00121627 4.60587e-005
0.0137562 0.00121672 4.60587e-005
0.0138825 0.00121716 4.60587e-005
0.0140098 0.00121759 4.60587e-005
0.014137 0.00121802 4.60587e-005
0.0142643 0.00121846 4.60587e-005
0.0143915 0.00121888 4.60587e-005
0.0145188 0.0012193 4.60587e-005
0.0146471 0.00121972 4.60587e-005
0.0147753 0.00122014 4.60587e-005
0.0149036 0.00122055 4.60587e-005
0.0150318 0.00122096 4.60587e-005
0.0151601 0.00122136 4.60587e-005
0.0152893 0.00122176 4.60587e-005
0.0154186 0.00122216 4.60587e-005
0.0155478 0.00122255 4.60587e-005
0.0156771 0.00122294 4.60587e-005
0.0158063 0.00122332 4.60587e-005
0.0159366 0.00122369 4.60587e-005
0.0160668 0.00122407 4.60587e-005
0.0161971 0.00122444 4.60587e-005
0.0163274 0.0012248 4.60587e-005
0.0164576 0.00122516 4.60587e-005
0.0165889 0.00122551 4.60587e-005
0.0167201 0.00122586 4.60587e-005
0.0168514 0.0012262 4.60587e-005
0.0169827 0.00122654 4.60587e-005
0.0171139 0.00122687 4.60587e-005
0.0172029 0.00122709 4.60587e-005
0.0172918 0.0012273 4.60587e-005
0.0173807 0.00122752 4.60587e-005
0.0174696 0.00122773 4.60587e-005
0.0175559 0.00122793 4.60587e-005
0.0175998 0.00122803 4.60587e-005
0.0176437 0.00122813 4.60587e-005
0.0176876 0.00122823 4.60587e-005
0.0177315 0.00122833 4.60587e-005
0.0177754 0.00122843 4.60587e-005
0.0179087 0.00122872 4.60587e-005
0.018042 0.00122901 4.60587e-005
0.0181753 0.00122929 4.60587e-005
0.0183087 0.00122957 4.60587e-005
0.018442 0.00122984 4.60587e-005
0.0185763 0.0012301 4.60587e-005
0.0187107 0.00123035 4.60587e-005
0.018845 0.00123059 4.60587e-005
0.0189794 0.00123083 4.60587e-005
0.0191137 0.00123106 4.60587e-005
0.0192491 0.00123128 4.60587e-005
0.0193845 0.0012315 4.60587e-005
0.0195199 0.00123171 4.60587e-005
0.0196553 0.0012319 4.60587e-005
0.0197907 0.00123209 4.60587e-005
0.0199272 0.00123227 4.60587e-005
0.0200636 0.00123245 4.60587e-005
0.0202001 0.00123261 4.60587e-005
0.0203365 0.00123277 4.60587e-005
0.020473 0.00123291 4.60587e-005
0.0206105 0.00123305 4.60587e-005
0.020748 0.00123318 4.60587e-005
0.0208855 0.00123329 4.60587e-005
0.021023 0.0012334 4.60587e-005
0.0211606 0.0012335 4.60587e-005
0.0212991 0.00123359 4.60587e-005
0.0214377 0.00123367 4.60587e-005
0.0215763 0.00123374 4.60587e-005
0.0217149 0.0012338 4.60587e-005
0.0218535 0.00123385 4.60587e-005
0.0219931 0.00123389 4.60587e-005
0.0221328 0.00123392 4.60587e-005
0.0222724 0.00123394 4.60587e-005
0.0224121 0.00123395 4.60587e-005
0.0225517 0.00123394 4.60587e-005
0.0226925 0.00123393 4.60587e-005
[...]
POINT_DATA 11930
 FIELD attributes 2
p 1 11930 float
-1549.39 -1536.81 -1523.02 -1509.38 -1495.89 -1475.28 -1460.64 -1445.91 -1431.11 -1416.24 -1395.49 -1347.4 -1299.37 -1251.42 -1203.52 -1161.07 -1129.44 -1103.99 -1078.55 -1053.12 -1036.31 -1024.55 -1015.07 -1005.6 -996.125 -988.501 -981.73 -973.811 -965.892 -957.972 -948.914 -940.436 -931.771 -923.102 -914.452 -906.034 -898.047 -890.845 -883.734 -876.776 -870.735 -864.951 -859.744 -854.658 -849.726 -845.387 -841.22 -837.276 -833.401 -829.613 -826.072 -822.663 -819.382 -816.154 -812.998 -809.999 -807.101 -804.327 -801.619 -798.991 -796.506 -794.091 -791.787 -789.554 -787.405 -785.376 -783.39 -781.486 -779.645 -777.878 -776.199 -774.537 -772.938 -771.395 -769.919 -768.51 -767.093 -765.723 -764.404 -763.149 -761.949 -760.715 -759.522 -758.383 -757.313 -756.295 -755.215 -754.164 -753.155 -752.219 -751.331 -750.359 -749.438 -748.606 -747.894 -747.245 -746.522 -745.862 -745.318 -744.91 -744.585 -744.084 -743.627 -743.231 -742.928 -742.696 -742.275 -741.955 -741.749 -741.657 -741.676 -741.509 -741.42 -741.402 -741.449 -741.572 -741.657 -741.731 -741.798 -741.858 -741.91 -742.174 -742.341 -742.452 -742.505 -742.449 -742.844 -743.067 -743.212 -743.271 -743.123 -743.595 -743.839 -744 -744.074 -743.864 -744.357 -744.58 -744.73 -744.807 -744.553 -745.007 -745.178 -745.296 -745.363 -745.093 -745.475 -745.601 -745.696 -745.764 -745.529 -745.835 -745.935 -746.023 -746.104 -745.933 -746.166 -746.243 -746.319 -746.396 -746.296 -746.45 -746.508 -746.567 -746.626 -746.586 -746.679 -746.728 -746.778 -746.827 -746.84 -746.899 -746.952 -747.004 -747.056 -747.111 -747.157 -747.214 -747.271 -747.329 -747.409 -747.455 -747.517 -747.579 -747.64 -747.732 -747.79 -747.859 -747.927 -747.995 -748.089 -748.168 -748.246 -748.323 -748.401 -748.492 -748.598 -748.688 -748.779 -748.869 -748.958 -749.091 -749.196 -749.301 -749.406 -749.495 -749.652 -749.77 -749.889 -750.007 -750.098 -750.274 -750.405 -750.536 -750.667 -750.763 -750.954 -751.097 -751.24 -751.384 -751.49 -751.691 -751.847 -752.003 -752.159 -752.281 -752.487 -752.656 -752.824 -752.993 -753.134 -753.345 -753.528 -753.711 -753.894 -754.058 -754.275 -754.475 -754.674 -754.874 -755.066 -755.216 -755.36 -755.503 -755.647 -755.787 -755.857 -755.928 -755.999 -756.07 -756.153 -756.367 -756.593 -756.818 -757.044 -757.315 -757.512 -757.75 -757.988 -758.226 -758.541 -758.726 -758.976 -759.227 -759.477 -759.829 -760.006 -760.269 -760.531 -760.794 -761.175 -761.352 -761.626 -761.9 -762.174 -762.576 -762.76 -763.045 -763.331 -763.616 -764.031 -764.229 -764.526 -764.822 -765.118 -765.535 -765.757 -766.063 -766.37 -766.676 -767.088 -767.337 -767.654 -767.97 -768.286 -768.684 -768.968 -769.293 -769.619 -769.945 -770.322 -770.644 -770.978 -771.313 -771.647 -771.999 -772.36 -772.703 -773.045 -773.388 -773.713 -774.11 -774.463 -774.813 -775.158 -775.46 -775.887 -776.255 -776.613 -776.955 -777.239 -777.69 -778.077 -778.442 -778.777 -779.05 -779.517 -779.925 -780.296 -780.624 -780.892 -781.37 -781.798 -782.178 -782.498 -782.766 -783.256 -783.705 -784.091 -784.403 -784.674 -785.171 -785.64 -786.033 -786.335 -786.608 -787.108 -787.593 -787.989 -788.279 -788.554 -789.05 -789.544 -789.94 -790.222 -790.503 -790.991 -791.479 -791.871 -792.161 -792.452 -792.928 -793.404 -793.795 -794.097 -794.398 -794.86 -795.323 -795.712 -796.026 -796.34 -796.787 -797.234 -797.621 -797.947 -798.273 -798.703 -799.134 -799.518 -799.855 -800.191 -800.606 -801.021 -801.401 -801.746 -802.092 -802.491 -802.889 -803.265 -803.617 -803.969 -804.352 -804.735 -805.104 -805.461 -805.818 -806.186 -806.553 -806.916 -807.275 -807.633 -807.986 -808.34 -808.696 -809.052 -809.409 -809.748 -810.09 -810.437 -810.787 -811.14 -811.465 -811.797 -812.134 -812.474 -812.819 -813.13 -813.451 -813.777 -814.104 -814.44 -814.736 -815.047 -815.359 -815.672 -815.995 -816.276 -816.573 -816.87 -817.167 -817.474 -817.739 -818.019 -818.298 -818.578 -818.867 -819.115 -819.376 -819.637 -819.897 -820.167 -820.397 -820.638 -820.878 -821.119 -821.367 -821.578 -821.797 -822.016 -822.235 -822.458 -822.649 -822.845 -823.04 -823.236 -823.432 -823.437 -823.442 -823.447 -823.452 -823.457 -823.623 -823.788 -823.954 -824.12 -824.284 -824.427 -824.568 -824.71 -824.851 -824.988 -825.103 -825.213 -825.322 -825.432 -825.535 -825.62 -825.696 -825.772 -825.848 -825.914 -825.969 -826.008 -826.048 -826.087 -826.113 -826.134 -826.135 -826.135 -826.134 -826.117 -826.098 -826.062 -826.021 -825.974 -825.914 -825.853 -825.778 -825.692 -825.597 -825.491 -825.385 -825.27 -825.138 -824.99 -824.836 -824.683 -824.526 -824.345 -824.142 -823.937 -823.733 -823.53 -823.297 -823.039 -822.781 -822.525 -822.269 -821.984 -821.67 -821.357 -821.045 -820.734 -820.394 -820.022 -819.651 -819.282 -818.913 -818.515 -818.084 -817.652 -817.223 -816.791 -816.331 -815.843 -815.349 -814.857 -814.355 -813.83 -813.287 -812.728 -812.172 -811.595 -811.005 -810.405 -809.779 -809.155 -808.502 -807.843 -807.185 -806.49 -805.793 -805.063 -804.334 -803.605 -802.85 -802.071 -801.268 -800.466 -799.663 -798.847 -797.982 -797.105 -796.227 -795.35 -794.469 -794.223 -793.973 -793.723 -793.474 -793.228 -792.526 -791.824 -791.123 -790.421 -789.709 -788.692 -787.664 -786.636 -785.609 -784.554 -783.474 -782.365 -781.257 -780.149 -778.996 -777.851 -776.661 -775.47 -774.272 -773.026 -771.801 -770.542 -769.268 -767.967 -766.636 -765.325 -764 -762.641 -761.235 -759.816 -758.419 -757.023 -755.573 -754.067 -752.56 -751.076 -749.591 -748.052 -746.456 -744.861 -743.287 -741.713 -740.082 -738.396 -736.71 -735.046 -733.37 -731.643 -729.88 -728.102 -726.346 -724.555 -722.735 -720.902 -719.032 -717.183 -715.275 -713.361 -711.448 -709.493 -707.531 -705.523 -703.515 -701.507 -699.482 -697.852 -696.202 -694.552 -692.903 -691.336 -690.87 -690.403 -689.937 -689.47 -688.998 -686.818 -684.633 -682.449 -680.265 -678.048 -675.797 -673.517 -671.238 -668.959 -666.617 -664.286 -661.921 -659.547 -657.144 -654.705 -652.279 -649.844 -647.375 -644.846 -642.312 -639.79 -637.27 -634.696 -632.067 -629.438 -626.821 -624.206 -621.531 -618.808 -616.084 -613.374 -610.638 -607.862 -605.072 -602.254 -599.451 -596.586 -593.717 -590.849 -587.951 -585.025 -582.063 -579.101 -576.14 -573.178 -573.065 -572.951 -572.836 -572.722 -572.608 -569.675 -566.743 -563.812 -560.881 -557.926 -554.805 -551.67 -548.534 -545.397 -542.216 -539.015 -535.799 -532.576 -529.326 -526.057 -522.768 -519.479 -516.163 -512.809 -509.455 -506.079 -502.705 -499.294 -495.856 -492.418 -488.959 -485.486 -481.985 -478.477 -474.957 -471.416 -467.836 -464.255 -460.674 -457.081 -454.39 -451.681 -448.972 -446.264 -443.666 -442.694 -441.722 -440.75 -439.779 -438.8 -435.073 -431.342 -427.612 -423.882 -420.118 -416.331 -412.527 -408.723 -404.902 -401.056 -397.195 -393.334 -389.457 -385.541 -381.625 -377.694 -373.765 -369.805 -365.822 -361.839 -357.841 -353.83 -349.796 -345.758 -341.711 -337.647 -333.55 -329.453 -325.356 -321.255 -319.608 -317.952 -316.296 -314.64 -313.018 -310.512 -308.007 -305.502 -302.997 -300.477 -296.272 -292.062 -287.852 -283.639 -279.394 -275.139 -270.88 -266.616 -262.326 -258.029 -253.721 -249.414 -245.087 -240.742 -236.396 -232.039 -227.676 -223.292 -218.905 -214.514 -210.111 -205.683 -201.255 -196.828 -192.398 -190.993 -189.583 -188.172 -186.762 -185.373 -182.312 -179.251 -176.19 -173.129 -170.054 -165.553 -161.049 -156.545 -152.036 -147.507 -142.971 -138.436 -133.898 -129.339 -124.779 -120.212 -115.645 -111.062 -106.474 -101.885 -97.288 -92.6816 -88.0704 -83.4598 -78.8485 -75.7636 -72.6731 -69.5829 -66.4929 -63.4955 -61.9361 -60.3768 -58.8175 -57.2583 -55.6949 -51.044 -46.3944 -41.7454 -37.0956 -32.4313 -27.7626 -23.0958 -18.4321 -13.7591 -9.08314 -4.40195 0.278643 4.96351 9.64414 14.327 19.0159 23.7066 28.3982 33.0893 37.7769 40.4243 43.072 45.7195 48.3669 50.9523 53.0129 55.0734 57.1339 59.1942 61.2561 65.9589 70.656 75.3527 80.0488 84.7473 89.4491 94.15 98.84 103.527 108.217 112.91 117.603 122.289 126.968 131.645 136.326 140.999 145.67 150.342 155.013 155.466 155.918 156.37 156.821 157.271 161.484 165.697 169.909 174.12 178.326 182.985 187.633 192.277 196.91 201.544 206.179 210.814 215.436 220.04 224.647 229.255 233.852 238.442 243.033 247.617 249.149 250.675 252.201 253.727 255.236 258.283 261.33 264.376 267.423 270.459 275.016 279.557 284.097 288.624 293.147 297.668 302.189 306.691 311.173 315.657 320.14 324.607 329.066 333.524 337.975 339.413 340.844 342.274 343.705 345.121 348.122 351.123 354.124 357.124 360.111 364.518 368.911 373.301 377.673 382.04 386.402 390.763 395.104 399.421 403.741 408.055 412.346 416.632 420.918 425.202 425.631 426.058 426.485 426.911 427.336 431.164 434.992 438.819 442.645 446.45 450.671 454.886 459.089 463.265 467.443 471.611 475.774 479.913 484.045 488.169 491.005 493.823 496.638 499.454 502.23 503.512 504.795 506.077 507.358 508.632 512.691 516.739 520.788 524.823 528.844 532.851 536.858 540.841 544.802 548.765 552.712 556.636 560.553 564.47 568.384 568.778 569.168 569.559 569.949 570.339 573.826 577.313 580.8 584.282 587.742 591.576 595.41 599.218 603.002 606.788 610.556 614.31 618.046 621.782 625.505 626.614 627.715 628.813 629.912 631.008 633.597 636.185 638.773 641.356 643.921 647.566 651.203 654.823 658.412 662 665.571 669.129 672.659 676.19 679.696 681.025 682.345 683.662 684.98 686.303 688.458 690.612 692.767 694.918 697.054 700.49 703.9 707.281 710.574 713.865 717.135 720.438 723.854 727.273 730.748 732.276 733.507 734.652 735.796 736.965 738.648 740.33 742.012 743.595 744.812 746.968 749.731 752.765 757.28 761.99 766.585 770.602 772.991 775.383 777.39 777.562 777.774 778.049 778.323 778.599 780.345 782.091 783.839 786.065 788.616 791.511 794.403 797.155 799.905 802.589 803.194 803.787 804.358 804.929 805.511 807.599 809.687 811.773 813.794 815.772 818.334 820.894 823.37 825.814 828.217 828.918 829.604 830.261 830.918 831.599 833.298 834.995 836.69 838.322 839.914 842.153 844.388 846.482 848.462 850.413 851.176 851.904 852.577 853.249 853.968 855.101 856.232 857.36 858.416 859.416 861.035 862.647 864.059 865.274 866.479 867.201 867.829 868.346 868.862 869.45 869.812 870.173 870.533 870.846 871.104 871.747 872.24 872.679 872.774 872.847 872.786 872.562 872.071 871.574 870.942 870.768 870.533 870.264 869.995 869.711 868.863 868.006 867.138 866.149 864.903 863.134 861.353 859.13 856.506 853.871 850.98 847.748 844.214 840.673 836.907 835.736 834.412 833.061 831.71 830.236 826.976 823.707 820.429 817.106 813.383 807.798 801.855 795.702 788.86 781.862 774.397 766.92 758.905 750.336 741.747 732.638 722.431 711.854 701.274 690.123 684.834 679.533 674.232 668.928 662.807 656.057 649.303 642.545 635.784 628.985 615.105 599.503 583.869 567.405 548.172 527.971 508.481 491.011 477.009 463.187 448.619 434.053 406.671 366.956 327.208 285.667 252.376 236.07 227.973 230.969 233.778 178.004 120.598 62.9001 0