/*--------------------------------*- C++ -*----------------------------------*\
| =========                 |                                                 |
| \\      /  F ield         | OpenFOAM: The Open Source CFD Toolbox           |
|  \\    /   O peration     | Version:  5.x                                   |
|   \\  /    A nd           | Web:      www.OpenFOAM.org                      |
|    \\/     M anipulation  |                                                 |
\*---------------------------------------------------------------------------*/
/*   Windows 32 and 64 bit porting by blueCAPE: http://www.bluecape.com.pt   *\
|  Based on Windows porting (2.0.x v4) by Symscape: http://www.symscape.com   |
\*---------------------------------------------------------------------------*/
FoamFile
{
    version     2.0;
    format      ascii;
    class       volScalarField;
    location    "0.04";
    object      p;
}
// * * * * * * * * * * * * * * * * * * * * * * * * * * * * * * * * * * * * * //

dimensions      [0 2 -2 0 0 0 0];

internalField   nonuniform List<scalar> 
750
(
0.42448017
0.42413362
0.42411471
0.42363031
0.42339737
0.42286655
0.42243891
0.42188726
0.42135143
0.42077243
0.4201847
0.4195789
0.41896131
0.41832835
0.41767558
0.4169948
0.41627019
0.4154585
0.41457964
0.4133189
0.41215263
0.40911441
0.40764039
0.39791484
0.39367782
0.42447391
0.42416556
0.42409732
0.42364833
0.42339308
0.4228733
0.42243948
0.42188993
0.42135247
0.42077365
0.42018555
0.41957975
0.41896213
0.41832944
0.41767717
0.41699738
0.41627383
0.41546681
0.41458639
0.41334098
0.41216656
0.40920115
0.40769417
0.39817553
0.39388218
0.42448343
0.42418771
0.42409959
0.42366304
0.42339762
0.42288112
0.42244334
0.42189402
0.4213551
0.42077594
0.42018739
0.41958147
0.418964
0.41833188
0.41768073
0.41700291
0.41628266
0.41548214
0.41460872
0.41338419
0.41223067
0.40933468
0.40790521
0.39841546
0.39442998
0.42450816
0.42420213
0.42411804
0.42367626
0.42340897
0.42289095
0.42244988
0.42189986
0.42135914
0.42077932
0.42019012
0.41958404
0.4189668
0.4183355
0.41768604
0.41701109
0.41629607
0.41550389
0.4146441
0.41345052
0.41232889
0.40953135
0.40822972
0.39874127
0.39527559
0.42454231
0.42421902
0.4241436
0.42369278
0.42342408
0.42290385
0.4224586
0.42190761
0.42136449
0.4207838
0.42019371
0.41958744
0.41897047
0.41834025
0.41769299
0.41702176
0.41631362
0.41553226
0.41469042
0.4135377
0.41245334
0.40978616
0.40864818
0.39920072
0.39637784
0.42458428
0.4242415
0.42417418
0.42371411
0.42344239
0.42292015
0.42246936
0.42191727
0.42137113
0.42078934
0.42019815
0.41959162
0.41897495
0.41834602
0.41770142
0.41703472
0.41633483
0.4155671
0.41474668
0.41364296
0.41260949
0.41009326
0.40916383
0.39979674
0.39785688
0.42463553
0.42426765
0.424212
0.42373941
0.42346447
0.42293978
0.42248216
0.42192875
0.42137902
0.42079588
0.42020338
0.41959651
0.41898016
0.41835272
0.41771116
0.41704971
0.41635913
0.41560723
0.41481197
0.41376205
0.41279352
0.4104413
0.40977027
0.40046567
0.40030807
0.42469592
0.42429868
0.42425686
0.42376927
0.42349019
0.42296271
0.422497
0.42194199
0.42138815
0.42080339
0.4202094
0.41960211
0.41898611
0.41836033
0.41772221
0.41706669
0.41638647
0.41565217
0.41488598
0.41389379
0.41300519
0.41083586
0.41048222
0.40123789
0.40410417
0.42475946
0.42434586
0.42429963
0.4238085
0.4235179
0.42298909
0.42251376
0.421957
0.42139846
0.42081188
0.42021621
0.4196084
0.4189928
0.41836889
0.41773461
0.41708577
0.41641695
0.41570201
0.41496694
0.414038
0.4132475
0.41131437
0.4113934
0.40268881
0.40877989
0.42481891
0.42442207
0.42432943
0.42386215
0.42354527
0.42301967
0.42253192
0.42197396
0.42140984
0.42082131
0.42022369
0.41961522
0.41900002
0.41837809
0.41774789
0.4171063
0.4164494
0.41575612
0.41505082
0.41419429
0.41348845
0.41188661
0.4123582
0.40503686
0.41393531
0.36724755
0.35699727
0.33842344
0.32440968
0.30879131
0.29386834
0.27873328
0.26368058
0.24860917
0.2335419
0.21847504
0.20340759
0.18834044
0.17327319
0.15820596
0.14313873
0.12807149
0.11300425
0.097937019
0.082869783
0.067802549
0.052735313
0.037668077
0.022600847
0.0075336083
0.3674031
0.35685129
0.33842861
0.32436086
0.30879597
0.29386316
0.27873399
0.26368013
0.24860917
0.23354188
0.21847503
0.20340759
0.18834044
0.17327319
0.15820596
0.14313873
0.12807149
0.11300425
0.097937019
0.082869783
0.067802549
0.052735313
0.037668078
0.022600846
0.0075336078
0.36714428
0.35679688
0.33835514
0.32435273
0.30878727
0.29386165
0.27873277
0.26367989
0.24860907
0.23354187
0.21847502
0.20340759
0.18834044
0.17327319
0.15820596
0.14313873
0.12807149
0.11300425
0.097937019
0.082869783
0.067802549
0.052735313
0.037668078
0.022600846
0.0075336077
0.36653137
0.35677518
0.338215
0.32435118
0.30877055
0.29386072
0.27873064
0.26367972
0.24860889
0.23354187
0.21847501
0.20340759
0.18834044
0.17327319
0.15820596
0.14313873
0.12807149
0.11300425
0.097937019
0.082869783
0.067802549
0.052735313
0.037668079
0.022600846
0.0075336077
0.36566824
0.35678338
0.33800921
0.32435587
0.30874874
0.29386023
0.27872777
0.26367966
0.24860863
0.23354189
0.218475
0.20340759
0.18834044
0.17327319
0.15820596
0.14313873
0.12807149
0.11300425
0.097937019
0.082869783
0.067802549
0.052735312
0.037668079
0.022600844
0.0075336078
0.36470017
0.35690049
0.33776077
0.3243575
0.30872551
0.29386034
0.27872431
0.26367975
0.24860832
0.23354193
0.21847499
0.2034076
0.18834044
0.17327319
0.15820596
0.14313873
0.12807149
0.11300425
0.097937019
0.082869783
0.067802549
0.052735312
0.03766808
0.022600842
0.0075336087
0.36359681
0.35720081
0.33754578
0.3243474
0.30870231
0.29386136
0.2787206
0.26368007
0.24860794
0.23354198
0.21847497
0.2034076
0.18834044
0.17327319
0.15820596
0.14313873
0.12807149
0.11300425
0.097937019
0.082869783
0.067802549
0.052735312
0.037668081
0.022600839
0.0075336095
0.36216085
0.35759615
0.33745252
0.32434374
0.30868045
0.29386288
0.27871721
0.26368062
0.24860757
0.23354205
0.21847495
0.2034076
0.18834045
0.17327319
0.15820596
0.14313873
0.12807149
0.11300425
0.097937019
0.082869783
0.067802549
0.052735311
0.037668082
0.022600838
0.0075336106
0.35926543
0.35787178
0.33746915
0.32436311
0.30865964
0.29386347
0.27871435
0.26368123
0.24860729
0.23354212
0.21847494
0.20340761
0.18834045
0.17327319
0.15820596
0.14313873
0.12807149
0.11300425
0.097937019
0.082869783
0.067802548
0.05273531
0.037668083
0.022600839
0.0075336129
0.3520899
0.35803912
0.33716516
0.32448296
0.30862512
0.29387467
0.27871101
0.26368177
0.24860709
0.23354213
0.21847493
0.2034076
0.18834045
0.17327319
0.15820596
0.14313873
0.12807149
0.11300425
0.097937019
0.082869783
0.067802549
0.052735311
0.037668085
0.022600846
0.0075336191
0.42494047
0.42461457
0.42437998
0.42398901
0.42360176
0.42308885
0.42257119
0.42201123
0.42143466
0.42084162
0.42023945
0.4196294
0.4190148
0.41839665
0.41777461
0.41714799
0.41651529
0.41586907
0.41522144
0.41452734
0.41392932
0.41312898
0.4138913
0.41059267
0.42705787
0.42523824
0.42487615
0.42459074
0.42417588
0.42374394
0.42320418
0.42265431
0.42207625
0.42148226
0.42087787
0.42026781
0.41965414
0.41903994
0.41842741
0.41781784
0.41721343
0.41661713
0.41603078
0.4154679
0.41492306
0.414462
0.41402252
0.41429521
0.41231049
0.41658681
0.42562434
0.4252002
0.4248752
0.42439773
0.42391725
0.42333919
0.42275265
0.42214979
0.42153619
0.42091771
0.42029792
0.41967926
0.41906438
0.41845596
0.41785729
0.41727274
0.416709
0.41617446
0.41568663
0.41526143
0.41495304
0.41476781
0.41507271
0.41483108
0.41682028
0.42610358
0.42561708
0.4252171
0.42466138
0.42411577
0.42348973
0.42286147
0.42222894
0.42159311
0.42095843
0.42032741
0.41970234
0.41908507
0.41847848
0.41788755
0.41731857
0.41678046
0.41628623
0.41585544
0.41551493
0.41531155
0.41527745
0.41560001
0.41605061
0.41682013
0.42670863
0.42613928
0.42561673
0.42496176
0.42433366
0.42364909
0.42297503
0.42230939
0.42164938
0.42099711
0.42035376
0.41972063
0.41909874
0.41849125
0.41790394
0.41734427
0.41682257
0.41635419
0.41595991
0.41567005
0.41552527
0.41556064
0.41588798
0.41649765
0.41683629
0.42749004
0.42678266
0.42607249
0.42528747
0.42456119
0.42380899
0.4230863
0.42238607
0.42170122
0.42103101
0.42037457
0.41973178
0.41910326
0.41849208
0.41790375
0.41734615
0.41683065
0.41637325
0.41599533
0.41572699
0.41560443
0.41565604
0.41596281
0.41657185
0.41673701
0.42848405
0.42752018
0.42655955
0.4256179
0.42478171
0.42395777
0.42318703
0.42245338
0.4217448
0.42105754
0.42038818
0.41973499
0.41909818
0.4184805
0.41788672
0.41732457
0.41680545
0.41634528
0.41596497
0.41569296
0.41556234
0.41559666
0.41586463
0.41644212
0.41653913
0.42994533
0.4282795
0.42703582
0.42592691
0.424975
0.42408153
0.42326778
0.42250459
0.42177514
0.42107251
0.42039075
0.41972656
0.41907932
0.4184511
0.41784598
0.41727064
0.41673566
0.41625609
0.41585141
0.41554795
0.41537616
0.41535794
0.41555789
0.41607668
0.41615879
0.43317274
0.4292224
0.4275028
0.42617662
0.42511265
0.42416388
0.42331898
0.42253418
0.42178864
0.42107279
0.42037896
0.41970242
0.41904163
0.41839733
0.41777249
0.41717243
0.41660605
0.41608634
0.41563054
0.41526268
0.41501164
0.41489922
0.41498727
0.41541006
0.4155126
0.43435075
0.42786966
0.42763771
0.42625584
0.42516405
0.42420015
0.42334195
0.42254904
0.42179853
0.42107953
0.42038405
0.41970687
0.41904609
0.41840231
0.41777861
0.41718031
0.41661613
0.41609885
0.41564545
0.41527852
0.41502583
0.41490559
0.41496799
0.41530154
0.41527858
)
;

boundaryField
{
    inlet
    {
        type            zeroGradient;
    }
    walls
    {
        type            zeroGradient;
    }
    outlet
    {
        type            fixedValue;
        value           uniform 0;
    }
    centreline
    {
        type            symmetryPlane;
    }
    frontAndBack
    {
        type            empty;
    }
}


// ************************************************************************* //
