/*--------------------------------*- C++ -*----------------------------------*\
| =========                 |                                                 |
| \\      /  F ield         | OpenFOAM: The Open Source CFD Toolbox           |
|  \\    /   O peration     | Version:  5.x                                   |
|   \\  /    A nd           | Web:      www.OpenFOAM.org                      |
|    \\/     M anipulation  |                                                 |
\*---------------------------------------------------------------------------*/
/*   Windows 32 and 64 bit porting by blueCAPE: http://www.bluecape.com.pt   *\
|  Based on Windows porting (2.0.x v4) by Symscape: http://www.symscape.com   |
\*---------------------------------------------------------------------------*/
FoamFile
{
    version     2.0;
    format      ascii;
    class       surfaceScalarField;
    location    "0.04";
    object      phi;
}
// * * * * * * * * * * * * * * * * * * * * * * * * * * * * * * * * * * * * * //

dimensions      [0 3 -1 0 0 0 0];

internalField   nonuniform List<scalar> 
1430
(
5.041211e-006
-3.9930658e-008
5.0818736e-006
-4.0662645e-008
5.1072624e-006
-2.5388701e-008
5.1399508e-006
-3.2688441e-008
5.1615644e-006
-2.1613606e-008
5.1872914e-006
-2.5726972e-008
5.2085241e-006
-2.1232671e-008
5.2320524e-006
-2.3528269e-008
5.2570426e-006
-2.4990236e-008
5.2870252e-006
-2.9982546e-008
5.3244746e-006
-3.7449393e-008
5.3735747e-006
-4.9100102e-008
5.439628e-006
-6.6053316e-008
5.5302e-006
-9.057195e-008
5.6561152e-006
-1.2591516e-007
5.8332435e-006
-1.771283e-007
6.0849691e-006
-2.5172557e-007
6.4490042e-006
-3.6403507e-007
6.9787773e-006
-5.2977316e-007
7.78028e-006
-8.0150265e-007
8.9746887e-006
-1.1944086e-006
1.0892172e-005
-1.9174837e-006
1.3863887e-005
-2.9717141e-006
1.8209127e-005
-4.3452399e-006
-5.1329096e-006
2.3342037e-005
5.0422006e-006
-8.085086e-008
5.0809322e-006
-7.9394252e-008
5.1084336e-006
-5.289005e-008
5.1392195e-006
-6.3474333e-008
5.1624005e-006
-4.479457e-008
5.1869036e-006
-5.0230023e-008
5.208762e-006
-4.3091104e-008
5.2317791e-006
-4.6545316e-008
5.2568055e-006
-5.0016635e-008
5.28651e-006
-5.968702e-008
5.3237376e-006
-7.4676927e-008
5.3724718e-006
-9.7834371e-008
5.4380317e-006
-1.3161317e-007
5.5278943e-006
-1.8043447e-007
5.6527667e-006
-2.5078756e-007
5.8282766e-006
-3.5263818e-007
6.0777461e-006
-5.0119508e-007
6.4375565e-006
-7.2384546e-007
6.962511e-006
-1.0547276e-006
7.7491382e-006
-1.5881299e-006
8.9358716e-006
-2.3811419e-006
1.0808775e-005
-3.7903875e-006
1.3815335e-005
-5.9782731e-006
1.819559e-005
-8.725495e-006
-1.059886e-005
2.3661542e-005
5.0418284e-006
-1.213989e-007
5.0816722e-006
-1.1923803e-007
5.1083651e-006
-7.9582985e-008
5.1397211e-006
-9.483028e-008
5.162546e-006
-6.761952e-008
5.1870386e-006
-7.472257e-008
5.2086794e-006
-6.4731906e-008
5.2314774e-006
-6.9343257e-008
5.256203e-006
-7.4742225e-008
5.285525e-006
-8.9008996e-008
5.3222505e-006
-1.1140238e-007
5.3702901e-006
-1.4587399e-007
5.4348739e-006
-1.9619701e-007
5.5233383e-006
-2.6889883e-007
5.6461554e-006
-3.7360458e-007
5.8185647e-006
-5.2504749e-007
6.0632749e-006
-7.4590532e-007
6.4156717e-006
-1.0762422e-006
6.9283219e-006
-1.5673778e-006
7.6940641e-006
-2.3538721e-006
8.8456718e-006
-3.5327496e-006
1.0676355e-005
-5.6210705e-006
1.3663562e-005
-8.9654802e-006
1.8196333e-005
-1.3258266e-005
-1.6410665e-005
2.4008137e-005
5.041725e-006
-1.6184353e-007
5.0820852e-006
-1.5959824e-007
5.1087274e-006
-1.0622521e-007
5.140187e-006
-1.2628984e-007
5.1629112e-006
-9.0343692e-008
5.1871991e-006
-9.9010508e-008
5.2085879e-006
-8.6120673e-008
5.2310252e-006
-9.1780545e-008
5.2553134e-006
-9.9030357e-008
5.2840617e-006
-1.1775735e-007
5.3200347e-006
-1.4737538e-007
5.3670387e-006
-1.9287795e-007
5.4301703e-006
-2.5932855e-007
5.5165521e-006
-3.552806e-007
5.636309e-006
-4.9336148e-007
5.804117e-006
-6.9285553e-007
6.0417404e-006
-9.8352867e-007
6.3829398e-006
-1.4174416e-006
6.8775354e-006
-2.0619734e-006
7.6122028e-006
-3.0885395e-006
8.7125863e-006
-4.6331331e-006
1.0479529e-005
-7.3880133e-006
1.3415855e-005
-1.1901806e-005
1.8045805e-005
-1.7888216e-005
-2.2488162e-005
2.4123303e-005
5.0415034e-006
-2.0206655e-007
5.0824828e-006
-2.0057765e-007
5.1092386e-006
-1.3298101e-007
5.140783e-006
-1.5783418e-007
5.1634143e-006
-1.1297502e-007
5.1874245e-006
-1.2302067e-007
5.2084721e-006
-1.0716829e-007
5.2304311e-006
-1.1373949e-007
5.2541387e-006
-1.2273795e-007
5.2821281e-006
-1.4574674e-007
5.3171022e-006
-1.8234948e-007
5.3627384e-006
-2.3851415e-007
5.4239522e-006
-3.2054232e-007
5.507588e-006
-4.3891636e-007
5.623316e-006
-6.0908954e-007
5.7850812e-006
-8.5462068e-007
6.0133863e-006
-1.2118337e-006
6.339797e-006
-1.7438523e-006
6.8106176e-006
-2.532794e-006
7.5045658e-006
-3.7824877e-006
8.5387289e-006
-5.6672962e-006
1.0217525e-005
-9.0668098e-006
1.3044579e-005
-1.472886e-005
1.7613379e-005
-2.2457017e-005
-2.8492696e-005
2.3617913e-005
5.040883e-006
-2.4166925e-007
5.0829508e-006
-2.4264537e-007
5.1098227e-006
-1.5985295e-007
5.1415435e-006
-1.8955491e-007
5.1640523e-006
-1.3548389e-007
5.1877161e-006
-1.4668445e-007
5.2083307e-006
-1.2778284e-007
5.2297001e-006
-1.3510889e-007
5.2526868e-006
-1.4572465e-007
5.2797359e-006
-1.7279575e-007
5.3134724e-006
-2.1608596e-007
5.3574198e-006
-2.8246161e-007
5.416267e-006
-3.7938944e-007
5.4965211e-006
-5.191705e-007
5.6072997e-006
-7.1986813e-007
5.7616611e-006
-1.0089821e-006
5.9785408e-006
-1.4287134e-006
6.286786e-006
-2.0520975e-006
6.7283605e-006
-2.9743685e-006
7.3720315e-006
-4.4261588e-006
8.3230978e-006
-6.6183625e-006
9.8819944e-006
-1.0625706e-005
1.2515824e-005
-1.7362689e-005
1.6802785e-005
-2.6743979e-005
-3.3886454e-005
2.2196544e-005
5.0397585e-006
-2.8014744e-007
5.083418e-006
-2.8630486e-007
5.1105344e-006
-1.8696928e-007
5.1424447e-006
-2.2146521e-007
5.164857e-006
-1.5789624e-007
5.1880651e-006
-1.6989249e-007
5.2081709e-006
-1.4788866e-007
5.2288394e-006
-1.5577737e-007
5.2509698e-006
-1.6785506e-007
5.2769038e-006
-1.9872972e-007
5.3091704e-006
-2.4835256e-007
5.3511192e-006
-3.2441035e-007
5.4071711e-006
-4.3544133e-007
5.4834372e-006
-5.9543663e-007
5.5883975e-006
-8.2482837e-007
5.7340798e-006
-1.1546644e-006
5.9376265e-006
-1.6322601e-006
6.2247352e-006
-2.3392062e-006
6.6320598e-006
-3.3816932e-006
7.2168297e-006
-5.0109287e-006
8.067899e-006
-7.4694317e-006
9.468546e-006
-1.2026354e-005
1.1810475e-005
-1.9704618e-005
1.5624786e-005
-3.055829e-005
-3.8115494e-005
1.9853826e-005
5.038106e-006
-3.1697315e-007
5.0839371e-006
-3.3213588e-007
5.1113716e-006
-2.1440379e-007
5.1435278e-006
-2.5362143e-007
5.1658319e-006
-1.8020032e-007
5.1884702e-006
-1.9253071e-007
5.2080057e-006
-1.6742415e-007
5.2278591e-006
-1.7563079e-007
5.2490028e-006
-1.889987e-007
5.2736564e-006
-2.2338334e-007
5.3042302e-006
-2.7892635e-007
5.3438823e-006
-3.640624e-007
5.3967361e-006
-4.8829515e-007
5.4684454e-006
-6.6714591e-007
5.5667757e-006
-9.2315869e-007
5.7026053e-006
-1.2904939e-006
5.8910891e-006
-1.8207439e-006
6.1544435e-006
-2.6025605e-006
6.5229931e-006
-3.7502429e-006
7.0414004e-006
-5.529336e-006
7.7758152e-006
-8.2038465e-006
8.9732903e-006
-1.3223829e-005
1.0917e-005
-2.1648328e-005
1.4197953e-005
-3.3839244e-005
-4.0772598e-005
1.6855058e-005
5.0358247e-006
-3.5151747e-007
5.0848944e-006
-3.8120564e-007
5.1121284e-006
-2.4163772e-007
5.1449959e-006
-2.8648897e-007
5.1669177e-006
-2.0212207e-007
5.1889609e-006
-2.1457387e-007
5.2078515e-006
-1.8631477e-007
5.2267745e-006
-1.9455373e-007
5.2468049e-006
-2.0902914e-007
5.2700241e-006
-2.4660253e-007
5.2986975e-006
-3.0759968e-007
5.3357736e-006
-4.0113854e-007
5.3850603e-006
-5.375818e-007
5.4516976e-006
-7.3378324e-007
5.5426709e-006
-1.0141319e-006
5.6676136e-006
-1.4154367e-006
5.8395688e-006
-1.9926992e-006
6.0770364e-006
-2.8400281e-006
6.4030962e-006
-4.0763026e-006
6.8493252e-006
-5.975565e-006
7.4525599e-006
-8.8070812e-006
8.39645e-006
-1.4167719e-005
9.8360387e-006
-2.3087916e-005
1.2507091e-005
-3.6510296e-005
-4.1614039e-005
1.3348531e-005
5.0340873e-006
-3.8432441e-007
5.0854042e-006
-4.3252253e-007
5.1135944e-006
-2.6982785e-007
5.1464384e-006
-3.1933293e-007
5.1684607e-006
-2.2414442e-007
5.1894222e-006
-2.3553531e-007
5.207825e-006
-2.0471761e-007
5.225582e-006
-2.1231065e-007
5.2444223e-006
-2.2786941e-007
5.2660388e-006
-2.68219e-007
5.2926345e-006
-3.3419538e-007
5.3268801e-006
-4.3538415e-007
5.3722643e-006
-5.8296599e-007
5.4333766e-006
-7.9489557e-007
5.5163737e-006
-1.0971289e-006
5.6295478e-006
-1.5286108e-006
5.783855e-006
-2.1470063e-006
5.9935479e-006
-3.049721e-006
6.27533e-006
-4.3580848e-006
6.6453445e-006
-6.3455795e-006
7.114632e-006
-9.2763686e-006
7.7561198e-006
-1.4809206e-005
8.6054587e-006
-2.3937255e-005
1.0241683e-005
-3.814652e-005
9.0443291e-006
-4.0416686e-005
2.5850784e-005
-2.5087469e-006
2.6747358e-005
-8.965731e-007
2.6940908e-005
-1.935504e-007
2.6950345e-005
-9.4364714e-009
2.6953011e-005
-2.6666881e-009
2.6951395e-005
1.616468e-009
2.6950841e-005
5.5373212e-010
2.6950109e-005
7.3192891e-010
2.6949821e-005
2.8796171e-010
2.6949706e-005
1.155792e-010
2.694966e-005
4.5591222e-011
2.6949647e-005
1.3568001e-011
2.694964e-005
6.1513539e-012
2.6949638e-005
2.0406201e-012
2.6949638e-005
6.9138102e-013
2.6949637e-005
2.5973078e-013
2.6949637e-005
8.9636246e-014
2.6949637e-005
3.0747997e-014
2.6949637e-005
1.6056539e-015
2.6949637e-005
-1.2550223e-014
2.6949637e-005
5.4829489e-014
2.6949637e-005
2.397685e-013
2.6949637e-005
1.8611374e-013
2.6949636e-005
1.0449936e-012
1.3955257e-012
2.6199895e-005
-5.0470988e-006
2.71659e-005
-1.8625781e-006
2.7290346e-005
-3.1799589e-007
2.7294173e-005
-1.3263719e-008
2.728494e-005
6.5662454e-009
2.7284921e-005
1.6356656e-009
2.7283779e-005
1.6951859e-009
2.7283263e-005
1.2484251e-009
2.7282929e-005
6.2191785e-010
2.7282813e-005
2.3120484e-010
2.7282775e-005
8.344559e-011
2.728276e-005
2.8561503e-011
2.7282755e-005
1.1081066e-011
2.7282753e-005
4.0275654e-012
2.7282753e-005
1.3268215e-012
2.7282753e-005
4.5809056e-013
2.7282752e-005
1.6425832e-013
2.7282752e-005
5.276229e-014
2.7282752e-005
6.3641404e-015
2.7282752e-005
-6.3511229e-015
2.7282752e-005
1.0635226e-013
2.7282752e-005
3.9266687e-013
2.7282752e-005
4.8703026e-013
2.728275e-005
2.6292163e-012
3.4021025e-012
2.6727249e-005
-7.7662109e-006
2.7694883e-005
-2.8302118e-006
2.7767965e-005
-3.9107815e-007
2.7742239e-005
1.2462413e-008
2.7723936e-005
2.486923e-008
2.7723053e-005
2.5190009e-009
2.7722017e-005
2.7306898e-009
2.7721562e-005
1.7033232e-009
2.772123e-005
9.5404588e-010
2.7721123e-005
3.383369e-010
2.7721091e-005
1.1555101e-010
2.7721078e-005
4.1202039e-011
2.7721074e-005
1.5076503e-011
2.7721073e-005
5.6622752e-012
2.7721072e-005
1.8332905e-012
2.7721072e-005
6.1368103e-013
2.7721072e-005
2.2362265e-013
2.7721072e-005
6.9212427e-014
2.7721072e-005
8.6337572e-015
2.7721072e-005
-3.3714412e-015
2.7721072e-005
1.2817696e-013
2.7721072e-005
4.2414722e-013
2.7721071e-005
8.7575335e-013
2.7721068e-005
6.2157214e-012
7.2305906e-012
2.6883858e-005
-1.0526766e-005
2.7801415e-005
-3.7477681e-006
2.7829414e-005
-4.1907697e-007
2.7785097e-005
5.6778575e-008
2.7761182e-005
4.8784504e-008
2.775966e-005
4.0415135e-009
2.7758713e-005
3.6767745e-009
2.7758404e-005
2.0125169e-009
2.7758124e-005
1.2343458e-009
2.7758043e-005
4.1916029e-010
2.7758021e-005
1.3714385e-010
2.7758013e-005
4.992711e-011
2.775801e-005
1.7495048e-011
2.7758009e-005
6.6963757e-012
2.7758009e-005
2.1253974e-012
2.7758009e-005
6.9717837e-013
2.7758009e-005
2.571029e-013
2.7758009e-005
7.6342038e-014
2.7758009e-005
1.0668265e-014
2.7758009e-005
5.6944214e-015
2.7758009e-005
1.4509742e-013
2.7758009e-005
4.0661799e-013
2.7758008e-005
1.3619378e-012
2.7758003e-005
1.2005674e-011
1.3076135e-011
2.6007001e-005
-1.2915854e-005
2.671993e-005
-4.460697e-006
2.6724363e-005
-4.2351017e-007
2.6687515e-005
9.3626204e-008
2.6667113e-005
6.918665e-008
2.666572e-005
5.4342361e-009
2.6664879e-005
4.5179022e-009
2.6664823e-005
2.0682683e-009
2.6664668e-005
1.3901503e-009
2.6664638e-005
4.4875984e-010
2.6664632e-005
1.4280594e-010
2.6664629e-005
5.2832277e-011
2.6664629e-005
1.7669736e-011
2.6664629e-005
6.8823222e-012
2.6664629e-005
2.1209193e-012
2.6664629e-005
6.8061107e-013
2.6664629e-005
2.4748584e-013
2.6664629e-005
6.9505533e-014
2.6664629e-005
1.6997972e-014
2.6664629e-005
2.5738795e-014
2.6664629e-005
1.7799662e-013
2.6664629e-005
4.3574067e-013
2.6664628e-005
1.8503158e-012
2.6664622e-005
1.8102226e-011
1.9079779e-011
2.3548606e-005
-1.4267916e-005
2.3800846e-005
-4.7129369e-006
2.3794634e-005
-4.1729764e-007
2.3790349e-005
9.7910726e-008
2.3782807e-005
7.6728882e-008
2.3782498e-005
5.7431093e-009
2.3781935e-005
5.0811638e-009
2.3782214e-005
1.7892769e-009
2.3782242e-005
1.3612769e-009
2.3782285e-005
4.0646704e-010
2.3782299e-005
1.2887225e-010
2.3782303e-005
4.8382259e-011
2.3782306e-005
1.5185568e-011
2.3782306e-005
6.0889708e-012
2.3782307e-005
1.7820398e-012
2.3782307e-005
5.5493851e-013
2.3782307e-005
1.9749184e-013
2.3782307e-005
5.104993e-014
2.3782307e-005
2.157569e-014
2.3782307e-005
4.8633383e-014
2.3782307e-005
2.3041209e-013
2.3782307e-005
5.537496e-013
2.3782306e-005
2.100174e-012
2.3782303e-005
2.1547019e-011
2.2406341e-011
1.9419183e-005
-1.3833273e-005
1.8942841e-005
-4.2365954e-006
1.8909101e-005
-3.8355763e-007
1.8942077e-005
6.49351e-008
1.8951326e-005
6.7479617e-008
1.8952556e-005
4.5132665e-009
1.8952658e-005
4.9787107e-009
1.8953235e-005
1.2126683e-009
1.8953467e-005
1.1295384e-009
1.8953579e-005
2.9430887e-010
1.895361e-005
9.7190816e-011
1.8953622e-005
3.6678569e-011
1.8953627e-005
1.0431569e-011
1.8953628e-005
4.4436809e-012
1.8953629e-005
1.1746224e-012
1.8953629e-005
3.5124987e-013
1.8953629e-005
1.2413021e-013
1.8953629e-005
2.6531173e-014
1.8953629e-005
2.0194337e-014
1.8953629e-005
5.7403758e-014
1.8953629e-005
2.6815552e-013
1.8953629e-005
6.9097082e-013
1.8953629e-005
1.8885003e-012
1.8953631e-005
2.0028309e-011
2.0851453e-011
1.4090492e-005
-1.1068708e-005
1.280882e-005
-2.9549232e-006
1.2709842e-005
-2.8457941e-007
1.2754799e-005
1.9978021e-008
1.2777681e-005
4.4597752e-008
1.277988e-005
2.3138057e-009
1.2781044e-005
3.815033e-009
1.2781704e-005
5.5219146e-010
1.2782103e-005
7.310764e-010
1.2782247e-005
1.5038331e-010
1.2782287e-005
5.6541402e-011
1.2782303e-005
2.0613653e-011
1.2782309e-005
5.0260908e-012
1.2782311e-005
2.4252976e-012
1.2782312e-005
5.1450363e-013
1.2782312e-005
1.457679e-013
1.2782312e-005
4.8287242e-014
1.2782312e-005
2.6415143e-015
1.2782312e-005
1.3204213e-014
1.2782312e-005
3.862628e-014
1.2782312e-005
2.2602111e-013
1.2782312e-005
6.644519e-013
1.2782313e-005
1.2684113e-012
1.2782319e-005
1.3668382e-011
1.4423224e-011
8.3620073e-006
-6.0821834e-006
6.6279082e-006
-1.220824e-006
6.4547011e-006
-1.1137249e-007
6.4805825e-006
-5.9033193e-009
6.5073434e-006
1.7836811e-008
6.5093663e-006
2.9088779e-010
6.5114047e-006
1.7765638e-009
6.5118648e-006
9.2044837e-011
6.5123122e-006
2.8367995e-010
6.5124249e-006
3.7689532e-011
6.512462e-006
1.9418837e-011
6.5124763e-006
6.3468309e-012
6.5124801e-006
1.1678917e-012
6.5124818e-006
7.4403037e-013
6.5124822e-006
8.38847e-014
6.5124822e-006
1.9338878e-014
6.5124823e-006
6.4440111e-017
6.5124822e-006
-1.2520828e-014
6.5124823e-006
-3.7988353e-015
6.5124823e-006
-2.4546613e-015
6.5124825e-006
7.3025058e-014
6.5124829e-006
3.0328464e-013
6.5124838e-006
4.1266731e-013
6.5124924e-006
5.1667108e-012
5.6627779e-012
2.9621453e-006
1.7413213e-006
1.6299488e-006
1.6240454e-006
1.6418822e-006
1.6421731e-006
1.6439497e-006
1.6440417e-006
1.6443254e-006
1.6443631e-006
1.6443825e-006
1.6443888e-006
1.64439e-006
1.6443907e-006
1.6443908e-006
1.6443908e-006
1.6443907e-006
1.6443907e-006
1.6443907e-006
1.6443907e-006
1.6443909e-006
1.6443912e-006
1.6443916e-006
1.6443968e-006
1.5117278e-005
-4.9776148e-007
1.5240125e-005
-5.5536951e-007
1.536515e-005
-3.9485306e-007
1.5440908e-005
-3.9509068e-007
1.5520757e-005
-3.0399276e-007
1.5571289e-005
-2.8606737e-007
1.5624264e-005
-2.5769336e-007
1.5669466e-005
-2.5751233e-007
1.5718099e-005
-2.7650273e-007
1.5772415e-005
-3.2253444e-007
1.5838712e-005
-4.0049215e-007
1.5923109e-005
-5.1978152e-007
1.6034003e-005
-6.9385956e-007
1.6181791e-005
-9.4268375e-007
1.6379709e-005
-1.2950469e-006
1.6644225e-005
-1.7931267e-006
1.6995627e-005
-2.498409e-006
1.7450829e-005
-3.5049223e-006
1.8031318e-005
-4.9385744e-006
1.8689135e-005
-7.0033958e-006
1.9389493e-005
-9.9767269e-006
1.9586981e-005
-1.5006694e-005
1.8783415e-005
-2.3133689e-005
1.4667578e-005
-3.4030683e-005
-2.5749108e-005
1.5122318e-005
-6.1623896e-007
1.5263437e-005
-6.9648804e-007
1.5393916e-005
-5.2533188e-007
1.546984e-005
-4.7101497e-007
1.5540396e-005
-3.7454812e-007
1.5585134e-005
-3.3080571e-007
1.5625011e-005
-2.9757001e-007
1.5658453e-005
-2.9095449e-007
1.5691548e-005
-3.0959753e-007
1.5727276e-005
-3.582629e-007
1.57694e-005
-4.426166e-007
1.5821764e-005
-5.7214515e-007
1.5888939e-005
-7.610341e-007
1.5975935e-005
-1.0296803e-006
1.6088186e-005
-1.4072979e-006
1.6230585e-005
-1.9355255e-006
1.6405371e-005
-2.6731946e-006
1.6605139e-005
-3.7046903e-006
1.6808515e-005
-5.1419509e-006
1.6940764e-005
-7.1356444e-006
1.686294e-005
-9.8989029e-006
1.5969422e-005
-1.4113177e-005
1.3284227e-005
-2.0448494e-005
6.6176634e-006
-2.7364119e-005
-1.9131445e-005
1.5147336e-005
-7.5973436e-007
1.5306426e-005
-8.5557791e-007
1.5437193e-005
-6.56099e-007
1.5509971e-005
-5.4379268e-007
1.5567572e-005
-4.3214906e-007
1.5601908e-005
-3.6514186e-007
1.5627432e-005
-3.2309412e-007
1.564622e-005
-3.0974169e-007
1.5662045e-005
-3.2542337e-007
1.5676961e-005
-3.731784e-007
1.5692704e-005
-4.5835913e-007
1.5710455e-005
-5.8989704e-007
1.5730978e-005
-7.8155696e-007
1.5754135e-005
-1.052837e-006
1.5778217e-005
-1.4313796e-006
1.5798136e-005
-1.9554451e-006
1.5802089e-005
-2.6771474e-006
1.5764437e-005
-3.6670381e-006
1.5637152e-005
-5.0146654e-006
1.5326206e-005
-6.8246985e-006
1.4664479e-005
-9.2371765e-006
1.3160765e-005
-1.2609462e-005
9.9620282e-006
-1.7249758e-005
4.0051142e-006
-2.1407205e-005
-1.5126331e-005
1.5182062e-005
-9.3795529e-007
1.5363347e-005
-1.0368625e-006
1.5490853e-005
-7.8360519e-007
1.5555672e-005
-6.0861187e-007
1.5596309e-005
-4.7278652e-007
1.5615874e-005
-3.8470659e-007
1.5624873e-005
-3.3209248e-007
1.5626952e-005
-3.1182072e-007
1.5624294e-005
-3.2276617e-007
1.5617483e-005
-3.6636722e-007
1.5606202e-005
-4.4707763e-007
1.5588993e-005
-5.7268868e-007
1.5563046e-005
-7.5560943e-007
1.5523682e-005
-1.0134729e-006
1.5463127e-005
-1.3708248e-006
1.5368403e-005
-1.8607212e-006
1.5217784e-005
-2.5265284e-006
1.4974451e-005
-3.4237053e-006
1.4577911e-005
-4.6181252e-006
1.3929777e-005
-6.1765648e-006
1.2870714e-005
-8.1781127e-006
1.1067998e-005
-1.0806746e-005
7.9866077e-006
-1.4168368e-005
3.247459e-006
-1.6668057e-005
-1.1878871e-005
1.5233586e-005
-1.1676999e-006
1.5447499e-005
-1.2507755e-006
1.5567219e-005
-9.0332516e-007
1.5615988e-005
-6.5738105e-007
1.5634227e-005
-4.9102606e-007
1.5634092e-005
-3.8457149e-007
1.5624336e-005
-3.2233659e-007
1.5608367e-005
-2.9585101e-007
1.5586831e-005
-3.0123076e-007
1.5558579e-005
-3.3811507e-007
1.552116e-005
-4.0965839e-007
1.5470683e-005
-5.2221189e-007
1.540127e-005
-6.8619583e-007
1.5304373e-005
-9.1657632e-007
1.516735e-005
-1.2338013e-006
1.4971556e-005
-1.6649275e-006
1.4688984e-005
-2.2439561e-006
1.4277424e-005
-3.0121458e-006
1.367404e-005
-4.0147409e-006
1.2787487e-005
-5.2900124e-006
1.1484027e-005
-6.8746526e-006
9.5454182e-006
-8.8681373e-006
6.6695807e-006
-1.129253e-005
2.822735e-006
-1.2821211e-005
-9.0561364e-006
1.5398953e-005
-1.5628117e-006
1.5678597e-005
-1.53042e-006
1.5778749e-005
-1.0034764e-006
1.579427e-005
-6.7290236e-007
1.5780988e-005
-4.7774411e-007
1.5755666e-005
-3.5925003e-007
1.5724886e-005
-2.9155638e-007
1.5690114e-005
-2.6107867e-007
1.5649959e-005
-2.6107545e-007
1.560136e-005
-2.8951651e-007
1.5539728e-005
-3.4802611e-007
1.5458904e-005
-4.4138763e-007
1.5350386e-005
-5.7767819e-007
1.520246e-005
-7.6865008e-007
1.4998913e-005
-1.030255e-006
1.4717069e-005
-1.3830828e-006
1.4325211e-005
-1.8520989e-006
1.3779226e-005
-2.4661604e-006
1.3018664e-005
-3.2541787e-006
1.1963716e-005
-4.2350647e-006
1.0510236e-005
-5.4211722e-006
8.5108175e-006
-6.868719e-006
5.7887363e-006
-8.5704489e-006
2.4670913e-006
-9.4995658e-006
-6.5890451e-006
1.5886207e-005
-2.4451779e-006
1.6258431e-005
-1.9026437e-006
1.6296666e-005
-1.0417111e-006
1.6248158e-005
-6.2439466e-007
1.6190029e-005
-4.1961561e-007
1.613375e-005
-3.029709e-007
1.6079889e-005
-2.376954e-007
1.6025984e-005
-2.0717288e-007
1.5967839e-005
-2.0293073e-007
1.5900177e-005
-2.2185466e-007
1.5816308e-005
-2.6415656e-007
1.5707989e-005
-3.3306919e-007
1.5564366e-005
-4.3405465e-007
1.5371168e-005
-5.7545254e-007
1.510934e-005
-7.684273e-007
1.4753133e-005
-1.0268754e-006
1.4268605e-005
-1.3675711e-006
1.3611219e-005
-1.8087742e-006
1.2724022e-005
-2.3669813e-006
1.1538338e-005
-3.0493814e-006
9.9736637e-006
-3.8564976e-006
7.9244016e-006
-4.8194568e-006
5.2762142e-006
-5.9222614e-006
2.217901e-006
-6.4412526e-006
-4.3711441e-006
1.6569988e-005
-4.0113252e-006
1.6815222e-005
-2.1478773e-006
1.6668921e-005
-8.9541058e-007
1.6512678e-005
-4.6815132e-007
1.6394766e-005
-3.0170371e-007
1.6302708e-005
-2.1091309e-007
1.6225415e-005
-1.6040166e-007
1.6153925e-005
-1.356832e-007
1.6080452e-005
-1.2945743e-007
1.5997409e-005
-1.3881204e-007
1.5896344e-005
-1.6309115e-007
1.5767212e-005
-2.03938e-007
1.5597503e-005
-2.643457e-007
1.5371107e-005
-3.4905638e-007
1.5066989e-005
-4.6430905e-007
1.4658072e-005
-6.1795798e-007
1.4109605e-005
-8.1910477e-007
1.3377912e-005
-1.0770812e-006
1.2410313e-005
-1.3993822e-006
1.1148053e-005
-1.7871208e-006
9.5282183e-006
-2.2366634e-006
7.4711229e-006
-2.7623613e-006
4.8937146e-006
-3.3448531e-006
2.013153e-006
-3.5606908e-006
-2.3579911e-006
1.5897564e-005
-4.9050483e-006
1.5307676e-005
-1.5579891e-006
1.4822363e-005
-4.1009787e-007
1.455799e-005
-2.0377843e-007
1.4389474e-005
-1.3318696e-007
1.4271108e-005
-9.2547255e-008
1.4179676e-005
-6.8970237e-008
1.4100409e-005
-5.6415865e-008
1.4023029e-005
-5.2077492e-008
1.3938622e-005
-5.4404903e-008
1.3838192e-005
-6.2661011e-008
1.3711617e-005
-7.7363256e-008
1.3546782e-005
-9.9510154e-008
1.3328424e-005
-1.3069918e-007
1.3037166e-005
-1.730511e-007
1.264852e-005
-2.2931149e-007
1.2131802e-005
-3.0238686e-007
1.1449791e-005
-3.9507042e-007
1.0559607e-005
-5.0919808e-007
9.4163967e-006
-6.4391022e-007
7.9757238e-006
-7.9599048e-007
6.1821392e-006
-9.6877674e-007
3.9799243e-006
-1.1426382e-006
1.5815886e-006
-1.1623551e-006
-7.7640242e-007
1.0098793e-005
8.5408035e-006
8.1307057e-006
7.9269272e-006
7.7937403e-006
7.701193e-006
7.6322228e-006
7.5758069e-006
7.5237294e-006
7.4693245e-006
7.4066635e-006
7.3293003e-006
7.2297901e-006
7.0990909e-006
6.9260398e-006
6.6967284e-006
6.3943415e-006
5.9992711e-006
5.490073e-006
4.8461628e-006
4.0501723e-006
3.0813956e-006
1.9387575e-006
7.7640242e-007
)
;

boundaryField
{
    inlet
    {
        type            calculated;
        value           nonuniform List<scalar> 
20
(
-5.0012803e-006
-5.0012803e-006
-5.0012803e-006
-5.0012803e-006
-5.0012803e-006
-5.0012803e-006
-5.0012803e-006
-5.0012803e-006
-5.0012803e-006
-5.0012803e-006
-1.5003841e-005
-1.5003841e-005
-1.5003841e-005
-1.5003841e-005
-1.5003841e-005
-1.5003841e-005
-1.5003841e-005
-1.5003841e-005
-1.5003841e-005
-1.5003841e-005
)
;
    }
    walls
    {
        type            calculated;
        value           uniform 0;
    }
    outlet
    {
        type            calculated;
        value           nonuniform List<scalar> 10(2.6949634e-005 2.7282748e-005 2.7721064e-005 2.7757997e-005 2.6664616e-005 2.37823e-005 1.8953633e-005 1.2782326e-005 6.5125012e-006 1.6444025e-006);
    }
    centreline
    {
        type            symmetryPlane;
        value           uniform 0;
    }
    frontAndBack
    {
        type            empty;
        value           nonuniform 0();
    }
}


// ************************************************************************* //
