/*--------------------------------*- C++ -*----------------------------------*\
| =========                 |                                                 |
| \\      /  F ield         | OpenFOAM: The Open Source CFD Toolbox           |
|  \\    /   O peration     | Version:  5.x                                   |
|   \\  /    A nd           | Web:      www.OpenFOAM.org                      |
|    \\/     M anipulation  |                                                 |
\*---------------------------------------------------------------------------*/
/*   Windows 32 and 64 bit porting by blueCAPE: http://www.bluecape.com.pt   *\
|  Based on Windows porting (2.0.x v4) by Symscape: http://www.symscape.com   |
\*---------------------------------------------------------------------------*/
FoamFile
{
    version     2.0;
    format      ascii;
    class       surfaceScalarField;
    location    "0.04";
    object      phi_0;
}
// * * * * * * * * * * * * * * * * * * * * * * * * * * * * * * * * * * * * * //

dimensions      [0 3 -1 0 0 0 0];

internalField   nonuniform List<scalar> 
1430
(
5.0409625e-006
-3.9682125e-008
5.0814358e-006
-4.0473364e-008
5.1064756e-006
-2.5039765e-008
5.1390607e-006
-3.2585049e-008
5.1604681e-006
-2.140745e-008
5.1860962e-006
-2.5628065e-008
5.2072205e-006
-2.1124238e-008
5.2306795e-006
-2.3458979e-008
5.2556137e-006
-2.4934181e-008
5.2855561e-006
-2.9942481e-008
5.3229759e-006
-3.7419749e-008
5.3720524e-006
-4.90765e-008
5.4380843e-006
-6.6031835e-008
5.5286312e-006
-9.0546934e-008
5.6545096e-006
-1.2587835e-007
5.8315783e-006
-1.7706868e-007
6.0832006e-006
-2.5162236e-007
6.4470564e-006
-3.6385578e-007
6.9765173e-006
-5.294608e-007
7.7774715e-006
-8.0095421e-007
8.9709417e-006
-1.1934702e-006
1.0886401e-005
-1.915459e-006
1.3853633e-005
-2.9672321e-006
1.8191483e-005
-4.3378496e-006
-5.1212188e-006
2.3312702e-005
5.0419724e-006
-8.0374203e-008
5.0804627e-006
-7.8963621e-008
5.1076664e-006
-5.2243387e-008
5.1383115e-006
-6.3230135e-008
5.161313e-006
-4.4408923e-008
5.1857006e-006
-5.0015614e-008
5.2074599e-006
-4.2883576e-008
5.2304038e-006
-4.6402803e-008
5.255376e-006
-4.9906434e-008
5.2850403e-006
-5.960669e-008
5.3222385e-006
-7.4617927e-008
5.3709495e-006
-9.7787496e-008
5.4364882e-006
-1.3157057e-007
5.5263262e-006
-1.8038488e-007
5.6511628e-006
-2.5071496e-007
5.8266139e-006
-3.5251975e-007
6.0759834e-006
-5.0099185e-007
6.4356148e-006
-7.234871e-007
6.9602695e-006
-1.0541155e-006
7.7463558e-006
-1.5870404e-006
8.9321826e-006
-2.379297e-006
1.0803069e-005
-3.7863452e-006
1.3805332e-005
-5.9694948e-006
1.8178993e-005
-8.7115101e-006
-1.0576425e-005
2.36342e-005
5.0415905e-006
-1.2068435e-007
5.0812021e-006
-1.1857526e-007
5.1075913e-006
-7.8632508e-008
5.1388105e-006
-9.4449357e-008
5.1614547e-006
-6.7053088e-008
5.1858321e-006
-7.4393013e-008
5.2073745e-006
-6.4425944e-008
5.2300997e-006
-6.9127984e-008
5.2547717e-006
-7.4578474e-008
5.284054e-006
-8.8888932e-008
5.3207506e-006
-1.1131454e-007
5.3687675e-006
-1.4580439e-007
5.4333311e-006
-1.9613409e-007
5.521772e-006
-2.6882575e-007
5.6445549e-006
-3.7349785e-007
5.8169081e-006
-5.2487301e-007
6.0615228e-006
-7.4560652e-007
6.4137471e-006
-1.0757114e-006
6.926113e-006
-1.5664814e-006
7.69135e-006
-2.3522774e-006
8.8420871e-006
-3.5300342e-006
1.0670787e-005
-5.6150447e-006
1.3654138e-005
-8.9528463e-006
1.8182332e-005
-1.3239704e-005
-1.638081e-005
2.3986717e-005
5.0414827e-006
-1.6088676e-007
5.0816125e-006
-1.5870498e-007
5.1079464e-006
-1.0496645e-007
5.1392711e-006
-1.2577402e-007
5.1618143e-006
-8.9596267e-008
5.1859872e-006
-9.856588e-008
5.2072787e-006
-8.5717442e-008
5.229644e-006
-9.1493244e-008
5.2538794e-006
-9.8813887e-008
5.2825889e-006
-1.1759837e-007
5.3185338e-006
-1.4725947e-007
5.3655159e-006
-1.927865e-007
5.4286283e-006
-2.5924647e-007
5.5149883e-006
-3.5518566e-007
5.6347136e-006
-4.9322317e-007
5.8024698e-006
-6.9262915e-007
6.0400043e-006
-9.831411e-007
6.3810424e-006
-1.4167495e-006
6.8753762e-006
-2.0608151e-006
7.6095912e-006
-3.0864925e-006
8.7091396e-006
-4.6295825e-006
1.0474145e-005
-7.3800506e-006
1.3407365e-005
-1.1886066e-005
1.8036215e-005
-1.7868555e-005
-2.2458086e-005
2.4113491e-005
5.04126e-006
-2.0086647e-007
5.0820095e-006
-1.9945446e-007
5.1084483e-006
-1.3140523e-007
5.1398604e-006
-1.571861e-007
5.1623097e-006
-1.1204553e-007
5.1862054e-006
-1.2246157e-007
5.2071572e-006
-1.0666922e-007
5.2290452e-006
-1.1338121e-007
5.2527011e-006
-1.2246983e-007
5.2806527e-006
-1.4554994e-007
5.3155999e-006
-1.8220659e-007
5.3612154e-006
-2.38402e-007
5.4224115e-006
-3.2044257e-007
5.5060275e-006
-4.3880168e-007
5.6217273e-006
-6.0892295e-007
5.7834458e-006
-8.5434764e-007
6.0116711e-006
-1.2113664e-006
6.337936e-006
-1.7430143e-006
6.8085257e-006
-2.5314049e-006
7.5020905e-006
-3.7800573e-006
8.535459e-006
-5.6629511e-006
1.0212405e-005
-9.0569969e-006
1.3037347e-005
-1.4711008e-005
1.7609369e-005
-2.2440577e-005
-2.8472459e-005
2.3623742e-005
5.0406381e-006
-2.4022427e-007
5.0824793e-006
-2.4129562e-007
5.1090212e-006
-1.5794706e-007
5.1406127e-006
-1.8877759e-007
5.1629381e-006
-1.3437092e-007
5.1864882e-006
-1.460117e-007
5.2070087e-006
-1.2718967e-007
5.2283084e-006
-1.3468096e-007
5.2512448e-006
-1.4540622e-007
5.2782574e-006
-1.7256249e-007
5.3119682e-006
-2.1591743e-007
5.3558964e-006
-2.8233018e-007
5.4147277e-006
-3.7927384e-007
5.4949647e-006
-5.1903867e-007
5.605719e-006
-7.1967724e-007
5.76004e-006
-1.0086686e-006
5.9768511e-006
-1.4281775e-006
6.2849707e-006
-2.0511339e-006
6.7263545e-006
-2.9727886e-006
7.3697208e-006
-4.4234236e-006
8.3200679e-006
-6.6132982e-006
9.8772744e-006
-1.0614203e-005
1.2510051e-005
-1.7343784e-005
1.6804005e-005
-2.6734531e-005
-3.3884942e-005
2.2216488e-005
5.039507e-006
-2.7845098e-007
5.0829488e-006
-2.8473734e-007
5.1097197e-006
-1.8471796e-007
5.1415031e-006
-2.2056102e-007
5.1637316e-006
-1.5659939e-007
5.1868265e-006
-1.6910656e-007
5.2068402e-006
-1.4720342e-007
5.2274408e-006
-1.5528146e-007
5.2495224e-006
-1.6748788e-007
5.2754215e-006
-1.9846158e-007
5.3076641e-006
-2.4815999e-007
5.3495953e-006
-3.2426136e-007
5.4056335e-006
-4.3531201e-007
5.4818855e-006
-5.9529072e-007
5.5868262e-006
-8.2461786e-007
5.7324755e-006
-1.154318e-006
5.9359667e-006
-1.6316686e-006
6.2229741e-006
-2.3381414e-006
6.6301531e-006
-3.3799676e-006
7.2146889e-006
-5.0079594e-006
8.0651577e-006
-7.463767e-006
9.4643392e-006
-1.2013385e-005
1.1806157e-005
-1.9685602e-005
1.5629065e-005
-3.055744e-005
-3.8135203e-005
1.9879326e-005
5.0378387e-006
-3.150093e-007
5.0834686e-006
-3.3036731e-007
5.1105409e-006
-2.1179023e-007
5.1425722e-006
-2.5259232e-007
5.1646941e-006
-1.7872129e-007
5.1872188e-006
-1.9163116e-007
5.2066648e-006
-1.6664943e-007
5.2264523e-006
-1.7506897e-007
5.2475491e-006
-1.8858462e-007
5.2721696e-006
-2.2308209e-007
5.3027211e-006
-2.7871154e-007
5.3423576e-006
-3.6389782e-007
5.3952001e-006
-4.8815447e-007
5.4668987e-006
-6.6698929e-007
5.5652145e-006
-9.2293371e-007
5.7010192e-006
-1.2901227e-006
5.8894613e-006
-1.8201106e-006
6.1527404e-006
-2.6014205e-006
6.5211892e-006
-3.7484163e-006
7.039433e-006
-5.5262032e-006
7.773414e-006
-8.1977481e-006
8.9697529e-006
-1.3209724e-005
1.0914134e-005
-2.1629983e-005
1.4202969e-005
-3.3846275e-005
-4.0808143e-005
1.6875909e-005
5.0355288e-006
-3.4925774e-007
5.0844261e-006
-3.792646e-007
5.1112764e-006
-2.3864049e-007
5.1440231e-006
-2.8533904e-007
5.1657658e-006
-2.0046399e-007
5.187694e-006
-2.1355928e-007
5.2064988e-006
-1.8545421e-007
5.2253582e-006
-1.9392841e-007
5.2453439e-006
-2.0857027e-007
5.268532e-006
-2.4627015e-007
5.297185e-006
-3.0736455e-007
5.3342477e-006
-4.0096057e-007
5.3835256e-006
-5.3743231e-007
5.4501557e-006
-7.3361942e-007
5.5411198e-006
-1.0138978e-006
5.666046e-006
-1.4150489e-006
5.8379731e-006
-1.9920378e-006
6.07539e-006
-2.8388374e-006
6.4013951e-006
-4.0744215e-006
6.8475392e-006
-5.9723473e-006
7.4505485e-006
-8.8007574e-006
8.3937143e-006
-1.415289e-005
9.8341833e-006
-2.3070452e-005
1.2511086e-005
-3.6523177e-005
-4.1656987e-005
1.335993e-005
5.0337716e-006
-3.8174897e-007
5.0849156e-006
-4.3040855e-007
5.112728e-006
-2.6645292e-007
5.1454381e-006
-3.1804908e-007
5.1672962e-006
-2.2232213e-007
5.1881352e-006
-2.3439824e-007
5.2064595e-006
-2.0377844e-007
5.2241547e-006
-2.116236e-007
5.2429528e-006
-2.2736837e-007
5.2645403e-006
-2.678576e-007
5.2911178e-006
-3.3394203e-007
5.3253524e-006
-4.3519516e-007
5.3707304e-006
-5.8281033e-007
5.4318391e-006
-7.9472812e-007
5.5148324e-006
-1.096891e-006
5.6279984e-006
-1.5282149e-006
5.782291e-006
-2.1463303e-006
5.9919577e-006
-3.0485041e-006
6.2737284e-006
-4.356192e-006
6.643723e-006
-6.3423419e-006
7.1129861e-006
-9.2700205e-006
7.7541331e-006
-1.4794037e-005
8.6040626e-006
-2.3920381e-005
1.0244002e-005
-3.8163117e-005
9.0487141e-006
-4.04617e-005
2.580807e-005
-2.4953673e-006
2.6699016e-005
-8.9094586e-007
2.6892645e-005
-1.9362872e-007
2.6903052e-005
-1.0407151e-008
2.6906209e-005
-3.1563323e-009
2.6904664e-005
1.5444064e-009
2.6904129e-005
5.3547437e-010
2.6903405e-005
7.2347478e-010
2.6903121e-005
2.8440621e-010
2.6903007e-005
1.1420872e-010
2.6902961e-005
4.538848e-011
2.6902948e-005
1.3516059e-011
2.6902941e-005
6.1443507e-012
2.6902939e-005
2.0445459e-012
2.6902939e-005
6.9095043e-013
2.6902938e-005
2.6127003e-013
2.6902938e-005
9.0348308e-014
2.6902938e-005
3.1102424e-014
2.6902938e-005
1.4683482e-015
2.6902938e-005
-1.2360094e-014
2.6902938e-005
5.4305533e-014
2.6902938e-005
2.4063764e-013
2.6902938e-005
1.8459887e-013
2.6902937e-005
1.0364723e-012
1.3850603e-012
2.6157995e-005
-5.0191609e-006
2.7117698e-005
-1.8506481e-006
2.7241759e-005
-3.1768995e-007
2.724655e-005
-1.5198517e-008
2.7237785e-005
5.6083578e-009
2.7237852e-005
1.4774279e-009
2.7236722e-005
1.6658079e-009
2.723621e-005
1.2355273e-009
2.723588e-005
6.1448418e-010
2.7235765e-005
2.2896497e-010
2.7235727e-005
8.2952533e-011
2.7235712e-005
2.8494143e-011
2.7235707e-005
1.1080983e-011
2.7235705e-005
4.0305012e-012
2.7235705e-005
1.3288942e-012
2.7235704e-005
4.6087828e-013
2.7235704e-005
1.6575571e-013
2.7235704e-005
5.3207518e-014
2.7235704e-005
6.1069836e-015
2.7235704e-005
-6.5482927e-015
2.7235704e-005
1.054448e-013
2.7235704e-005
3.9346012e-013
2.7235704e-005
4.8226532e-013
2.7235702e-005
2.5861973e-012
3.3582791e-012
2.6692446e-005
-7.7248896e-006
2.7653116e-005
-2.8113175e-006
2.7724998e-005
-3.8957274e-007
2.7699903e-005
9.897123e-009
2.7682022e-005
2.3488646e-008
2.7681226e-005
2.2735566e-009
2.7680193e-005
2.6991193e-009
2.7679737e-005
1.690964e-009
2.7679408e-005
9.4408773e-010
2.7679301e-005
3.3551155e-010
2.7679269e-005
1.1487626e-010
2.7679257e-005
4.116023e-011
2.7679253e-005
1.5093428e-011
2.7679251e-005
5.6673472e-012
2.767925e-005
1.8390773e-012
2.767925e-005
6.1814323e-013
2.767925e-005
2.2573147e-013
2.767925e-005
6.9746023e-014
2.767925e-005
8.5130502e-015
2.767925e-005
-4.0097687e-015
2.767925e-005
1.2700997e-013
2.767925e-005
4.2541642e-013
2.767925e-005
8.6515788e-013
2.7679246e-005
6.1286701e-012
7.1467928e-012
2.6867021e-005
-1.0478419e-005
2.7778823e-005
-3.72312e-006
2.7804611e-005
-4.1536095e-007
2.776029e-005
5.4218588e-008
2.7736605e-005
4.7173539e-008
2.7735149e-005
3.7289727e-009
2.7734199e-005
3.6491352e-009
2.7733884e-005
2.005841e-009
2.7733605e-005
1.2238958e-009
2.7733524e-005
4.1633433e-010
2.7733502e-005
1.3645513e-010
2.7733493e-005
4.9960608e-011
2.7733491e-005
1.7540467e-011
2.773349e-005
6.7078434e-012
2.7733489e-005
2.1371423e-012
2.7733489e-005
7.0355264e-013
2.7733489e-005
2.5915921e-013
2.7733489e-005
7.7052593e-014
2.7733489e-005
1.0902984e-014
2.7733489e-005
4.5712045e-015
2.7733489e-005
1.4380376e-013
2.7733489e-005
4.0814663e-013
2.7733489e-005
1.3459765e-012
2.7733483e-005
1.1903213e-011
1.2981774e-011
2.6016805e-005
-1.2871482e-005
2.6728026e-005
-4.4343405e-006
2.6729795e-005
-4.171304e-007
2.6692236e-005
9.1777952e-008
2.6671754e-005
6.7655816e-008
2.6670386e-005
5.0971853e-009
2.6669536e-005
4.4981736e-009
2.6669472e-005
2.0701171e-009
2.6669315e-005
1.3813818e-009
2.6669284e-005
4.4669062e-010
2.6669278e-005
1.42268e-010
2.6669275e-005
5.2982946e-011
2.6669275e-005
1.7751006e-011
2.6669275e-005
6.9033108e-012
2.6669275e-005
2.1391477e-012
2.6669275e-005
6.8882384e-013
2.6669275e-005
2.5146828e-013
2.6669275e-005
7.0982095e-014
2.6669275e-005
1.6282587e-014
2.6669275e-005
2.3766594e-014
2.6669275e-005
1.7550375e-013
2.6669275e-005
4.3397335e-013
2.6669275e-005
1.8335264e-012
2.6669268e-005
1.804368e-011
1.9029885e-011
2.3583149e-005
-1.4238143e-005
2.3839361e-005
-4.6905529e-006
2.383139e-005
-4.0915867e-007
2.3826047e-005
9.7121042e-008
2.381814e-005
7.5562104e-008
2.3817799e-005
5.43856e-009
2.3817225e-005
5.0722489e-009
2.3817496e-005
1.7988691e-009
2.3817522e-005
1.3556333e-009
2.3817563e-005
4.0573361e-010
2.3817576e-005
1.2857774e-010
2.3817581e-005
4.8660583e-011
2.3817583e-005
1.5297354e-011
2.3817584e-005
6.1184444e-012
2.3817584e-005
1.8043582e-012
2.3817584e-005
5.6406383e-013
2.3817584e-005
2.0270153e-013
2.3817584e-005
5.2906514e-014
2.3817584e-005
2.0903898e-014
2.3817584e-005
4.6460927e-014
2.3817584e-005
2.2680831e-013
2.3817584e-005
5.4789303e-013
2.3817584e-005
2.0874653e-012
2.381758e-005
2.1578929e-011
2.2444602e-011
1.9463262e-005
-1.3822079e-005
1.8995367e-005
-4.2226578e-006
1.8962189e-005
-3.7598127e-007
1.899433e-005
6.498072e-008
1.900309e-005
6.6802262e-008
1.9004237e-005
4.2912139e-009
1.9004327e-005
4.9820176e-009
1.90049e-005
1.2256357e-009
1.9005129e-005
1.1272036e-009
1.9005239e-005
2.9488838e-010
1.9005271e-005
9.7123337e-011
1.9005283e-005
3.7034411e-011
1.9005287e-005
1.0549087e-011
1.9005289e-005
4.477326e-012
1.9005289e-005
1.1975964e-012
1.900529e-005
3.5950544e-013
1.900529e-005
1.2783703e-013
1.900529e-005
2.7811662e-014
1.900529e-005
2.054107e-014
1.900529e-005
5.6003097e-014
1.900529e-005
2.6501562e-013
1.900529e-005
6.8369551e-013
1.900529e-005
1.8792898e-012
1.9005291e-005
2.0141863e-011
2.0971044e-011
1.4124418e-005
-1.1070587e-005
1.2851406e-005
-2.9496461e-006
1.2755174e-005
-2.7974885e-007
1.2799885e-005
2.0269499e-008
1.2822341e-005
4.4346056e-008
1.2824438e-005
2.1944193e-009
1.2825594e-005
3.8265126e-009
1.2826257e-005
5.6257116e-010
1.2826653e-005
7.3102623e-010
1.2826796e-005
1.5151325e-010
1.2826837e-005
5.6594074e-011
1.2826853e-005
2.0930925e-011
1.2826858e-005
5.1125389e-012
1.282686e-005
2.4540176e-012
1.2826861e-005
5.3251672e-013
1.2826861e-005
1.5133786e-013
1.2826861e-005
5.0797209e-014
1.2826861e-005
3.3473807e-015
1.2826861e-005
1.3134566e-014
1.2826861e-005
3.7668638e-014
1.2826861e-005
2.2390032e-013
1.2826861e-005
6.5742515e-013
1.2826862e-005
1.2593917e-012
1.2826868e-005
1.3796621e-011
1.4558884e-011
8.3756205e-006
-6.0862782e-006
6.6461908e-006
-1.2202164e-006
6.4761444e-006
-1.0970252e-007
6.5021805e-006
-5.7666585e-009
6.528724e-006
1.7802528e-008
6.5306601e-006
2.5831681e-010
6.5327027e-006
1.7838601e-009
6.5331687e-006
9.6482345e-011
6.5336156e-006
2.8413931e-010
6.5337287e-006
3.8393093e-011
6.5337659e-006
1.9464083e-011
6.5337803e-006
6.5023053e-012
6.5337842e-006
1.2012921e-012
6.5337858e-006
7.5705037e-013
6.5337863e-006
9.1431066e-014
6.5337863e-006
2.0945321e-014
6.5337864e-006
8.365114e-016
6.5337864e-006
-1.2470225e-014
6.5337864e-006
-3.8156026e-015
6.5337864e-006
-2.6561915e-015
6.5337866e-006
7.3163608e-014
6.533787e-006
3.0021893e-013
6.5337879e-006
4.0623597e-013
6.5337966e-006
5.2287176e-012
5.7317238e-012
2.9624356e-006
1.7422191e-006
1.6325166e-006
1.6267499e-006
1.6445524e-006
1.6448107e-006
1.6465946e-006
1.646691e-006
1.6469752e-006
1.6470136e-006
1.647033e-006
1.6470395e-006
1.6470407e-006
1.6470414e-006
1.6470415e-006
1.6470415e-006
1.6470415e-006
1.6470415e-006
1.6470415e-006
1.6470415e-006
1.6470416e-006
1.6470419e-006
1.6470424e-006
1.6470476e-006
1.5116549e-005
-4.9445733e-007
1.5238174e-005
-5.5203295e-007
1.5362675e-005
-3.9095435e-007
1.5437607e-005
-3.9298124e-007
1.5517175e-005
-3.0188972e-007
1.5567308e-005
-2.8453102e-007
1.5620075e-005
-2.5654546e-007
1.566511e-005
-2.566584e-007
1.5713632e-005
-2.758906e-007
1.5767876e-005
-3.2210184e-007
1.583413e-005
-4.0019586e-007
1.591851e-005
-5.1957481e-007
1.6029402e-005
-6.9370228e-007
1.6177201e-005
-9.4252704e-007
1.637514e-005
-1.2948299e-006
1.6639685e-005
-1.7927608e-006
1.6991125e-005
-2.4977697e-006
1.7446403e-005
-3.5037827e-006
1.8027015e-005
-4.9368039e-006
1.8685175e-005
-7.0005012e-006
1.9386204e-005
-9.9710503e-006
1.9584936e-005
-1.4992768e-005
1.8782959e-005
-2.3118405e-005
1.4666975e-005
-3.4047132e-005
-2.5794725e-005
1.5121474e-005
-6.1209072e-007
1.5261235e-005
-6.9179385e-007
1.5391183e-005
-5.2090158e-007
1.546628e-005
-4.6807887e-007
1.5536524e-005
-3.7213371e-007
1.5580956e-005
-3.2896303e-007
1.5620641e-005
-2.9623015e-007
1.5653959e-005
-2.8997597e-007
1.5686974e-005
-3.0890609e-007
1.5722659e-005
-3.5778696e-007
1.5764766e-005
-4.4230242e-007
1.5817136e-005
-5.7194538e-007
1.5884338e-005
-7.6090357e-007
1.5971382e-005
-1.0295714e-006
1.6083706e-005
-1.407154e-006
1.6226212e-005
-1.9352662e-006
1.6401149e-005
-2.6727075e-006
1.6601157e-005
-3.7037907e-006
1.6804854e-005
-5.1405006e-006
1.6937692e-005
-7.1333393e-006
1.686121e-005
-9.8945678e-006
1.5971216e-005
-1.4102774e-005
1.32898e-005
-2.0436989e-005
6.6197e-006
-2.7377032e-005
-1.9175025e-005
1.5146314e-005
-7.545639e-007
1.5303993e-005
-8.4947303e-007
1.5434038e-005
-6.5094629e-007
1.5506123e-005
-5.4016354e-007
1.5563396e-005
-4.2940725e-007
1.5597515e-005
-3.6308157e-007
1.5622899e-005
-3.2161466e-007
1.5641609e-005
-3.0868602e-007
1.5657395e-005
-3.2469209e-007
1.56723e-005
-3.7269146e-007
1.5688053e-005
-4.5805524e-007
1.5705837e-005
-5.8972929e-007
1.5726414e-005
-7.8148041e-007
1.5749653e-005
-1.0528104e-006
1.5773854e-005
-1.4313549e-006
1.5793944e-005
-1.9553566e-006
1.5798142e-005
-2.6769055e-006
1.5760861e-005
-3.66651e-006
1.5634095e-005
-5.0137339e-006
1.5323949e-005
-6.8231935e-006
1.4663716e-005
-9.2343351e-006
1.3163744e-005
-1.2602801e-005
9.9698815e-006
-1.7243127e-005
4.012745e-006
-2.1419896e-005
-1.516228e-005
1.5180792e-005
-9.3151465e-007
1.5360546e-005
-1.0292269e-006
1.5487203e-005
-7.7760319e-007
1.5551463e-005
-6.0442378e-007
1.5591833e-005
-4.6977703e-007
1.5611273e-005
-3.8252188e-007
1.5620208e-005
-3.3054971e-007
1.5622268e-005
-3.107456e-007
1.5619616e-005
-3.2204047e-007
1.5612829e-005
-3.659042e-007
1.5601586e-005
-4.4681248e-007
1.5584433e-005
-5.725761e-007
1.5558564e-005
-7.5561161e-007
1.5519311e-005
-1.0135571e-006
1.5458911e-005
-1.3709548e-006
1.5364405e-005
-1.8608511e-006
1.5214098e-005
-2.5265986e-006
1.4971222e-005
-3.4236335e-006
1.4575326e-005
-4.6178379e-006
1.3928113e-005
-6.1759809e-006
1.2870483e-005
-8.1767053e-006
1.1070755e-005
-1.0803073e-005
7.9935513e-006
-1.4165923e-005
3.2555911e-006
-1.6681936e-005
-1.1906689e-005
1.5231591e-005
-1.1592646e-006
1.5443605e-005
-1.2412406e-006
1.5562447e-005
-8.9644518e-007
1.5610832e-005
-6.5280876e-007
1.5628946e-005
-4.8789184e-007
1.5628807e-005
-3.8238233e-007
1.5619084e-005
-3.2082699e-007
1.5603165e-005
-2.9482599e-007
1.5581686e-005
-3.0056155e-007
1.5553495e-005
-3.3771328e-007
1.5516143e-005
-4.094607e-007
1.5465745e-005
-5.2217841e-007
1.5396432e-005
-6.8629853e-007
1.529967e-005
-9.1679466e-007
1.516283e-005
-1.2341147e-006
1.4967292e-005
-1.6653135e-006
1.4685083e-005
-2.2443895e-006
1.4274042e-005
-3.0125925e-006
1.3671386e-005
-4.0151815e-006
1.2785846e-005
-5.2904409e-006
1.1483853e-005
-6.8747122e-006
9.5477375e-006
-8.8669577e-006
6.6750497e-006
-1.1293236e-005
2.8284448e-006
-1.2835331e-005
-9.0782444e-006
1.5394756e-005
-1.55018e-006
1.5671771e-005
-1.5182555e-006
1.5771187e-005
-9.958604e-007
1.5786648e-005
-6.6826997e-007
1.5773489e-005
-4.7473335e-007
1.5748331e-005
-3.5722411e-007
1.5717703e-005
-2.9019832e-007
1.5683063e-005
-2.6018607e-007
1.5643022e-005
-2.6052102e-007
1.5594527e-005
-2.8921803e-007
1.5532995e-005
-3.4792936e-007
1.545228e-005
-4.4146286e-007
1.534389e-005
-5.7790861e-007
1.5196129e-005
-7.6903336e-007
1.4992805e-005
-1.0307911e-006
1.4711268e-005
-1.3837764e-006
1.4319842e-005
-1.8529636e-006
1.3774462e-005
-2.4672122e-006
1.3014738e-005
-3.2554576e-006
1.1960931e-005
-4.2366338e-006
1.0509047e-005
-5.4228281e-006
8.5119995e-006
-6.8699104e-006
5.7924361e-006
-8.5736721e-006
2.4705592e-006
-9.5134537e-006
-6.6076852e-006
1.587924e-005
-2.4255792e-006
1.6248888e-005
-1.8879033e-006
1.6287024e-005
-1.0339968e-006
1.6239011e-005
-6.2025669e-007
1.6181371e-005
-4.1709289e-007
1.6125469e-005
-3.0132265e-007
1.6071892e-005
-2.3662091e-007
1.6018205e-005
-2.0649904e-007
1.5960232e-005
-2.0254842e-007
1.5892711e-005
-2.2169733e-007
1.580897e-005
-2.641883e-007
1.5700781e-005
-3.3327328e-007
1.5557302e-005
-4.3443008e-007
1.5364283e-005
-5.7601435e-007
1.5102695e-005
-7.6920263e-007
1.4746817e-005
-1.0278986e-006
1.4262746e-005
-1.368893e-006
1.3605995e-005
-1.8104604e-006
1.2719664e-005
-2.369127e-006
1.1535138e-005
-3.0521075e-006
9.9720455e-006
-3.8597357e-006
7.9250435e-006
-4.8229084e-006
5.2791662e-006
-5.9277947e-006
2.2205729e-006
-6.4548604e-006
-4.3871122e-006
1.6566066e-005
-3.9878046e-006
1.6812341e-005
-2.1341775e-006
1.6667471e-005
-8.8912697e-007
1.6512433e-005
-4.6521902e-007
1.6395396e-005
-3.0005581e-007
1.630392e-005
-2.0984657e-007
1.6227018e-005
-1.5971917e-007
1.6155803e-005
-1.3528415e-007
1.6082521e-005
-1.2926599e-007
1.5999609e-005
-1.3878569e-007
1.5898636e-005
-1.6321498e-007
1.576957e-005
-2.0420773e-007
1.5599913e-005
-2.6477266e-007
1.5373564e-005
-3.4966515e-007
1.5069503e-005
-4.6514211e-007
1.4660671e-005
-6.1906668e-007
1.4112334e-005
-8.2055591e-007
1.3380836e-005
-1.0789624e-006
1.2413519e-005
-1.4018095e-006
1.1151643e-005
-1.7902312e-006
9.5323883e-006
-2.2404814e-006
7.4762781e-006
-2.7667981e-006
4.8996569e-006
-3.3511735e-006
2.017146e-006
-3.5723495e-006
-2.3699661e-006
1.5906019e-005
-4.8899829e-006
1.5323567e-005
-1.5517249e-006
1.484167e-005
-4.0723021e-007
1.4579047e-005
-2.0259619e-007
1.4411574e-005
-1.3258263e-007
1.4293861e-005
-9.2133298e-008
1.4202844e-005
-6.8702215e-008
1.412383e-005
-5.6270707e-008
1.4046586e-005
-5.202193e-008
1.3962223e-005
-5.4422946e-008
1.3861758e-005
-6.2749065e-008
1.3735073e-005
-7.7523132e-008
1.3570051e-005
-9.9750363e-008
1.3351421e-005
-1.3103542e-007
1.3059789e-005
-1.7350978e-007
1.2670646e-005
-2.2992414e-007
1.2153284e-005
-3.0319373e-007
1.1470447e-005
-3.9612535e-007
1.0579207e-005
-5.1057007e-007
9.4346561e-006
-6.4567984e-007
7.9923762e-006
-7.9820154e-007
6.1970189e-006
-9.7144075e-007
3.9922171e-006
-1.1463717e-006
1.5882704e-006
-1.1684027e-006
-7.816957e-007
1.0113858e-005
8.5621332e-006
8.154903e-006
7.9523068e-006
7.8197242e-006
7.7275909e-006
7.6588887e-006
7.602618e-006
7.5505961e-006
7.4961731e-006
7.4334241e-006
7.3559009e-006
7.2561506e-006
7.1251151e-006
6.9516054e-006
6.7216812e-006
6.4184875e-006
6.0223621e-006
5.5117921e-006
4.8661123e-006
4.0679107e-006
3.09647e-006
1.9500984e-006
7.816957e-007
)
;

boundaryField
{
    inlet
    {
        type            calculated;
        value           nonuniform List<scalar> 
20
(
-5.0012803e-006
-5.0012803e-006
-5.0012803e-006
-5.0012803e-006
-5.0012803e-006
-5.0012803e-006
-5.0012803e-006
-5.0012803e-006
-5.0012803e-006
-5.0012803e-006
-1.5003841e-005
-1.5003841e-005
-1.5003841e-005
-1.5003841e-005
-1.5003841e-005
-1.5003841e-005
-1.5003841e-005
-1.5003841e-005
-1.5003841e-005
-1.5003841e-005
)
;
    }
    walls
    {
        type            calculated;
        value           uniform 0;
    }
    outlet
    {
        type            calculated;
        value           nonuniform List<scalar> 10(2.6902935e-005 2.72357e-005 2.7679242e-005 2.7733477e-005 2.6669262e-005 2.3817577e-005 1.9005293e-005 1.2826875e-005 6.5338054e-006 1.6470534e-006);
    }
    centreline
    {
        type            symmetryPlane;
        value           uniform 0;
    }
    frontAndBack
    {
        type            empty;
        value           nonuniform 0();
    }
}


// ************************************************************************* //
