/*--------------------------------*- C++ -*----------------------------------*\
| =========                 |                                                 |
| \\      /  F ield         | OpenFOAM: The Open Source CFD Toolbox           |
|  \\    /   O peration     | Version:  5.x                                   |
|   \\  /    A nd           | Web:      www.OpenFOAM.org                      |
|    \\/     M anipulation  |                                                 |
\*---------------------------------------------------------------------------*/
/*   Windows 32 and 64 bit porting by blueCAPE: http://www.bluecape.com.pt   *\
|  Based on Windows porting (2.0.x v4) by Symscape: http://www.symscape.com   |
\*---------------------------------------------------------------------------*/
FoamFile
{
    version     2.0;
    format      ascii;
    class       volSymmTensorField;
    location    "0.04";
    object      sigma;
}
// * * * * * * * * * * * * * * * * * * * * * * * * * * * * * * * * * * * * * //

dimensions      [0 2 -2 0 0 0 0];

internalField   nonuniform List<symmTensor> 
750
(
(3.3917749e-005 8.8495703e-006 0 2.771212e-005 0 0)
(-0.00020227329 -1.8601625e-006 0 9.3289997e-005 0 0)
(8.543829e-005 -2.0436472e-006 0 -1.2635911e-005 0 0)
(-0.00010878332 2.4576083e-006 0 6.6144445e-005 0 0)
(2.7477756e-006 -1.9166076e-006 0 1.7832092e-005 0 0)
(-5.0453149e-005 1.1157845e-006 0 4.0851675e-005 0 0)
(-2.891731e-005 -8.2603745e-008 0 3.289614e-005 0 0)
(-4.2468143e-005 9.106215e-007 0 4.0862423e-005 0 0)
(-4.6650171e-005 1.1536267e-006 0 4.7169123e-005 0 0)
(-5.9939319e-005 1.9017069e-006 0 5.9672056e-005 0 0)
(-7.8221863e-005 2.7685268e-006 0 7.8140554e-005 0 0)
(-0.000103545 3.935588e-006 0 0.00010329573 0 0)
(-0.00014161714 5.6471835e-006 0 0.00014118508 0 0)
(-0.00019453855 8.0256258e-006 0 0.00019372069 0 0)
(-0.00027027653 1.1488672e-005 0 0.00026872183 0 0)
(-0.0003782008 1.6533768e-005 0 0.00037506185 0 0)
(-0.00053711948 2.4438026e-005 0 0.00053142845 0 0)
(-0.00076419854 3.5582005e-005 0 0.00075039226 0 0)
(-0.001121872 5.5853677e-005 0 0.0011002885 0 0)
(-0.0016503317 8.2549046e-005 0 0.001581798 0 0)
(-0.0024930315 0.00013836556 0 0.0023996247 0 0)
(-0.0039114221 0.00020507151 0 0.0035413052 0 0)
(-0.0058966005 0.00029127508 0 0.0053912342 0 0)
(-0.0089896244 0.0002773156 0 0.0073555092 0 0)
(-0.010619343 -0.00030248189 0 0.0091201953 0 0)
(3.5832274e-005 2.169667e-005 0 4.2563806e-005 0 0)
(-0.0002045758 -4.7033936e-006 0 6.5154797e-005 0 0)
(8.5912727e-005 -4.1508699e-006 0 1.2609235e-005 0 0)
(-0.000108576 5.087476e-006 0 5.1525291e-005 0 0)
(2.4066152e-006 -4.3023936e-006 0 2.6557217e-005 0 0)
(-5.0019356e-005 2.4137352e-006 0 3.7084224e-005 0 0)
(-2.8922995e-005 1.2329522e-007 0 3.4289233e-005 0 0)
(-4.2170301e-005 2.5906167e-006 0 3.998366e-005 0 0)
(-4.6391891e-005 3.5443453e-006 0 4.7057771e-005 0 0)
(-5.9544287e-005 5.6913531e-006 0 5.9161766e-005 0 0)
(-7.7684231e-005 8.3164264e-006 0 7.7554058e-005 0 0)
(-0.00010279633 1.179095e-005 0 0.00010244953 0 0)
(-0.00014061786 1.6907942e-005 0 0.00014005639 0 0)
(-0.00019306841 2.3997469e-005 0 0.00019207014 0 0)
(-0.00026813824 3.4308838e-005 0 0.00026631995 0 0)
(-0.00037493358 4.9329146e-005 0 0.00037138529 0 0)
(-0.00053250214 7.2743487e-005 0 0.00052630809 0 0)
(-0.00075562055 0.00010574773 0 0.00074049264 0 0)
(-0.001111386 0.00016660015 0 0.0010897174 0 0)
(-0.0016379431 0.00024570356 0 0.0015610734 0 0)
(-0.0024574081 0.00041277574 0 0.0023716039 0 0)
(-0.0038914479 0.00062098781 0 0.0034846624 0 0)
(-0.0058880131 0.00085860051 0 0.0054155013 0 0)
(-0.0092174782 0.00085434788 0 0.0074397979 0 0)
(-0.01100831 -0.00080515866 0 0.0095485746 0 0)
(3.8050837e-005 2.9631455e-005 0 4.6406923e-005 0 0)
(-0.00020768163 -7.2531531e-006 0 5.6614427e-005 0 0)
(8.6961423e-005 -5.0774354e-006 0 1.9607771e-005 0 0)
(-0.00010873749 6.2239067e-006 0 4.6618369e-005 0 0)
(2.0759424e-006 -5.6935476e-006 0 2.885044e-005 0 0)
(-4.9356814e-005 3.1492595e-006 0 3.5388235e-005 0 0)
(-2.8835832e-005 6.1275942e-007 0 3.4585266e-005 0 0)
(-4.1621565e-005 4.1404004e-006 0 3.9312693e-005 0 0)
(-4.5861212e-005 5.9741085e-006 0 4.6583939e-005 0 0)
(-5.8782856e-005 9.4417268e-006 0 5.8403749e-005 0 0)
(-7.6601123e-005 1.382261e-005 0 7.6501389e-005 0 0)
(-0.00010139603 1.9593843e-005 0 0.00010108164 0 0)
(-0.0001386159 2.8072663e-005 0 0.00013810406 0 0)
(-0.00019017184 3.9810319e-005 0 0.00018924541 0 0)
(-0.00026391202 5.6876342e-005 0 0.0002622013 0 0)
(-0.00036858224 8.1740188e-005 0 0.00036519615 0 0)
(-0.00052293195 0.00012034662 0 0.00051701976 0 0)
(-0.00074031763 0.00017535614 0 0.00072552206 0 0)
(-0.0010878826 0.00027441207 0 0.0010673438 0 0)
(-0.0016016495 0.0004093996 0 0.0015247161 0 0)
(-0.0023926936 0.00067333271 0 0.0023123485 0 0)
(-0.003821403 0.0010285186 0 0.0034028063 0 0)
(-0.005874868 0.0014528284 0 0.0054002163 0 0)
(-0.0096456128 0.0015398615 0 0.0076582574 0 0)
(-0.011795003 -0.0012147117 0 0.010108239 0 0)
(4.0239392e-005 3.7538545e-005 0 4.4219494e-005 0 0)
(-0.00021120598 -9.9670545e-006 0 6.005763e-005 0 0)
(8.8563493e-005 -6.373246e-006 0 1.6697314e-005 0 0)
(-0.00010905634 7.6005713e-006 0 4.7873011e-005 0 0)
(1.7195528e-006 -7.2161172e-006 0 2.8029887e-005 0 0)
(-4.8460729e-005 3.9414523e-006 0 3.5058161e-005 0 0)
(-2.8660012e-005 1.0835385e-006 0 3.4096363e-005 0 0)
(-4.0832617e-005 5.6278218e-006 0 3.8667887e-005 0 0)
(-4.505889e-005 8.3433535e-006 0 4.5728261e-005 0 0)
(-5.7627619e-005 1.3096457e-005 0 5.7270904e-005 0 0)
(-7.506799e-005 1.9222208e-005 0 7.4963037e-005 0 0)
(-9.928237e-005 2.7223454e-005 0 9.8972289e-005 0 0)
(-0.00013558333 3.8975979e-005 0 0.00013507523 0 0)
(-0.00018587459 5.5258277e-005 0 0.00018495132 0 0)
(-0.00025762246 7.8881613e-005 0 0.00025591992 0 0)
(-0.00035926421 0.00011330331 0 0.00035589614 0 0)
(-0.00050849883 0.00016641332 0 0.0005026048 0 0)
(-0.00071848506 0.0002427888 0 0.00070386596 0 0)
(-0.0010508321 0.00038085053 0 0.0010301753 0 0)
(-0.0015421767 0.00056400567 0 0.0014672469 0 0)
(-0.0022944508 0.00094264057 0 0.0022138922 0 0)
(-0.0036942912 0.0014542767 0 0.0032731839 0 0)
(-0.0058343561 0.0021236074 0 0.0053299713 0 0)
(-0.010219023 0.0024428281 0 0.0079605961 0 0)
(-0.012964581 -0.0012892045 0 0.01087678 0 0)
(4.2640736e-005 4.7101755e-005 0 4.1441022e-005 0 0)
(-0.00021540839 -1.2525479e-005 0 6.5315438e-005 0 0)
(9.0642055e-005 -8.2038465e-006 0 1.3247935e-005 0 0)
(-0.0001094045 9.4084643e-006 0 4.9917496e-005 0 0)
(1.2550788e-006 -9.0304205e-006 0 2.7324833e-005 0 0)
(-4.7300935e-005 4.7254046e-006 0 3.4710931e-005 0 0)
(-2.8396045e-005 1.4991731e-006 0 3.3438296e-005 0 0)
(-3.9805094e-005 7.0675334e-006 0 3.7812549e-005 0 0)
(-4.3988131e-005 1.0643371e-005 0 4.4592317e-005 0 0)
(-5.6098835e-005 1.6656391e-005 0 5.5767036e-005 0 0)
(-7.3040265e-005 2.448059e-005 0 7.2929134e-005 0 0)
(-9.6476726e-005 3.4657678e-005 0 9.6171468e-005 0 0)
(-0.00013159217 4.9590547e-005 0 0.0001310872 0 0)
(-0.00018019703 7.0270707e-005 0 0.00017927899 0 0)
(-0.00024932235 0.00010021914 0 0.0002476309 0 0)
(-0.00034698017 0.00014381643 0 0.00034363542 0 0)
(-0.00048944382 0.00021086267 0 0.00048356604 0 0)
(-0.00068961051 0.00030767116 0 0.000675226 0 0)
(-0.0010036071 0.00047883561 0 0.00098266997 0 0)
(-0.0014631388 0.00071187194 0 0.001389939 0 0)
(-0.0021717439 0.0011882559 0 0.0020890254 0 0)
(-0.0035133065 0.0018728614 0 0.0030871587 0 0)
(-0.0057201296 0.0028664722 0 0.0051761432 0 0)
(-0.010797458 0.0036236511 0 0.0081763685 0 0)
(-0.01414165 -0.00073426414 0 0.011628131 0 0)
(4.5792791e-005 5.8978414e-005 0 3.7944011e-005 0 0)
(-0.00022084134 -1.4657063e-005 0 7.1698409e-005 0 0)
(9.3181134e-005 -1.0609012e-005 0 9.317334e-006 0 0)
(-0.00010974319 1.1756499e-005 0 5.2068758e-005 0 0)
(6.1818939e-007 -1.1207503e-005 0 2.6638465e-005 0 0)
(-4.5837438e-005 5.5059002e-006 0 3.4087359e-005 0 0)
(-2.805332e-005 1.8749462e-006 0 3.2684016e-005 0 0)
(-3.8543903e-005 8.4424205e-006 0 3.6729122e-005 0 0)
(-4.2654553e-005 1.2864529e-005 0 4.3196681e-005 0 0)
(-5.4210289e-005 2.0098724e-005 0 5.3907484e-005 0 0)
(-7.0514688e-005 2.9577143e-005 0 7.0407718e-005 0 0)
(-9.3007785e-005 4.1845816e-005 0 9.2716313e-005 0 0)
(-0.00012667999 5.9841726e-005 0 0.00012619312 0 0)
(-0.00017318894 8.4730419e-005 0 0.00017230156 0 0)
(-0.00023910389 0.00012070099 0 0.00023746359 0 0)
(-0.00033186144 0.00017295695 0 0.00032861002 0 0)
(-0.00046612009 0.000253001 0 0.00046038314 0 0)
(-0.00065421239 0.00036864615 0 0.00064036477 0 0)
(-0.00094513039 0.00057145121 0 0.00092430959 0 0)
(-0.0013666289 0.00084902319 0 0.0012961002 0 0)
(-0.0020114154 0.0014297306 0 0.0019286795 0 0)
(-0.0032948861 0.002242004 0 0.0028659279 0 0)
(-0.0054741652 0.0036825428 0 0.0048877297 0 0)
(-0.011191642 0.0050550331 0 0.0081582286 0 0)
(-0.014623448 0.00038257321 0 0.011924255 0 0)
(5.0387134e-005 7.3620899e-005 0 3.2807702e-005 0 0)
(-0.00022815873 -1.6313636e-005 0 8.04522e-005 0 0)
(9.6160084e-005 -1.3668547e-005 0 4.3546733e-006 0 0)
(-0.00011006072 1.4816916e-005 0 5.4704153e-005 0 0)
(-2.9271744e-007 -1.3856257e-005 0 2.5904279e-005 0 0)
(-4.4015211e-005 6.2970477e-006 0 3.3252396e-005 0 0)
(-2.7638312e-005 2.2138951e-006 0 3.1785171e-005 0 0)
(-3.7056523e-005 9.7351088e-006 0 3.5450168e-005 0 0)
(-4.1065957e-005 1.4991029e-005 0 4.1538044e-005 0 0)
(-5.1970863e-005 2.3397366e-005 0 5.1702263e-005 0 0)
(-6.7526308e-005 3.4465361e-005 0 6.7421954e-005 0 0)
(-8.8912319e-005 4.8729458e-005 0 8.8634941e-005 0 0)
(-0.0001208992 6.9620398e-005 0 0.0001204308 0 0)
(-0.00016496455 9.8472705e-005 0 0.00016410536 0 0)
(-0.00022715534 0.00014006536 0 0.00022555776 0 0)
(-0.00031422049 0.00020039102 0 0.00031104887 0 0)
(-0.00043903912 0.00029225826 0 0.00043339256 0 0)
(-0.00061239211 0.00042616819 0 0.00059898116 0 0)
(-0.00087620057 0.00065645823 0 0.00085534517 0 0)
(-0.001250995 0.00097615611 0 0.0011834034 0 0)
(-0.0018130496 0.001656011 0 0.0017295936 0 0)
(-0.0029676212 0.0026456879 0 0.002538701 0 0)
(-0.004990672 0.0046090767 0 0.004363402 0 0)
(-0.01117088 0.0067676746 0 0.0077283957 0 0)
(-0.013718792 0.002284373 0 0.01130929 0 0)
(5.7131834e-005 9.128542e-005 0 2.5392221e-005 0 0)
(-0.00023804711 -1.7710346e-005 0 9.1898625e-005 0 0)
(9.9623813e-005 -1.7610545e-005 0 -1.9871433e-006 0 0)
(-0.0001103661 1.8738925e-005 0 5.7820723e-005 0 0)
(-1.6044376e-006 -1.7155199e-005 0 2.50376e-005 0 0)
(-4.175059e-005 7.1615903e-006 0 3.2150295e-005 0 0)
(-2.7173641e-005 2.5001304e-006 0 3.0761297e-005 0 0)
(-3.5351085e-005 1.0931488e-005 0 3.3978161e-005 0 0)
(-3.9235958e-005 1.7006542e-005 0 3.9625849e-005 0 0)
(-4.9395785e-005 2.651291e-005 0 4.9147637e-005 0 0)
(-6.4099619e-005 3.9115798e-005 0 6.3978975e-005 0 0)
(-8.4220761e-005 5.5277134e-005 0 8.3940569e-005 0 0)
(-0.00011424309 7.8868542e-005 0 0.00011375995 0 0)
(-0.00015556835 0.00011146813 0 0.00015468788 0 0)
(-0.00021352487 0.0001582705 0 0.00021190021 0 0)
(-0.00029422494 0.00022591832 0 0.00029103499 0 0)
(-0.00040854742 0.00032837211 0 0.00040287101 0 0)
(-0.00056688005 0.00047681799 0 0.00055377218 0 0)
(-0.00079960135 0.00073097321 0 0.00077876592 0 0)
(-0.0011267658 0.0010824359 0 0.0010623388 0 0)
(-0.0015936439 0.0018436986 0 0.0015084195 0 0)
(-0.002617261 0.0029490738 0 0.0021900208 0 0)
(-0.0042361076 0.0055210113 0 0.0035444328 0 0)
(-0.010538678 0.0082972849 0 0.0067218009 0 0)
(-0.0093472915 0.0054902399 0 0.0077129451 0 0)
(6.6641245e-005 0.0001113883 0 1.9201506e-005 0 0)
(-0.00025125804 -1.9334743e-005 0 9.7863177e-005 0 0)
(0.00010360831 -2.2784071e-005 0 -3.9207088e-006 0 0)
(-0.00011057948 2.3710812e-005 0 5.7178434e-005 0 0)
(-3.4474964e-006 -2.1221466e-005 0 2.5926265e-005 0 0)
(-3.8952816e-005 8.1491325e-006 0 3.0061859e-005 0 0)
(-2.6698133e-005 2.7135927e-006 0 2.9876342e-005 0 0)
(-3.3436955e-005 1.2000984e-005 0 3.2231777e-005 0 0)
(-3.7163874e-005 1.8877837e-005 0 3.7483522e-005 0 0)
(-4.6502682e-005 2.9439588e-005 0 4.6264792e-005 0 0)
(-6.0208883e-005 4.3460086e-005 0 6.007448e-005 0 0)
(-7.8942758e-005 6.1408887e-005 0 7.865054e-005 0 0)
(-0.00010680518 8.7519053e-005 0 0.00010630043 0 0)
(-0.00014503889 0.00012356858 0 0.00014413503 0 0)
(-0.00019827309 0.00017513323 0 0.00019662248 0 0)
(-0.00027179715 0.00024948445 0 0.00026858458 0 0)
(-0.00037440867 0.00036147855 0 0.00036871213 0 0)
(-0.00051403811 0.00052410317 0 0.0005010068 0 0)
(-0.00071149207 0.00079805184 0 0.00069066935 0 0)
(-0.00098088743 0.0011764251 0 0.00091815943 0 0)
(-0.0013247543 0.0020061208 0 0.0012405285 0 0)
(-0.0020848647 0.0032265864 0 0.0016534483 0 0)
(-0.0032369804 0.0062286425 0 0.0025186546 0 0)
(-0.0086536134 0.0095102229 0 0.0047559388 0 0)
(-0.0046950483 0.0076551013 0 0.0034127934 0 0)
(7.9112944e-005 0.00012877835 0 2.7143007e-005 0 0)
(-0.00026813426 -2.1305029e-005 0 7.5867694e-005 0 0)
(0.00010812236 -2.8494064e-005 0 2.0496087e-005 0 0)
(-0.00011048106 2.8498831e-005 0 4.2498927e-005 0 0)
(-5.8926447e-006 -2.5204013e-005 0 3.2862843e-005 0 0)
(-3.551951e-005 8.7933741e-006 0 2.637992e-005 0 0)
(-2.6258247e-005 2.9802354e-006 0 2.9251299e-005 0 0)
(-3.1318694e-005 1.2871263e-005 0 3.0115009e-005 0 0)
(-3.4862494e-005 2.06022e-005 0 3.5100055e-005 0 0)
(-4.3222487e-005 3.2060517e-005 0 4.2948784e-005 0 0)
(-5.5857931e-005 4.742988e-005 0 5.5656236e-005 0 0)
(-7.3186668e-005 6.7164371e-005 0 7.2801213e-005 0 0)
(-9.8566862e-005 9.5485187e-005 0 9.7939492e-005 0 0)
(-0.00013335041 0.00013465152 0 0.00013226189 0 0)
(-0.00018137275 0.00019046687 0 0.00017941525 0 0)
(-0.00024706365 0.00027068683 0 0.00024332521 0 0)
(-0.0003371109 0.00039037381 0 0.00033050798 0 0)
(-0.00045915121 0.00056302592 0 0.00044436616 0 0)
(-0.00062524972 0.00084740157 0 0.00060171134 0 0)
(-0.00083762748 0.0012428605 0 0.00076868047 0 0)
(-0.001028665 0.0020945468 0 0.00094618805 0 0)
(-0.0015113521 0.0033295841 0 0.0010554077 0 0)
(-0.0013386169 0.0064653272 0 0.000796218 0 0)
(-0.0032557874 0.0092146596 0 0.00032336547 0 0)
(0.0030670062 0.009160919 0 -0.0049405095 0 0)
(-0.0054390528 -0.00068716086 0 0.0045106372 0 0)
(-0.001937628 -0.00053325663 0 0.0020076016 0 0)
(-0.00078760463 -0.00035910355 0 0.00066814626 0 0)
(-0.00017797972 -0.00027902797 0 0.00020636131 0 0)
(-8.1923414e-005 -0.00024221615 0 6.6957848e-005 0 0)
(-1.503708e-005 -0.00023519618 0 1.7558056e-005 0 0)
(-6.709699e-006 -0.00023222278 0 4.9476534e-006 0 0)
(-1.8604034e-006 -0.00023160887 0 1.103729e-006 0 0)
(-1.0658648e-006 -0.00023135039 0 2.0732111e-007 0 0)
(-9.6197702e-007 -0.00023129475 0 6.2841066e-008 0 0)
(-8.7303882e-007 -0.00023128133 0 2.2184997e-009 0 0)
(-8.8000364e-007 -0.00023127635 0 -2.9570898e-009 0 0)
(-8.7718928e-007 -0.00023127599 0 -2.9670835e-009 0 0)
(-8.7903402e-007 -0.00023127588 0 -1.5129601e-009 0 0)
(-8.8005499e-007 -0.00023127593 0 -6.2554317e-010 0 0)
(-8.8031717e-007 -0.00023127594 0 -2.8140737e-010 0 0)
(-8.8051581e-007 -0.00023127596 0 -1.1484001e-010 0 0)
(-8.8062243e-007 -0.00023127597 0 -1.8681694e-011 0 0)
(-8.8072703e-007 -0.00023127596 0 7.2180499e-011 0 0)
(-8.8088158e-007 -0.00023127593 0 1.7402014e-010 0 0)
(-8.8122836e-007 -0.00023127586 0 4.848664e-010 0 0)
(-8.8244926e-007 -0.00023127562 0 1.147154e-009 0 0)
(-8.8177549e-007 -0.00023127503 0 3.0456154e-009 0 0)
(-8.9087641e-007 -0.00023127593 0 9.315951e-009 0 0)
(-8.9415193e-007 -0.00023127067 0 7.909124e-009 0 0)
(-0.0054716976 -0.0020670199 0 0.0043446962 0 0)
(-0.0020160511 -0.0016131921 0 0.0020757256 0 0)
(-0.00075012663 -0.0011048923 0 0.0005648611 0 0)
(-0.00015628843 -0.00085662258 0 0.00018479804 0 0)
(-7.9099699e-005 -0.00075387989 0 4.9568906e-005 0 0)
(-2.0658078e-005 -0.00073152656 0 1.6381855e-005 0 0)
(-1.3836509e-005 -0.00072381154 0 3.8176161e-006 0 0)
(-9.5328084e-006 -0.00072181358 0 8.6283551e-007 0 0)
(-8.8694717e-006 -0.00072113712 0 1.4883654e-007 0 0)
(-8.8184324e-006 -0.00072098432 0 3.2130435e-008 0 0)
(-8.743254e-006 -0.0007209408 0 4.3708238e-010 0 0)
(-8.7539585e-006 -0.00072092885 0 -5.0152553e-009 0 0)
(-8.7523293e-006 -0.00072092756 0 -3.0555832e-009 0 0)
(-8.7542912e-006 -0.00072092747 0 -1.4105845e-009 0 0)
(-8.7553039e-006 -0.0007209276 0 -6.4014201e-010 0 0)
(-8.7555994e-006 -0.00072092768 0 -2.5237569e-010 0 0)
(-8.7557831e-006 -0.00072092771 0 -1.0682104e-010 0 0)
(-8.7558874e-006 -0.00072092774 0 -2.5691993e-011 0 0)
(-8.7559753e-006 -0.00072092773 0 4.9485642e-011 0 0)
(-8.7561191e-006 -0.00072092765 0 1.2011724e-010 0 0)
(-8.7563711e-006 -0.00072092757 0 3.740036e-010 0 0)
(-8.7573264e-006 -0.00072092711 0 8.6919136e-010 0 0)
(-8.7565002e-006 -0.00072092607 0 2.3545846e-009 0 0)
(-8.7629734e-006 -0.0007209268 0 7.916076e-009 0 0)
(-8.7647761e-006 -0.00072092328 0 6.410743e-009 0 0)
(-0.0058348192 -0.0033057891 0 0.0044436995 0 0)
(-0.002013527 -0.0025284501 0 0.0020290047 0 0)
(-0.00065822074 -0.0017027007 0 0.00042499086 0 0)
(-0.00010982001 -0.0013011917 0 0.00012576026 0 0)
(-7.2273401e-005 -0.0011455093 0 2.6837885e-005 0 0)
(-2.8900145e-005 -0.0011089625 0 1.1727972e-005 0 0)
(-2.5482226e-005 -0.001097977 0 2.3209523e-006 0 0)
(-2.2101329e-005 -0.0010947016 0 4.5673288e-007 0 0)
(-2.1708094e-005 -0.001093768 0 1.9992167e-008 0 0)
(-2.1746978e-005 -0.0010935447 0 -1.2805177e-008 0 0)
(-2.1704054e-005 -0.0010934801 0 -7.4949286e-009 0 0)
(-2.1721369e-005 -0.0010934653 0 -7.4302734e-009 0 0)
(-2.1721688e-005 -0.0010934635 0 -3.2801343e-009 0 0)
(-2.1723869e-005 -0.0010934637 0 -1.3992044e-009 0 0)
(-2.1724929e-005 -0.001093464 0 -6.2048259e-010 0 0)
(-2.1725215e-005 -0.0010934642 0 -2.320665e-010 0 0)
(-2.1725388e-005 -0.0010934643 0 -9.851665e-011 0 0)
(-2.1725485e-005 -0.0010934643 0 -2.830114e-011 0 0)
(-2.1725565e-005 -0.0010934643 0 3.9519494e-011 0 0)
(-2.1725705e-005 -0.0010934642 0 9.7832066e-011 0 0)
(-2.1725929e-005 -0.0010934641 0 3.2368241e-010 0 0)
(-2.1726844e-005 -0.0010934636 0 8.0485263e-010 0 0)
(-2.1726215e-005 -0.0010934624 0 2.2685837e-009 0 0)
(-2.1732824e-005 -0.0010934624 0 7.0891059e-009 0 0)
(-2.1735378e-005 -0.0010934583 0 5.990016e-009 0 0)
(-0.006316501 -0.0038993874 0 0.0046681356 0 0)
(-0.0019012362 -0.0026083118 0 0.001902357 0 0)
(-0.00049452499 -0.0014826624 0 0.00025377327 0 0)
(-1.918457e-005 -0.00097726907 0 3.8977815e-005 0 0)
(-3.9448372e-005 -0.00079069951 0 -3.8764524e-007 0 0)
(-1.522508e-005 -0.00074651855 0 4.468182e-006 0 0)
(-1.6948309e-005 -0.0007338655 0 4.100421e-007 0 0)
(-1.4866002e-005 -0.00072994136 0 -9.3428402e-008 0 0)
(-1.4876976e-005 -0.00072895498 0 -1.4531993e-007 0 0)
(-1.5022633e-005 -0.00072871547 0 -6.32116e-008 0 0)
(-1.5019636e-005 -0.00072865469 0 -1.9489668e-008 0 0)
(-1.504553e-005 -0.00072864256 0 -9.6265975e-009 0 0)
(-1.5047763e-005 -0.00072864171 0 -3.4687372e-009 0 0)
(-1.5050202e-005 -0.00072864277 0 -1.3296186e-009 0 0)
(-1.5051215e-005 -0.00072864329 0 -5.5984349e-010 0 0)
(-1.5051462e-005 -0.00072864366 0 -2.0232702e-010 0 0)
(-1.505162e-005 -0.00072864377 0 -8.3025774e-011 0 0)
(-1.5051702e-005 -0.00072864378 0 -2.3823664e-011 0 0)
(-1.5051767e-005 -0.00072864377 0 2.8700453e-011 0 0)
(-1.505189e-005 -0.00072864386 0 7.4445982e-011 0 0)
(-1.5052045e-005 -0.00072864346 0 2.4271685e-010 0 0)
(-1.5052809e-005 -0.00072864301 0 6.5274744e-010 0 0)
(-1.5052186e-005 -0.00072864121 0 1.5311446e-009 0 0)
(-1.5056089e-005 -0.00072864177 0 4.2024918e-009 0 0)
(-1.5058255e-005 -0.00072862464 0 3.8433572e-009 0 0)
(-0.00655977 -0.0031221904 0 0.0048041535 0 0)
(-0.0015277304 -0.00081115247 0 0.0016515487 0 0)
(-0.0003154114 0.00059498334 0 8.6410692e-005 0 0)
(5.9959238e-005 0.0011588035 0 -4.3075448e-005 0 0)
(-3.3856738e-005 0.0013311965 0 -2.5779454e-005 0 0)
(-2.8416143e-005 0.0013753576 0 -3.0265501e-006 0 0)
(-3.6872405e-005 0.0013865321 0 -1.6579608e-006 0 0)
(-3.6443904e-005 0.0013903342 0 -6.0841078e-007 0 0)
(-3.6948922e-005 0.0013910591 0 -2.8044587e-007 0 0)
(-3.7194639e-005 0.0013912405 0 -9.8076711e-008 0 0)
(-3.7221371e-005 0.0013912699 0 -2.8163357e-008 0 0)
(-3.7254707e-005 0.0013912712 0 -1.0537681e-008 0 0)
(-3.7257904e-005 0.0013912691 0 -3.1369791e-009 0 0)
(-3.7260145e-005 0.0013912667 0 -1.0777914e-009 0 0)
(-3.7260931e-005 0.0013912658 0 -4.1643329e-010 0 0)
(-3.7261066e-005 0.0013912648 0 -1.4300771e-010 0 0)
(-3.7261186e-005 0.0013912651 0 -5.3122181e-011 0 0)
(-3.7261238e-005 0.0013912651 0 -1.527897e-011 0 0)
(-3.7261281e-005 0.0013912651 0 1.4758574e-011 0 0)
(-3.7261379e-005 0.0013912648 0 3.765391e-011 0 0)
(-3.7261458e-005 0.0013912655 0 1.2348427e-010 0 0)
(-3.7262018e-005 0.0013912657 0 3.8899786e-010 0 0)
(-3.7261611e-005 0.0013912678 0 6.4424504e-010 0 0)
(-3.7260411e-005 0.0013912666 0 -1.1746409e-009 0 0)
(-3.7263441e-005 0.0013912911 0 -1.1308327e-009 0 0)
(-0.0059336232 -0.00043415877 0 0.0042451894 0 0)
(-0.0011546176 0.003809623 0 0.0011091307 0 0)
(-0.00068666347 0.0053897997 0 -4.0846363e-005 0 0)
(-0.00045679637 0.0059903571 0 -8.6152402e-005 0 0)
(-0.00061135558 0.006098424 0 -4.1429683e-005 0 0)
(-0.00061961954 0.0061344683 0 -8.7434258e-006 0 0)
(-0.00063425376 0.0061400654 0 -3.3456853e-006 0 0)
(-0.00063550357 0.0061428126 0 -8.5940134e-007 0 0)
(-0.00063633837 0.0061429597 0 -3.2327067e-007 0 0)
(-0.00063661262 0.0061430021 0 -9.9536271e-008 0 0)
(-0.00063664026 0.0061429834 0 -2.7461069e-008 0 0)
(-0.00063667185 0.0061429665 0 -8.4440797e-009 0 0)
(-0.00063667293 0.0061429599 0 -1.809828e-009 0 0)
(-0.00063667376 0.0061429561 0 -5.3231142e-010 0 0)
(-0.00063667402 0.0061429548 0 -1.4480709e-010 0 0)
(-0.00063667385 0.0061429538 0 -3.8564332e-011 0 0)
(-0.0006366739 0.006142954 0 -6.7955447e-012 0 0)
(-0.00063667387 0.0061429528 0 -3.7894393e-012 0 0)
(-0.00063667388 0.0061429536 0 -5.8789181e-012 0 0)
(-0.00063667397 0.0061429532 0 -1.4562847e-011 0 0)
(-0.00063667399 0.0061429543 0 -5.2692018e-011 0 0)
(-0.00063667433 0.0061429546 0 -3.3820958e-011 0 0)
(-0.0006366746 0.0061429579 0 -3.949621e-010 0 0)
(-0.00063666774 0.0061429552 0 -6.4810649e-009 0 0)
(-0.00063667266 0.0061429746 0 -6.2615425e-009 0 0)
(-0.004368084 0.0047329679 0 0.0022221426 0 0)
(-0.0021871705 0.011310941 0 0.00016736997 0 0)
(-0.0030321268 0.012800501 0 -0.00012794054 0 0)
(-0.0030228557 0.013410093 0 -7.6445905e-005 0 0)
(-0.0031874843 0.013440177 0 -4.0304701e-005 0 0)
(-0.0031945255 0.013461343 0 -1.1335507e-005 0 0)
(-0.0032114387 0.013458282 0 -3.7257004e-006 0 0)
(-0.0032129451 0.013459207 0 -7.235397e-007 0 0)
(-0.003213682 0.013458689 0 -2.02954e-007 0 0)
(-0.0032137949 0.013458563 0 -5.6792133e-008 0 0)
(-0.0032137768 0.013458497 0 -1.3402139e-008 0 0)
(-0.0032137884 0.01345846 0 -1.7675482e-009 0 0)
(-0.0032137819 0.01345845 0 4.9710583e-010 0 0)
(-0.00321378 0.013458446 0 4.1849512e-010 0 0)
(-0.0032137792 0.013458444 0 2.2747831e-010 0 0)
(-0.0032137786 0.013458443 0 1.0896426e-010 0 0)
(-0.0032137785 0.013458443 0 4.8645756e-011 0 0)
(-0.0032137784 0.013458443 0 9.6675902e-012 0 0)
(-0.0032137784 0.013458443 0 -2.9458024e-011 0 0)
(-0.0032137784 0.013458443 0 -7.4031625e-011 0 0)
(-0.0032137784 0.013458444 0 -2.3113955e-010 0 0)
(-0.0032137786 0.013458444 0 -5.4077708e-010 0 0)
(-0.00321378 0.013458446 0 -1.2078812e-009 0 0)
(-0.00321377 0.013458445 0 -8.5701703e-009 0 0)
(-0.0032137723 0.013458448 0 -8.196457e-009 0 0)
(-0.00440163 0.011775449 0 2.7453142e-005 0 0)
(-0.0061825227 0.020298987 0 -0.0010138006 0 0)
(-0.0088417335 0.021402945 0 -0.00018364269 0 0)
(-0.0088881321 0.021822068 0 -3.9062549e-005 0 0)
(-0.0090348726 0.021794946 0 -2.1284612e-005 0 0)
(-0.0090128924 0.021801894 0 -1.050331e-005 0 0)
(-0.0090274179 0.021790611 0 -2.0186953e-006 0 0)
(-0.0090263387 0.021790411 0 -3.0220183e-007 0 0)
(-0.0090266096 0.021789469 0 4.7437807e-008 0 0)
(-0.0090264272 0.0217893 0 2.5592164e-008 0 0)
(-0.009026312 0.021789221 0 1.0128943e-008 0 0)
(-0.0090262975 0.021789181 0 8.7159386e-009 0 0)
(-0.0090262795 0.021789174 0 3.3808207e-009 0 0)
(-0.009026275 0.02178917 0 1.5074901e-009 0 0)
(-0.0090262731 0.021789169 0 6.2544086e-010 0 0)
(-0.0090262722 0.021789169 0 2.4250054e-010 0 0)
(-0.0090262719 0.021789169 0 9.9824628e-011 0 0)
(-0.0090262718 0.021789169 0 1.4935353e-011 0 0)
(-0.0090262717 0.021789169 0 -5.3071353e-011 0 0)
(-0.0090262718 0.021789169 0 -1.3332991e-010 0 0)
(-0.0090262718 0.021789169 0 -3.2665094e-010 0 0)
(-0.0090262719 0.02178917 0 -9.3344797e-010 0 0)
(-0.0090262742 0.021789172 0 -1.7731977e-009 0 0)
(-0.0090262655 0.021789171 0 -5.8826726e-009 0 0)
(-0.0090262533 0.021789154 0 -4.9614919e-009 0 0)
(-0.0094838473 0.021760999 0 -0.0019599072 0 0)
(-0.01389997 0.028365501 0 -0.0019553538 0 0)
(-0.018044613 0.028823895 0 -7.1875661e-005 0 0)
(-0.017700669 0.028954235 0 -3.5344978e-005 0 0)
(-0.017893559 0.028934173 0 4.1544783e-006 0 0)
(-0.017808768 0.028923126 0 -9.0329413e-006 0 0)
(-0.01782458 0.028912763 0 7.1365504e-007 0 0)
(-0.017818966 0.028912351 0 7.8179961e-008 0 0)
(-0.017819166 0.028911753 0 2.4647214e-007 0 0)
(-0.017818788 0.028911731 0 8.827259e-008 0 0)
(-0.017818615 0.028911689 0 2.657941e-008 0 0)
(-0.017818603 0.02891168 0 1.5490749e-008 0 0)
(-0.017818581 0.02891168 0 5.1678564e-009 0 0)
(-0.017818577 0.02891168 0 2.1389843e-009 0 0)
(-0.017818575 0.02891168 0 8.1303856e-010 0 0)
(-0.017818574 0.02891168 0 3.0206792e-010 0 0)
(-0.017818574 0.02891168 0 1.1723399e-010 0 0)
(-0.017818574 0.028911681 0 7.3589247e-012 0 0)
(-0.017818574 0.028911681 0 -8.2161674e-011 0 0)
(-0.017818574 0.028911681 0 -2.1130728e-010 0 0)
(-0.017818574 0.028911681 0 -4.7677326e-010 0 0)
(-0.017818575 0.028911682 0 -1.4203214e-009 0 0)
(-0.017818579 0.028911684 0 -2.3070482e-009 0 0)
(-0.017818581 0.028911689 0 -4.1348085e-009 0 0)
(-0.017818565 0.028911671 0 -2.3314252e-009 0 0)
(-0.033811085 0.040168369 0 -0.006256128 0 0)
(-0.02938017 0.035197406 0 -0.0014439512 0 0)
(-0.038489047 0.038329681 0 -3.885745e-005 0 0)
(-0.036149655 0.037311663 0 -2.5586496e-005 0 0)
(-0.036903813 0.037653239 0 1.2903299e-005 0 0)
(-0.03664441 0.037546562 0 -3.825661e-006 0 0)
(-0.03669935 0.037569345 0 2.1326421e-006 0 0)
(-0.036687436 0.037566005 0 1.8474956e-007 0 0)
(-0.036689441 0.037567188 0 2.9946296e-007 0 0)
(-0.036689624 0.037567644 0 7.5597239e-008 0 0)
(-0.036689479 0.037567641 0 2.6518005e-008 0 0)
(-0.036689572 0.037567719 0 1.3327398e-008 0 0)
(-0.036689565 0.037567729 0 3.5172749e-009 0 0)
(-0.03668957 0.037567735 0 1.6101197e-009 0 0)
(-0.036689572 0.037567738 0 5.7085883e-010 0 0)
(-0.036689572 0.037567739 0 2.1152499e-010 0 0)
(-0.036689573 0.037567739 0 7.5922291e-011 0 0)
(-0.036689573 0.037567739 0 -1.6544652e-011 0 0)
(-0.036689572 0.037567739 0 -1.186378e-010 0 0)
(-0.036689572 0.037567739 0 -2.9750211e-010 0 0)
(-0.036689571 0.037567739 0 -6.6634093e-010 0 0)
(-0.036689566 0.037567738 0 -1.647403e-009 0 0)
(-0.036689559 0.037567735 0 -4.5122e-009 0 0)
(-0.036689559 0.037567738 0 -4.4899899e-009 0 0)
(-0.036689503 0.037567722 0 -6.2589977e-010 0 0)
(0.00010676788 0.00012308932 0 5.1341544e-005 0 0)
(-0.00030642794 -2.2185869e-005 0 2.6613571e-005 0 0)
(0.00011964759 -3.1082254e-005 0 7.1887249e-005 0 0)
(-0.0001100532 2.208244e-005 0 1.6817912e-005 0 0)
(-1.1920354e-005 -2.4870515e-005 0 4.0762096e-005 0 0)
(-2.7468154e-005 5.5436312e-006 0 2.2343555e-005 0 0)
(-2.5372621e-005 4.0032917e-006 0 2.6239872e-005 0 0)
(-2.6756019e-005 1.3945497e-005 0 2.5642101e-005 0 0)
(-2.9835481e-005 2.3538308e-005 0 2.9615915e-005 0 0)
(-3.6247844e-005 3.643237e-005 0 3.5642286e-005 0 0)
(-4.6517471e-005 5.4064471e-005 0 4.5816293e-005 0 0)
(-6.0840683e-005 7.6981405e-005 0 5.9846926e-005 0 0)
(-8.1121304e-005 0.00010876676 0 7.9706742e-005 0 0)
(-0.00010883678 0.00015285969 0 0.00010671972 0 0)
(-0.00014632161 0.00021505348 0 0.00014304267 0 0)
(-0.00019615225 0.000303677 0 0.00019088797 0 0)
(-0.00026114765 0.00043307352 0 0.00025283597 0 0)
(-0.00034215277 0.00061934553 0 0.0003268456 0 0)
(-0.00043659795 0.00091068591 0 0.00041434045 0 0)
(-0.00053293224 0.0013265181 0 0.00048231214 0 0)
(-0.00054484769 0.0020871749 0 0.0005030982 0 0)
(-0.00054616714 0.0033421537 0 0.00021475579 0 0)
(0.00060209027 0.0057931232 0 -0.00072871564 0 0)
(0.0015764477 0.006885622 0 -0.0029573651 0 0)
(0.0087310962 0.0029086175 0 -0.0090788113 0 0)
(0.00011850398 0.00010596584 0 5.9160273e-005 0 0)
(-0.00033317648 -1.8426267e-005 0 1.7009197e-005 0 0)
(0.00012801847 -2.9066175e-005 0 8.3241992e-005 0 0)
(-0.00010897288 1.0284125e-006 0 1.0975885e-005 0 0)
(-1.3848692e-005 -1.8569196e-005 0 3.5721302e-005 0 0)
(-1.8290137e-005 -1.684691e-006 0 1.9145755e-005 0 0)
(-2.025535e-005 4.5918261e-006 0 1.9612175e-005 0 0)
(-1.8968754e-005 1.4542499e-005 0 1.8305776e-005 0 0)
(-2.0311862e-005 2.6647541e-005 0 2.0265216e-005 0 0)
(-2.3925911e-005 4.1265292e-005 0 2.3651641e-005 0 0)
(-3.0098858e-005 6.1526483e-005 0 2.978923e-005 0 0)
(-3.8679754e-005 8.7470874e-005 0 3.8234795e-005 0 0)
(-5.0525119e-005 0.00012282606 0 4.9823473e-005 0 0)
(-6.6329525e-005 0.00017194993 0 6.525349e-005 0 0)
(-8.6346783e-005 0.00023964142 0 8.4566457e-005 0 0)
(-0.00011075994 0.00033466237 0 0.00010772891 0 0)
(-0.00013805004 0.00046926596 0 0.00013288946 0 0)
(-0.00016359826 0.00065850864 0 0.00015369192 0 0)
(-0.00017472608 0.00093216661 0 0.00015784971 0 0)
(-0.00014631351 0.001306811 0 0.00010884215 0 0)
(-1.5648299e-005 0.0018937637 0 -4.6351325e-005 0 0)
(0.00027439205 0.0026864454 0 -0.00057443253 0 0)
(0.0016986393 0.004000105 0 -0.0020326017 0 0)
(0.00416874 0.0026370738 0 -0.0055928772 0 0)
(0.0054168611 -0.0039445715 0 -0.0080810732 0 0)
(0.00011605074 0.00011020339 0 5.7071689e-005 0 0)
(-0.00035078765 -1.8470581e-005 0 4.400532e-005 0 0)
(0.00013555462 -3.4438492e-005 0 6.251299e-005 0 0)
(-0.00010507543 -1.1498774e-005 0 2.1336838e-005 0 0)
(-1.3685554e-005 -1.8131167e-005 0 2.4060634e-005 0 0)
(-1.0270527e-005 -5.4430601e-006 0 1.4776887e-005 0 0)
(-1.2994471e-005 4.0044557e-006 0 1.1732981e-005 0 0)
(-1.0308156e-005 1.5022154e-005 0 9.8004406e-006 0 0)
(-9.4811332e-006 2.8518945e-005 0 9.5243757e-006 0 0)
(-1.0304669e-005 4.4432369e-005 0 1.0215511e-005 0 0)
(-1.2081021e-005 6.5527719e-005 0 1.1910033e-005 0 0)
(-1.4716898e-005 9.403751e-005 0 1.4518929e-005 0 0)