/*--------------------------------*- C++ -*----------------------------------*\
| =========                 |                                                 |
| \\      /  F ield         | OpenFOAM: The Open Source CFD Toolbox           |
|  \\    /   O peration     | Version:  5.x                                   |
|   \\  /    A nd           | Web:      www.OpenFOAM.org                      |
|    \\/     M anipulation  |                                                 |
\*---------------------------------------------------------------------------*/
/*   Windows 32 and 64 bit porting by blueCAPE: http://www.bluecape.com.pt   *\
|  Based on Windows porting (2.0.x v4) by Symscape: http://www.symscape.com   |
\*---------------------------------------------------------------------------*/
FoamFile
{
    version     2.0;
    format      ascii;
    class       volSymmTensorField;
    location    "0.04";
    object      sigma_0;
}
// * * * * * * * * * * * * * * * * * * * * * * * * * * * * * * * * * * * * * //

dimensions      [0 2 -2 0 0 0 0];

internalField   nonuniform List<symmTensor> 
750
(
(3.4954685e-005 8.8536561e-006 0 2.7081851e-005 0 0)
(-0.00020290613 -1.8645101e-006 0 9.3178209e-005 0 0)
(8.6642024e-005 -2.05003e-006 0 -1.3340074e-005 0 0)
(-0.00010888639 2.4825466e-006 0 6.5988368e-005 0 0)
(3.213282e-006 -1.9219867e-006 0 1.7472447e-005 0 0)
(-5.0258967e-005 1.126869e-006 0 4.0620003e-005 0 0)
(-2.8689078e-005 -7.9736209e-008 0 3.2677799e-005 0 0)
(-4.2270036e-005 9.1398256e-007 0 4.0663986e-005 0 0)
(-4.6463149e-005 1.1548708e-006 0 4.6981306e-005 0 0)
(-5.9738809e-005 1.9006197e-006 0 5.9473034e-005 0 0)
(-7.7991044e-005 2.764653e-006 0 7.790999e-005 0 0)
(-0.00010326867 3.9285664e-006 0 0.00010302106 0 0)
(-0.00014124253 5.6347843e-006 0 0.00014081289 0 0)
(-0.00019403746 8.0065877e-006 0 0.00019322435 0 0)
(-0.0002695743 1.1459448e-005 0 0.00026802902 0 0)
(-0.00037721274 1.6490185e-005 0 0.00037409283 0 0)
(-0.00053566814 2.4368782e-005 0 0.00053001296 0 0)
(-0.00076213037 3.5482536e-005 0 0.00074841037 0 0)
(-0.0011186553 5.5686451e-005 0 0.0010972249 0 0)
(-0.0016455866 8.2294888e-005 0 0.001577463 0 0)
(-0.0024852335 0.00013788057 0 0.002392617 0 0)
(-0.0038992581 0.00020425859 0 0.0035313516 0 0)
(-0.0058731987 0.00028993435 0 0.005372978 0 0)
(-0.0089547293 0.00027561338 0 0.0073321291 0 0)
(-0.010572869 -0.00030158612 0 0.0090909873 0 0)
(3.6881456e-005 2.1675739e-005 0 4.2070174e-005 0 0)
(-0.0002052215 -4.7085928e-006 0 6.4783319e-005 0 0)
(8.7121397e-005 -4.1554998e-006 0 1.2132662e-005 0 0)
(-0.00010867812 5.1410365e-006 0 5.1243966e-005 0 0)
(2.8692405e-006 -4.3084651e-006 0 2.6265211e-005 0 0)
(-4.9823809e-005 2.4372323e-006 0 3.683223e-005 0 0)
(-2.8696379e-005 1.3173547e-007 0 3.4077349e-005 0 0)
(-4.1972749e-005 2.5973133e-006 0 3.9785502e-005 0 0)
(-4.6205987e-005 3.545398e-006 0 4.6870556e-005 0 0)
(-5.9344971e-005 5.6852527e-006 0 5.8964382e-005 0 0)
(-7.7455141e-005 8.3018571e-006 0 7.732496e-005 0 0)
(-0.00010252234 1.1766984e-005 0 0.0001021771 0 0)
(-0.00014024604 1.6867792e-005 0 0.00013968689 0 0)
(-0.00019257127 2.3937486e-005 0 0.00019157754 0 0)
(-0.00026744223 3.4218532e-005 0 0.00026563319 0 0)
(-0.00037395649 4.9195925e-005 0 0.00037042692 0 0)
(-0.00053106196 7.2534197e-005 0 0.0005249034 0 0)
(-0.00075358712 0.00010545041 0 0.00073854601 0 0)
(-0.0011081938 0.00016608097 0 0.0010866755 0 0)
(-0.0016332946 0.00024496528 0 0.0015568645 0 0)
(-0.0024497018 0.00041128757 0 0.0023646692 0 0)
(-0.0038795973 0.0006185804 0 0.0034751459 0 0)
(-0.0058644095 0.00085491304 0 0.0053971353 0 0)
(-0.0091814555 0.00084904587 0 0.0074159627 0 0)
(-0.010951437 -0.00080599032 0 0.0095111545 0 0)
(3.9113707e-005 2.9554688e-005 0 4.593544e-005 0 0)
(-0.00020834078 -7.2582603e-006 0 5.6180542e-005 0 0)
(8.8175931e-005 -5.0723408e-006 0 1.9177889e-005 0 0)
(-0.00010883904 6.2935601e-006 0 4.6303996e-005 0 0)
(2.5347489e-006 -5.6938074e-006 0 2.8570487e-005 0 0)
(-4.9159736e-005 3.1806117e-006 0 3.5130424e-005 0 0)
(-2.8611548e-005 6.2746584e-007 0 3.4376422e-005 0 0)
(-4.142541e-005 4.148668e-006 0 3.9116104e-005 0 0)
(-4.5677467e-005 5.9738388e-006 0 4.6398565e-005 0 0)
(-5.8586055e-005 9.4293615e-006 0 5.8208969e-005 0 0)
(-7.637557e-005 1.3796187e-005 0 7.6275596e-005 0 0)
(-0.00010112626 1.9551753e-005 0 0.0001008134 0 0)
(-0.00013824923 2.8003547e-005 0 0.00013773956 0 0)
(-0.0001896832 3.9708778e-005 0 0.00018876106 0 0)
(-0.00026322821 5.6724773e-005 0 0.0002615264 0 0)
(-0.0003676245 8.1517777e-005 0 0.00036425661 0 0)
(-0.0005215197 0.00012000053 0 0.00051564201 0 0)
(-0.00073833329 0.00017486008 0 0.00072362365 0 0)
(-0.0010847651 0.00027356313 0 0.0010643715 0 0)
(-0.001597136 0.00040816954 0 0.0015206423 0 0)
(-0.002385263 0.00067092591 0 0.0023056621 0 0)
(-0.0038099237 0.0010246972 0 0.0033936972 0 0)
(-0.0058514745 0.0014463571 0 0.005382201 0 0)
(-0.0096087483 0.0015298135 0 0.0076348521 0 0)
(-0.011731809 -0.0012215478 0 0.010067482 0 0)
(4.1314194e-005 3.7403971e-005 0 4.3719553e-005 0 0)
(-0.00021187759 -9.9775654e-006 0 5.966332e-005 0 0)
(8.9787179e-005 -6.3609482e-006 0 1.6226853e-005 0 0)
(-0.00010915707 7.6899799e-006 0 4.7576981e-005 0 0)
(2.1737103e-006 -7.2108526e-006 0 2.773997e-005 0 0)
(-4.8261776e-005 3.9836054e-006 0 3.480381e-005 0 0)
(-2.8439162e-005 1.1058525e-006 0 3.38889e-005 0 0)
(-4.0638808e-005 5.6391284e-006 0 3.8474186e-005 0 0)
(-4.4878266e-005 8.3432596e-006 0 4.5545952e-005 0 0)
(-5.7434734e-005 1.3079517e-005 0 5.7080011e-005 0 0)
(-7.4846884e-005 1.918533e-005 0 7.4741775e-005 0 0)
(-9.9018818e-005 2.7164934e-005 0 9.8710343e-005 0 0)
(-0.00013522577 3.8879927e-005 0 0.00013471987 0 0)
(-0.00018539867 5.511694e-005 0 0.00018447982 0 0)
(-0.0002569573 7.8670594e-005 0 0.00025526379 0 0)
(-0.0003583346 0.00011299352 0 0.0003549851 0 0)
(-0.00050713268 0.00016593249 0 0.00050127309 0 0)
(-0.00071656782 0.00024209857 0 0.00070203537 0 0)
(-0.0010478488 0.00037965151 0 0.001027336 0 0)
(-0.0015378802 0.00056232122 0 0.0014633804 0 0)
(-0.0022874571 0.00093921809 0 0.0022076372 0 0)
(-0.0036834307 0.0014489352 0 0.0032646931 0 0)
(-0.0058116895 0.0021144769 0 0.0053128912 0 0)
(-0.010183467 0.0024267917 0 0.0079397357 0 0)
(-0.012905059 -0.0013047233 0 0.010841744 0 0)
(4.3724986e-005 4.6909999e-005 0 4.0926474e-005 0 0)
(-0.00021609211 -1.2544279e-005 0 6.4947778e-005 0 0)
(9.1879351e-005 -8.1870558e-006 0 1.2749404e-005 0 0)
(-0.00010950363 9.519897e-006 0 4.9635175e-005 0 0)
(1.7035045e-006 -9.0205611e-006 0 2.7032748e-005 0 0)
(-4.7099713e-005 4.7784684e-006 0 3.4459471e-005 0 0)
(-2.8179733e-005 1.5288817e-006 0 3.3233551e-005 0 0)
(-3.9614543e-005 7.0819538e-006 0 3.7622483e-005 0 0)
(-4.3811587e-005 1.0643481e-005 0 4.4414095e-005 0 0)
(-5.5911129e-005 1.6635017e-005 0 5.5581221e-005 0 0)
(-7.2825067e-005 2.4433566e-005 0 7.2713857e-005 0 0)
(-9.6221286e-005 3.4583151e-005 0 9.5917535e-005 0 0)
(-0.00013124685 4.9468523e-005 0 0.00013074403 0 0)
(-0.00017973751 7.0090981e-005 0 0.00017882385 0 0)
(-0.00024868182 9.9951086e-005 0 0.00024699921 0 0)
(-0.0003460872 0.00014342334 0 0.00034276095 0 0)
(-0.00048813865 0.00021025391 0 0.00048229478 0 0)
(-0.00068778286 0.00030679369 0 0.00067348466 0 0)
(-0.0010007897 0.00047733621 0 0.00097999669 0 0)
(-0.0014591334 0.00070974253 0 0.0013863516 0 0)
(-0.0021651791 0.0011840779 0 0.0020832198 0 0)
(-0.0035031203 0.0018662561 0 0.0030793627 0 0)
(-0.0056990227 0.0028547001 0 0.0051608343 0 0)
(-0.010766419 0.0036018238 0 0.0081608852 0 0)
(-0.014096491 -0.00076062847 0 0.01160534 0 0)
(4.6883732e-005 5.8731768e-005 0 3.7423318e-005 0 0)
(-0.00022153693 -1.4684576e-005 0 7.1346143e-005 0 0)
(9.4436537e-005 -1.0589597e-005 0 8.793423e-006 0 0)
(-0.0001098396 1.1892145e-005 0 5.1794619e-005 0 0)
(1.0597737e-006 -1.1193081e-005 0 2.634542e-005 0 0)
(-4.5633749e-005 5.5695966e-006 0 3.3838108e-005 0 0)
(-2.7842508e-005 1.9121881e-006 0 3.2483135e-005 0 0)
(-3.835749e-005 8.4600518e-006 0 3.6543491e-005 0 0)
(-4.2483035e-005 1.2864974e-005 0 4.3023527e-005 0 0)
(-5.4028971e-005 2.0073172e-005 0 5.3727948e-005 0 0)
(-7.0307057e-005 2.9520286e-005 0 7.0200016e-005 0 0)
(-9.2762611e-005 4.1755854e-005 0 9.2472577e-005 0 0)
(-0.00012634955 5.9694596e-005 0 0.00012586486 0 0)
(-0.00017274976 8.4513478e-005 0 0.00017186672 0 0)
(-0.00023849401 0.00012037796 0 0.0002368624 0 0)
(-0.00033101423 0.00017248375 0 0.00032778119 0 0)
(-0.00046489043 0.00025227055 0 0.00045918662 0 0)
(-0.00065249398 0.0003675967 0 0.00063873007 0 0)
(-0.00094252016 0.0005696743 0 0.00092184307 0 0)
(-0.0013629592 0.00084649642 0 0.0012928333 0 0)
(-0.0020055024 0.0014246863 0 0.0019235141 0 0)
(-0.0032853383 0.0022343696 0 0.0028587612 0 0)
(-0.0054555789 0.0036685487 0 0.0048749962 0 0)
(-0.011167582 0.0050289408 0 0.0081499069 0 0)
(-0.014596862 0.00035113803 0 0.01191499 0 0)
(5.1483854e-005 7.3330645e-005 0 3.2278177e-005 0 0)
(-0.0002288679 -1.6348386e-005 0 8.0126606e-005 0 0)
(9.7438073e-005 -1.3649343e-005 0 3.7931218e-006 0 0)
(-0.00011015283 1.49819e-005 0 5.444361e-005 0 0)
(1.4035553e-007 -1.3838218e-005 0 2.5607625e-005 0 0)
(-4.3808865e-005 6.3714559e-006 0 3.3006509e-005 0 0)
(-2.7433837e-005 2.2590815e-006 0 3.1588694e-005 0 0)
(-3.6875137e-005 9.7561449e-006 0 3.5269841e-005 0 0)
(-4.0900386e-005 1.4992028e-005 0 4.137093e-005 0 0)
(-5.1797132e-005 2.3368095e-005 0 5.1530192e-005 0 0)
(-6.7327622e-005 3.4399223e-005 0 6.7223268e-005 0 0)
(-8.867907e-005 4.8625358e-005 0 8.8403149e-005 0 0)
(-0.00012058579 6.9450317e-005 0 0.00012011968 0 0)
(-0.00016454865 9.8222019e-005 0 0.00016369389 0 0)
(-0.00022657981 0.00013969333 0 0.00022499104 0 0)
(-0.00031342238 0.00019984863 0 0.00031026939 0 0)
(-0.00043789016 0.000291426 0 0.00043227708 0 0)
(-0.00061080054 0.00042496106 0 0.0005974727 0 0)
(-0.00087381377 0.00065445189 0 0.00085310223 0 0)
(-0.0012477043 0.00097327191 0 0.0011805085 0 0)
(-0.0018080431 0.0016501533 0 0.0017253293 0 0)
(-0.0029591263 0.0026367273 0 0.0025326083 0 0)
(-0.0049762408 0.0045923722 0 0.0043548274 0 0)
(-0.011154757 0.006739524 0 0.007728246 0 0)
(-0.013722032 0.0022483715 0 0.011319696 0 0)
(5.8238777e-005 9.0976316e-005 0 2.4834091e-005 0 0)
(-0.0002387766 -1.7751054e-005 0 9.1633554e-005 0 0)
(0.00010092933 -1.7596829e-005 0 -2.6209889e-006 0 0)
(-0.00011045188 1.8943896e-005 0 5.7587398e-005 0 0)
(-1.1830201e-006 -1.7137579e-005 0 2.4733908e-005 0 0)
(-4.1540886e-005 7.2479877e-006 0 3.1907699e-005 0 0)
(-2.6976272e-005 2.5539273e-006 0 3.0570077e-005 0 0)
(-3.5175694e-005 1.0956186e-005 0 3.3804074e-005 0 0)
(-3.9077218e-005 1.7008433e-005 0 3.9465734e-005 0 0)
(-4.9230832e-005 2.6480458e-005 0 4.898428e-005 0 0)
(-6.3911274e-005 3.9041107e-005 0 6.3790914e-005 0 0)
(-8.4001053e-005 5.515913e-005 0 8.3722416e-005 0 0)
(-0.00011395061 7.8677139e-005 0 0.00011346997 0 0)
(-0.00015518009 0.00011118478 0 0.00015430448 0 0)
(-0.0002129907 0.00015785059 0 0.00021137544 0 0)
(-0.00029348886 0.00022530542 0 0.00029031844 0 0)
(-0.00040749893 0.00032743662 0 0.00040185708 0 0)
(-0.0005654314 0.00047547351 0 0.00055240731 0 0)
(-0.00079749065 0.00072877369 0 0.00077679621 0 0)
(-0.0011239016 0.001079235 0 0.001059865 0 0)
(-0.0015892323 0.0018375645 0 0.0015047631 0 0)
(-0.0026097212 0.0029392383 0 0.0021849812 0 0)
(-0.0042245578 0.0055045616 0 0.003538733 0 0)
(-0.010526394 0.0082755214 0 0.0067244029 0 0)
(-0.0093787316 0.0054702196 0 0.0077439803 0 0)
(6.7770702e-005 0.00011108933 0 1.8620973e-005 0 0)
(-0.00025202314 -1.9385435e-005 0 9.7620941e-005 0 0)
(0.00010494778 -2.2782667e-005 0 -4.6034227e-006 0 0)
(-0.00011065689 2.3973771e-005 0 5.6944257e-005 0 0)
(-3.0429785e-006 -2.1211212e-005 0 2.5629503e-005 0 0)
(-3.8737629e-005 8.2510801e-006 0 2.9818491e-005 0 0)
(-2.6508945e-005 2.7775833e-006 0 2.9691025e-005 0 0)
(-3.3268588e-005 1.203011e-005 0 3.2065364e-005 0 0)
(-3.7012798e-005 1.8881648e-005 0 3.7330991e-005 0 0)
(-4.6347362e-005 2.9405147e-005 0 4.6110982e-005 0 0)
(-6.0032232e-005 4.3378235e-005 0 5.9898043e-005 0 0)
(-7.8738536e-005 6.1279811e-005 0 7.8447636e-005 0 0)
(-0.00010653479 8.7309535e-005 0 0.00010603234 0 0)
(-0.00014468048 0.00012325752 0 0.00014378113 0 0)
(-0.00019778303 0.00017467345 0 0.00019614111 0 0)
(-0.00027112543 0.00024881629 0 0.00026793138 0 0)
(-0.0003734625 0.0003604615 0 0.00036779811 0 0)
(-0.0005127528 0.00052264651 0 0.00049980294 0 0)
(-0.00070968663 0.00079566983 0 0.00068899343 0 0)
(-0.00097844544 0.0011730252 0 0.00091609402 0 0)
(-0.0013214409 0.0019995489 0 0.0012378739 0 0)
(-0.0020791701 0.0032161041 0 0.0016501669 0 0)
(-0.0032304161 0.0062111803 0 0.0025174338 0 0)
(-0.0086521659 0.0094893768 0 0.004766629 0 0)
(-0.0047426109 0.0076383206 0 0.0034615963 0 0)
(8.0281513e-005 0.00012847587 0 2.6644286e-005 0 0)
(-0.00026895658 -2.1366338e-005 0 7.5444403e-005 0 0)
(0.0001095073 -2.8498862e-005 0 1.9963617e-005 0 0)
(-0.00011054858 2.8821616e-005 0 4.2162352e-005 0 0)
(-5.5129209e-006 -2.5197137e-005 0 3.2606333e-005 0 0)
(-3.5295144e-005 8.9104943e-006 0 2.6137726e-005 0 0)
(-2.6079129e-005 3.0562383e-006 0 2.9069224e-005 0 0)
(-3.1158619e-005 1.2905469e-005 0 2.9958471e-005 0 0)
(-3.4720111e-005 2.0608722e-005 0 3.4955227e-005 0 0)
(-4.3077556e-005 3.2024428e-005 0 4.2804579e-005 0 0)
(-5.5694023e-005 4.7341077e-005 0 5.5490862e-005 0 0)
(-7.3000879e-005 6.7026838e-005 0 7.2614942e-005 0 0)
(-9.8320175e-005 9.5258289e-005 0 9.7692568e-005 0 0)
(-0.00013302623 0.00013431503 0 0.00013193842 0 0)
(-0.00018093364 0.00018996999 0 0.00017897954 0 0)
(-0.00024646752 0.0002699657 0 0.00024274078 0 0)
(-0.00033628458 0.00038928072 0 0.0003297032 0 0)
(-0.00045802699 0.00056148793 0 0.00044331361 0 0)
(-0.00062368416 0.00084491617 0 0.00060024855 0 0)
(-0.00083565749 0.0012393567 0 0.00076708622 0 0)
(-0.0010267484 0.0020878086 0 0.00094471599 0 0)
(-0.0015074765 0.0033193638 0 0.001053844 0 0)
(-0.0013387802 0.0064498243 0 0.00079939825 0 0)
(-0.0032560378 0.0092023167 0 0.00032968124 0 0)
(0.0030560538 0.0091569103 0 -0.0049202694 0 0)
(-0.005395958 -0.00068253064 0 0.0044763332 0 0)
(-0.0019227907 -0.00052634156 0 0.0019944645 0 0)
(-0.00078471812 -0.0003528245 0 0.00066533255 0 0)
(-0.00017691054 -0.00027332762 0 0.00020554682 0 0)
(-8.1848626e-005 -0.00023685754 0 6.6917344e-005 0 0)
(-1.4971797e-005 -0.00022989544 0 1.7533595e-005 0 0)
(-6.6678953e-006 -0.0002269225 0 4.9540896e-006 0 0)
(-1.8333958e-006 -0.00022630829 0 1.1136695e-006 0 0)
(-1.0287417e-006 -0.00022605036 0 2.1223294e-007 0 0)
(-9.2397507e-007 -0.00022599467 0 6.5323054e-008 0 0)
(-8.3294128e-007 -0.00022598106 0 2.9210541e-009 0 0)
(-8.3945127e-007 -0.00022597601 0 -2.711229e-009 0 0)
(-8.3654299e-007 -0.00022597563 0 -2.8614426e-009 0 0)
(-8.382964e-007 -0.00022597551 0 -1.4757408e-009 0 0)
(-8.3929627e-007 -0.00022597555 0 -6.142756e-010 0 0)
(-8.3955106e-007 -0.00022597557 0 -2.7709651e-010 0 0)
(-8.3974661e-007 -0.00022597558 0 -1.1305777e-010 0 0)
(-8.3985284e-007 -0.00022597559 0 -1.7695376e-011 0 0)
(-8.3995829e-007 -0.00022597558 0 7.3499037e-011 0 0)
(-8.4011432e-007 -0.00022597555 0 1.7577457e-010 0 0)
(-8.4046283e-007 -0.00022597549 0 4.8762416e-010 0 0)
(-8.4168574e-007 -0.00022597526 0 1.1507874e-009 0 0)
(-8.4100672e-007 -0.00022597468 0 3.0453142e-009 0 0)
(-8.5006102e-007 -0.00022597557 0 9.2662898e-009 0 0)
(-8.5331748e-007 -0.00022596998 0 7.8524416e-009 0 0)
(-0.0054327514 -0.0020561333 0 0.0043143745 0 0)
(-0.0019982757 -0.0015975612 0 0.0020611707 0 0)
(-0.00074690236 -0.0010912669 0 0.00056215003 0 0)
(-0.00015511487 -0.00084446258 0 0.00018431005 0 0)
(-7.889293e-005 -0.00074269138 0 4.9664941e-005 0 0)
(-2.036423e-005 -0.00072049059 0 1.6372833e-005 0 0)
(-1.3552088e-005 -0.00071277744 0 3.8261664e-006 0 0)
(-9.2651788e-006 -0.00071077879 0 8.7054282e-007 0 0)
(-8.5928593e-006 -0.00071010344 0 1.5471318e-007 0 0)
(-8.5404814e-006 -0.00070995006 0 3.4372238e-008 0 0)
(-8.4633228e-006 -0.00070990599 0 1.0932549e-009 0 0)
(-8.473578e-006 -0.00070989386 0 -4.7698096e-009 0 0)
(-8.4718677e-006 -0.0007098925 0 -2.9651001e-009 0 0)
(-8.4737415e-006 -0.00070989238 0 -1.3750129e-009 0 0)
(-8.4747348e-006 -0.0007098925 0 -6.2975352e-010 0 0)
(-8.4750235e-006 -0.00070989259 0 -2.4850847e-010 0 0)
(-8.4752042e-006 -0.00070989261 0 -1.0533423e-010 0 0)
(-8.4753083e-006 -0.00070989264 0 -2.5023594e-011 0 0)
(-8.4753969e-006 -0.00070989263 0 4.983136e-011 0 0)
(-8.4755425e-006 -0.00070989256 0 1.2084721e-010 0 0)
(-8.4757961e-006 -0.00070989247 0 3.7489361e-010 0 0)
(-8.476754e-006 -0.00070989206 0 8.7087498e-010 0 0)
(-8.4759292e-006 -0.00070989107 0 2.3599668e-009 0 0)
(-8.4823916e-006 -0.00070989174 0 7.9046884e-009 0 0)
(-8.4841876e-006 -0.00070988809 0 6.393978e-009 0 0)
(-0.0057927218 -0.0033005956 0 0.0044116023 0 0)
(-0.0019933149 -0.0025195697 0 0.002012669 0 0)
(-0.00065528705 -0.0016968634 0 0.00042246927 0 0)
(-0.00010908564 -0.0012970067 0 0.00012569921 0 0)
(-7.2338958e-005 -0.001142658 0 2.7103496e-005 0 0)
(-2.8743351e-005 -0.0011063048 0 1.175546e-005 0 0)
(-2.5297127e-005 -0.0010953243 0 2.3308356e-006 0 0)
(-2.1933388e-005 -0.001092047 0 4.6275522e-007 0 0)
(-2.1531805e-005 -0.0010911135 0 2.5843514e-008 0 0)
(-2.156939e-005 -0.0010908887 0 -1.0830829e-008 0 0)
(-2.1524596e-005 -0.0010908231 0 -6.8915999e-009 0 0)
(-2.1541476e-005 -0.0010908081 0 -7.2159463e-009 0 0)
(-2.1541735e-005 -0.0010908061 0 -3.2079015e-009 0 0)
(-2.1543836e-005 -0.0010908063 0 -1.369631e-009 0 0)
(-2.1544882e-005 -0.0010908065 0 -6.1226033e-010 0 0)
(-2.1545162e-005 -0.0010908067 0 -2.289595e-010 0 0)
(-2.1545333e-005 -0.0010908068 0 -9.7382086e-011 0 0)
(-2.154543e-005 -0.0010908068 0 -2.7909971e-011 0 0)
(-2.1545511e-005 -0.0010908068 0 3.94387e-011 0 0)
(-2.1545652e-005 -0.0010908068 0 9.8154873e-011 0 0)
(-2.1545877e-005 -0.0010908066 0 3.2377119e-010 0 0)
(-2.1546796e-005 -0.0010908062 0 8.0575384e-010 0 0)
(-2.1546167e-005 -0.0010908051 0 2.2767118e-009 0 0)
(-2.1552821e-005 -0.001090805 0 7.1345136e-009 0 0)
(-2.1555367e-005 -0.0010908017 0 6.0268786e-009 0 0)
(-0.0062692874 -0.003918052 0 0.0046300156 0 0)
(-0.0018826179 -0.0026271391 0 0.0018853556 0 0)
(-0.00049284357 -0.0015057088 0 0.00025104452 0 0)
(-1.9672811e-005 -0.0010017943 0 3.9182898e-005 0 0)
(-4.0416705e-005 -0.00081645143 0 -9.4421255e-009 0 0)
(-1.5875054e-005 -0.00077241766 0 4.5367621e-006 0 0)
(-1.7516204e-005 -0.00075975876 0 4.2076565e-007 0 0)
(-1.5446676e-005 -0.00075582939 0 -8.9323755e-008 0 0)
(-1.5448897e-005 -0.00075483968 0 -1.4056899e-007 0 0)
(-1.5593639e-005 -0.00075459789 0 -6.1805207e-008 0 0)
(-1.5589148e-005 -0.00075453531 0 -1.9008286e-008 0 0)
(-1.5614676e-005 -0.00075452277 0 -9.4757322e-009 0 0)
(-1.5616883e-005 -0.00075452177 0 -3.4225333e-009 0 0)
(-1.5619259e-005 -0.00075452276 0 -1.3109591e-009 0 0)
(-1.5620264e-005 -0.00075452326 0 -5.5576818e-010 0 0)
(-1.5620509e-005 -0.0007545236 0 -2.0053749e-010 0 0)
(-1.5620665e-005 -0.00075452371 0 -8.2449956e-011 0 0)
(-1.5620748e-005 -0.00075452373 0 -2.3638108e-011 0 0)
(-1.5620814e-005 -0.00075452372 0 2.872608e-011 0 0)
(-1.5620939e-005 -0.00075452377 0 7.4909252e-011 0 0)
(-1.5621095e-005 -0.00075452342 0 2.432805e-010 0 0)
(-1.5621863e-005 -0.00075452294 0 6.5469318e-010 0 0)
(-1.5621242e-005 -0.00075452127 0 1.5456735e-009 0 0)
(-1.5625251e-005 -0.00075452179 0 4.3117235e-009 0 0)
(-1.5627402e-005 -0.00075450628 0 3.9474997e-009 0 0)
(-0.0065180161 -0.0031705527 0 0.0047687161 0 0)
(-0.0015125438 -0.00087277293 0 0.0016369555 0 0)
(-0.00031081293 0.00052636001 0 8.2846341e-005 0 0)
(6.2667515e-005 0.0010881572 0 -4.3070071e-005 0 0)
(-3.1269347e-005 0.0012600565 0 -2.5454551e-005 0 0)
(-2.5515813e-005 0.0013041527 0 -2.9474707e-006 0 0)
(-3.3849685e-005 0.0013153822 0 -1.6468665e-006 0 0)
(-3.3425724e-005 0.0013191938 0 -6.0787909e-007 0 0)
(-3.3921734e-005 0.0013199272 0 -2.778383e-007 0 0)
(-3.4167683e-005 0.0013201118 0 -9.7730134e-008 0 0)
(-3.4193769e-005 0.0013201435 0 -2.7940481e-008 0 0)
(-3.4226963e-005 0.0013201454 0 -1.048026e-008 0 0)
(-3.4230202e-005 0.0013201435 0 -3.1275861e-009 0 0)
(-3.4232411e-005 0.0013201412 0 -1.0743844e-009 0 0)
(-3.4233203e-005 0.0013201403 0 -4.1774005e-010 0 0)
(-3.4233343e-005 0.0013201395 0 -1.4281043e-010 0 0)
(-3.423346e-005 0.0013201397 0 -5.323088e-011 0 0)
(-3.4233514e-005 0.0013201396 0 -1.533431e-011 0 0)
(-3.4233558e-005 0.0013201396 0 1.4857434e-011 0 0)
(-3.4233658e-005 0.0013201394 0 3.8289498e-011 0 0)
(-3.4233738e-005 0.00132014 0 1.2468944e-010 0 0)
(-3.4234304e-005 0.0013201404 0 3.929747e-010 0 0)
(-3.4233895e-005 0.0013201424 0 6.6189463e-010 0 0)
(-3.4232834e-005 0.0013201412 0 -1.0341524e-009 0 0)
(-3.4235816e-005 0.0013201637 0 -9.8509217e-010 0 0)
(-0.0059080337 -0.00050519806 0 0.0042256421 0 0)
(-0.0011325589 0.003704896 0 0.0011018946 0 0)
(-0.00066188042 0.0052772373 0 -4.5180337e-005 0 0)
(-0.00043237524 0.0058742598 0 -8.6856668e-005 0 0)
(-0.00058725818 0.0059825055 0 -4.1341984e-005 0 0)
(-0.00059532752 0.0060185873 0 -8.697461e-006 0 0)
(-0.00060986997 0.0060242968 0 -3.3378279e-006 0 0)
(-0.0006111219 0.00602706 0 -8.6397504e-007 0 0)
(-0.0006119508 0.0060272196 0 -3.2397132e-007 0 0)
(-0.00061222842 0.0060272659 0 -1.0040461e-007 0 0)
(-0.00061225659 0.0060272494 0 -2.7563924e-008 0 0)
(-0.00061228842 0.006027233 0 -8.5108422e-009 0 0)
(-0.00061228968 0.0060272267 0 -1.8410495e-009 0 0)
(-0.00061229052 0.0060272229 0 -5.4580154e-010 0 0)
(-0.00061229082 0.0060272216 0 -1.5068145e-010 0 0)
(-0.00061229066 0.0060272207 0 -4.0572735e-011 0 0)
(-0.0006122907 0.0060272208 0 -7.592427e-012 0 0)
(-0.00061229068 0.00602722 0 -4.0546865e-012 0 0)
(-0.00061229069 0.0060272205 0 -5.7966783e-012 0 0)
(-0.00061229078 0.0060272203 0 -1.4079372e-011 0 0)
(-0.0006122908 0.0060272211 0 -5.1221757e-011 0 0)
(-0.00061229115 0.0060272215 0 -2.8659764e-011 0 0)
(-0.00061229141 0.0060272246 0 -3.8029897e-010 0 0)
(-0.00061228467 0.0060272221 0 -6.3736046e-009 0 0)
(-0.00061228957 0.0060272404 0 -6.1382103e-009 0 0)
(-0.0043604829 0.0046540281 0 0.002230551 0 0)
(-0.0021378705 0.011185142 0 0.00017053769 0 0)
(-0.0029662505 0.012670573 0 -0.00013114273 0 0)
(-0.002953175 0.013275469 0 -7.7802515e-005 0 0)
(-0.0031186891 0.01330554 0 -4.0562009e-005 0 0)
(-0.0031258378 0.013326798 0 -1.1341818e-005 0 0)
(-0.003142753 0.013323871 0 -3.7299141e-006 0 0)
(-0.0031442827 0.013324813 0 -7.321106e-007 0 0)
(-0.0031450187 0.013324308 0 -2.0738292e-007 0 0)
(-0.0031451396 0.013324184 0 -5.853716e-008 0 0)
(-0.0031451231 0.01332412 0 -1.3866146e-008 0 0)
(-0.0031451354 0.013324082 0 -1.9441786e-009 0 0)
(-0.0031451292 0.013324073 0 4.3058752e-010 0 0)
(-0.0031451274 0.013324069 0 3.9357649e-010 0 0)
(-0.0031451266 0.013324067 0 2.1891123e-010 0 0)
(-0.003145126 0.013324066 0 1.0607558e-010 0 0)
(-0.0031451259 0.013324066 0 4.755593e-011 0 0)
(-0.0031451258 0.013324066 0 9.2804838e-012 0 0)
(-0.0031451258 0.013324066 0 -2.9530293e-011 0 0)
(-0.0031451259 0.013324066 0 -7.402218e-011 0 0)
(-0.0031451258 0.013324066 0 -2.3086168e-010 0 0)
(-0.003145126 0.013324067 0 -5.3711362e-010 0 0)
(-0.0031451274 0.013324069 0 -1.2076124e-009 0 0)
(-0.0031451175 0.013324068 0 -8.550334e-009 0 0)
(-0.0031451199 0.013324072 0 -8.1601865e-009 0 0)
(-0.0043941839 0.011713148 0 5.2010468e-005 0 0)
(-0.0061092266 0.020204671 0 -0.0010037165 0 0)
(-0.008739115 0.021297421 0 -0.00018477895 0 0)
(-0.0087814366 0.021713978 0 -4.0460992e-005 0 0)
(-0.0089288338 0.021686296 0 -2.1797845e-005 0 0)
(-0.0089073659 0.021693247 0 -1.0560567e-005 0 0)
(-0.0089219664 0.021682071 0 -2.0414404e-006 0 0)
(-0.008920939 0.021681869 0 -3.116087e-007 0 0)
(-0.0089212094 0.021680936 0 4.0615218e-008 0 0)
(-0.0089210371 0.021680765 0 2.3597232e-008 0 0)
(-0.0089209235 0.021680686 0 9.5222644e-009 0 0)
(-0.0089209097 0.021680647 0 8.508046e-009 0 0)
(-0.008920892 0.02168064 0 3.3096278e-009 0 0)
(-0.0089208876 0.021680636 0 1.4804402e-009 0 0)
(-0.0089208857 0.021680635 0 6.1815183e-010 0 0)
(-0.0089208848 0.021680635 0 2.4026406e-010 0 0)
(-0.0089208845 0.021680634 0 9.9012178e-011 0 0)
(-0.0089208844 0.021680634 0 1.4619897e-011 0 0)
(-0.0089208843 0.021680635 0 -5.3476124e-011 0 0)
(-0.0089208844 0.021680634 0 -1.342388e-010 0 0)
(-0.0089208844 0.021680635 0 -3.2858057e-010 0 0)
(-0.0089208845 0.021680636 0 -9.3599936e-010 0 0)
(-0.0089208868 0.021680637 0 -1.7915791e-009 0 0)
(-0.008920878 0.021680637 0 -5.9692055e-009 0 0)
(-0.0089208662 0.021680621 0 -5.0375236e-009 0 0)
(-0.0094856554 0.021737271 0 -0.0019202103 0 0)
(-0.01385209 0.028337999 0 -0.0019402497 0 0)
(-0.017971204 0.028792948 0 -7.1138483e-005 0 0)
(-0.017622431 0.028920992 0 -3.6209838e-005 0 0)
(-0.017814611 0.028899904 0 3.6092041e-006 0 0)
(-0.0177305 0.028888723 0 -9.0972976e-006 0 0)
(-0.017746281 0.028878357 0 6.7850127e-007 0 0)
(-0.017740744 0.028877939 0 7.1555223e-008 0 0)
(-0.017740923 0.028877335 0 2.3923368e-007 0 0)
(-0.017740555 0.028877309 0 8.6728267e-008 0 0)
(-0.017740381 0.028877266 0 2.6046804e-008 0 0)
(-0.017740369 0.028877257 0 1.5311203e-008 0 0)
(-0.017740347 0.028877257 0 5.1192942e-009 0 0)
(-0.017740343 0.028877257 0 2.1176401e-009 0 0)
(-0.017740342 0.028877257 0 8.0935378e-010 0 0)
(-0.017740341 0.028877257 0 3.0107758e-010 0 0)
(-0.017740341 0.028877257 0 1.1686467e-010 0 0)
(-0.017740341 0.028877257 0 7.0927563e-012 0 0)
(-0.017740341 0.028877258 0 -8.273628e-011 0 0)
(-0.017740341 0.028877258 0 -2.1253347e-010 0 0)
(-0.017740341 0.028877258 0 -4.7965513e-010 0 0)
(-0.017740341 0.028877259 0 -1.4279953e-009 0 0)
(-0.017740346 0.028877261 0 -2.331618e-009 0 0)
(-0.017740347 0.028877266 0 -4.2950756e-009 0 0)
(-0.017740331 0.02887725 0 -2.4834719e-009 0 0)
(-0.033874208 0.040206199 0 -0.0062173071 0 0)
(-0.02944725 0.035273769 0 -0.0014322982 0 0)
(-0.038551694 0.038415601 0 -3.6620149e-005 0 0)
(-0.03621031 0.037398622 0 -2.5792876e-005 0 0)
(-0.036960458 0.037737747 0 1.2661767e-005 0 0)
(-0.036702151 0.037631386 0 -3.8624675e-006 0 0)
(-0.036756528 0.037653831 0 2.1149171e-006 0 0)
(-0.036744799 0.037650574 0 1.8382767e-007 0 0)
(-0.036746722 0.037651712 0 2.9570014e-007 0 0)
(-0.036746919 0.037652171 0 7.5434969e-008 0 0)
(-0.03674677 0.037652166 0 2.6275638e-008 0 0)
(-0.036746862 0.037652243 0 1.3295466e-008 0 0)
(-0.036746855 0.037652253 0 3.5166712e-009 0 0)
(-0.03674686 0.037652259 0 1.6054514e-009 0 0)
(-0.036746862 0.037652262 0 5.7335172e-010 0 0)
(-0.036746863 0.037652263 0 2.1212051e-010 0 0)
(-0.036746863 0.037652263 0 7.6207458e-011 0 0)
(-0.036746863 0.037652263 0 -1.6859946e-011 0 0)
(-0.036746863 0.037652263 0 -1.1914195e-010 0 0)
(-0.036746862 0.037652263 0 -2.9835916e-010 0 0)
(-0.036746861 0.037652263 0 -6.689138e-010 0 0)
(-0.036746856 0.037652262 0 -1.6570802e-009 0 0)
(-0.036746849 0.037652259 0 -4.5387455e-009 0 0)
(-0.036746849 0.037652263 0 -4.6558964e-009 0 0)
(-0.036746793 0.037652246 0 -7.7968661e-010 0 0)
(0.00010802811 0.00012259862 0 5.0997246e-005 0 0)
(-0.00030737704 -2.2210952e-005 0 2.5859509e-005 0 0)
(0.00012113944 -3.1016781e-005 0 7.1608687e-005 0 0)
(-0.00011010035 2.2412523e-005 0 1.634433e-005 0 0)
(-1.1601179e-005 -2.4803306e-005 0 4.0528814e-005 0 0)
(-2.7222334e-005 5.67354e-006 0 2.2130179e-005 0 0)
(-2.5216064e-005 4.1003879e-006 0 2.6066895e-005 0 0)
(-2.6615011e-005 1.3991076e-005 0 2.550649e-005 0 0)
(-2.9711752e-005 2.3548761e-005 0 2.9490911e-005 0 0)
(-3.6126897e-005 3.6395449e-005 0 3.5522291e-005 0 0)
(-4.6383447e-005 5.3966376e-005 0 4.5681146e-005 0 0)
(-6.0687461e-005 7.6821854e-005 0 5.96933e-005 0 0)
(-8.0924852e-005 0.00010851216 0 7.9509834e-005 0 0)
(-0.00010858096 0.00015248184 0 0.00010646431 0 0)
(-0.00014598063 0.00021450022 0 0.0001427049 0 0)
(-0.0001956973 0.00030287719 0 0.00019044359 0 0)
(-0.00026053924 0.00043188574 0 0.00025224594 0 0)
(-0.00034137721 0.00061767755 0 0.00032613274 0 0)
(-0.00043563046 0.0009080642 0 0.00041344731 0 0)
(-0.0005317557 0.0013228665 0 0.00048146323 0 0)
(-0.00054407703 0.0020807717 0 0.0005026326 0 0)
(-0.00054497907 0.0033322792 0 0.00021594992 0 0)
(0.0005997508 0.0057797972 0 -0.00072377754 0 0)
(0.0015768741 0.0068762017 0 -0.0029508015 0 0)
(0.0087171157 0.0028978214 0 -0.0090551256 0 0)
(0.00011983131 0.00010518783 0 5.8779061e-005 0 0)
(-0.00033412051 -1.8372029e-005 0 1.6164018e-005 0 0)
(0.0001295811 -2.8848973e-005 0 8.2930447e-005 0 0)
(-0.00010900901 1.3359503e-006 0 1.0514223e-005 0 0)
(-1.3576017e-005 -1.8381808e-005 0 3.5476695e-005 0 0)
(-1.8057699e-005 -1.5295175e-006 0 1.8973454e-005 0 0)
(-2.0129559e-005 4.7124594e-006 0 1.9469371e-005 0 0)
(-1.8863887e-005 1.4601034e-005 0 1.8203319e-005 0 0)
(-2.0225053e-005 2.6665367e-005 0 2.0178256e-005 0 0)
(-2.3846759e-005 4.1224542e-005 0 2.3572865e-005 0 0)
(-3.0016582e-005 6.1415088e-005 0 2.9705982e-005 0 0)
(-3.8590042e-005 8.7289674e-005 0 3.8144714e-005 0 0)
(-5.0415984e-005 0.00012254229 0 4.9714672e-005 0 0)
(-6.6191877e-005 0.00017152637 0 6.5117202e-005 0 0)
(-8.6173889e-005 0.00023903305 0 8.4398552e-005 0 0)
(-0.00011054402 0.00033379249 0 0.00010752612 0 0)
(-0.00013779238 0.00046801318 0 0.00013265755 0 0)
(-0.00016331517 0.00065676233 0 0.0001534775 0 0)
(-0.00017448184 0.00092962178 0 0.00015771754 0 0)
(-0.00014618667 0.0013033921 0 0.00010903407 0 0)
(-1.616895e-005 0.0018882099 0 -4.5387128e-005 0 0)
(0.00027267697 0.0026789376 0 -0.00057080381 0 0)
(0.0016916631 0.003990971 0 -0.0020235805 0 0)
(0.0041594208 0.0026377246 0 -0.0055786251 0 0)
(0.0054085253 -0.0039459202 0 -0.0080673729 0 0)
(0.00011750025 0.00010920605 0 5.6514687e-005 0 0)
(-0.00035169272 -1.8363952e-005 0 4.322378e-005 0 0)
(0.00013716337 -3.4102295e-005 0 6.2046858e-005 0 0)
(-0.00010511351 -1.1135752e-005 0 2.0971877e-005 0 0)
(-1.3469314e-005 -1.7874144e-005 0 2.3830196e-005 0 0)
(-1.0077691e-005 -5.2577266e-006 0 1.4640748e-005 0 0)
(-1.2906072e-005 4.1333381e-006 0 1.1637007e-005 0 0)
(-1.0246785e-005 1.5088948e-005 0 9.7387751e-006 0 0)
(-9.4368593e-006 2.8524458e-005 0 9.4811201e-006 0 0)
(-1.0272973e-005 4.4378677e-005 0 1.018414e-005 0 0)
(-1.2055895e-005 6.5405035e-005 0 1.188547e-005 0 0)
(-1.469507e-005 9.3825878e-005 0 1.449825e-005 0 0)