/*--------------------------------*- C++ -*----------------------------------*\
| =========                 |                                                 |
| \\      /  F ield         | OpenFOAM: The Open Source CFD Toolbox           |
|  \\    /   O peration     | Version:  5.x                                   |
|   \\  /    A nd           | Web:      www.OpenFOAM.org                      |
|    \\/     M anipulation  |                                                 |
\*---------------------------------------------------------------------------*/
/*   Windows 32 and 64 bit porting by blueCAPE: http://www.bluecape.com.pt   *\
|  Based on Windows porting (2.0.x v4) by Symscape: http://www.symscape.com   |
\*---------------------------------------------------------------------------*/
FoamFile
{
    version     2.0;
    format      ascii;
    class       volVectorField;
    location    "0.04";
    object      U;
}
// * * * * * * * * * * * * * * * * * * * * * * * * * * * * * * * * * * * * * //

dimensions      [0 1 -1 0 0 0 0];

internalField   nonuniform List<vector> 
750
(
(0.038575624 -4.0631231e-005 0)
(0.039533026 -3.6380743e-005 0)
(0.039271925 -2.6864064e-005 0)
(0.039858947 -3.0522855e-005 0)
(0.039834724 -2.1503464e-005 0)
(0.040152126 -2.4972515e-005 0)
(0.040260998 -2.0529649e-005 0)
(0.040465235 -2.2918337e-005 0)
(0.040634297 -2.4231722e-005 0)
(0.040848561 -2.9145274e-005 0)
(0.041100892 -3.6373257e-005 0)
(0.041428372 -4.7701125e-005 0)
(0.041862349 -6.4185597e-005 0)
(0.042452239 -8.8018445e-005 0)
(0.043266383 -0.00012239024 0)
(0.044404218 -0.0001722209 0)
(0.046013074 -0.00024480656 0)
(0.048303242 -0.00035409292 0)
(0.051669727 -0.00051567905 0)
(0.056481535 -0.0007825072 0)
(0.064194673 -0.0011618026 0)
(0.074771639 -0.0018738737 0)
(0.094457359 -0.0028704473 0)
(0.11987518 -0.0041742024 0)
(0.16347918 -0.004841664 0)
(0.038570822 -0.00011811022 0)
(0.039536081 -0.00011448108 0)
(0.039272688 -7.7031502e-005 0)
(0.03985968 -9.2414555e-005 0)
(0.039836567 -6.4614727e-005 0)
(0.040152184 -7.3609654e-005 0)
(0.040261449 -6.2338999e-005 0)
(0.040464325 -6.8011224e-005 0)
(0.040632689 -7.2742473e-005 0)
(0.040845486 -8.7015309e-005 0)
(0.041096232 -0.00010878505 0)
(0.04142144 -0.00014258299 0)
(0.041852276 -0.00019182736 0)
(0.042437719 -0.00026301474 0)
(0.043245431 -0.00036563439 0)
(0.044373776 -0.00051427165 0)
(0.045967754 -0.00073101368 0)
(0.048236542 -0.0010563799 0)
(0.051567736 -0.0015391929 0)
(0.056318508 -0.0023234212 0)
(0.063930216 -0.0034744782 0)
(0.074340702 -0.0055489087 0)
(0.093860076 -0.0086675338 0)
(0.11935519 -0.012606733 0)
(0.16453532 -0.015073513 0)
(0.03856349 -0.00019491509 0)
(0.039541013 -0.00019397464 0)
(0.039274319 -0.0001267479 0)
(0.039861173 -0.00015418352 0)
(0.039840082 -0.00010830564 0)
(0.040152524 -0.00012134546 0)
(0.040262314 -0.00010444338 0)
(0.040462636 -0.00011245722 0)
(0.040629484 -0.00012101483 0)
(0.040839445 -0.00014428601 0)
(0.041086973 -0.00018055925 0)
(0.041407655 -0.00023651329 0)
(0.04183223 -0.00031814648 0)
(0.04240881 -0.00043612669 0)
(0.043203699 -0.00060610595 0)
(0.044312999 -0.00085210958 0)
(0.045877853 -0.0012109393 0)
(0.048102336 -0.0017483619 0)
(0.051361732 -0.0025471202 0)
(0.055995606 -0.0038311942 0)
(0.063395891 -0.0057478058 0)
(0.07347981 -0.0091437185 0)
(0.0926708 -0.014485577 0)
(0.11817308 -0.021234878 0)
(0.16581045 -0.025980566 0)
(0.038554069 -0.00027379586 0)
(0.039546936 -0.0002710597 0)
(0.039276627 -0.00017907791 0)
(0.039863529 -0.0002147361 0)
(0.039845141 -0.00015280903 0)
(0.040153333 -0.00016852782 0)
(0.040263623 -0.00014624135 0)
(0.040460214 -0.00015629705 0)
(0.040624716 -0.0001685847 0)
(0.040830515 -0.00020062305 0)
(0.041073183 -0.0002511174 0)
(0.04138711 -0.00032874436 0)
(0.041802364 -0.00044209879 0)
(0.042365749 -0.00060583919 0)
(0.043141549 -0.00084158135 0)
(0.044222447 -0.0011824138 0)
(0.045744396 -0.0016793262 0)
(0.047901876 -0.0024221338 0)
(0.051053892 -0.0035258826 0)
(0.055517538 -0.0052893692 0)
(0.062600211 -0.0079393154 0)
(0.072215406 -0.012636588 0)
(0.090893187 -0.020249991 0)
(0.11607357 -0.030154234 0)
(0.16571759 -0.037604992 0)
(0.038541053 -0.00035288706 0)
(0.039553311 -0.00034831302 0)
(0.039279655 -0.00023194142 0)
(0.039866606 -0.00027508727 0)
(0.039851836 -0.00019712035 0)
(0.040154624 -0.00021523438 0)
(0.040265361 -0.000187439 0)
(0.040457072 -0.00019934721 0)
(0.040618406 -0.00021515104 0)
(0.040818741 -0.0002556751 0)
(0.04105493 -0.00031995849 0)
(0.041359926 -0.00041864406 0)
(0.041762869 -0.00056278 0)
(0.042308839 -0.00077084942 0)
(0.043059483 -0.0010701527 0)
(0.044103009 -0.0015023431 0)
(0.045568696 -0.0021317193 0)
(0.047637897 -0.0030704063 0)
(0.050647906 -0.0044640021 0)
(0.054888342 -0.0066779471 0)
(0.061553835 -0.010015467 0)
(0.070571475 -0.01599038 0)
(0.088484624 -0.025870221 0)
(0.11268535 -0.039163669 0)
(0.1625818 -0.049573432 0)
(0.038521565 -0.00043057904 0)
(0.039559739 -0.00042829546 0)
(0.039283751 -0.00028404643 0)
(0.039869937 -0.00033624416 0)
(0.039860537 -0.00024083402 0)
(0.040156287 -0.00026145039 0)
(0.040267526 -0.00022784123 0)
(0.040453242 -0.00024137393 0)
(0.040610596 -0.0002604516 0)
(0.040804199 -0.00030908059 0)
(0.041032327 -0.00038663382 0)
(0.041326287 -0.00050558429 0)
(0.041714037 -0.00067930726 0)
(0.042238524 -0.00092992325 0)
(0.042958219 -0.0012900238 0)
(0.043955892 -0.0018092378 0)
(0.045352656 -0.0025639735 0)
(0.047313695 -0.0036866784 0)
(0.050148886 -0.0053503063 0)
(0.05411444 -0.0079780226 0)
(0.060265877 -0.011944415 0)
(0.068520849 -0.019140298 0)
(0.085344495 -0.031202486 0)
(0.10757534 -0.047841214 0)
(0.15535542 -0.060993689 0)
(0.038493206 -0.00050586848 0)
(0.039566125 -0.00051228348 0)
(0.039289075 -0.00033535398 0)
(0.03987329 -0.00039844223 0)
(0.039871623 -0.00028413609 0)
(0.040158218 -0.00030694019 0)
(0.040270149 -0.0002673182 0)
(0.040448787 -0.00028215275 0)
(0.040601346 -0.00030422525 0)
(0.040787009 -0.0003604944 0)
(0.041005549 -0.00045069584 0)
(0.041286409 -0.00058895091 0)
(0.041656218 -0.00079082555 0)
(0.042155328 -0.0010818596 0)
(0.042838564 -0.0014994651 0)
(0.043782432 -0.0021005637 0)
(0.045098405 -0.0029722839 0)
(0.046933607 -0.0042650761 0)
(0.049565646 -0.0061752921 0)
(0.053206568 -0.0091729398 0)
(0.058761092 -0.013701873 0)
(0.066071397 -0.022035463 0)
(0.081401405 -0.036080977 0)
(0.10047329 -0.055796779 0)
(0.1445753 -0.070419789 0)
(0.038455295 -0.00057795637 0)
(0.039573042 -0.00060048162 0)
(0.039295552 -0.00038648583 0)
(0.03987694 -0.00046118203 0)
(0.039885313 -0.00032722237 0)
(0.040160307 -0.00035143505 0)
(0.040273328 -0.00030571991 0)
(0.04044379 -0.00032148594 0)
(0.040590742 -0.00034620337 0)
(0.040767311 -0.00040958745 0)
(0.040974836 -0.00051167919 0)
(0.041240572 -0.00066813846 0)
(0.041589842 -0.00089651809 0)
(0.042059927 -0.0012254788 0)
(0.042701533 -0.0016967751 0)
(0.043584189 -0.0023738095 0)
(0.044808566 -0.0033527744 0)
(0.046501846 -0.0047994025 0)
(0.048906487 -0.0069283332 0)
(0.052175921 -0.010244328 0)
(0.057066191 -0.015242731 0)
(0.063237911 -0.024577058 0)
(0.076580206 -0.040300624 0)
(0.09125942 -0.062776543 0)
(0.13223915 -0.077168719 0)
(0.038409452 -0.00064812653 0)
(0.03958137 -0.00069051879 0)
(0.0393029 -0.00044103324 0)
(0.039882096 -0.00052322737 0)
(0.039901381 -0.00037030927 0)
(0.040162634 -0.0003948732 0)
(0.040277263 -0.00034288818 0)
(0.040438344 -0.00035914079 0)
(0.040578912 -0.00038612968 0)
(0.040745288 -0.0004560132 0)
(0.040940482 -0.00056912065 0)
(0.041189185 -0.00074255935 0)
(0.041515505 -0.00099557092 0)
(0.041953252 -0.0013596251 0)
(0.042548551 -0.0018803267 0)
(0.043363411 -0.0026266682 0)
(0.044486717 -0.0037022745 0)
(0.046024884 -0.0052853458 0)
(0.048182048 -0.0076027285 0)
(0.051042005 -0.011181811 0)
(0.055214977 -0.016538228 0)
(0.060075874 -0.026668746 0)
(0.070802651 -0.043548091 0)
(0.080142061 -0.06841816 0)
(0.11776461 -0.080708397 0)
(0.03835799 -0.00071570446 0)
(0.039591492 -0.00078398882 0)
(0.039311263 -0.00049784287 0)
(0.039890423 -0.00058551746 0)
(0.039919395 -0.00041327338 0)
(0.040165552 -0.00043655893 0)
(0.040282233 -0.00037913299 0)
(0.040432578 -0.00039467372 0)
(0.040566051 -0.00042385888 0)
(0.04072114 -0.00049950279 0)
(0.040902795 -0.00062274754 0)
(0.041132828 -0.00081176988 0)
(0.041433976 -0.0010874349 0)
(0.041836439 -0.0014835999 0)
(0.042381382 -0.0020491754 0)
(0.043122956 -0.0028577834 0)
(0.044137234 -0.0040189633 0)
(0.045510426 -0.0057191463 0)
(0.047402859 -0.0081924287 0)
(0.049836824 -0.011972922 0)
(0.053262837 -0.017583429 0)
(0.056745267 -0.028217369 0)
(0.064311608 -0.04583838 0)
(0.067226603 -0.072916128 0)
(0.096900313 -0.080810483 0)
(0.19678728 -0.0023802559 0)
(0.20489578 -0.00085965186 0)
(0.20915851 -0.00021238031 0)
(0.20868112 -1.2586493e-005 0)
(0.20895383 -7.2302558e-006 0)
(0.20885666 2.2087359e-006 0)
(0.20887853 3.5135141e-007 0)
(0.20886447 7.6428411e-007 0)
(0.20886216 2.6477347e-007 0)
(0.20886103 1.09231e-007 0)
(0.2088603 4.7281695e-008 0)
(0.20886023 1.2791925e-008 0)
(0.20886014 6.2983672e-009 0)
(0.20886012 2.0272519e-009 0)
(0.20886011 6.8147078e-010 0)
(0.20886011 2.6921878e-010 0)
(0.20886011 9.2357889e-011 0)
(0.20886011 3.3877897e-011 0)
(0.20886011 7.32955e-014 0)
(0.20886011 -1.755555e-011 0)
(0.20886011 6.9463761e-011 0)
(0.2088601 2.9942196e-010 0)
(0.2088601 2.485404e-010 0)
(0.2088601 8.2405281e-010 0)
(0.20886008 1.1118064e-009 0)
(0.19965229 -0.0072381514 0)
(0.20811538 -0.0026603965 0)
(0.21207088 -0.00052208705 0)
(0.21135822 -3.1639156e-005 0)
(0.21154234 -1.2337478e-006 0)
(0.2114373 3.2078966e-006 0)
(0.2114597 2.0641832e-006 0)
(0.21144631 1.9665341e-006 0)
(0.21144376 8.7087746e-007 0)
(0.21144263 3.3533638e-007 0)
(0.21144192 1.2782181e-007 0)
(0.21144187 4.0999283e-008 0)
(0.21144178 1.7100873e-008 0)
(0.21144177 5.9779482e-009 0)
(0.21144176 1.9867973e-009 0)
(0.21144176 7.1564095e-010 0)
(0.21144175 2.523632e-010 0)
(0.21144175 8.5274206e-011 0)
(0.21144175 4.6379469e-012 0)
(0.21144175 -2.1713048e-011 0)
(0.21144175 1.7031079e-010 0)
(0.21144175 6.7194462e-010 0)
(0.21144175 5.8849113e-010 0)
(0.21144175 2.9898757e-009 0)
(0.21144172 4.0831959e-009 0)
(0.20362008 -0.012338928 0)
(0.2124064 -0.0045380681 0)
(0.21595527 -0.00071385328 0)
(0.21488758 -1.4600986e-005 0)
(0.21495331 2.5899401e-005 0)
(0.21483177 3.5719611e-006 0)
(0.21485572 4.2935535e-006 0)
(0.2148431 2.9070911e-006 0)
(0.21484057 1.5339189e-006 0)
(0.2148395 5.5765873e-007 0)
(0.21483886 1.9647065e-007 0)
(0.21483884 6.8788668e-008 0)
(0.21483876 2.5941968e-008 0)
(0.21483874 9.6012988e-009 0)
(0.21483874 3.1381034e-009 0)
(0.21483874 1.0680285e-009 0)
(0.21483874 3.8706551e-010 0)
(0.21483874 1.2228817e-010 0)
(0.21483874 1.3725375e-011 0)
(0.21483874 -1.0889711e-011 0)
(0.21483874 2.3283139e-010 0)
(0.21483874 8.2790627e-010 0)
(0.21483874 1.1910447e-009 0)
(0.21483873 7.4637305e-009 0)
(0.21483868 9.1788901e-009 0)
(0.20526576 -0.017774339 0)
(0.21336304 -0.0064255665 0)
(0.2165834 -0.00080186369 0)
(0.2152408 6.3166308e-005 0)
(0.2152518 6.9984478e-005 0)
(0.21511382 6.1630854e-006 0)
(0.21513977 6.2485409e-006 0)
(0.21512818 3.6850781e-006 0)
(0.21512639 2.1605522e-006 0)
(0.21512556 7.5177501e-007 0)
(0.21512506 2.5102925e-007 0)
(0.21512507 9.0644239e-008 0)
(0.21512501 3.2471382e-008 0)
(0.215125 1.2331098e-008 0)
(0.215125 3.9645983e-009 0)
(0.215125 1.3144449e-009 0)
(0.215125 4.8385607e-010 0)
(0.215125 1.4582155e-010 0)
(0.215125 1.7276338e-011 0)
(0.215125 -2.9996297e-012 0)
(0.215125 2.5729476e-010 0)
(0.215125 8.080572e-010 0)
(0.215125 2.1357782e-009 0)
(0.21512499 1.6835534e-008 0)
(0.21512491 1.8832177e-008 0)
(0.20026027 -0.023047364 0)
(0.20502123 -0.0081187591 0)
(0.20806081 -0.00082667134 0)
(0.20668089 0.00015881285 0)
(0.20677931 0.0001181514 0)
(0.20663335 9.4870923e-006 0)
(0.20666213 7.9705287e-006 0)
(0.20665193 4.0954445e-006 0)
(0.20665186 2.6209233e-006 0)
(0.20665154 8.7264332e-007 0)
(0.20665124 2.8045486e-007 0)
(0.20665132 1.0285539e-007 0)
(0.20665129 3.5350321e-008 0)
(0.20665129 1.3641323e-008 0)
(0.20665129 4.2868552e-009 0)
(0.20665129 1.3934252e-009 0)
(0.20665129 5.0455978e-010 0)
(0.20665129 1.4677422e-010 0)
(0.20665129 2.868316e-011 0)
(0.20665129 2.5719736e-011 0)
(0.20665129 2.9882767e-010 0)
(0.20665129 7.7958323e-010 0)
(0.20665129 3.1868584e-009 0)
(0.20665128 2.9719488e-008 0)
(0.20665119 3.178824e-008 0)
(0.18507621 -0.027000203 0)
(0.18240593 -0.0091916236 0)
(0.18529117 -0.00083177375 0)
(0.18410249 0.00020636077 0)
(0.18442775 0.00014942434 0)
(0.18428396 1.1488362e-005 0)
(0.18431894 9.4432886e-006 0)
(0.18431022 3.9012639e-006 0)
(0.18431269 2.7636473e-006 0)
(0.18431311 8.6679909e-007 0)
(0.18431307 2.7305783e-007 0)
(0.18431323 1.017328e-007 0)
(0.18431323 3.3215165e-008 0)
(0.18431324 1.3051958e-008 0)
(0.18431324 3.9469641e-009 0)
(0.18431325 1.2496277e-009 0)
(0.18431325 4.5692745e-010 0)
(0.18431325 1.2471916e-010 0)
(0.18431325 3.3085517e-011 0)
(0.18431325 7.0056443e-011 0)
(0.18431325 3.9412849e-010 0)
(0.18431324 9.0967716e-010 0)
(0.18431325 4.0478227e-009 0)
(0.18431324 4.0431986e-008 0)
(0.18431319 4.2383302e-008 0)
(0.15900878 -0.028247061 0)
(0.14486126 -0.0090528458 0)
(0.14736193 -0.00080916509 0)
(0.14637509 0.00016924044 0)
(0.14698599 0.00014751508 0)
(0.14684328 1.0843065e-005 0)
(0.14689244 1.009087e-005 0)
(0.14688384 3.0318021e-006 0)
(0.14688931 2.4962717e-006 0)
(0.14689043 7.0636195e-007 0)
(0.14689063 2.255555e-007 0)
(0.14689087 8.5282939e-008 0)
(0.14689089 2.5667268e-008 0)
(0.14689091 1.049284e-008 0)
(0.14689092 2.9493099e-009 0)
(0.14689092 8.9835515e-010 0)
(0.14689092 3.1756695e-010 0)
(0.14689092 7.7192232e-011 0)
(0.14689092 4.8981234e-011 0)
(0.14689092 1.1796269e-010 0)
(0.14689092 5.1999298e-010 0)
(0.14689092 1.2642379e-009 0)
(0.14689092 4.1651607e-009 0)
(0.14689092 4.2710117e-008 0)
(0.14689095 4.4519952e-008 0)
(0.12414809 -0.02504003 0)
(0.097574174 -0.0072986412 0)
(0.099404208 -0.0006777867 0)
(0.098293219 7.852047e-005 0)
(0.099152127 0.00011414582 0)
(0.098991441 7.0443748e-006 0)
(0.099064561 9.1249683e-006 0)
(0.099052626 1.7073602e-006 0)
(0.099061131 1.8551759e-006 0)
(0.099062418 4.3682182e-007 0)
(0.099062754 1.5002565e-007 0)
(0.099063051 5.7030866e-008 0)
(0.099063072 1.4907262e-008 0)
(0.099063104 6.7098124e-009 0)
(0.099063112 1.6268706e-009 0)
(0.099063113 4.6787152e-010 0)
(0.099063114 1.6221241e-010 0)
(0.099063114 2.5805572e-011 0)
(0.099063114 3.8875448e-011 0)
(0.099063114 1.1281898e-010 0)
(0.099063115 5.3128324e-010 0)
(0.099063114 1.4426352e-009 0)
(0.099063119 3.1958367e-009 0)
(0.09906312 3.426263e-008 0)
(0.099063222 3.5877494e-008 0)
(0.083432578 -0.017131856 0)
(0.049922626 -0.0041368528 0)
(0.051133505 -0.00035232414 0)
(0.049611511 -1.0856085e-005 0)
(0.050577929 6.1860219e-005 0)
(0.050381833 6.7239867e-007 0)
(0.050478444 5.8426493e-006 0)
(0.050460052 4.7590248e-007 0)
(0.05047055 9.7070706e-007 0)
(0.050471177 1.633879e-007 0)
(0.050471521 6.883341e-008 0)
(0.050471803 2.5020991e-008 0)
(0.050471802 5.1712872e-009 0)
(0.050471833 2.8545537e-009 0)
(0.050471837 4.9263596e-010 0)
(0.050471838 1.3016967e-010 0)
(0.050471839 3.4759773e-011 0)
(0.050471838 -1.7201907e-011 0)
(0.050471838 7.9656512e-014 0)
(0.050471838 1.3687106e-011 0)
(0.05047184 2.4662993e-010 0)
(0.05047184 8.8697605e-010 0)
(0.050471849 1.4414608e-009 0)
(0.050471849 1.7742105e-008 0)
(0.050471986 1.9005672e-008 0)
(0.037019912 -0.0081068091 0)
(0.012029757 -0.0005925138 0)
(0.013658706 -0.00014259922 0)
(0.012111116 -1.8051388e-006 0)
(0.012854268 1.0376941e-006 0)
(0.012671734 1.172007e-006 0)
(0.012754267 5.2602329e-007 0)
(0.012736046 -7.0744431e-008 0)
(0.012743948 1.1346613e-007 0)
(0.012743696 -2.7894272e-008 0)
(0.0127439 5.719389e-009 0)
(0.012744057 -2.2231926e-009 0)
(0.012744036 -1.093817e-009 0)
(0.012744054 -1.4033288e-010 0)
(0.012744054 -2.4166591e-010 0)
(0.012744054 -7.1235759e-011 0)
(0.012744054 -3.8420725e-011 0)
(0.012744054 -2.5289497e-011 0)
(0.012744054 -8.3921292e-012 0)
(0.012744054 -1.2101599e-011 0)
(0.012744054 1.0592186e-010 0)
(0.012744054 4.7542379e-010 0)
(0.012744061 4.0018269e-010 0)
(0.012744058 3.973708e-009 0)
(0.012744144 4.478915e-009 0)
(0.038243516 -0.00084789976 0)
(0.039616849 -0.00096851211 0)
(0.039335857 -0.00062333218 0)
(0.039910334 -0.00070304005 0)
(0.039961468 -0.00050603983 0)
(0.040173219 -0.00051159204 0)
(0.04029427 -0.00045115689 0)
(0.040421038 -0.00046049717 0)
(0.040538697 -0.00049466126 0)
(0.040669156 -0.00058014015 0)
(0.040821358 -0.00072197792 0)
(0.041011336 -0.00093911656 0)
(0.041258133 -0.0012559532 0)
(0.041584799 -0.0017100245 0)
(0.042022036 -0.0023556398 0)
(0.042607813 -0.0032734394 0)
(0.043390503 -0.0045822067 0)
(0.044417747 -0.0064735025 0)
(0.045759314 -0.0091941594 0)
(0.047359375 -0.013229191 0)
(0.049283314 -0.019145488 0)
(0.050405483 -0.029900816 0)
(0.052003627 -0.047946711 0)
(0.041945978 -0.075379753 0)
(0.037400065 -0.0657511 0)
(0.038158279 -0.0010685063 0)
(0.039685512 -0.0012133795 0)
(0.039413553 -0.00088608288 0)
(0.039971438 -0.00084373576 0)
(0.040043658 -0.00066130123 0)
(0.040209315 -0.00060174076 0)
(0.040316281 -0.00054313773 0)
(0.04040839 -0.00053738989 0)
(0.040492267 -0.00057492881 0)
(0.040579156 -0.00066857623 0)
(0.040677725 -0.0008284765 0)
(0.040796828 -0.001073437 0)
(0.040948568 -0.0014308093 0)
(0.041144197 -0.001940193 0)
(0.041397909 -0.0026590034 0)
(0.041723994 -0.0036700385 0)
(0.042133573 -0.0050921282 0)
(0.042623484 -0.0071015207 0)
(0.043169898 -0.0099326113 0)
(0.043652157 -0.013929473 0)
(0.043881728 -0.019553499 0)
(0.043012344 -0.028575732 0)
(0.040265169 -0.042472763 0)
(0.026889929 -0.058519406 0)
(0.0085714358 -0.039141112 0)
(0.038153078 -0.0013221305 0)
(0.03979759 -0.0014968297 0)
(0.039535556 -0.0011448995 0)
(0.040068058 -0.00098504801 0)
(0.040143212 -0.00078755667 0)
(0.040263419 -0.00067900999 0)
(0.040342455 -0.00060751985 0)
(0.040397001 -0.00058866982 0)
(0.040440432 -0.00062304962 0)
(0.0404789 -0.0007182207 0)
(0.040517768 -0.00088529938 0)
(0.040560506 -0.0011420891 0)
(0.040609376 -0.0015162413 0)
(0.040666224 -0.0020473396 0)
(0.040728636 -0.0027908269 0)
(0.04078972 -0.0038254214 0)
(0.040830374 -0.005259916 0)
(0.040806943 -0.0072455874 0)
(0.040634178 -0.0099797178 0)
(0.040137717 -0.013706437 0)
(0.039030242 -0.018761906 0)
(0.036611529 -0.026069982 0)
(0.031713284 -0.036490955 0)
(0.019098679 -0.04673386 0)
(0.0022071217 -0.03287286 0)
(0.038182613 -0.0016340972 0)
(0.03993471 -0.0018226581 0)
(0.039689639 -0.0013972702 0)
(0.040191423 -0.0011193635 0)
(0.040245831 -0.00088404578 0)
(0.04031811 -0.00073320621 0)
(0.040357499 -0.0006417603 0)
(0.040369911 -0.00060948681 0)
(0.040368554 -0.0006361287 0)
(0.040356032 -0.00072628813 0)
(0.040333386 -0.0008893607 0)
(0.040297994 -0.0011421185 0)
(0.040244015 -0.0015103055 0)
(0.040163121 -0.0020300363 0)
(0.040039962 -0.0027527092 0)
(0.039849 -0.0037477255 0)
(0.039548618 -0.0051084291 0)
(0.039067972 -0.0069569053 0)
(0.038287455 -0.0094430519 0)
(0.037012571 -0.012730105 0)
(0.034933495 -0.017022402 0)
(0.031503815 -0.022790183 0)
(0.025779221 -0.030347839 0)
(0.015329455 -0.036477664 0)
(0.0017115533 -0.025914758 0)
(0.038240994 -0.0020184383 0)
(0.040130705 -0.0022023729 0)
(0.039913479 -0.0016379171 0)
(0.040366438 -0.0012343519 0)
(0.040375413 -0.0009433989 0)
(0.040390177 -0.00075389614 0)
(0.040379887 -0.00064188642 0)
(0.040345806 -0.00059637348 0)
(0.04029749 -0.00061266771 0)
(0.040233994 -0.00069186215 0)
(0.040151463 -0.00084160476 0)
(0.040040568 -0.0010756374 0)
(0.039889849 -0.0014162665 0)
(0.039681077 -0.0018954269 0)
(0.039388115 -0.0025571107 0)
(0.038971712 -0.0034598006 0)
(0.038374339 -0.0046784012 0)
(0.0375091 -0.0063060938 0)
(0.036243919 -0.0084484361 0)
(0.034387419 -0.01120325 0)
(0.031659354 -0.014673078 0)
(0.027640566 -0.01911031 0)
(0.021697248 -0.024583478 0)
(0.012834372 -0.028297722 0)
(0.0018429608 -0.02010133 0)
(0.038503117 -0.0025178098 0)
(0.040699885 -0.0026374487 0)
(0.040513618 -0.0018523949 0)
(0.04086746 -0.0013046302 0)
(0.04079357 -0.00095228475 0)
(0.04073487 -0.0007313391 0)
(0.040665468 -0.00060351782 0)
(0.040581211 -0.00054742074 0)
(0.040485481 -0.00055269014 0)
(0.04037294 -0.00061689336 0)
(0.040233979 -0.00074480071 0)
(0.040054059 -0.00094720645 0)
(0.039815393 -0.001242133 0)
(0.039492499 -0.0016556192 0)
(0.039049812 -0.0022231013 0)
(0.038439121 -0.0029911873 0)
(0.037591577 -0.004016419 0)
(0.036411961 -0.0053659089 0)
(0.034767139 -0.0071095362 0)
(0.032479509 -0.0092987046 0)
(0.029315848 -0.01197344 0)
(0.024961171 -0.015272468 0)
(0.019010047 -0.019193556 0)
(0.01104587 -0.021458911 0)
(0.0017073117 -0.014995061 0)
(0.039445227 -0.0036067645 0)
(0.04221965 -0.0032743885 0)
(0.041964075 -0.0020212246 0)
(0.042108042 -0.0012930278 0)
(0.041899706 -0.00089109884 0)
(0.041747381 -0.00065509312 0)
(0.041609924 -0.00052225707 0)
(0.041472831 -0.00046131789 0)
(0.041330352 -0.00045674514 0)
(0.04117137 -0.00050310682 0)
(0.040979974 -0.00060208424 0)
(0.040737199 -0.00076149641 0)
(0.040419318 -0.00099449597 0)
(0.039994081 -0.001320697 0)
(0.039419835 -0.0017663105 0)
(0.038639529 -0.0023645749 0)
(0.037577353 -0.0031558755 0)
(0.036133799 -0.0041848618 0)
(0.034177857 -0.005493799 0)
(0.031547692 -0.0071049861 0)
(0.028052595 -0.0090262066 0)
(0.023455716 -0.011336065 0)
(0.01747505 -0.014005471 0)
(0.0099521223 -0.015344992 0)
(0.0014761867 -0.010504523 0)
(0.041002247 -0.0061100435 0)
(0.043983729 -0.0041511941 0)
(0.043132681 -0.0020113282 0)
(0.042888227 -0.0011116294 0)
(0.042488803 -0.00072411821 0)
(0.042223118 -0.00051224047 0)
(0.042012268 -0.00039465525 0)
(0.041824467 -0.00033887494 0)
(0.041641011 -0.0003278551 0)
(0.041443441 -0.00035521388 0)
(0.041210828 -0.00042026925 0)
(0.040920156 -0.00052780769 0)
(0.040542599 -0.00068590528 0)
(0.040042164 -0.00090728022 0)
(0.039371597 -0.0012088932 0)
(0.038469218 -0.0016113305 0)
(0.037256748 -0.0021393916 0)
(0.035633372 -0.0028190724 0)
(0.033473618 -0.0036721455 0)
(0.030632196 -0.004704224 0)
(0.026952704 -0.0059099427 0)
(0.022255285 -0.0073301326 0)
(0.016325055 -0.0089293035 0)
(0.0091189273 -0.0095983914 0)
(0.0012538907 -0.0064055029 0)
(0.039880179 -0.0088621054 0)
(0.041019571 -0.00381238 0)
(0.038605603 -0.0013837251 0)
(0.037936872 -0.00067185867 0)
(0.037358403 -0.00043309911 0)
(0.037002806 -0.00030149551 0)
(0.036741924 -0.0002259512 0)
(0.036527065 -0.00018850831 0)
(0.03632959 -0.00017759958 0)
(0.036125508 -0.00018854153 0)
(0.03589217 -0.00022000604 0)
(0.035605389 -0.00027387784 0)
(0.035237123 -0.00035396075 0)
(0.034752638 -0.00046628959 0)
(0.034107616 -0.00061858215 0)
(0.033246233 -0.00082112026 0)
(0.0320977 -0.0010849176 0)
(0.030574487 -0.0014209057 0)
(0.028571373 -0.0018370015 0)
(0.025973114 -0.0023321871 0)
(0.022665275 -0.002897606 0)
(0.018522124 -0.003547352 0)
(0.013387758 -0.0042401141 0)
(0.0073076912 -0.0044203979 0)
(0.00086499324 -0.0028890749 0)
(0.026272564 -0.010262638 0)
(0.024295549 -0.0026103548 0)
(0.020925619 -0.00024578974 0)
(0.020740676 -0.00013726315 0)
(0.020279564 -9.2198546e-005 0)
(0.019999148 -6.074583e-005 0)
(0.019799211 -4.3564793e-005 0)
(0.019640987 -3.0838905e-005 0)
(0.019504604 -2.3078287e-005 0)
(0.019370427 -1.9552919e-005 0)
(0.019222604 -1.842178e-005 0)
(0.019045685 -1.9557534e-005 0)
(0.018822056 -2.2866409e-005 0)
(0.018530736 -2.8284035e-005 0)
(0.018145923 -3.6032882e-005 0)
(0.0176355 -4.626061e-005 0)
(0.01695985 -5.8950095e-005 0)
(0.016071749 -7.3692994e-005 0)
(0.014916971 -8.9409293e-005 0)
(0.013439249 -0.00010387337 0)
(0.011591746 -0.00011361263 0)
(0.009321033 -0.0001185135 0)
(0.0065851557 -8.714371e-005 0)
(0.0035389857 7.8717977e-007 0)
(0.0004309401 -0.00010184386 0)
)
;

boundaryField
{
    inlet
    {
        type            fixedValue;
        value           uniform (0.03876 0 0);
    }
    walls
    {
        type            fixedValue;
        value           uniform (0 0 0);
    }
    outlet
    {
        type            zeroGradient;
    }
    centreline
    {
        type            symmetryPlane;
    }
    frontAndBack
    {
        type            empty;
    }
}


// ************************************************************************* //
