/*--------------------------------*- C++ -*----------------------------------*\
| =========                 |                                                 |
| \\      /  F ield         | OpenFOAM: The Open Source CFD Toolbox           |
|  \\    /   O peration     | Version:  5.x                                   |
|   \\  /    A nd           | Web:      www.OpenFOAM.org                      |
|    \\/     M anipulation  |                                                 |
\*---------------------------------------------------------------------------*/
/*   Windows 32 and 64 bit porting by blueCAPE: http://www.bluecape.com.pt   *\
|  Based on Windows porting (2.0.x v4) by Symscape: http://www.symscape.com   |
\*---------------------------------------------------------------------------*/
FoamFile
{
    version     2.0;
    format      ascii;
    class       volVectorField;
    location    "0.04";
    object      U_0;
}
// * * * * * * * * * * * * * * * * * * * * * * * * * * * * * * * * * * * * * //

dimensions      [0 1 -1 0 0 0 0];

internalField   nonuniform List<vector> 
750
(
(0.038569233 -4.0398486e-005 0)
(0.039534941 -3.6195308e-005 0)
(0.039263923 -2.65117e-005 0)
(0.039854238 -3.0425639e-005 0)
(0.039825997 -2.1297407e-005 0)
(0.040143637 -2.4881691e-005 0)
(0.040251085 -2.0421169e-005 0)
(0.040454882 -2.2852736e-005 0)
(0.040623395 -2.4176636e-005 0)
(0.040837305 -2.9106525e-005 0)
(0.04108938 -3.6344368e-005 0)
(0.041416655 -4.7678195e-005 0)
(0.04185047 -6.4164631e-005 0)
(0.04244019 -8.7993929e-005 0)
(0.043254119 -0.00012235418 0)
(0.044391591 -0.00017216291 0)
(0.0459999 -0.0002447048 0)
(0.04828899 -0.00035392137 0)
(0.051653827 -0.00051536831 0)
(0.056462339 -0.00078198034 0)
(0.064170456 -0.0011608658 0)
(0.074737703 -0.0018719232 0)
(0.094401915 -0.002865996 0)
(0.11977152 -0.0041668245 0)
(0.16330986 -0.0048294703 0)
(0.038564323 -0.00011741092 0)
(0.039537988 -0.00011388291 0)
(0.039264675 -7.6055266e-005 0)
(0.039854941 -9.2080878e-005 0)
(0.039827841 -6.4036045e-005 0)
(0.040143673 -7.3309202e-005 0)
(0.040251528 -6.2030646e-005 0)
(0.04045396 -6.7806893e-005 0)
(0.04062178 -7.2580787e-005 0)
(0.040834224 -8.6898603e-005 0)
(0.041084717 -0.00010869903 0)
(0.041409721 -0.00014251453 0)
(0.041840398 -0.0001917649 0)
(0.042425673 -0.00026294205 0)
(0.043233175 -0.00036552771 0)
(0.044361165 -0.00051409834 0)
(0.04595461 -0.00073071454 0)
(0.048222335 -0.0010558585 0)
(0.051551912 -0.001538288 0)
(0.05629947 -0.0023218264 0)
(0.063906348 -0.0034717567 0)
(0.074307198 -0.0055430316 0)
(0.093805365 -0.008654532 0)
(0.1192542 -0.012585402 0)
(0.16438105 -0.01503903 0)
(0.038556862 -0.00019375209 0)
(0.039542914 -0.0001929332 0)
(0.039266278 -0.00012518879 0)
(0.039856383 -0.0001535868 0)
(0.039831349 -0.00010737775 0)
(0.040143971 -0.0001208203 0)
(0.040252376 -0.00010394485 0)
(0.040452248 -0.00011211053 0)
(0.040618561 -0.00012074907 0)
(0.04082817 -0.00014409157 0)
(0.04107545 -0.00018041675 0)
(0.041395932 -0.00023640009 0)
(0.041820353 -0.00031804378 0)
(0.042396773 -0.00043600731 0)
(0.043191461 -0.00060593122 0)
(0.044300423 -0.00085182418 0)
(0.04586477 -0.0012104504 0)
(0.048088232 -0.001747496 0)
(0.051346072 -0.0025456507 0)
(0.055976908 -0.0038285693 0)
(0.063372748 -0.0057433828 0)
(0.073447144 -0.009133942 0)
(0.092617469 -0.014464556 0)
(0.11807951 -0.02120198 0)
(0.1656896 -0.025927616 0)
(0.038547339 -0.00027217376 0)
(0.039548856 -0.00026955902 0)
(0.039268542 -0.00017693784 0)
(0.039858668 -0.00021386963 0)
(0.039836395 -0.00015153612 0)
(0.040144715 -0.00016777772 0)
(0.040253657 -0.00014555394 0)
(0.040449791 -0.00015580956 0)
(0.040613769 -0.00016821601 0)
(0.040819223 -0.00020035225 0)
(0.041061649 -0.00025091954 0)
(0.041375382 -0.00032858784 0)
(0.041790489 -0.00044195781 0)
(0.042353724 -0.00060567557 0)
(0.043129338 -0.00084134265 0)
(0.044209923 -0.0011820233 0)
(0.045731402 -0.001678658 0)
(0.047887937 -0.0024209419 0)
(0.051038481 -0.0035238817 0)
(0.055499369 -0.005285809 0)
(0.062578122 -0.0079332154 0)
(0.072183786 -0.012623026 0)
(0.090841737 -0.020222045 0)
(0.11599264 -0.030115139 0)
(0.16565206 -0.037543034 0)
(0.038534243 -0.00035080051 0)
(0.03955528 -0.00034635488 0)
(0.039271521 -0.00022920367 0)
(0.039861652 -0.00027395642 0)
(0.039843067 -0.00019549783 0)
(0.040145923 -0.00021426147 0)
(0.040255357 -0.00018656422 0)
(0.040446605 -0.00019872119 0)
(0.040607429 -0.00021468103 0)
(0.040807425 -0.00025532983 0)
(0.04104338 -0.00031970716 0)
(0.041348191 -0.0004184462 0)
(0.041750996 -0.00056260303 0)
(0.04229683 -0.00077064516 0)
(0.043047308 -0.0010698555 0)
(0.044090554 -0.0015018565 0)
(0.045555814 -0.0021308864 0)
(0.047624175 -0.0030689147 0)
(0.050632829 -0.0044615165 0)
(0.054870896 -0.0066735776 0)
(0.061533117 -0.010007776 0)
(0.070541211 -0.015973095 0)
(0.088435963 -0.025837128 0)
(0.11262121 -0.039126584 0)
(0.16258552 -0.049519244 0)
(0.038514651 -0.00042802124 0)
(0.039561778 -0.00042589196 0)
(0.039275576 -0.00028068421 0)
(0.039864863 -0.00033485951 0)
(0.039851741 -0.00023885643 0)
(0.040147481 -0.00026025666 0)
(0.040257476 -0.00022678225 0)
(0.04044272 -0.00024061157 0)
(0.04059958 -0.00025988267 0)
(0.040792854 -0.00030866325 0)
(0.041020759 -0.0003863314 0)
(0.041314544 -0.00050534756 0)
(0.041702167 -0.00067909748 0)
(0.042226535 -0.00092968291 0)
(0.042946086 -0.0012896751 0)
(0.04394352 -0.0018086656 0)
(0.04533991 -0.0025629948 0)
(0.047300239 -0.0036849213 0)
(0.050134241 -0.0053474059 0)
(0.054097916 -0.0079729802 0)
(0.060246731 -0.011935293 0)
(0.068492779 -0.019119563 0)
(0.085299845 -0.031166415 0)
(0.10752979 -0.047814858 0)
(0.15542169 -0.060968426 0)
(0.038486104 -0.00050282965 0)
(0.039568234 -0.00050945281 0)
(0.039280869 -0.00033133415 0)
(0.039868056 -0.00039681277 0)
(0.039862801 -0.00028180172 0)
(0.040149288 -0.00030552659 0)
(0.04026004 -0.00026607893 0)
(0.040438199 -0.0002812568 0)
(0.040590284 -0.00030356029 0)
(0.040775627 -0.00036000792 0)
(0.040993957 -0.00045034528 0)
(0.041274655 -0.00058867836 0)
(0.041644351 -0.00079058737 0)
(0.042143362 -0.0010815892 0)
(0.04282648 -0.0014990741 0)
(0.043770157 -0.002099921 0)
(0.04508582 -0.0029711855 0)
(0.046920456 -0.0042630992 0)
(0.04955152 -0.0061720689 0)
(0.053191099 -0.0091673715 0)
(0.058743437 -0.013691392 0)
(0.066046405 -0.022011549 0)
(0.081361544 -0.03604361 0)
(0.10044586 -0.05578601 0)
(0.14467042 -0.070439138 0)
(0.038447864 -0.0005744123 0)
(0.039575207 -0.00059725341 0)
(0.03928732 -0.00038177104 0)
(0.039871488 -0.0004593147 0)
(0.03987647 -0.00032453071 0)
(0.040151231 -0.00034980267 0)
(0.040263147 -0.00030430415 0)
(0.040433125 -0.00032046016 0)
(0.040579626 -0.00034544563 0)
(0.040755888 -0.00040903504 0)
(0.040963215 -0.00051128369 0)
(0.041228804 -0.00066783373 0)
(0.041577977 -0.00089625567 0)
(0.042047985 -0.0012251842 0)
(0.042689503 -0.001696351 0)
(0.043572019 -0.0023731108 0)
(0.044796157 -0.003351582 0)
(0.046489021 -0.0047972556 0)
(0.048892916 -0.0069248772 0)
(0.052161523 -0.010238382 0)
(0.057050082 -0.015231211 0)
(0.063216758 -0.024550644 0)
(0.076546747 -0.040264194 0)
(0.091248555 -0.062783886 0)
(0.13232806 -0.077228578 0)
(0.038401522 -0.00064404004 0)
(0.039583574 -0.00068693485 0)
(0.039294634 -0.00043558916 0)
(0.039876365 -0.00052112841 0)
(0.039892524 -0.00036726003 0)
(0.040153382 -0.00039302338 0)
(0.040266997 -0.00034130094 0)
(0.040427592 -0.00035798969 0)
(0.040567732 -0.00038528285 0)
(0.040733817 -0.00045539819 0)
(0.040928825 -0.00056868361 0)
(0.041177399 -0.00074222642 0)
(0.041503639 -0.00099528818 0)
(0.041941331 -0.0013593126 0)
(0.042536574 -0.0018798791 0)
(0.043351346 -0.0026259284 0)
(0.044474487 -0.003701013 0)
(0.046012384 -0.0052830735 0)
(0.048169018 -0.0075991101 0)
(0.051028694 -0.011175623 0)
(0.055200526 -0.016526159 0)
(0.06005924 -0.026640576 0)
(0.070776918 -0.043513829 0)
(0.080139036 -0.068438908 0)
(0.11783023 -0.080785416 0)
(0.038349404 -0.00071103109 0)
(0.039593728 -0.00078006564 0)
(0.039302952 -0.00049165367 0)
(0.039884355 -0.00058316715 0)
(0.03991053 -0.00040989195 0)
(0.040156089 -0.00043447677 0)
(0.04027187 -0.00037738723 0)
(0.040421727 -0.00039340099 0)
(0.040554798 -0.00042292776 0)
(0.040709613 -0.00049882952 0)
(0.040891096 -0.00062227344 0)
(0.04112102 -0.00081141307 0)
(0.041422104 -0.0010871376 0)
(0.041824536 -0.0014832771 0)
(0.042369455 -0.0020487153 0)
(0.043110993 -0.0028570196 0)
(0.044125181 -0.0040176608 0)
(0.045498245 -0.0057168015 0)
(0.047390372 -0.0081887496 0)
(0.049824547 -0.011966632 0)
(0.053249808 -0.017571057 0)
(0.056733023 -0.028188114 0)
(0.064292858 -0.045805192 0)
(0.067223613 -0.072945237 0)
(0.096941897 -0.080896259 0)
(0.19650121 -0.0023691769 0)
(0.20452141 -0.00085464483 0)
(0.20878183 -0.00021259984 0)
(0.20831052 -1.3617545e-005 0)
(0.20859087 -7.6736579e-006 0)
(0.20849437 2.1623547e-006 0)
(0.20851644 3.2851152e-007 0)
(0.20850252 7.5418611e-007 0)
(0.20850021 2.6140803e-007 0)
(0.20849911 1.0783128e-007 0)
(0.20849838 4.7104882e-008 0)
(0.20849832 1.2730688e-008 0)
(0.20849822 6.2847658e-009 0)
(0.2084982 2.0322874e-009 0)
(0.20849819 6.8014893e-010 0)
(0.20849819 2.7009303e-010 0)
(0.20849819 9.2851359e-011 0)
(0.20849819 3.4197626e-011 0)
(0.20849819 5.3023011e-013 0)
(0.20849819 -1.5929719e-011 0)
(0.20849819 7.1894463e-011 0)
(0.20849819 3.0071587e-010 0)
(0.20849818 2.5132529e-010 0)
(0.20849819 8.2211296e-010 0)
(0.20849816 1.1055922e-009 0)
(0.19937971 -0.0071992823 0)
(0.20774276 -0.0026437926 0)
(0.21169277 -0.00052217132 0)
(0.21098474 -3.4549844e-005 0)
(0.21117669 -2.5899668e-006 0)
(0.21107241 2.9873846e-006 0)
(0.21109495 2.012958e-006 0)
(0.21108166 1.9437616e-006 0)
(0.21107911 8.5999958e-007 0)
(0.21107801 3.3170576e-007 0)
(0.2110773 1.2713888e-007 0)
(0.21107725 4.086736e-008 0)
(0.21107716 1.7087207e-008 0)
(0.21107714 5.9846426e-009 0)
(0.21107714 1.9873865e-009 0)
(0.21107713 7.1941628e-010 0)
(0.21107713 2.5444431e-010 0)
(0.21107713 8.6037796e-011 0)
(0.21107713 4.2543436e-012 0)
(0.21107713 -2.0960367e-011 0)
(0.21107713 1.714802e-010 0)
(0.21107713 6.7438399e-010 0)
(0.21107713 5.8644985e-010 0)
(0.21107713 2.9459163e-009 0)
(0.2110771 4.0355158e-009 0)
(0.20340488 -0.012269872 0)
(0.21208733 -0.0045080823 0)
(0.21562288 -0.00071263546 0)
(0.21455553 -1.9142416e-005 0)
(0.21462823 2.361556e-005 0)
(0.21450754 3.1658492e-006 0)
(0.21453156 4.2316132e-006 0)
(0.21451898 2.87994e-006 0)
(0.21451643 1.5163593e-006 0)
(0.21451539 5.5246517e-007 0)
(0.21451474 1.9527532e-007 0)
(0.21451472 6.8660345e-008 0)
(0.21451464 2.5951362e-008 0)
(0.21451463 9.6073507e-009 0)
(0.21451462 3.1449635e-009 0)
(0.21451462 1.0748497e-009 0)
(0.21451462 3.9030202e-010 0)
(0.21451462 1.2319313e-010 0)
(0.21451462 1.3301869e-011 0)
(0.21451462 -1.1898819e-011 0)
(0.21451462 2.3136925e-010 0)
(0.21451462 8.3127537e-010 0)
(0.21451462 1.1772316e-009 0)
(0.21451461 7.3349783e-009 0)
(0.21451456 9.0530791e-009 0)
(0.2051758 -0.017681857 0)
(0.21319688 -0.0063819723 0)
(0.21639523 -0.00079724827 0)
(0.21504609 5.7791063e-005 0)
(0.21506115 6.6966572e-005 0)
(0.21492385 5.6093434e-006 0)
(0.21494978 6.1900096e-006 0)
(0.21493819 3.6642956e-006 0)
(0.21493635 2.1396383e-006 0)
(0.21493554 7.4592148e-007 0)
(0.21493503 2.4961211e-007 0)
(0.21493505 9.0610206e-008 0)
(0.21493499 3.2525458e-008 0)
(0.21493498 1.2344635e-008 0)
(0.21493497 3.9815508e-009 0)
(0.21493497 1.3247278e-009 0)
(0.21493497 4.8733963e-010 0)
(0.21493497 1.4711081e-010 0)
(0.21493497 1.7192913e-011 0)
(0.21493497 -4.8919331e-012 0)
(0.21493497 2.5484053e-010 0)
(0.21493497 8.1209654e-010 0)
(0.21493497 2.1086748e-009 0)
(0.21493497 1.6632966e-008 0)
(0.21493488 1.8639076e-008 0)
(0.20034425 -0.022950991 0)
(0.20509349 -0.0080667484 0)
(0.20811008 -0.00081663196 0)
(0.20671724 0.00015419597 0)
(0.20681539 0.00011494196 0)
(0.20666952 8.8344281e-006 0)
(0.20669822 7.9233053e-006 0)
(0.20668801 4.0901703e-006 0)
(0.20668786 2.601295e-006 0)
(0.20668755 8.675304e-007 0)
(0.20668725 2.7917895e-007 0)
(0.20668733 1.0301592e-007 0)
(0.20668729 3.5470275e-008 0)
(0.20668729 1.367116e-008 0)
(0.2066873 4.3145412e-009 0)
(0.20668729 1.4077622e-009 0)
(0.20668729 5.1319328e-010 0)
(0.20668729 1.494011e-010 0)
(0.20668729 2.6711616e-011 0)
(0.20668729 2.2203716e-011 0)
(0.20668729 2.9406412e-010 0)
(0.20668729 7.7793937e-010 0)
(0.2066873 3.1537054e-009 0)
(0.20668729 2.9543776e-008 0)
(0.2066872 3.1623022e-008 0)
(0.18531608 -0.026925607 0)
(0.18270598 -0.009142065 0)
(0.1855841 -0.00081672986 0)
(0.18438064 0.00020381939 0)
(0.18470213 0.00014668657 0)
(0.1845576 1.0835881e-005 0)
(0.18459242 9.4138159e-006 0)
(0.18458372 3.9137543e-006 0)
(0.18458609 2.7493849e-006 0)
(0.18458652 8.6388459e-007 0)
(0.18458648 2.7223079e-007 0)
(0.18458663 1.0215756e-007 0)
(0.18458663 3.3408774e-008 0)
(0.18458664 1.3101681e-008 0)
(0.18458665 3.9867243e-009 0)
(0.18458665 1.2671037e-009 0)
(0.18458665 4.6314845e-010 0)
(0.18458665 1.2729614e-010 0)
(0.18458665 3.395456e-011 0)
(0.18458665 6.6390529e-011 0)
(0.18458665 3.8860251e-010 0)
(0.18458665 9.0406078e-010 0)
(0.18458665 4.0182353e-009 0)
(0.18458664 4.0397061e-008 0)
(0.18458659 4.2364196e-008 0)
(0.15930574 -0.028208373 0)
(0.14525275 -0.0090166346 0)
(0.14777987 -0.00079297943 0)
(0.14678187 0.0001688687 0)
(0.14738812 0.00014572913 0)
(0.1472439 1.0309757e-005 0)
(0.14729282 1.0085652e-005 0)
(0.14728431 3.0563595e-006 0)
(0.14728968 2.4889173e-006 0)
(0.14729081 7.0638977e-007 0)
(0.147291 2.2527069e-007 0)
(0.14729124 8.5932936e-008 0)
(0.14729125 2.590799e-008 0)
(0.14729128 1.0560271e-008 0)
(0.14729129 2.99661e-009 0)
(0.14729129 9.1624363e-010 0)
(0.14729129 3.2744636e-010 0)
(0.14729129 8.0474211e-011 0)
(0.14729129 4.7320383e-011 0)
(0.14729129 1.1434758e-010 0)
(0.14729129 5.135922e-010 0)
(0.14729129 1.2501286e-009 0)
(0.14729129 4.1455183e-009 0)
(0.14729129 4.2874468e-008 0)
(0.14729132 4.4699006e-008 0)
(0.12438014 -0.025033428 0)
(0.097873437 -0.0072800623 0)
(0.099759186 -0.0006651667 0)
(0.098643521 7.9116262e-005 0)
(0.099499447 0.0001133201 0)
(0.099336839 6.7288765e-006 0)
(0.099409734 9.1405456e-006 0)
(0.099397965 1.7329799e-006 0)
(0.099406374 1.8531435e-006 0)
(0.099407685 4.3897562e-007 0)
(0.09940801 1.5008274e-007 0)
(0.099408308 5.7735366e-008 0)
(0.09940833 1.5124923e-008 0)
(0.099408362 6.7735041e-009 0)
(0.099408369 1.6703554e-009 0)
(0.099408371 4.823689e-010 0)
(0.099408372 1.6881023e-010 0)
(0.099408372 2.8106442e-011 0)
(0.099408372 3.8976085e-011 0)
(0.099408371 1.1064902e-010 0)
(0.099408372 5.2701122e-010 0)
(0.099408372 1.427938e-009 0)
(0.099408376 3.1791735e-009 0)
(0.099408378 3.4520725e-008 0)
(0.099408479 3.6151002e-008 0)
(0.083541017 -0.017140694 0)
(0.050030999 -0.0041325054 0)
(0.051302094 -0.00034615167 0)
(0.049778219 -1.0424619e-005 0)
(0.050744817 6.1641725e-005 0)
(0.050546849 5.414834e-007 0)
(0.050643399 5.8594492e-006 0)
(0.050625211 4.9163312e-007 0)
(0.050635624 9.7131792e-007 0)
(0.050636292 1.6548112e-007 0)
(0.050636624 6.8946121e-008 0)
(0.05063691 2.549501e-008 0)
(0.050636909 5.2869883e-009 0)
(0.05063694 2.8953623e-009 0)
(0.050636945 5.1788696e-010 0)
(0.050636945 1.3822876e-010 0)
(0.050636946 3.8413392e-011 0)
(0.050636946 -1.5626951e-011 0)
(0.050636946 2.8657717e-013 0)
(0.050636946 1.3153114e-011 0)
(0.050636947 2.4042037e-010 0)
(0.050636947 8.7283042e-010 0)
(0.050636956 1.4143867e-009 0)
(0.050636956 1.7918427e-008 0)
(0.050637094 1.9199325e-008 0)
(0.037041179 -0.0081191494 0)
(0.012017552 -0.00059639021 0)
(0.01368074 -0.00014217071 0)
(0.012130835 -1.8033378e-006 0)
(0.012875614 1.1554727e-006 0)
(0.012692127 1.1376029e-006 0)
(0.012774693 5.4505134e-007 0)
(0.012756613 -6.9341411e-008 0)
(0.012764461 1.1624972e-007 0)
(0.012764244 -2.7220006e-008 0)
(0.01276444 5.8406455e-009 0)
(0.012764599 -2.0608401e-009 0)
(0.012764579 -1.0809967e-009 0)
(0.012764597 -1.2622593e-010 0)
(0.012764597 -2.3731711e-010 0)
(0.012764597 -6.9636659e-011 0)
(0.012764597 -3.7352308e-011 0)
(0.012764597 -2.4266547e-011 0)
(0.012764597 -8.3191896e-012 0)
(0.012764597 -1.2353614e-011 0)
(0.012764598 9.9961628e-011 0)
(0.012764598 4.6779293e-010 0)
(0.012764605 3.8254962e-010 0)
(0.012764602 4.0602423e-009 0)
(0.012764689 4.5765883e-009 0)
(0.038233507 -0.00084210719 0)
(0.039619145 -0.00096354943 0)
(0.039327436 -0.00061598161 0)
(0.039903499 -0.00069992711 0)
(0.039952579 -0.00050216988 0)
(0.040163282 -0.00050898192 0)
(0.04028368 -0.0004491259 0)
(0.040409968 -0.00045898925 0)
(0.040527278 -0.00049357162 0)
(0.040657502 -0.00057935997 0)
(0.040809563 -0.00072143634 0)
(0.040999471 -0.00093872256 0)
(0.041246242 -0.0012556391 0)
(0.041572926 -0.0017096952 0)
(0.042010205 -0.002355176 0)
(0.042596052 -0.0032726635 0)
(0.043378816 -0.0045808729 0)
(0.044406221 -0.0064711192 0)
(0.04574791 -0.0091905092 0)
(0.047348781 -0.013223021 0)
(0.04927278 -0.01913308 0)
(0.050399713 -0.029870849 0)
(0.051997855 -0.047913718 0)
(0.041950291 -0.075417893 0)
(0.037392103 -0.065847555 0)
(0.038147465 -0.0010613764 0)
(0.039687591 -0.0012055868 0)
(0.039404541 -0.00087820163 0)
(0.039963598 -0.00083880131 0)
(0.04003433 -0.00065696242 0)
(0.040198696 -0.00059843883 0)
(0.040305186 -0.00054070726 0)
(0.040396924 -0.00053559648 0)
(0.040480533 -0.00057364932 0)
(0.040567267 -0.00066768054 0)
(0.04066576 -0.0008278714 0)
(0.040784858 -0.0010730295 0)
(0.040936637 -0.0014305129 0)
(0.041132363 -0.001939914 0)
(0.041386231 -0.0026586244 0)
(0.041712541 -0.003669391 0)
(0.042122433 -0.0050909766 0)
(0.042612852 -0.0070994582 0)
(0.043159908 -0.0099293812 0)
(0.043643367 -0.013924344 0)
(0.043874184 -0.019543797 0)
(0.04301149 -0.028551849 0)
(0.040274727 -0.042446554 0)
(0.026910278 -0.058546925 0)
(0.0085606173 -0.039226766 0)
(0.038141804 -0.0013131994 0)
(0.039799236 -0.0014863579 0)
(0.039525714 -0.0011357074 0)
(0.040059095 -0.00097860681 0)
(0.040133189 -0.0007825542 0)
(0.040252151 -0.00067519972 0)
(0.040330852 -0.00060475839 0)
(0.040385184 -0.00058667596 0)
(0.040428453 -0.00062165142 0)
(0.040466857 -0.00071727227 0)
(0.040505728 -0.00088468575 0)
(0.040548524 -0.0011417182 0)
(0.0405975 -0.0015160254 0)
(0.04065452 -0.0020471885 0)
(0.040717187 -0.0027906377 0)
(0.040778634 -0.0038250498 0)
(0.040819797 -0.0052591613 0)
(0.040797139 -0.0072441435 0)
(0.040625467 -0.0099773165 0)
(0.040130699 -0.013702646 0)
(0.039025254 -0.018754945 0)
(0.036613017 -0.026053656 0)
(0.031726902 -0.036472943 0)
(0.019125031 -0.046756968 0)
(0.0022211249 -0.032951984 0)
(0.038170852 -0.001622963 0)
(0.039935585 -0.0018094093 0)
(0.039678662 -0.0013864865 0)
(0.040181208 -0.00111174 0)
(0.04023498 -0.00087842558 0)
(0.040306213 -0.00072905232 0)
(0.040345453 -0.00063879442 0)
(0.040357838 -0.00060739403 0)
(0.040356448 -0.00063469558 0)
(0.040343965 -0.00072535039 0)
(0.040321403 -0.00088879484 0)
(0.040286129 -0.0011418363 0)
(0.040232316 -0.0015102213 0)
(0.040151665 -0.0020300774 0)
(0.040028834 -0.0027527923 0)
(0.03983834 -0.003747743 0)
(0.039538615 -0.0051082322 0)
(0.039058924 -0.006956288 0)
(0.03827979 -0.0094418199 0)
(0.037006894 -0.012728027 0)
(0.034930319 -0.017018285 0)
(0.03150616 -0.022780541 0)
(0.02579137 -0.030339916 0)
(0.015350587 -0.036503966 0)
(0.0017344095 -0.025977017 0)
(0.038228 -0.0020045574 0)
(0.040129056 -0.002186006 0)
(0.039899523 -0.001625434 0)
(0.040353464 -0.0012257784 0)
(0.040362324 -0.00093736379 0)
(0.040376386 -0.00074959795 0)
(0.040366208 -0.00063888223 0)
(0.040332316 -0.00059430436 0)
(0.040284121 -0.00061129095 0)
(0.040220775 -0.00069100492 0)
(0.04013841 -0.00084113982 0)
(0.040027692 -0.0010754811 0)
(0.039877208 -0.0014163538 0)
(0.039668728 -0.0018957002 0)
(0.039376158 -0.0025575178 0)
(0.038960306 -0.0034602706 0)
(0.038363705 -0.0046788512 0)
(0.037499563 -0.0063064099 0)
(0.036235965 -0.0084485298 0)
(0.034381648 -0.011203041 0)
(0.031656478 -0.014671726 0)
(0.027642833 -0.019105783 0)
(0.021707327 -0.024582265 0)
(0.012848932 -0.028325007 0)
(0.0018604477 -0.020148207 0)
(0.038486 -0.0024988729 0)
(0.040691001 -0.002617052 0)
(0.040492035 -0.0018382739 0)
(0.040847679 -0.001295527 0)
(0.040774485 -0.00094619622 0)
(0.040715607 -0.00072717043 0)
(0.040646668 -0.00060068241 0)
(0.040562853 -0.00054552316 0)
(0.040467421 -0.00055147624 0)
(0.040355156 -0.0006161928 0)
(0.040216451 -0.00074449735 0)
(0.040036793 -0.00094722654 0)
(0.039798428 -0.0012424355 0)
(0.039475897 -0.0016561821 0)
(0.039033694 -0.002223894 0)
(0.038423665 -0.0029921945 0)
(0.037577046 -0.0040176264 0)
(0.036398728 -0.0053672972 0)
(0.03475574 -0.007111125 0)
(0.032470601 -0.0093005493 0)
(0.029310248 -0.011975013 0)
(0.024960821 -0.015272427 0)
(0.019016931 -0.019197404 0)
(0.011055102 -0.021485962 0)
(0.0017189078 -0.015033726 0)
(0.039422012 -0.0035763926 0)
(0.042203037 -0.0032480959 0)
(0.041936268 -0.0020059672 0)
(0.042083701 -0.0012842468 0)
(0.041877259 -0.00088555843 0)
(0.041725461 -0.00065143206 0)
(0.041588885 -0.00051984287 0)
(0.041452501 -0.0004597662 0)
(0.041310501 -0.00045581831 0)
(0.04115191 -0.00050265891 0)
(0.04096085 -0.00060202119 0)
(0.040718403 -0.00076177636 0)
(0.040400863 -0.00099509692 0)
(0.039976029 -0.0013216386 0)
(0.039402302 -0.0017676192 0)
(0.03862271 -0.0023662857 0)
(0.037561521 -0.0031580592 0)
(0.036119338 -0.0041876046 0)
(0.034165307 -0.0054972409 0)
(0.031537704 -0.0071093176 0)
(0.028045947 -0.0090311796 0)
(0.023454163 -0.011340868 0)
(0.017480388 -0.014014317 0)
(0.0099594478 -0.015372018 0)
(0.0014856014 -0.010538275 0)
(0.040983749 -0.0060630447 0)
(0.04398022 -0.0041199935 0)
(0.043124866 -0.0019965735 0)
(0.042886261 -0.0011044002 0)
(0.042489984 -0.00071990574 0)
(0.042225527 -0.00050952237 0)
(0.042015934 -0.00039290941 0)
(0.041829039 -0.00033781671 0)
(0.041646152 -0.0003273025 0)
(0.041448977 -0.00035505938 0)
(0.041216646 -0.00042046849 0)
(0.040926169 -0.00052833957 0)
(0.040548759 -0.00068678789 0)
(0.040048437 -0.00090855599 0)
(0.039377996 -0.0012106487 0)
(0.038475791 -0.0016136636 0)
(0.037263584 -0.0021424334 0)
(0.035640608 -0.0028229975 0)
(0.033481468 -0.00367719 0)
(0.030640884 -0.0047106725 0)
(0.026962474 -0.0059177846 0)
(0.022267209 -0.0073390238 0)
(0.016340282 -0.0089422992 0)
(0.0091319592 -0.0096245722 0)
(0.0012642064 -0.0064339262 0)
(0.03988964 -0.0088214726 0)
(0.041056368 -0.0037916141 0)
(0.038650313 -0.0013742711 0)
(0.037989668 -0.00066771918 0)
(0.037414846 -0.00043087809 0)
(0.037060789 -0.00030003914 0)
(0.036801303 -0.00022501201 0)
(0.036587341 -0.00018797306 0)
(0.036390329 -0.00017736435 0)
(0.036186465 -0.00018854132 0)
(0.035953138 -0.00022022327 0)
(0.035666165 -0.00027430966 0)
(0.035297521 -0.00035462762 0)
(0.034812447 -0.0004672322 0)
(0.034166599 -0.00061986984 0)
(0.033304107 -0.00082284211 0)
(0.032154117 -0.0010871818 0)
(0.030629028 -0.0014238582 0)
(0.028623529 -0.0018408341 0)
(0.026022203 -0.0023371257 0)
(0.022710445 -0.0029037408 0)
(0.01856313 -0.00355466 0)
(0.013424217 -0.0042504551 0)
(0.0073324286 -0.0044382178 0)
(0.00087694797 -0.0029061925 0)
(0.026301922 -0.010237833 0)
(0.024344963 -0.0026057848 0)
(0.020985858 -0.00024411604 0)
(0.02080552 -0.00013684256 0)
(0.020346275 -9.2100231e-005 0)
(0.020066794 -6.0615032e-005 0)
(0.019867813 -4.3481462e-005 0)
(0.019710137 -3.0835148e-005 0)
(0.019573983 -2.3142806e-005 0)
(0.019439848 -1.967596e-005 0)
(0.01929189 -1.8606701e-005 0)
(0.019114655 -1.9820469e-005 0)
(0.018890517 -2.3225947e-005 0)
(0.018598466 -2.8769155e-005 0)
(0.018212644 -3.6684519e-005 0)
(0.017700861 -4.7127042e-005 0)
(0.017023408 -6.0096485e-005 0)
(0.016132941 -7.5200527e-005 0)
(0.014975084 -9.1374257e-005 0)
(0.013493354 -0.00010640288 0)
(0.011640671 -0.00011680001 0)
(0.0093638604 -0.0001224595 0)
(0.0066206496 -9.2391843e-005 0)
(0.0035606481 -6.332847e-006 0)
(0.00043851728 -0.00010695803 0)
)
;

boundaryField
{
    inlet
    {
        type            fixedValue;
        value           uniform (0.03876 0 0);
    }
    walls
    {
        type            fixedValue;
        value           uniform (0 0 0);
    }
    outlet
    {
        type            zeroGradient;
    }
    centreline
    {
        type            symmetryPlane;
    }
    frontAndBack
    {
        type            empty;
    }
}


// ************************************************************************* //
