/*--------------------------------*- C++ -*----------------------------------*\
| =========                 |                                                 |
| \\      /  F ield         | OpenFOAM: The Open Source CFD Toolbox           |
|  \\    /   O peration     | Version:  5.x                                   |
|   \\  /    A nd           | Web:      www.OpenFOAM.org                      |
|    \\/     M anipulation  |                                                 |
\*---------------------------------------------------------------------------*/
/*   Windows 32 and 64 bit porting by blueCAPE: http://www.bluecape.com.pt   *\
|  Based on Windows porting (2.0.x v4) by Symscape: http://www.symscape.com   |
\*---------------------------------------------------------------------------*/
FoamFile
{
    version     2.0;
    format      ascii;
    class       volScalarField;
    location    "2771";
    object      omega;
}
// * * * * * * * * * * * * * * * * * * * * * * * * * * * * * * * * * * * * * //

dimensions      [0 0 -1 0 0 0 0];

internalField   nonuniform List<scalar> 
4000
(
191.904
191.712
191.521
191.33
191.139
190.948
190.758
190.568
190.378
190.189
190
189.811
189.622
189.434
189.246
189.058
188.871
188.684
188.497
188.31
188.124
187.938
187.752
187.566
187.381
187.196
187.011
186.827
186.643
186.459
186.275
186.092
185.909
185.726
185.544
185.361
185.179
184.998
184.816
184.635
184.454
184.273
184.093
183.913
183.733
183.553
183.374
183.195
183.016
182.838
182.659
182.481
182.303
182.126
181.949
181.772
181.595
181.418
181.242
181.066
180.891
180.715
180.54
180.365
180.19
180.016
179.842
179.668
179.494
179.321
179.147
178.975
178.802
178.629
178.457
178.285
178.114
177.942
177.771
177.6
177.429
177.259
177.089
176.919
176.749
176.58
176.41
176.242
176.073
175.904
175.736
175.568
175.4
175.233
175.065
174.898
174.732
174.565
174.399
174.233
174.067
173.901
173.736
173.571
173.406
173.241
173.077
172.912
172.748
172.585
172.421
172.258
172.095
171.932
171.769
171.607
171.445
171.283
171.121
170.96
170.799
170.638
170.477
170.316
170.156
169.996
169.836
169.677
169.517
169.358
169.199
169.04
168.882
168.724
168.566
168.408
168.25
168.093
167.936
167.779
167.622
167.465
167.309
167.153
166.997
166.842
166.686
166.531
166.376
166.221
166.067
165.912
165.758
165.604
165.451
165.297
165.144
164.991
164.838
164.685
164.533
164.381
164.229
164.077
163.925
163.774
163.623
163.472
163.321
163.171
163.02
162.87
162.72
162.571
162.421
162.272
162.123
161.974
161.825
161.677
161.528
161.38
161.233
161.085
160.937
160.79
160.643
160.496
160.35
160.203
160.057
159.911
159.765
159.619
159.474
159.329
159.184
159.039
158.894
158.75
7.09553
12.8331
17.0337
20.3903
23.1972
25.6078
27.7124
29.5726
31.2296
32.7151
34.0543
35.2672
36.3698
37.3753
38.2943
39.1362
39.9089
40.6195
41.2742
41.8784
42.4369
42.9541
43.4337
43.8793
44.2938
44.6803
45.0411
45.3787
45.6952
45.9927
46.2728
46.5373
46.7876
47.0251
47.2512
47.4671
47.6739
47.8725
48.064
48.2492
48.4289
48.6038
48.7747
48.9421
49.1068
49.2692
49.4294
49.5879
49.7454
49.9023
50.059
50.2159
50.3734
50.5317
50.6913
50.8523
51.015
51.1797
51.3466
51.5159
51.6877
51.8624
52.0399
52.2204
52.4042
52.5912
52.7817
52.9756
53.1731
53.3743
53.5792
53.7879
54.0005
54.2171
54.4377
54.6625
54.8917
55.1256
55.3636
55.6042
55.8473
56.093
56.3414
56.5923
56.8457
57.1016
57.3598
57.6204
57.8832
58.1482
58.4153
58.6845
58.9557
59.229
59.5042
59.7813
60.0603
60.3411
60.6236
60.908
61.194
61.4817
61.7709
62.0616
62.3538
62.6475
62.9425
63.2389
63.5366
63.8355
64.1357
64.437
64.7394
65.0428
65.3472
65.6526
65.9588
66.2659
66.5736
66.8821
67.1912
67.5009
67.8111
68.1217
68.4326
68.7439
69.0553
69.367
69.6787
69.9904
70.3021
70.6136
70.925
71.236
71.5467
71.857
72.1668
72.476
72.7846
73.0924
73.3995
73.7056
74.0109
74.3151
74.6183
74.9202
75.221
75.5204
75.8185
76.1151
76.4102
76.7037
76.9955
77.2856
77.5739
77.8602
78.1447
78.4271
78.7075
78.9857
79.2617
79.5354
79.8067
80.0756
80.342
80.6059
80.8671
81.1257
81.3815
81.6345
81.8845
82.1317
82.3759
82.617
82.8549
83.0897
83.3212
83.5493
83.7742
83.9956
84.2135
84.4279
84.6387
84.8459
85.0494
85.2492
85.4452
85.6374
85.8258
86.0104
86.1912
86.3681
86.5412
86.7103
86.876
87.0372
87.1957
87.3515
87.5037
87.666
1.7141
2.92143
4.046
5.07149
6.01214
6.88181
7.69086
8.44719
9.15668
9.82417
10.4537
11.0487
11.6119
12.1457
12.6521
13.1328
13.5896
14.0241
14.4375
14.8312
15.2063
15.564
15.9052
16.2308
16.5418
16.8389
17.123
17.3947
17.6548
17.904
18.1427
18.3717
18.5915
18.8026
19.0055
19.2008
19.3888
19.57
19.7448
19.9136
20.0768
20.2348
20.3878
20.5362
20.6802
20.8203
20.9567
21.0895
21.2192
21.3458
21.4697
21.5911
21.7101
21.8271
21.942
22.0553
22.1669
22.2772
22.3862
22.4941
22.6011
22.7072
22.8127
22.9177
23.0222
23.1264
23.2305
23.3344
23.4384
23.5425
23.6468
23.7515
23.8565
23.962
24.0681
24.1749
24.2825
24.391
24.5001
24.6093
24.7188
24.8285
24.9388
25.0494
25.1607
25.2725
25.3849
25.498
25.6118
25.7263
25.8415
25.9574
26.0741
26.1916
26.3098
26.4288
26.5486
26.6692
26.7906
26.9128
27.0353
27.158
27.281
27.4043
27.528
27.6519
27.7762
27.9008
28.0257
28.151
28.2766
28.4025
28.5288
28.6554
28.7823
28.9095
29.037
29.1648
29.2929
29.4212
29.5499
29.6788
29.8079
29.9373
30.0668
30.1966
30.3266
30.4567
30.587
30.7175
30.848
30.9787
31.1094
31.2402
31.3711
31.502
31.6329
31.7638
31.8947
32.0255
32.1563
32.2869
32.4175
32.5479
32.6782
32.8083
32.9382
33.0679
33.1973
33.3265
33.4554
33.584
33.7123
33.8403
33.9678
34.095
34.2217
34.348
34.4739
34.5993
34.7241
34.8484
34.9722
35.0954
35.218
35.34
35.4613
35.5821
35.702
35.8213
35.9399
36.0577
36.1747
36.291
36.4064
36.5209
36.6346
36.7474
36.8593
36.9703
37.0802
37.1892
37.2972
37.4041
37.51
37.6149
37.7186
37.8213
37.9228
38.0232
38.1225
38.2207
38.3177
38.4137
38.5086
38.6026
38.6957
38.7885
38.8809
38.9722
1.18432
1.55842
1.95886
2.35883
2.74878
3.12575
3.48915
3.83926
4.17667
4.50204
4.81601
5.11922
5.41221
5.69545
5.96936
6.23433
6.49075
6.73899
6.97934
7.2121
7.43759
7.65604
7.86773
8.0729
8.27178
8.46461
8.65159
8.83294
9.00886
9.17955
9.3452
9.506
9.66211
9.81372
9.961
10.1041
10.2432
10.3785
10.51
10.638
10.7626
10.8839
11.002
11.1171
11.2293
11.3386
11.4453
11.5494
11.651
11.7503
11.8473
11.9422
12.035
12.1258
12.2148
12.302
12.3875
12.4713
12.5536
12.6345
12.714
12.7921
12.869
12.9448
13.0194
13.093
13.1655
13.2372
13.308
13.378
13.4472
13.5158
13.5837
13.6509
13.7177
13.784
13.8498
13.9153
13.9803
14.0451
14.1095
14.1737
14.2376
14.3012
14.3647
14.4279
14.4909
14.5538
14.6165
14.6791
14.7416
14.804
14.8663
14.9286
14.9908
15.053
15.1151
15.1772
15.2393
15.3015
15.3636
15.4257
15.4878
15.5498
15.6118
15.6739
15.7358
15.7978
15.8597
15.9216
15.9835
16.0454
16.1072
16.169
16.2308
16.2925
16.3543
16.416
16.4777
16.5394
16.6011
16.6627
16.7243
16.7859
16.8475
16.9091
16.9706
17.0322
17.0937
17.1552
17.2166
17.2781
17.3395
17.4008
17.4622
17.5235
17.5848
17.6461
17.7073
17.7684
17.8296
17.8906
17.9517
18.0126
18.0735
18.1344
18.1952
18.2559
18.3166
18.3771
18.4376
18.498
18.5584
18.6186
18.6788
18.7388
18.7988
18.8586
18.9183
18.9779
19.0373
19.0966
19.1558
19.2149
19.2738
19.3326
19.3912
19.4496
19.5079
19.566
19.6238
19.6816
19.7391
19.7964
19.8535
19.9103
19.967
20.0234
20.0796
20.1355
20.1911
20.2466
20.3017
20.3565
20.4111
20.4653
20.5192
20.5728
20.6261
20.6791
20.7318
20.7841
20.8361
20.8878
20.9393
20.9905
21.0415
21.0924
21.1431
21.1922
1.06682
1.21676
1.39261
1.58063
1.77322
1.96636
2.15792
2.34681
2.53247
2.71463
2.89319
3.06814
3.2395
3.40731
3.57162
3.7325
3.89003
4.04426
4.19526
4.34308
4.4878
4.62946
4.76813
4.90386
5.03673
5.16677
5.29405
5.41863
5.54055
5.65989
5.77668
5.891
6.00288
6.1124
6.2196
6.32454
6.42728
6.52787
6.62637
6.72282
6.81728
6.90978
7.00039
7.08914
7.17608
7.26127
7.34475
7.42657
7.50677
7.5854
7.66251
7.73814
7.81233
7.88511
7.95654
8.02665
8.09548
8.16307
8.22945
8.29468
8.35877
8.42178
8.48373
8.54465
8.60459
8.66358
8.72164
8.77881
8.83511
8.89059
8.94527
8.99918
9.05234
9.10479
9.15656
9.20767
9.25815
9.30804
9.35734
9.4061
9.45432
9.50203
9.54926
9.59602
9.64233
9.6882
9.73366
9.77872
9.82339
9.86769
9.91164
9.95523
9.9985
10.0414
10.0841
10.1264
10.1685
10.2103
10.2518
10.293
10.334
10.3748
10.4154
10.4557
10.4957
10.5356
10.5753
10.6147
10.6539
10.693
10.7318
10.7705
10.809
10.8472
10.8853
10.9233
10.961
10.9986
11.036
11.0733
11.1103
11.1473
11.184
11.2206
11.2571
11.2934
11.3296
11.3656
11.4015
11.4372
11.4728
11.5083
11.5437
11.5789
11.6139
11.6489
11.6837
11.7184
11.7529
11.7874
11.8217
11.8559
11.89
11.924
11.9578
11.9915
12.0251
12.0586
12.092
12.1253
12.1584
12.1915
12.2244
12.2572
12.2899
12.3225
12.355
12.3874
12.4197
12.4518
12.4839
12.5158
12.5476
12.5793
12.6109
12.6423
12.6737
12.7049
12.736
12.767
12.7979
12.8287
12.8593
12.8898
12.9202
12.9505
12.9806
13.0106
13.0405
13.0703
13.0998
13.1293
13.1586
13.1877
13.2168
13.2456
13.2743
13.3029
13.3313
13.3595
13.3876
13.4155
13.4433
13.4709
13.4984
13.5258
13.553
13.5802
13.6073
13.6329
1.02872
1.09731
1.18402
1.28247
1.38815
1.49805
1.61022
1.72343
1.83689
1.9501
2.06272
2.17452
2.28536
2.39513
2.50375
2.61115
2.71731
2.82218
2.92574
3.02796
3.12883
3.22833
3.32647
3.42323
3.51862
3.61262
3.70525
3.79649
3.88637
3.97488
4.06204
4.14785
4.23232
4.31548
4.39732
4.47786
4.55713
4.63514
4.7119
4.78743
4.86174
4.93486
5.0068
5.07757
5.14719
5.21569
5.28307
5.34937
5.4146
5.47878
5.54193
5.60406
5.6652
5.72536
5.78456
5.84282
5.90015
5.95659
6.01213
6.06682
6.12065
6.17366
6.22585
6.27725
6.32787
6.37773
6.42684
6.47523
6.52291
6.56989
6.6162
6.66185
6.70685
6.75122
6.79498
6.83813
6.88071
6.92272
6.96418
7.0051
7.0455
7.08539
7.12478
7.16369
7.20213
7.24011
7.27765
7.31475
7.35143
7.38769
7.42356
7.45903
7.49411
7.52882
7.56317
7.59716
7.6308
7.6641
7.69707
7.72972
7.76205
7.79407
7.82578
7.8572
7.88833
7.91918
7.94974
7.98004
8.01006
8.03983
8.06933
8.09858
8.12758
8.15634
8.18486
8.21314
8.24119
8.26901
8.29661
8.32398
8.35114
8.37808
8.40481
8.43134
8.45766
8.48378
8.5097
8.53542
8.56096
8.5863
8.61145
8.63642
8.66121
8.68582
8.71026
8.73451
8.7586
8.78252
8.80626
8.82985
8.85327
8.87653
8.89963
8.92257
8.94535
8.96799
8.99046
9.01279
9.03498
9.05701
9.07891
9.10065
9.12226
9.14372
9.16505
9.18623
9.20728
9.2282
9.24898
9.26963
9.29014
9.31053
9.33079
9.35091
9.37091
9.39078
9.41053
9.43015
9.44965
9.46902
9.48826
9.50739
9.52639
9.54526
9.56402
9.58265
9.60116
9.61954
9.6378
9.65594
9.67396
9.69185
9.70961
9.72725
9.74476
9.76214
9.7794
9.79653
9.81353
9.83041
9.84716
9.86378
9.88028
9.89665
9.91291
9.92906
9.9451
9.96105
9.97683
9.99147
1.01367
1.0477
1.09348
1.14846
1.21031
1.27715
1.34759
1.4206
1.49541
1.57148
1.64842
1.72592
1.80375
1.88172
1.95969
2.03754
2.11516
2.19248
2.26941
2.34589
2.42187
2.49731
2.57216
2.64639
2.71996
2.79286
2.86505
2.93653
3.00726
3.07724
3.14646
3.2149
3.28257
3.34945
3.41554
3.48084
3.54534
3.60905
3.67197
3.7341
3.79544
3.85599
3.91576
3.97475
4.03297
4.09042
4.14711
4.20304
4.25823
4.31268
4.36639
4.41939
4.47166
4.52322
4.57408
4.62425
4.67373
4.72253
4.77066
4.81814
4.86497
4.91116
4.95672
5.00165
5.04598
5.08969
5.13282
5.17536
5.21733
5.25872
5.29956
5.33985
5.3796
5.41882
5.45752
5.49571
5.53339
5.57058
5.60729
5.64352
5.67928
5.71458
5.74944
5.78385
5.81783
5.85138
5.88452
5.91725
5.94957
5.9815
6.01305
6.04421
6.075
6.10543
6.1355
6.16521
6.19457
6.2236
6.25229
6.28065
6.30869
6.33642
6.36383
6.39093
6.41774
6.44424
6.47046
6.49639
6.52204
6.54741
6.57251
6.59734
6.62191
6.64622
6.67027
6.69407
6.71762
6.74093
6.76399
6.78682
6.80941
6.83178
6.85391
6.87582
6.89751
6.91898
6.94024
6.96128
6.98212
7.00275
7.02317
7.04339
7.06342
7.08325
7.10288
7.12233
7.14158
7.16065
7.17954
7.19824
7.21677
7.23511
7.25329
7.27129
7.28912
7.30678
7.32427
7.3416
7.35877
7.37578
7.39262
7.40932
7.42585
7.44224
7.45847
7.47454
7.49047
7.50626
7.52189
7.53739
7.55274
7.56795
7.58303
7.59796
7.61275
7.62741
7.64194
7.65634
7.6706
7.68473
7.69873
7.7126
7.72635
7.73996
7.75345
7.76682
7.78006
7.79318
7.80617
7.81905
7.8318
7.84442
7.85692
7.86931
7.88157
7.89371
7.90573
7.91764
7.92942
7.94108
7.95263
7.96406
7.97537
7.98656
7.99765
8.00863
8.01949
8.03025
8.04085
8.05049
1.00704
1.02516
1.05084
1.08333
1.12165
1.16478
1.21185
1.26209
1.31491
1.3698
1.42635
1.48423
1.54317
1.60295
1.66336
1.72424
1.78547
1.84691
1.90847
1.97006
2.0316
2.09303
2.15427
2.21529
2.27604
2.33647
2.39655
2.45625
2.51554
2.5744
2.63281
2.69074
2.74819
2.80514
2.86158
2.91749
2.97288
3.02772
3.08202
3.13577
3.18896
3.2416
3.29367
3.34519
3.39613
3.44652
3.49635
3.54561
3.59431
3.64245
3.69004
3.73707
3.78355
3.82948
3.87486
3.9197
3.964
4.00776
4.051
4.0937
4.13589
4.17756
4.21872
4.25937
4.29951
4.33916
4.37832
4.41699
4.45518
4.49289
4.53013
4.56691
4.60322
4.63908
4.67449
4.70946
4.74399
4.77809
4.81176
4.84501
4.87785
4.91028
4.9423
4.97392
5.00516
5.036
5.06647
5.09656
5.12628
5.15563
5.18463
5.21327
5.24156
5.26951
5.29711
5.32438
5.35133
5.37794
5.40424
5.43022
5.45589
5.48126
5.50632
5.53108
5.55555
5.57973
5.60362
5.62723
5.65057
5.67363
5.69642
5.71895
5.74121
5.76321
5.78496
5.80646
5.8277
5.8487
5.86946
5.88999
5.91027
5.93032
5.95015
5.96974
5.98911
6.00827
6.0272
6.04592
6.06442
6.08272
6.10081
6.11869
6.13637
6.15385
6.17113
6.18822
6.20512
6.22182
6.23834
6.25467
6.27082
6.28678
6.30257
6.31818
6.33361
6.34887
6.36396
6.37888
6.39364
6.40822
6.42265
6.43691
6.45101
6.46496
6.47875
6.49238
6.50586
6.51919
6.53237
6.54541
6.55829
6.57104
6.58364
6.5961
6.60842
6.6206
6.63264
6.64454
6.65632
6.66795
6.67946
6.69084
6.70209
6.71321
6.7242
6.73507
6.74581
6.75643
6.76693
6.7773
6.78755
6.79769
6.8077
6.8176
6.82738
6.83704
6.84658
6.85601
6.86532
6.87453
6.88361
6.89259
6.90145
6.9102
6.91885
6.92739
6.93582
6.94414
6.9523
6.95964
1.00403
1.01473
1.03056
1.05156
1.07746
1.10779
1.14204
1.1797
1.22029
1.26336
1.30854
1.35549
1.40391
1.45356
1.5042
1.55566
1.60777
1.66039
1.71339
1.76668
1.82016
1.87375
1.92738
1.98098
2.03451
2.08791
2.14115
2.19418
2.24697
2.2995
2.35174
2.40366
2.45525
2.50649
2.55735
2.60784
2.65793
2.70762
2.7569
2.80575
2.85417
2.90216
2.94971
2.99681
3.04346
3.08967
3.13541
3.1807
3.22553
3.26991
3.31382
3.35728
3.40028
3.44282
3.4849
3.52652
3.56769
3.6084
3.64866
3.68848
3.72784
3.76676
3.80524
3.84328
3.88089
3.91806
3.9548
3.99111
4.027
4.06247
4.09752
4.13215
4.16638
4.2002
4.23362
4.26664
4.29927
4.3315
4.36335
4.39482
4.42591
4.45662
4.48697
4.51694
4.54656
4.57582
4.60472
4.63327
4.66148
4.68935
4.71688
4.74407
4.77094
4.79748
4.8237
4.8496
4.87518
4.90046
4.92543
4.9501
4.97447
4.99854
5.02233
5.04582
5.06903
5.09196
5.11461
5.13699
5.1591
5.18094
5.20252
5.22384
5.2449
5.2657
5.28626
5.30656
5.32662
5.34644
5.36602
5.38537
5.40448
5.42336
5.44201
5.46044
5.47865
5.49663
5.5144
5.53196
5.5493
5.56643
5.58336
5.60008
5.6166
5.63292
5.64904
5.66497
5.6807
5.69625
5.7116
5.72677
5.74176
5.75656
5.77119
5.78563
5.7999
5.81399
5.82792
5.84167
5.85525
5.86867
5.88192
5.89501
5.90794
5.92071
5.93333
5.94578
5.95809
5.97024
5.98224
5.9941
6.0058
6.01736
6.02878
6.04006
6.05119
6.06219
6.07304
6.08376
6.09435
6.1048
6.11513
6.12532
6.13538
6.14531
6.15512
6.1648
6.17436
6.18379
6.19311
6.2023
6.21138
6.22033
6.22918
6.2379
6.2465
6.255
6.26337
6.27164
6.2798
6.28784
6.29578
6.3036
6.31132
6.31893
6.32644
6.33384
6.34113
6.34832
6.35536
6.36167
1.00284
1.01056
1.02235
1.03851
1.05904
1.08377
1.11236
1.14443
1.17956
1.21736
1.25746
1.29952
1.34324
1.38836
1.43464
1.48189
1.52993
1.57861
1.62779
1.67736
1.72723
1.7773
1.8275
1.87777
1.92804
1.97827
2.02841
2.07842
2.12827
2.17792
2.22735
2.27653
2.32544
2.37406
2.42238
2.47038
2.51804
2.56536
2.61232
2.65892
2.70514
2.75098
2.79644
2.8415
2.88616
2.93042
2.97427
3.01771
3.06075
3.10337
3.14557
3.18736
3.22874
3.2697
3.31023
3.35036
3.39006
3.42935
3.46823
3.50669
3.54474
3.58238
3.61961
3.65643
3.69285
3.72887
3.76448
3.7997
3.83452
3.86895
3.90298
3.93663
3.9699
4.00278
4.03528
4.06741
4.09916
4.13055
4.16157
4.19222
4.22252
4.25246
4.28205
4.31128
4.34018
4.36873
4.39693
4.42481
4.45235
4.47956
4.50645
4.53302
4.55926
4.5852
4.61082
4.63613
4.66114
4.68584
4.71025
4.73436
4.75819
4.78172
4.80497
4.82794
4.85062
4.87304
4.89518
4.91705
4.93866
4.96
4.98108
5.00191
5.02248
5.0428
5.06287
5.0827
5.10228
5.12163
5.14074
5.15961
5.17825
5.19667
5.21485
5.23282
5.25056
5.26808
5.28539
5.30249
5.31937
5.33604
5.35251
5.36877
5.38484
5.4007
5.41636
5.43183
5.44711
5.4622
5.47709
5.4918
5.50633
5.52068
5.53484
5.54883
5.56264
5.57628
5.58974
5.60303
5.61616
5.62912
5.64191
5.65454
5.66701
5.67932
5.69148
5.70347
5.71532
5.72701
5.73855
5.74994
5.76118
5.77228
5.78323
5.79404
5.80471
5.81525
5.82564
5.8359
5.84602
5.85601
5.86587
5.8756
5.8852
5.89467
5.90401
5.91323
5.92233
5.9313
5.94015
5.94889
5.9575
5.966
5.97438
5.98264
5.9908
5.99883
6.00676
6.01457
6.02228
6.02988
6.03736
6.04475
6.05202
6.05919
6.06625
6.07321
6.08006
6.08681
6.09342
6.09939
1.00284
1.01058
1.02243
1.03867
1.05933
1.0842
1.11295
1.1452
1.18051
1.21848
1.25875
1.30096
1.34482
1.39007
1.43647
1.48382
1.53195
1.58071
1.62996
1.67959
1.72951
1.77963
1.82987
1.88018
1.93048
1.98073
2.0309
2.08092
2.13079
2.18045
2.22989
2.27909
2.32801
2.37665
2.42498
2.47299
2.52066
2.56799
2.61497
2.66158
2.70782
2.75367
2.79914
2.84422
2.8889
2.93319
2.97706
3.02053
3.06359
3.10624
3.14848
3.1903
3.23171
3.2727
3.31328
3.35344
3.39318
3.43252
3.47144
3.50995
3.54805
3.58574
3.62302
3.6599
3.69637
3.73244
3.76812
3.8034
3.83828
3.87277
3.90688
3.94059
3.97393
4.00688
4.03946
4.07166
4.1035
4.13496
4.16606
4.1968
4.22718
4.25721
4.28688
4.31621
4.34519
4.37383
4.40213
4.4301
4.45773
4.48504
4.51203
4.53869
4.56503
4.59107
4.61679
4.6422
4.66731
4.69211
4.71662
4.74084
4.76476
4.7884
4.81175
4.83481
4.8576
4.88012
4.90236
4.92433
4.94604
4.96748
4.98866
5.00959
5.03026
5.05068
5.07085
5.09077
5.11045
5.12989
5.14909
5.16806
5.18679
5.2053
5.22358
5.24163
5.25946
5.27707
5.29446
5.31164
5.32861
5.34536
5.36191
5.37825
5.39439
5.41033
5.42607
5.44162
5.45697
5.47213
5.4871
5.50188
5.51648
5.53089
5.54512
5.55918
5.57305
5.58675
5.60028
5.61364
5.62683
5.63985
5.6527
5.66539
5.67792
5.69029
5.7025
5.71455
5.72645
5.7382
5.74979
5.76124
5.77253
5.78369
5.79469
5.80555
5.81627
5.82685
5.8373
5.8476
5.85777
5.86781
5.87772
5.88749
5.89714
5.90665
5.91604
5.9253
5.93444
5.94346
5.95235
5.96113
5.96979
5.97833
5.98675
5.99505
6.00324
6.01132
6.01928
6.02713
6.03488
6.04251
6.05003
6.05745
6.06476
6.07195
6.07905
6.08604
6.09293
6.0997
6.10635
6.11246
1.00403
1.0148
1.03081
1.05212
1.07841
1.10923
1.14402
1.18224
1.22338
1.267
1.3127
1.36012
1.40899
1.45903
1.51004
1.56182
1.61422
1.6671
1.72033
1.77382
1.82747
1.88121
1.93497
1.98869
2.04231
2.0958
2.14911
2.20221
2.25506
2.30764
2.35992
2.41189
2.46352
2.51479
2.5657
2.61623
2.66636
2.71609
2.76541
2.81431
2.86279
2.91083
2.95844
3.0056
3.05233
3.0986
3.14443
3.1898
3.23472
3.27919
3.32321
3.36677
3.40988
3.45253
3.49473
3.53649
3.57779
3.61865
3.65906
3.69903
3.73855
3.77764
3.81629
3.85451
3.8923
3.92966
3.96659
4.0031
4.0392
4.07488
4.11015
4.14501
4.17947
4.21352
4.24719
4.28045
4.31333
4.34583
4.37794
4.40967
4.44104
4.47203
4.50265
4.53292
4.56283
4.59238
4.62158
4.65044
4.67895
4.70713
4.73497
4.76248
4.78966
4.81652
4.84305
4.86928
4.89519
4.92079
4.94608
4.97107
4.99577
5.02016
5.04427
5.06809
5.09162
5.11487
5.13785
5.16054
5.18297
5.20512
5.22702
5.24864
5.27001
5.29112
5.31198
5.33259
5.35295
5.37306
5.39293
5.41257
5.43196
5.45113
5.47006
5.48876
5.50724
5.52549
5.54353
5.56134
5.57894
5.59633
5.61351
5.63048
5.64724
5.6638
5.68016
5.69632
5.71228
5.72805
5.74363
5.75901
5.77421
5.78923
5.80406
5.81871
5.83318
5.84748
5.8616
5.87554
5.88932
5.90292
5.91636
5.92964
5.94275
5.9557
5.96849
5.98112
5.9936
6.00592
6.01809
6.03011
6.04198
6.0537
6.06528
6.07671
6.088
6.09915
6.11015
6.12102
6.13176
6.14236
6.15282
6.16315
6.17336
6.18343
6.19338
6.20319
6.21289
6.22246
6.2319
6.24123
6.25043
6.25951
6.26848
6.27732
6.28605
6.29466
6.30316
6.31154
6.31982
6.32797
6.33602
6.34396
6.35178
6.35949
6.3671
6.3746
6.38199
6.38927
6.39643
6.40316
1.00703
1.02532
1.05138
1.08451
1.12365
1.16775
1.21585
1.26716
1.32102
1.37691
1.43441
1.49318
1.55294
1.61345
1.67453
1.73602
1.79778
1.8597
1.92168
1.98364
2.0455
2.1072
2.16869
2.22992
2.29084
2.35143
2.41165
2.47147
2.53087
2.58982
2.64832
2.70634
2.76387
2.82089
2.87741
2.9334
2.98887
3.0438
3.09819
3.15203
3.20533
3.25808
3.31028
3.36192
3.41301
3.46355
3.51353
3.56297
3.61185
3.66018
3.70797
3.75521
3.80192
3.84808
3.89371
3.93881
3.98339
4.02744
4.07097
4.11398
4.15649
4.19849
4.23999
4.28099
4.32151
4.36153
4.40107
4.44014
4.47874
4.51687
4.55454
4.59176
4.62853
4.66485
4.70073
4.73619
4.77121
4.80581
4.84
4.87377
4.90714
4.94011
4.97268
5.00487
5.03666
5.06808
5.09912
5.1298
5.1601
5.19005
5.21964
5.24888
5.27777
5.30632
5.33454
5.36241
5.38996
5.41719
5.44409
5.47068
5.49696
5.52292
5.54858
5.57395
5.59901
5.62378
5.64826
5.67246
5.69637
5.72001
5.74337
5.76645
5.78927
5.81183
5.83412
5.85616
5.87794
5.89946
5.92074
5.94178
5.96257
5.98312
6.00343
6.02351
6.04336
6.06298
6.08238
6.10155
6.12051
6.13925
6.15777
6.17608
6.19418
6.21207
6.22976
6.24725
6.26454
6.28163
6.29853
6.31524
6.33175
6.34808
6.36422
6.38018
6.39596
6.41156
6.42699
6.44223
6.45731
6.47222
6.48695
6.50152
6.51593
6.53018
6.54426
6.55818
6.57195
6.58556
6.59902
6.61233
6.62549
6.63849
6.65136
6.66408
6.67665
6.68908
6.70137
6.71353
6.72554
6.73742
6.74916
6.76077
6.77225
6.7836
6.79482
6.80591
6.81687
6.82771
6.83842
6.84901
6.85947
6.86982
6.88003
6.89013
6.90011
6.90997
6.9197
6.92932
6.93883
6.94821
6.95748
6.96663
6.97567
6.98459
6.9934
7.0021
7.01069
7.01917
7.02752
7.03558
1.01362
1.04798
1.09458
1.15083
1.21425
1.28284
1.3551
1.42992
1.5065
1.58426
1.66279
1.74176
1.82093
1.90013
1.9792
2.05803
2.13652
2.2146
2.29221
2.36928
2.44577
2.52165
2.59688
2.67144
2.7453
2.81844
2.89085
2.96251
3.03342
3.10355
3.17292
3.2415
3.3093
3.37632
3.44255
3.50799
3.57265
3.63652
3.6996
3.76191
3.82345
3.88421
3.94421
4.00345
4.06193
4.11966
4.17665
4.23291
4.28844
4.34324
4.39734
4.45073
4.50342
4.55542
4.60674
4.65739
4.70738
4.75671
4.8054
4.85344
4.90086
4.94766
4.99384
5.03943
5.08442
5.12882
5.17266
5.21592
5.25863
5.30078
5.3424
5.38349
5.42406
5.46412
5.50367
5.54273
5.5813
5.6194
5.65702
5.69418
5.73089
5.76716
5.80299
5.83838
5.87335
5.90791
5.94206
5.9758
6.00914
6.0421
6.07467
6.10686
6.13868
6.17013
6.20123
6.23196
6.26235
6.29239
6.32209
6.35146
6.38049
6.40921
6.4376
6.46567
6.49344
6.5209
6.54806
6.57492
6.60148
6.62776
6.65376
6.67947
6.7049
6.73007
6.75496
6.77959
6.80395
6.82806
6.85192
6.87552
6.89888
6.92199
6.94486
6.96749
6.98989
7.01206
7.034
7.05571
7.0772
7.09847
7.11953
7.14037
7.16101
7.18143
7.20165
7.22167
7.24149
7.26111
7.28053
7.29977
7.31881
7.33767
7.35635
7.37484
7.39315
7.41128
7.42923
7.44702
7.46463
7.48207
7.49935
7.51646
7.5334
7.55019
7.56682
7.58329
7.5996
7.61576
7.63177
7.64763
7.66334
7.67891
7.69433
7.7096
7.72474
7.73973
7.75459
7.7693
7.78388
7.79832
7.81263
7.82681
7.84085
7.85477
7.86855
7.8822
7.89573
7.90912
7.9224
7.93554
7.94855
7.96145
7.97421
7.98686
7.99937
8.01176
8.02403
8.03617
8.0482
8.0601
8.07187
8.08352
8.09505
8.10646
8.11775
8.12892
8.13999
8.15094
8.16178
8.17249
1.02851
1.09781
1.18631
1.28734
1.39604
1.50915
1.62457
1.74096
1.85745
1.9735
2.08876
2.20297
2.31599
2.42772
2.53808
2.64703
2.75454
2.8606
2.96518
3.06829
3.16993
3.27009
3.36879
3.46604
3.56183
3.65619
3.74913
3.84065
3.93078
4.01953
4.10691
4.19295
4.27765
4.36104
4.44312
4.52393
4.60348
4.68179
4.75887
4.83474
4.90943
4.98295
5.05533
5.12657
5.1967
5.26575
5.33372
5.40064
5.46653
5.5314
5.59528
5.65818
5.72013
5.78113
5.84122
5.9004
5.9587
6.01613
6.07272
6.12848
6.18342
6.23756
6.29093
6.34353
6.39539
6.44653
6.49694
6.54667
6.59571
6.6441
6.69183
6.73894
6.78543
6.83133
6.87664
6.92137
6.96556
7.0092
7.05231
7.0949
7.13699
7.17858
7.21969
7.26033
7.3005
7.34022
7.3795
7.41834
7.45675
7.49475
7.53234
7.56953
7.60632
7.64272
7.67875
7.7144
7.74969
7.78461
7.81919
7.85342
7.88731
7.92086
7.95409
7.987
8.01959
8.05187
8.08384
8.11551
8.14689
8.17798
8.20878
8.2393
8.26954
8.29952
8.32922
8.35867
8.38785
8.41679
8.44547
8.4739
8.5021
8.53005
8.55777
8.58526
8.61252
8.63956
8.66638
8.69298
8.71936
8.74554
8.7715
8.79726
8.82282
8.84818
8.87335
8.89832
8.9231
8.94769
8.9721
8.99632
9.02037
9.04424
9.06793
9.09144
9.11479
9.13797
9.16098
9.18383
9.20652
9.22905
9.25141
9.27363
9.29569
9.31759
9.33935
9.36095
9.38241
9.40373
9.4249
9.44593
9.46681
9.48756
9.50817
9.52864
9.54898
9.56918
9.58924
9.60918
9.62898
9.64865
9.66819
9.6876
9.70688
9.72603
9.74505
9.76395
9.78272
9.80135
9.81986
9.83824
9.85649
9.87461
9.8926
9.91046
9.92819
9.94578
9.96324
9.98057
9.99777
10.0148
10.0318
10.0485
10.0652
10.0817
10.0982
10.1144
10.1306
10.1467
10.1627
10.1788
1.06583
1.21757
1.39781
1.59159
1.79051
1.99005
2.18782
2.38257
2.57367
2.76081
2.94389
3.12288
3.29782
3.4688
3.63588
3.79917
3.95877
4.11477
4.26728
4.41638
4.56217
4.70473
4.84416
4.98053
5.11394
5.24445
5.37214
5.49709
5.61938
5.73906
5.85621
5.97089
6.08317
6.19312
6.30079
6.40624
6.50954
6.61074
6.7099
6.80708
6.90232
6.99568
7.08721
7.17696
7.26499
7.35134
7.43606
7.51919
7.60078
7.68087
7.75952
7.83675
7.91262
7.98716
8.06042
8.13242
8.20321
8.27284
8.34132
8.4087
8.47502
8.54031
8.6046
8.66792
8.73031
8.7918
8.85242
8.9122
8.97117
9.02937
9.08682
9.14355
9.19959
9.25497
9.30971
9.36384
9.41736
9.47032
9.52271
9.57457
9.6259
9.67672
9.72705
9.77689
9.82627
9.87519
9.92367
9.97171
10.0193
10.0665
10.1134
10.1598
10.2058
10.2515
10.2968
10.3417
10.3863
10.4306
10.4745
10.5181
10.5614
10.6044
10.6471
10.6895
10.7316
10.7734
10.815
10.8563
10.8973
10.9381
10.9786
11.0189
11.0589
11.0987
11.1383
11.1776
11.2167
11.2556
11.2943
11.3328
11.3711
11.4092
11.447
11.4847
11.5222
11.5595
11.5967
11.6336
11.6704
11.707
11.7434
11.7796
11.8157
11.8516
11.8874
11.923
11.9584
11.9937
12.0288
12.0638
12.0986
12.1333
12.1678
12.2022
12.2364
12.2705
12.3045
12.3383
12.372
12.4055
12.4389
12.4722
12.5054
12.5384
12.5713
12.604
12.6366
12.6691
12.7015
12.7338
12.7659
12.7978
12.8297
12.8614
12.893
12.9245
12.9558
12.987
13.0181
13.049
13.0799
13.1106
13.1411
13.1715
13.2018
13.2319
13.262
13.2918
13.3215
13.3511
13.3806
13.4099
13.439
13.468
13.4968
13.5255
13.554
13.5823
13.6105
13.6385
13.6663
13.694
13.7215
13.7488
13.776
13.8031
13.83
13.8569
13.8838
13.9111
1.17901
1.55949
1.97315
2.38845
2.79364
3.18488
3.56127
3.92307
4.27089
4.60544
4.92744
5.23758
5.53648
5.82472
6.10285
6.37135
6.63069
6.88129
7.12355
7.35785
7.58454
7.80395
8.01639
8.22216
8.42155
8.61481
8.8022
8.98397
9.16034
9.33155
9.49779
9.65928
9.8162
9.96874
10.1171
10.2614
10.4019
10.5386
10.6718
10.8016
10.9281
11.0515
11.1719
11.2895
11.4043
11.5164
11.6261
11.7334
11.8383
11.9411
12.0417
12.1404
12.2371
12.332
12.4252
12.5167
12.6066
12.6951
12.7821
12.8678
12.9522
13.0353
13.1174
13.1983
13.2783
13.3572
13.4353
13.5126
13.589
13.6648
13.7399
13.8143
13.8883
13.9616
14.0345
14.107
14.1789
14.2504
14.3214
14.392
14.4622
14.532
14.6014
14.6704
14.7391
14.8074
14.8755
14.9432
15.0106
15.0777
15.1446
15.2112
15.2775
15.3437
15.4095
15.4752
15.5407
15.6059
15.671
15.7358
15.8006
15.8651
15.9295
15.9937
16.0578
16.1217
16.1855
16.2492
16.3127
16.3761
16.4394
16.5026
16.5657
16.6287
16.6915
16.7543
16.817
16.8795
16.942
17.0044
17.0667
17.1289
17.1911
17.2531
17.3151
17.3769
17.4387
17.5004
17.562
17.6236
17.685
17.7464
17.8076
17.8688
17.9299
17.9909
18.0518
18.1126
18.1733
18.2339
18.2944
18.3549
18.4152
18.4754
18.5355
18.5955
18.6554
18.7152
18.7748
18.8343
18.8937
18.953
19.0122
19.0712
19.1301
19.1888
19.2474
19.3059
19.3642
19.4223
19.4803
19.5381
19.5958
19.6532
19.7106
19.7677
19.8247
19.8814
19.938
19.9944
20.0505
20.1065
20.1622
20.2177
20.273
20.3281
20.3828
20.4374
20.4917
20.5457
20.5994
20.6529
20.7061
20.759
20.8116
20.8638
20.9158
20.9674
21.0187
21.0696
21.1202
21.1705
21.2204
21.2701
21.3194
21.3684
21.4173
21.4662
21.5149
21.565
1.67328
2.92087
4.10162
5.17804
6.1616
7.06671
7.90502
8.6854
9.41477
10.0986
10.7413
11.3467
11.9179
12.4576
12.9683
13.4521
13.9109
14.3465
14.7604
15.154
15.5288
15.8858
16.2264
16.5513
16.8618
17.1586
17.4426
17.7146
17.9753
18.2254
18.4656
18.6965
18.9187
19.1326
19.3389
19.5379
19.7302
19.9162
20.0962
20.2707
20.44
20.6044
20.7644
20.9202
21.0721
21.2204
21.3653
21.507
21.6459
21.7821
21.9158
22.0473
22.1768
22.3044
22.4303
22.5547
22.6777
22.7996
22.9203
23.0402
23.1592
23.2777
23.3956
23.5131
23.6303
23.7473
23.8642
23.9812
24.0983
24.2156
24.3333
24.4514
24.5701
24.6891
24.8077
24.9262
25.0444
25.1623
25.2801
25.3977
25.5153
25.6329
25.7505
25.8682
25.986
26.1039
26.222
26.3402
26.4587
26.5773
26.6962
26.8153
26.9346
27.0542
27.174
27.2941
27.4145
27.5351
27.656
27.7772
27.8986
28.0203
28.1423
28.2646
28.3871
28.5099
28.633
28.7563
28.8798
29.0036
29.1276
29.2519
29.3763
29.501
29.6259
29.7509
29.8762
30.0016
30.1271
30.2528
30.3787
30.5046
30.6306
30.7568
30.883
31.0092
31.1355
31.2619
31.3882
31.5146
31.6409
31.7672
31.8934
32.0196
32.1457
32.2716
32.3975
32.5232
32.6487
32.7741
32.8993
33.0243
33.149
33.2735
33.3978
33.5217
33.6453
33.7686
33.8916
34.0142
34.1364
34.2582
34.3796
34.5005
34.621
34.7411
34.8606
34.9797
35.0982
35.2161
35.3335
35.4503
35.5665
35.6821
35.797
35.9113
36.0249
36.1378
36.25
36.3614
36.4721
36.582
36.6911
36.7994
36.9069
37.0135
37.1192
37.2241
37.328
37.431
37.5331
37.6342
37.7343
37.8334
37.9314
38.0284
38.1244
38.2193
38.313
38.4058
38.4974
38.5878
38.6771
38.7654
38.8525
38.9388
39.0241
39.1093
39.1942
39.2835
6.36828
12.8028
17.3519
20.9052
23.8304
26.314
28.4644
30.3515
32.0237
33.5163
34.8565
36.0654
37.1602
38.1551
39.0619
39.8908
40.6502
41.3477
41.9897
42.5821
43.1298
43.6374
44.1087
44.5475
44.9569
45.3397
45.6986
46.0359
46.3538
46.6542
46.9388
47.2093
47.4672
47.7137
47.9502
48.1776
48.3972
48.6097
48.8162
49.0174
49.214
49.4068
49.5964
49.7831
49.9671
50.1493
50.3299
50.5096
50.6888
50.8677
51.0469
51.2265
51.407
51.5886
51.7716
51.9561
52.1425
52.3308
52.5214
52.7143
52.9097
53.1077
53.3085
53.5122