/*--------------------------------*- C++ -*----------------------------------*\
| =========                 |                                                 |
| \\      /  F ield         | OpenFOAM: The Open Source CFD Toolbox           |
|  \\    /   O peration     | Version:  5.x                                   |
|   \\  /    A nd           | Web:      www.OpenFOAM.org                      |
|    \\/     M anipulation  |                                                 |
\*---------------------------------------------------------------------------*/
/*   Windows 32 and 64 bit porting by blueCAPE: http://www.bluecape.com.pt   *\
|  Based on Windows porting (2.0.x v4) by Symscape: http://www.symscape.com   |
\*---------------------------------------------------------------------------*/
FoamFile
{
    version     2.0;
    format      ascii;
    class       surfaceScalarField;
    location    "2771";
    object      phi;
}
// * * * * * * * * * * * * * * * * * * * * * * * * * * * * * * * * * * * * * //

dimensions      [0 3 -1 0 0 0 0];

internalField   nonuniform List<scalar> 
7780
(
4.99612e-005
3.87859e-008
4.98433e-005
1.17919e-007
4.96896e-005
1.53699e-007
4.95176e-005
1.7197e-007
4.93358e-005
1.81781e-007
4.91484e-005
1.8747e-007
4.89581e-005
1.90325e-007
4.87659e-005
1.9211e-007
4.85734e-005
1.92533e-007
4.83811e-005
1.92318e-007
4.81891e-005
1.91954e-007
4.79976e-005
1.9158e-007
4.78064e-005
1.9113e-007
4.76158e-005
1.90582e-007
4.7426e-005
1.89875e-007
4.72369e-005
1.89046e-007
4.70487e-005
1.88183e-007
4.68614e-005
1.87314e-007
4.6675e-005
1.86418e-007
4.64895e-005
1.85498e-007
4.63049e-005
1.84587e-007
4.61213e-005
1.83658e-007
4.59386e-005
1.82708e-007
4.57568e-005
1.81744e-007
4.5576e-005
1.8077e-007
4.53963e-005
1.7979e-007
4.52175e-005
1.78799e-007
4.50397e-005
1.77798e-007
4.48629e-005
1.76797e-007
4.46871e-005
1.75792e-007
4.45123e-005
1.74783e-007
4.43385e-005
1.7377e-007
4.41658e-005
1.72754e-007
4.3994e-005
1.71739e-007
4.38233e-005
1.70725e-007
4.36536e-005
1.69713e-007
4.34849e-005
1.68706e-007
4.33172e-005
1.677e-007
4.31505e-005
1.66692e-007
4.29848e-005
1.6568e-007
4.28201e-005
1.64663e-007
4.26565e-005
1.63643e-007
4.24939e-005
1.62618e-007
4.23323e-005
1.61595e-007
4.21717e-005
1.60586e-007
4.20121e-005
1.59572e-007
4.18536e-005
1.58552e-007
4.1696e-005
1.5754e-007
4.15395e-005
1.56529e-007
4.1384e-005
1.55517e-007
4.12295e-005
1.545e-007
4.1076e-005
1.53476e-007
4.09236e-005
1.52442e-007
4.07722e-005
1.51397e-007
4.06218e-005
1.50342e-007
4.04726e-005
1.49277e-007
4.03244e-005
1.48203e-007
4.01772e-005
1.4712e-007
4.00312e-005
1.46029e-007
3.98863e-005
1.44929e-007
3.97425e-005
1.43822e-007
3.95998e-005
1.42706e-007
3.94582e-005
1.41581e-007
3.93177e-005
1.40447e-007
3.91784e-005
1.39305e-007
3.90403e-005
1.38153e-007
3.89033e-005
1.36993e-007
3.87674e-005
1.35824e-007
3.86328e-005
1.34646e-007
3.84993e-005
1.33461e-007
3.83671e-005
1.32269e-007
3.8236e-005
1.31073e-007
3.81061e-005
1.29875e-007
3.79774e-005
1.28681e-007
3.78499e-005
1.27501e-007
3.77236e-005
1.26353e-007
3.75983e-005
1.25276e-007
3.7474e-005
1.24328e-007
3.73504e-005
1.23571e-007
3.72274e-005
1.22989e-007
3.71049e-005
1.22495e-007
3.69829e-005
1.22033e-007
3.68613e-005
1.21581e-007
3.67402e-005
1.21123e-007
3.66195e-005
1.20649e-007
3.64994e-005
1.20156e-007
3.63797e-005
1.19643e-007
3.62606e-005
1.19109e-007
3.61421e-005
1.18556e-007
3.60241e-005
1.17982e-007
3.59067e-005
1.1739e-007
3.57899e-005
1.1678e-007
3.56738e-005
1.16152e-007
3.55583e-005
1.15508e-007
3.54434e-005
1.14849e-007
3.53292e-005
1.14176e-007
3.52158e-005
1.13489e-007
3.5103e-005
1.12788e-007
3.49909e-005
1.12076e-007
3.48795e-005
1.11347e-007
3.47689e-005
1.10598e-007
3.46591e-005
1.09838e-007
3.455e-005
1.09069e-007
3.44417e-005
1.08289e-007
3.43342e-005
1.075e-007
3.42275e-005
1.06702e-007
3.41216e-005
1.05894e-007
3.40166e-005
1.05078e-007
3.39123e-005
1.04253e-007
3.38089e-005
1.0342e-007
3.37063e-005
1.02579e-007
3.36046e-005
1.0173e-007
3.35037e-005
1.00874e-007
3.34037e-005
1.00011e-007
3.33046e-005
9.91423e-008
3.32063e-005
9.82671e-008
3.31089e-005
9.73859e-008
3.30124e-005
9.64988e-008
3.29168e-005
9.56059e-008
3.28221e-005
9.47074e-008
3.27283e-005
9.38036e-008
3.26354e-005
9.28949e-008
3.25434e-005
9.19814e-008
3.24524e-005
9.10635e-008
3.23622e-005
9.01413e-008
3.2273e-005
8.92151e-008
3.21847e-005
8.8285e-008
3.20974e-005
8.73514e-008
3.20109e-005
8.64144e-008
3.19255e-005
8.54742e-008
3.18409e-005
8.45312e-008
3.17574e-005
8.35853e-008
3.16747e-005
8.26367e-008
3.1593e-005
8.16855e-008
3.15123e-005
8.07318e-008
3.14325e-005
7.9776e-008
3.13537e-005
7.88183e-008
3.12758e-005
7.78591e-008
3.11989e-005
7.68986e-008
3.1123e-005
7.59369e-008
3.1048e-005
7.49742e-008
3.0974e-005
7.40106e-008
3.0901e-005
7.30462e-008
3.08289e-005
7.20814e-008
3.07578e-005
7.11164e-008
3.06876e-005
7.01516e-008
3.06184e-005
6.91874e-008
3.05502e-005
6.82238e-008
3.0483e-005
6.72606e-008
3.04167e-005
6.62977e-008
3.03513e-005
6.53354e-008
3.0287e-005
6.43741e-008
3.02235e-005
6.34144e-008
3.01611e-005
6.24569e-008
3.00996e-005
6.1502e-008
3.0039e-005
6.05495e-008
2.99794e-005
5.95992e-008
2.99208e-005
5.86508e-008
2.98631e-005
5.77043e-008
2.98063e-005
5.67601e-008
2.97505e-005
5.58189e-008
2.96956e-005
5.48813e-008
2.96417e-005
5.39475e-008
2.95886e-005
5.30176e-008
2.95366e-005
5.20916e-008
2.94854e-005
5.11697e-008
2.94351e-005
5.0251e-008
2.93858e-005
4.93367e-008
2.93374e-005
4.84268e-008
2.92899e-005
4.75213e-008
2.92432e-005
4.66201e-008
2.91975e-005
4.57235e-008
2.91527e-005
4.48319e-008
2.91087e-005
4.39456e-008
2.90657e-005
4.30649e-008
2.90235e-005
4.219e-008
2.89822e-005
4.13212e-008
2.89417e-005
4.04585e-008
2.89021e-005
3.96025e-008
2.88633e-005
3.87534e-008
2.88254e-005
3.79118e-008
2.87884e-005
3.7078e-008
2.87521e-005
3.62527e-008
2.87167e-005
3.54367e-008
2.8682e-005
3.46307e-008
2.86482e-005
3.38358e-008
2.86151e-005
3.3053e-008
2.85829e-005
3.22843e-008
2.85513e-005
3.15315e-008
2.85205e-005
3.07983e-008
2.84904e-005
3.00854e-008
2.8461e-005
2.94034e-008
2.84323e-005
2.87365e-008
2.84042e-005
2.81427e-008
2.83767e-005
2.74868e-008
2.83496e-005
2.70983e-008
2.83233e-005
2.62995e-008
2.82966e-005
2.66639e-008
2.82708e-005
2.58278e-008
2.93729e-008
5.00493e-005
-1.05544e-008
5.01077e-005
5.95596e-008
5.01578e-005
1.03583e-007
5.01966e-005
1.33161e-007
5.02256e-005
1.52764e-007
5.02466e-005
1.66544e-007
5.02611e-005
1.75839e-007
5.02706e-005
1.82603e-007
5.02759e-005
1.87203e-007
5.02776e-005
1.90652e-007
5.0276e-005
1.93521e-007
5.02714e-005
1.9617e-007
5.02642e-005
1.98338e-007
5.02547e-005
2.00078e-007
5.02434e-005
2.01217e-007
5.02305e-005
2.0189e-007
5.02163e-005
2.02389e-007
5.02009e-005
2.0276e-007
5.01843e-005
2.02957e-007
5.01668e-005
2.03013e-007
5.01484e-005
2.03001e-007
5.01292e-005
2.02857e-007
5.01093e-005
2.02609e-007
5.00888e-005
2.02278e-007
5.00676e-005
2.01878e-007
5.0046e-005
2.01424e-007
5.00239e-005
2.00901e-007
5.00014e-005
2.00322e-007
4.99785e-005
1.99716e-007
4.99552e-005
1.99077e-007
4.99316e-005
1.98406e-007
4.99076e-005
1.977e-007
4.98834e-005
1.96969e-007
4.98589e-005
1.96222e-007
4.98342e-005
1.95461e-007
4.98092e-005
1.94694e-007
4.9784e-005
1.93926e-007
4.97585e-005
1.93153e-007
4.97329e-005
1.92371e-007
4.9707e-005
1.91573e-007
4.96809e-005
1.9076e-007
4.96546e-005
1.89933e-007
4.96281e-005
1.89087e-007
4.96015e-005
1.88228e-007
4.95747e-005
1.87365e-007
4.95478e-005
1.86496e-007
4.95207e-005
1.85628e-007
4.94935e-005
1.84767e-007
4.94661e-005
1.83908e-007
4.94386e-005
1.83047e-007
4.94109e-005
1.82181e-007
4.9383e-005
1.8131e-007
4.93551e-005
1.8043e-007
4.93269e-005
1.7954e-007
4.92986e-005
1.7864e-007
4.92702e-005
1.7773e-007
4.92416e-005
1.76812e-007
4.92128e-005
1.75889e-007
4.91839e-005
1.74959e-007
4.91548e-005
1.74025e-007
4.91255e-005
1.73084e-007
4.90961e-005
1.72137e-007
4.90665e-005
1.71184e-007
4.90367e-005
1.70223e-007
4.90067e-005
1.69256e-007
4.89766e-005
1.68279e-007
4.89463e-005
1.67295e-007
4.89158e-005
1.66302e-007
4.88852e-005
1.65302e-007
4.88543e-005
1.64297e-007
4.88233e-005
1.63287e-007
4.87921e-005
1.62274e-007
4.87607e-005
1.61264e-007
4.87292e-005
1.60262e-007
4.86974e-005
1.59276e-007
4.86654e-005
1.58318e-007
4.86333e-005
1.57412e-007
4.8601e-005
1.56562e-007
4.85689e-005
1.55709e-007
4.8537e-005
1.54875e-007
4.85054e-005
1.54113e-007
4.8474e-005
1.53396e-007
4.84429e-005
1.52708e-007
4.8412e-005
1.52036e-007
4.83813e-005
1.5137e-007
4.83507e-005
1.50708e-007
4.83203e-005
1.50045e-007
4.82901e-005
1.49381e-007
4.82599e-005
1.48712e-007
4.82298e-005
1.48038e-007
4.81999e-005
1.47358e-007
4.817e-005
1.46672e-007
4.81402e-005
1.45981e-007
4.81104e-005
1.45283e-007
4.80806e-005
1.4458e-007
4.80509e-005
1.43872e-007
4.80213e-005
1.43159e-007
4.79916e-005
1.42442e-007
4.7962e-005
1.41728e-007
4.79323e-005
1.40991e-007
4.79027e-005
1.40224e-007
4.78731e-005
1.39455e-007
4.78435e-005
1.38683e-007
4.78139e-005
1.37908e-007
4.77842e-005
1.37128e-007
4.77546e-005
1.36343e-007
4.77249e-005
1.35552e-007
4.76953e-005
1.34755e-007
4.76656e-005
1.33951e-007
4.76358e-005
1.3314e-007
4.76061e-005
1.32322e-007
4.75763e-005
1.31499e-007
4.75465e-005
1.30669e-007
4.75167e-005
1.29833e-007
4.74869e-005
1.2899e-007
4.7457e-005
1.28142e-007
4.74271e-005
1.27288e-007
4.73971e-005
1.26428e-007
4.73672e-005
1.25562e-007
4.73372e-005
1.2469e-007
4.73072e-005
1.23812e-007
4.72772e-005
1.22929e-007
4.72471e-005
1.2204e-007
4.7217e-005
1.21146e-007
4.71869e-005
1.20246e-007
4.71568e-005
1.19342e-007
4.71266e-005
1.18433e-007
4.70965e-005
1.17519e-007
4.70663e-005
1.16601e-007
4.70361e-005
1.15677e-007
4.70059e-005
1.1475e-007
4.69756e-005
1.13818e-007
4.69454e-005
1.12881e-007
4.69151e-005
1.11941e-007
4.68849e-005
1.10996e-007
4.68546e-005
1.10047e-007
4.68243e-005
1.09095e-007
4.6794e-005
1.0814e-007
4.67638e-005
1.07181e-007
4.67335e-005
1.06219e-007
4.67032e-005
1.05254e-007
4.66729e-005
1.04285e-007
4.66427e-005
1.03314e-007
4.66124e-005
1.0234e-007
4.65822e-005
1.01365e-007
4.65519e-005
1.00387e-007
4.65217e-005
9.94073e-008
4.64915e-005
9.8426e-008
4.64613e-005
9.74429e-008
4.64312e-005
9.64582e-008
4.6401e-005
9.54723e-008
4.63709e-005
9.44856e-008
4.63408e-005
9.34988e-008
4.63108e-005
9.25119e-008
4.62807e-005
9.15251e-008
4.62508e-005
9.0538e-008
4.62208e-005
8.95504e-008
4.61909e-005
8.85623e-008
4.6161e-005
8.75742e-008
4.61312e-005
8.65866e-008
4.61014e-005
8.56002e-008
4.60717e-005
8.46152e-008
4.6042e-005
8.36315e-008
4.60124e-005
8.26492e-008
4.59828e-005
8.16683e-008
4.59533e-005
8.06888e-008
4.59238e-005
7.9711e-008
4.58944e-005
7.87352e-008
4.58651e-005
7.77615e-008
4.58358e-005
7.67898e-008
4.58066e-005
7.58204e-008
4.57775e-005
7.48536e-008
4.57484e-005
7.38896e-008
4.57194e-005
7.29289e-008
4.56905e-005
7.19718e-008
4.56617e-005
7.10187e-008
4.5633e-005
7.00699e-008
4.56043e-005
6.91258e-008
4.55757e-005
6.81869e-008
4.55472e-005
6.72534e-008
4.55188e-005
6.63262e-008
4.54905e-005
6.5406e-008
4.54622e-005
6.44939e-008
4.54341e-005
6.35908e-008
4.5406e-005
6.2698e-008
4.5378e-005
6.18171e-008
4.53501e-005
6.09501e-008
4.53223e-005
6.01002e-008
4.52946e-005
5.92706e-008
4.52669e-005
5.84669e-008
4.52393e-005
5.76914e-008
4.52117e-005
5.69578e-008
4.51842e-005
5.6251e-008
4.51567e-005
5.56386e-008
4.51292e-005
5.49806e-008
4.51017e-005
5.46383e-008
4.50737e-005
5.42711e-008
4.5046e-005
5.43822e-008
4.50167e-005
5.50986e-008
5.59462e-008
5.00365e-005
-4.70851e-008
5.00887e-005
7.38801e-009
5.01422e-005
5.00626e-008
5.0193e-005
8.23831e-008
5.02393e-005
1.06462e-007
5.02812e-005
1.24605e-007
5.03189e-005
1.38132e-007
5.03534e-005
1.48142e-007
5.03845e-005
1.56088e-007
5.04125e-005
1.62634e-007
5.04381e-005
1.67969e-007
5.04616e-005
1.72671e-007
5.04833e-005
1.76639e-007
5.05034e-005
1.79925e-007
5.05224e-005
1.82307e-007
5.05401e-005
1.84166e-007
5.05566e-005
1.85904e-007
5.05719e-005
1.87435e-007
5.05863e-005
1.8853e-007
5.06e-005
1.89378e-007
5.06128e-005
1.90161e-007
5.0625e-005
1.90633e-007
5.06367e-005
1.90935e-007
5.06479e-005
1.91106e-007
5.06586e-005
1.91172e-007
5.06688e-005
1.91157e-007
5.06787e-005
1.91016e-007
5.06883e-005
1.90779e-007
5.06975e-005
1.90504e-007
5.07064e-005
1.90174e-007
5.0715e-005
1.89787e-007
5.07234e-005
1.89338e-007
5.07315e-005
1.88846e-007
5.07394e-005
1.88325e-007
5.07471e-005
1.87781e-007
5.07545e-005
1.87234e-007
5.07618e-005
1.86687e-007
5.07688e-005
1.86132e-007
5.07756e-005
1.85561e-007
5.07822e-005
1.84963e-007
5.07886e-005
1.84342e-007
5.07948e-005
1.83702e-007
5.08009e-005
1.83018e-007
5.08068e-005
1.82304e-007
5.08126e-005
1.81595e-007
5.08182e-005
1.80887e-007
5.08237e-005
1.80183e-007
5.0829e-005
1.7948e-007
5.08341e-005
1.78778e-007
5.08391e-005
1.78076e-007
5.08439e-005
1.77373e-007
5.08485e-005
1.76664e-007
5.0853e-005
1.75948e-007
5.08573e-005
1.75221e-007
5.08615e-005
1.7448e-007
5.08655e-005
1.7373e-007
5.08693e-005
1.72974e-007
5.0873e-005
1.72214e-007
5.08765e-005
1.71453e-007
5.08798e-005
1.70691e-007
5.0883e-005
1.69925e-007
5.0886e-005
1.69157e-007
5.08888e-005
1.68384e-007
5.08914e-005
1.67606e-007
5.08938e-005
1.66822e-007
5.08961e-005
1.66031e-007
5.08981e-005
1.65234e-007
5.09e-005
1.64431e-007
5.09017e-005
1.63624e-007
5.09032e-005
1.62814e-007
5.09044e-005
1.62002e-007
5.09055e-005
1.6119e-007
5.09064e-005
1.60382e-007
5.09071e-005
1.59582e-007
5.09076e-005
1.58797e-007
5.09078e-005
1.58033e-007
5.0908e-005
1.57296e-007
5.09079e-005
1.5658e-007
5.09078e-005
1.55859e-007
5.09075e-005
1.55135e-007
5.09072e-005
1.54438e-007
5.09068e-005
1.53766e-007
5.09064e-005
1.53114e-007
5.0906e-005
1.52477e-007
5.09055e-005
1.51851e-007
5.0905e-005
1.51232e-007
5.09044e-005
1.50617e-007
5.09038e-005
1.50005e-007
5.09031e-005
1.49393e-007
5.09024e-005
1.48781e-007
5.09016e-005
1.48166e-007
5.09007e-005
1.47549e-007
5.08997e-005
1.4693e-007
5.08987e-005
1.46309e-007
5.08976e-005
1.45686e-007
5.08964e-005
1.45061e-007
5.08951e-005
1.44434e-007
5.08938e-005
1.43806e-007
5.08923e-005
1.43184e-007
5.08908e-005
1.42545e-007
5.08891e-005
1.41878e-007
5.08874e-005
1.41206e-007
5.08855e-005
1.40531e-007
5.08836e-005
1.39856e-007
5.08815e-005
1.39177e-007
5.08794e-005
1.38495e-007
5.08771e-005
1.37808e-007
5.08747e-005
1.37117e-007
5.08723e-005
1.36421e-007
5.08697e-005
1.35721e-007
5.0867e-005
1.35015e-007
5.08642e-005
1.34305e-007
5.08613e-005
1.3359e-007
5.08582e-005
1.3287e-007
5.08551e-005
1.32145e-007
5.08518e-005
1.31416e-007
5.08484e-005
1.30682e-007
5.08449e-005
1.29944e-007
5.08413e-005
1.292e-007
5.08375e-005
1.28452e-007
5.08336e-005
1.27699e-007
5.08296e-005
1.26942e-007
5.08255e-005
1.2618e-007
5.08212e-005
1.25413e-007
5.08168e-005
1.24643e-007
5.08123e-005
1.23868e-007
5.08076e-005
1.23089e-007
5.08028e-005
1.22305e-007
5.07979e-005
1.21518e-007
5.07929e-005
1.20727e-007
5.07877e-005
1.19932e-007
5.07824e-005
1.19133e-007
5.07769e-005
1.1833e-007
5.07713e-005
1.17524e-007
5.07656e-005
1.16714e-007
5.07598e-005
1.15901e-007
5.07538e-005
1.15085e-007
5.07476e-005
1.14265e-007
5.07414e-005
1.13441e-007
5.0735e-005
1.12614e-007
5.07285e-005
1.11784e-007
5.07218e-005
1.10951e-007
5.0715e-005
1.10116e-007
5.07081e-005
1.09277e-007
5.0701e-005
1.08437e-007
5.06938e-005
1.07594e-007
5.06864e-005
1.0675e-007
5.0679e-005
1.05903e-007
5.06713e-005
1.05055e-007
5.06636e-005
1.04206e-007
5.06557e-005
1.03355e-007
5.06477e-005
1.02504e-007
5.06395e-005
1.01652e-007
5.06313e-005
1.00799e-007
5.06228e-005
9.99448e-008
5.06143e-005
9.90899e-008
5.06056e-005
9.82343e-008
5.05968e-005
9.73782e-008
5.05878e-005
9.65219e-008
5.05788e-005
9.56657e-008
5.05695e-005
9.481e-008
5.05602e-005
9.39547e-008
5.05507e-005
9.30999e-008
5.05411e-005
9.22456e-008
5.05314e-005
9.1392e-008
5.05216e-005
9.0539e-008
5.05116e-005
8.96866e-008
5.05015e-005
8.88351e-008
5.04913e-005
8.79848e-008
5.04809e-005
8.71358e-008
5.04705e-005
8.62884e-008
5.04599e-005
8.54428e-008
5.04492e-005
8.45994e-008
5.04383e-005
8.37582e-008
5.04274e-005
8.29196e-008
5.04163e-005
8.2084e-008
5.04051e-005
8.12518e-008
5.03938e-005
8.04234e-008
5.03824e-005
7.95995e-008
5.03709e-005
7.87805e-008
5.03593e-005
7.79671e-008
5.03475e-005
7.71599e-008
5.03356e-005
7.63601e-008
5.03237e-005
7.55689e-008
5.03116e-005
7.4788e-008
5.02994e-005
7.40196e-008
5.0287e-005
7.32664e-008
5.02746e-005
7.25319e-008
5.02621e-005
7.18201e-008
5.02494e-005
7.11366e-008
5.02366e-005
7.04875e-008
5.02237e-005
6.98833e-008
5.02106e-005
6.93305e-008
5.01974e-005
6.8856e-008
5.01839e-005
6.84975e-008
5.01703e-005
6.81977e-008
5.01563e-005
6.8268e-008
5.01425e-005
6.81666e-008
5.01285e-005
6.91159e-008
6.89304e-008
5.00312e-005
-7.83251e-008
5.00728e-005
-3.41912e-008
5.0119e-005
3.92752e-009
5.0166e-005
3.53042e-008
5.02119e-005
6.05487e-008
5.02558e-005
8.07286e-008
5.02972e-005
9.67774e-008
5.03358e-005
1.09543e-007
5.03719e-005
1.19989e-007
5.04058e-005
1.28723e-007
5.04377e-005
1.36017e-007
5.04682e-005
1.42259e-007
5.04972e-005
1.4761e-007
5.05251e-005
1.5204e-007
5.05518e-005
1.55528e-007
5.05775e-005
1.58512e-007
5.06021e-005
1.61263e-007
5.06258e-005
1.63763e-007
5.06488e-005
1.65558e-007
5.06713e-005
1.66872e-007
5.06933e-005
1.68166e-007
5.07148e-005
1.69116e-007
5.07359e-005
1.69846e-007
5.07566e-005
1.70394e-007
5.07769e-005
1.70827e-007
5.07969e-005
1.7117e-007
5.08167e-005
1.71269e-007
5.08362e-005
1.71268e-007
5.08554e-005
1.71259e-007
5.08745e-005
1.71151e-007
5.08933e-005
1.70961e-007
5.0912e-005
1.7067e-007
5.09305e-005
1.70334e-007
5.09488e-005
1.69969e-007
5.0967e-005
1.69571e-007
5.09851e-005
1.69176e-007
5.1003e-005
1.68788e-007
5.10207e-005
1.68394e-007
5.10383e-005
1.6798e-007
5.10558e-005
1.67511e-007
5.10731e-005
1.67001e-007
5.10903e-005
1.66469e-007
5.11075e-005
1.65889e-007
5.11245e-005
1.65279e-007
5.11414e-005
1.6467e-007
5.11582e-005
1.64074e-007
5.11749e-005
1.63492e-007
5.11915e-005
1.62915e-007
5.12079e-005
1.62339e-007
5.12242e-005
1.61763e-007
5.12404e-005
1.61184e-007
5.12565e-005
1.60602e-007
5.12724e-005
1.60013e-007
5.12882e-005
1.59408e-007
5.13039e-005
1.58783e-007
5.13195e-005
1.58148e-007
5.1335e-005
1.57507e-007
5.13503e-005
1.56868e-007
5.13655e-005
1.56233e-007
5.13806e-005
1.556e-007
5.13956e-005
1.54967e-007
5.14104e-005
1.54333e-007
5.14251e-005
1.53696e-007
5.14397e-005
1.53056e-007
5.14541e-005
1.5241e-007
5.14683e-005
1.51758e-007
5.14825e-005
1.51103e-007
5.14965e-005
1.50444e-007
5.15103e-005
1.49784e-007
5.1524e-005
1.49121e-007
5.15375e-005
1.48456e-007
5.15509e-005
1.47792e-007
5.15642e-005
1.47132e-007
5.15773e-005
1.4648e-007
5.15902e-005
1.45841e-007
5.16031e-005
1.45219e-007
5.16157e-005
1.44615e-007
5.16283e-005
1.44027e-007
5.16407e-005
1.43439e-007
5.1653e-005
1.4285e-007
5.16652e-005
1.42272e-007
5.16772e-005
1.41709e-007
5.16892e-005
1.41159e-007
5.1701e-005
1.40618e-007
5.17128e-005
1.40085e-007
5.17245e-005
1.39558e-007
5.17361e-005
1.39034e-007
5.17475e-005
1.38513e-007
5.17589e-005
1.37992e-007
5.17703e-005
1.37471e-007
5.17815e-005
1.36949e-007
5.17926e-005
1.36425e-007
5.18036e-005
1.35901e-007
5.18146e-005
1.35375e-007
5.18254e-005
1.34847e-007
5.18361e-005
1.34317e-007
5.18468e-005
1.33786e-007
5.18573e-005
1.33251e-007
5.18678e-005
1.32713e-007
5.18782e-005
1.32167e-007
5.18885e-005
1.31612e-007
5.18986e-005
1.3105e-007
5.19087e-005
1.30484e-007
5.19186e-005
1.29915e-007
5.19284e-005
1.29342e-007
5.19382e-005
1.28766e-007
5.19478e-005
1.28186e-007
5.19573e-005
1.27601e-007
5.19667e-005
1.27013e-007
5.1976e-005
1.2642e-007
5.19852e-005
1.25824e-007
5.19943e-005
1.25223e-007
5.20033e-005
1.24619e-007
5.20121e-005
1.24011e-007
5.20209e-005
1.23399e-007
5.20295e-005
1.22783e-007
5.2038e-005
1.22165e-007
5.20464e-005
1.21542e-007
5.20547e-005
1.20915e-007
5.20629e-005
1.20285e-007
5.20709e-005
1.1965e-007
5.20788e-005
1.19012e-007
5.20867e-005
1.1837e-007
5.20943e-005
1.17725e-007
5.21019e-005
1.17076e-007
5.21094e-005
1.16424e-007
5.21167e-005
1.15768e-007
5.21239e-005
1.15109e-007
5.21309e-005
1.14447e-007
5.21379e-005
1.13782e-007
5.21447e-005
1.13113e-007
5.21514e-005
1.12442e-007
5.2158e-005
1.11768e-007
5.21644e-005
1.11091e-007
5.21707e-005
1.10411e-007
5.21769e-005
1.09728e-007
5.21829e-005
1.09042e-007
5.21888e-005
1.08353e-007
5.21946e-005
1.07661e-007
5.22003e-005
1.06966e-007
5.22058e-005
1.06269e-007
5.22112e-005
1.05568e-007
5.22164e-005
1.04866e-007
5.22215e-005
1.04161e-007
5.22265e-005
1.03454e-007
5.22313e-005
1.02746e-007
5.22361e-005
1.02037e-007
5.22406e-005
1.01326e-007
5.22451e-005
1.00614e-007
5.22494e-005
9.99013e-008
5.22536e-005
9.91878e-008
5.22576e-005
9.84735e-008
5.22615e-005
9.77583e-008
5.22652e-005
9.70423e-008
5.22689e-005
9.63255e-008
5.22723e-005
9.5608e-008
5.22757e-005
9.48901e-008
5.22789e-005
9.41721e-008
5.2282e-005
9.34541e-008
5.22849e-005
9.27364e-008
5.22877e-005
9.20191e-008
5.22903e-005
9.13022e-008
5.22928e-005
9.05856e-008
5.22952e-005
8.98693e-008
5.22975e-005
8.91533e-008
5.22996e-005
8.84377e-008
5.23015e-005
8.77226e-008
5.23033e-005
8.70084e-008
5.2305e-005
8.62952e-008
5.23066e-005
8.55834e-008
5.2308e-005
8.48731e-008
5.23093e-005
8.41644e-008
5.23104e-005
8.34576e-008
5.23114e-005
8.2753e-008
5.23123e-005
8.20509e-008
5.2313e-005
8.13517e-008
5.23136e-005
8.06558e-008
5.23141e-005
7.99635e-008
5.23144e-005
7.92753e-008
5.23146e-005
7.85918e-008
5.23147e-005
7.79135e-008
5.23146e-005
7.72414e-008
5.23144e-005
7.65766e-008
5.2314e-005
7.59206e-008
5.23135e-005
7.52751e-008
5.23129e-005
7.46427e-008
5.23121e-005
7.40261e-008
5.23112e-005
7.34287e-008
5.23102e-005
7.28552e-008
5.2309e-005
7.2311e-008
5.23077e-005
7.18045e-008
5.23063e-005
7.13431e-008
5.23046e-005
7.09469e-008
5.23029e-005
7.06115e-008
5.23009e-005
7.04388e-008
5.22989e-005
7.02649e-008
5.22967e-005
7.04767e-008
5.22944e-005
7.04455e-008
5.22922e-005
7.12576e-008
7.10294e-008
5.00288e-005
-1.07167e-007
5.00651e-005
-7.04236e-008
5.01056e-005
-3.66437e-008
5.01481e-005
-7.17963e-009
5.01908e-005
1.7858e-008
5.02327e-005
3.8854e-008
5.02731e-005
5.63356e-008
5.03118e-005
7.08677e-008
5.03487e-005
8.30762e-008
5.0384e-005
9.344e-008
5.04178e-005
1.02256e-007
5.04502e-005
1.0982e-007
5.04815e-005
1.16308e-007
5.05117e-005
1.21807e-007
5.05409e-005
1.26383e-007
5.05691e-005
1.30284e-007
5.05966e-005
1.33747e-007
5.06235e-005
1.36858e-007
5.06498e-005
1.39283e-007
5.06756e-005
1.41092e-007
5.07011e-005
1.42695e-007
5.07262e-005
1.44006e-007
5.0751e-005
1.45056e-007
5.07755e-005
1.45877e-007
5.07997e-005
1.46622e-007
5.08235e-005
1.47325e-007
5.08472e-005
1.476e-007
5.08708e-005
1.47656e-007
5.08943e-005
1.47776e-007
5.09176e-005
1.47848e-007
5.09408e-005
1.47794e-007
5.09638e-005
1.47596e-007
5.09868e-005
1.47383e-007
5.10096e-005
1.47142e-007
5.10324e-005
1.46835e-007
5.1055e-005
1.46548e-007
5.10775e-005
1.46275e-007
5.10999e-005
1.45994e-007
5.11222e-005
1.45681e-007
5.11444e-005
1.45301e-007
5.11665e-005
1.44863e-007
5.11886e-005
1.44392e-007
5.12106e-005
1.4388e-007
5.12326e-005
1.4335e-007
5.12544e-005
1.42822e-007
5.12762e-005
1.42313e-007
5.12978e-005
1.41831e-007
5.13194e-005
1.41352e-007
5.13409e-005
1.40873e-007
5.13622e-005
1.40395e-007
5.13835e-005
1.39922e-007
5.14046e-005
1.3945e-007
5.14257e-005
1.38967e-007
5.14466e-005
1.38452e-007
5.14675e-005
1.37909e-007
5.14883e-005
1.37356e-007
5.1509e-005
1.36802e-007
5.15296e-005
1.36257e-007
5.15501e-005
1.35725e-007
5.15705e-005
1.35199e-007
5.15908e-005
1.34676e-007
5.1611e-005
1.34154e-007
5.16311e-005
1.3363e-007
5.1651e-005
1.33104e-007
5.16709e-005
1.32571e-007
5.16906e-005
1.32032e-007
5.17102e-005
1.31492e-007
5.17297e-005
1.30953e-007
5.17491e-005
1.30414e-007
5.17683e-005
1.29871e-007
5.17874e-005
1.29327e-007
5.18064e-005
1.28782e-007
5.18253e-005
1.28239e-007
5.18441e-005
1.27703e-007
5.18628e-005
1.27178e-007
5.18813e-005
1.26666e-007
5.18998e-005
1.26168e-007
5.19181e-005
1.25682e-007
5.19364e-005
1.25201e-007
5.19545e-005
1.24723e-007
5.19725e-005
1.24253e-007
5.19904e-005
1.23792e-007
5.20082e-005
1.23338e-007
5.2026e-005
1.2289e-007
5.20436e-005
1.22446e-007
5.20612e-005
1.22007e-007
5.20786e-005
1.21573e-007
5.2096e-005
1.21141e-007
5.21133e-005
1.20712e-007
5.21305e-005
1.20282e-007
5.21476e-005
1.19853e-007
5.21646e-005
1.19422e-007
5.21815e-005
1.18991e-007
5.21983e-005
1.18558e-007
5.2215e-005
1.18123e-007
5.22316e-005
1.17687e-007
5.22482e-005
1.17248e-007
5.22646e-005
1.16806e-007
5.2281e-005
1.16362e-007
5.22972e-005
1.15911e-007
5.23134e-005
1.15453e-007
5.23295e-005
1.1499e-007
5.23454e-005
1.14523e-007
5.23613e-005
1.14054e-007
5.2377e-005
1.13581e-007
5.23927e-005
1.13106e-007
5.24083e-005
1.12627e-007
5.24237e-005
1.12144e-007
5.24391e-005
1.11657e-007
5.24543e-005
1.11167e-007
5.24695e-005
1.10673e-007
5.24845e-005
1.10176e-007
5.24995e-005
1.09675e-007
5.25143e-005
1.09172e-007
5.2529e-005
1.08666e-007
5.25437e-005
1.08157e-007
5.25582e-005
1.07646e-007
5.25726e-005
1.07131e-007
5.25869e-005
1.06612e-007
5.26011e-005
1.06091e-007
5.26152e-005
1.05566e-007
5.26292e-005
1.05038e-007
5.2643e-005
1.04506e-007
5.26568e-005
1.03973e-007
5.26704e-005
1.03436e-007
5.26839e-005
1.02896e-007
5.26973e-005
1.02354e-007
5.27106e-005
1.01809e-007
5.27238e-005
1.01261e-007
5.27369e-005
1.00711e-007
5.27499e-005
1.00159e-007
5.27627e-005
9.96035e-008
5.27754e-005
9.90462e-008
5.2788e-005
9.84866e-008
5.28005e-005
9.79245e-008
5.28129e-005
9.73599e-008
5.28251e-005
9.67927e-008
5.28373e-005
9.62228e-008
5.28493e-005
9.56502e-008
5.28612e-005
9.50751e-008
5.28729e-005
9.44975e-008
5.28846e-005
9.39177e-008
5.28961e-005
9.33356e-008
5.29075e-005
9.27519e-008
5.29188e-005
9.21668e-008
5.293e-005
9.15806e-008
5.2941e-005
9.09934e-008
5.29519e-005
9.04055e-008
5.29627e-005
8.9817e-008
5.29734e-005
8.92279e-008
5.2984e-005
8.86383e-008
5.29944e-005
8.80479e-008
5.30047e-005
8.74567e-008
5.30149e-005
8.68647e-008
5.30249e-005
8.6272e-008
5.30348e-005
8.5679e-008
5.30446e-005
8.50859e-008
5.30543e-005
8.4493e-008
5.30639e-005
8.39005e-008
5.30733e-005
8.33083e-008
5.30826e-005
8.27165e-008
5.30918e-005
8.21248e-008
5.31008e-005
8.15332e-008
5.31098e-005
8.09417e-008
5.31186e-005
8.03503e-008
5.31273e-005
7.97594e-008
5.31358e-005
7.9169e-008
5.31442e-005
7.85794e-008
5.31525e-005
7.79909e-008
5.31607e-005
7.74035e-008
5.31688e-005
7.68175e-008
5.31767e-005
7.62332e-008
5.31845e-005
7.56507e-008
5.31922e-005
7.50704e-008
5.31998e-005
7.44924e-008
5.32072e-005
7.39173e-008
5.32145e-005
7.33451e-008
5.32217e-005
7.27763e-008
5.32287e-005
7.22113e-008
5.32357e-005
7.16507e-008
5.32425e-005
7.1095e-008
5.32492e-005
7.05453e-008
5.32558e-005
7.00025e-008
5.32622e-005
6.94682e-008
5.32686e-005
6.89443e-008
5.32748e-005
6.84329e-008
5.32809e-005
6.79369e-008
5.32868e-005
6.74596e-008
5.32927e-005
6.70056e-008
5.32984e-005
6.65801e-008
5.3304e-005
6.61915e-008
5.33095e-005
6.58455e-008
5.33149e-005
6.5564e-008
5.33202e-005
6.53352e-008
5.33254e-005
6.52476e-008
5.33305e-005
6.51627e-008
5.33356e-005
6.53662e-008
5.33406e-005
6.53948e-008
5.33459e-005
6.598e-008
6.59123e-008
5.00276e-005
-1.348e-007
5.00605e-005
-1.03329e-007
5.00971e-005
-7.32511e-008
5.01358e-005
-4.58735e-008
5.01753e-005
-2.16258e-008
5.02147e-005
-5.0214e-010
5.02533e-005
1.77196e-008
5.02908e-005
3.33617e-008
5.03271e-005
4.68108e-008
5.03621e-005
5.84075e-008
5.03959e-005
6.84068e-008
5.04287e-005
7.7043e-008
5.04605e-005
8.44908e-008
5.04915e-005
9.08748e-008
5.05216e-005
9.63022e-008
5.05509e-005
1.00948e-007
5.05797e-005
1.04974e-007
5.06081e-005
1.08467e-007
5.0636e-005
1.11361e-007
5.06634e-005
1.13699e-007
5.06904e-005
1.15653e-007
5.07172e-005
1.17262e-007
5.07436e-005
1.18566e-007
5.07699e-005
1.19615e-007
5.0796e-005
1.20553e-007
5.08219e-005
1.21403e-007
5.08476e-005
1.21856e-007
5.08733e-005
1.22039e-007
5.08988e-005
1.2222e-007
5.09243e-005
1.22359e-007
5.09497e-005
1.22374e-007
5.0975e-005
1.22292e-007
5.10002e-005
1.22235e-007
5.10252e-005
1.22097e-007
5.10503e-005
1.21803e-007
5.10753e-005
1.2153e-007
5.11002e-005
1.21329e-007
5.11251e-005
1.21135e-007
5.11499e-005
1.20896e-007
5.11746e-005
1.20592e-007
5.11992e-005
1.20224e-007
5.12238e-005
1.19805e-007
5.12484e-005
1.19327e-007
5.12729e-005
1.18824e-007
5.12973e-005
1.18364e-007
5.13217e-005
1.17972e-007
5.13459e-005
1.17601e-007
5.137e-005
1.17214e-007
5.13941e-005
1.16818e-007
5.14181e-005
1.16424e-007
5.1442e-005
1.1604e-007
5.14657e-005
1.15656e-007
5.14895e-005
1.15257e-007
5.15131e-005
1.14807e-007
5.15367e-005
1.14315e-007
5.15602e-005
1.13824e-007
5.15837e-005
1.13338e-007
5.16071e-005
1.12874e-007
5.16304e-005
1.12436e-007
5.16536e-005
1.12009e-007
5.16766e-005
1.11585e-007
5.16996e-005
1.11163e-007
5.17225e-005
1.1074e-007
5.17453e-005
1.10311e-007
5.1768e-005
1.09875e-007
5.17906e-005
1.09435e-007
5.18131e-005
1.09003e-007
5.18355e-005
1.08573e-007
5.18578e-005
1.08139e-007
5.18799e-005
1.07697e-007
5.1902e-005
1.07253e-007
5.1924e-005
1.06808e-007
5.19459e-005
1.06363e-007
5.19676e-005
1.05926e-007
5.19893e-005
1.05498e-007
5.20109e-005
1.05082e-007
5.20324e-005
1.04679e-007
5.20538e-005
1.04286e-007
5.20751e-005
1.03898e-007
5.20963e-005
1.03515e-007
5.21174e-005
1.03138e-007
5.21384e-005
1.02766e-007
5.21594e-005
1.02397e-007
5.21802e-005
1.02032e-007
5.2201e-005
1.0167e-007
5.22217e-005
1.01312e-007
5.22423e-005
1.00962e-007
5.22628e-005
1.00616e-007
5.22833e-005
1.00273e-007
5.23036e-005
9.99313e-008
5.23239e-005
9.95893e-008
5.23441e-005
9.92469e-008
5.23642e-005
9.89036e-008
5.23842e-005
9.85592e-008
5.24041e-005
9.82134e-008
5.24239e-005
9.78658e-008
5.24436e-005
9.75161e-008
5.24633e-005
9.71637e-008
5.24828e-005
9.68082e-008
5.25023e-005
9.64486e-008
5.25216e-005
9.60844e-008
5.25409e-005
9.57164e-008
5.25601e-005
9.53457e-008
5.25792e-005
9.49726e-008
5.25982e-005
9.45969e-008
5.2617e-005
9.42182e-008
5.26358e-005
9.38361e-008
5.26545e-005
9.34506e-008
5.26731e-005
9.30615e-008
5.26916e-005
9.26693e-008
5.271e-005
9.22741e-008
5.27283e-005
9.18763e-008
5.27465e-005
9.14762e-008
5.27646e-005
9.10738e-008
5.27826e-005
9.06692e-008
5.28005e-005
9.02623e-008
5.28183e-005
8.9853e-008
5.2836e-005
8.94409e-008
5.28536e-005
8.90261e-008
5.28711e-005
8.86084e-008
5.28884e-005
8.8188e-008
5.29057e-005
8.77651e-008
5.29229e-005