# vtk DataFile Version 2.0
track0
ASCII
DATASET POLYDATA
POINTS 11930 float
-0.0205 0.001 1e-005
-0.0203851 0.00100536 1.50242e-005
-0.0202701 0.00101047 1.96638e-005
-0.0201551 0.00101535 2.39716e-005
-0.0200401 0.00102 2.79428e-005
-0.0198624 0.00102682 3.35506e-005
-0.0196933 0.00103276 3.80972e-005
-0.0195242 0.00103809 4.16123e-005
-0.0193551 0.00104281 4.41047e-005
-0.019186 0.00104692 4.55839e-005
-0.0190172 0.00105042 4.60582e-005
-0.0187132 0.00105593 4.60582e-005
-0.0184093 0.00106079 4.60582e-005
-0.0181054 0.00106514 4.60582e-005
-0.0178014 0.00106896 4.60582e-005
-0.0174976 0.00107226 4.60582e-005
-0.0172058 0.00107513 4.60582e-005
-0.016914 0.00107793 4.60582e-005
-0.0166222 0.00108065 4.60582e-005
-0.0163305 0.00108332 4.60582e-005
-0.0160387 0.00108591 4.60582e-005
-0.0157586 0.0010883 4.60582e-005
-0.0154784 0.00109063 4.60582e-005
-0.0151983 0.00109287 4.60582e-005
-0.0149182 0.00109502 4.60582e-005
-0.0146381 0.0010971 4.60582e-005
-0.0143692 0.00109897 4.60582e-005
-0.0141002 0.00110075 4.60582e-005
-0.0138313 0.00110245 4.60582e-005
-0.0135624 0.00110408 4.60582e-005
-0.0132934 0.00110563 4.60582e-005
-0.0130353 0.00110705 4.60582e-005
-0.0127771 0.00110841 4.60582e-005
-0.0125189 0.00110973 4.60582e-005
-0.0122607 0.00111101 4.60582e-005
-0.0120025 0.00111226 4.60582e-005
-0.0117547 0.00111342 4.60582e-005
-0.0115068 0.00111455 4.60582e-005
-0.0112589 0.00111567 4.60582e-005
-0.0110111 0.00111677 4.60582e-005
-0.0107632 0.00111785 4.60582e-005
-0.0105252 0.00111887 4.60582e-005
-0.0102873 0.00111987 4.60582e-005
-0.0100493 0.00112086 4.60582e-005
-0.00981133 0.00112184 4.60582e-005
-0.00957337 0.00112281 4.60582e-005
-0.00934491 0.00112373 4.60582e-005
-0.00911645 0.00112463 4.60582e-005
-0.00888799 0.00112552 4.60582e-005
-0.00865954 0.00112641 4.60582e-005
-0.00843108 0.00112729 4.60582e-005
-0.00821175 0.00112812 4.60582e-005
-0.00799242 0.00112894 4.60582e-005
-0.00777309 0.00112976 4.60582e-005
-0.00755376 0.00113058 4.60582e-005
-0.00733443 0.00113139 4.60582e-005
-0.00712387 0.00113216 4.60582e-005
-0.0069133 0.00113293 4.60582e-005
-0.00670273 0.00113369 4.60582e-005
-0.00649216 0.00113445 4.60582e-005
-0.0062816 0.00113521 4.60582e-005
-0.00607944 0.00113593 4.60582e-005
-0.00587729 0.00113666 4.60582e-005
-0.00567514 0.00113738 4.60582e-005
-0.00547298 0.00113809 4.60582e-005
-0.00527083 0.00113881 4.60582e-005
-0.00507675 0.0011395 4.60582e-005
-0.00488267 0.00114019 4.60582e-005
-0.0046886 0.00114088 4.60582e-005
-0.00449452 0.00114156 4.60582e-005
-0.00430044 0.00114225 4.60582e-005
-0.00411412 0.00114291 4.60582e-005
-0.0039278 0.00114357 4.60582e-005
-0.00374147 0.00114422 4.60582e-005
-0.00355515 0.00114488 4.60582e-005
-0.00336883 0.00114554 4.60582e-005
-0.00318995 0.00114617 4.60582e-005
-0.00301107 0.00114681 4.60582e-005
-0.00283219 0.00114744 4.60582e-005
-0.00265331 0.00114807 4.60582e-005
-0.00247443 0.0011487 4.60582e-005
-0.0023027 0.00114932 4.60582e-005
-0.00213097 0.00114993 4.60582e-005
-0.00195924 0.00115054 4.60582e-005
-0.0017875 0.00115116 4.60582e-005
-0.00161577 0.00115178 4.60582e-005
-0.0014509 0.00115238 4.60582e-005
-0.00128603 0.00115297 4.60582e-005
-0.00112116 0.00115356 4.60582e-005
-0.000956289 0.00115416 4.60582e-005
-0.000791418 0.00115477 4.60582e-005
-0.000633135 0.00115536 4.60582e-005
-0.000474851 0.00115595 4.60582e-005
-0.000316567 0.00115654 4.60582e-005
-0.000158284 0.00115713 4.60582e-005
0 0.00115773 4.60582e-005
0.000105677 0.00115814 4.60582e-005
0.000211355 0.00115855 4.60582e-005
0.000317032 0.00115896 4.60582e-005
0.00042271 0.00115937 4.60582e-005
0.000528387 0.00115979 4.60582e-005
0.000634886 0.00116022 4.60582e-005
0.000741385 0.00116065 4.60582e-005
0.000847885 0.00116108 4.60582e-005
0.000954384 0.00116151 4.60582e-005
0.00106088 0.00116195 4.60582e-005
0.00116821 0.00116241 4.60582e-005
0.00127554 0.00116286 4.60582e-005
0.00138286 0.00116331 4.60582e-005
0.00149019 0.00116377 4.60582e-005
0.00159752 0.00116423 4.60582e-005
0.00170568 0.00116471 4.60582e-005
0.00181384 0.00116519 4.60582e-005
0.001922 0.00116566 4.60582e-005
0.00203016 0.00116614 4.60582e-005
0.00213833 0.00116661 4.60582e-005
0.00224733 0.0011671 4.60582e-005
0.00235633 0.00116759 4.60582e-005
0.00246533 0.00116809 4.60582e-005
0.00257434 0.00116858 4.60582e-005
0.00268334 0.00116907 4.60582e-005
0.00279319 0.00116957 4.60582e-005
0.00290304 0.00117007 4.60582e-005
0.00301289 0.00117058 4.60582e-005
0.00312274 0.00117108 4.60582e-005
0.00323259 0.00117158 4.60582e-005
0.00334329 0.00117209 4.60582e-005
0.003454 0.0011726 4.60582e-005
0.0035647 0.00117312 4.60582e-005
0.0036754 0.00117364 4.60582e-005
0.00378611 0.00117415 4.60582e-005
0.00389767 0.00117466 4.60582e-005
0.00400924 0.00117518 4.60582e-005
0.0041208 0.00117571 4.60582e-005
0.00423237 0.00117624 4.60582e-005
0.00434393 0.00117677 4.60582e-005
0.00445636 0.00117728 4.60582e-005
0.00456879 0.00117781 4.60582e-005
0.00468123 0.00117834 4.60582e-005
0.00479366 0.00117888 4.60582e-005
0.00490609 0.00117941 4.60582e-005
0.0050194 0.00117992 4.60582e-005
0.0051327 0.00118046 4.60582e-005
0.00524601 0.001181 4.60582e-005
0.00535931 0.00118154 4.60582e-005
0.00547262 0.00118208 4.60582e-005
0.00558681 0.00118259 4.60582e-005
0.005701 0.00118313 4.60582e-005
0.00581518 0.00118367 4.60582e-005
0.00592937 0.00118422 4.60582e-005
0.00604356 0.00118476 4.60582e-005
0.00615863 0.00118528 4.60582e-005
0.00627371 0.00118582 4.60582e-005
0.00638878 0.00118636 4.60582e-005
0.00650386 0.0011869 4.60582e-005
0.00661893 0.00118744 4.60582e-005
0.0067349 0.00118797 4.60582e-005
0.00685087 0.00118851 4.60582e-005
0.00696684 0.00118905 4.60582e-005
0.00708281 0.00118959 4.60582e-005
0.00719878 0.00119013 4.60582e-005
0.00731565 0.00119065 4.60582e-005
0.00743252 0.00119119 4.60582e-005
0.00754939 0.00119172 4.60582e-005
0.00766626 0.00119226 4.60582e-005
0.00778313 0.00119279 4.60582e-005
0.00790091 0.00119331 4.60582e-005
0.00801869 0.00119385 4.60582e-005
0.00813647 0.00119438 4.60582e-005
0.00825425 0.00119491 4.60582e-005
0.00837203 0.00119544 4.60582e-005
0.00849073 0.00119596 4.60582e-005
0.00860942 0.00119649 4.60582e-005
0.00872812 0.00119701 4.60582e-005
0.00884682 0.00119753 4.60582e-005
0.00896551 0.00119806 4.60582e-005
0.00908513 0.00119857 4.60582e-005
0.00920475 0.00119909 4.60582e-005
0.00932437 0.00119961 4.60582e-005
0.00944398 0.00120013 4.60582e-005
0.0095636 0.00120064 4.60582e-005
0.00968415 0.00120115 4.60582e-005
0.0098047 0.00120167 4.60582e-005
0.00992525 0.00120218 4.60582e-005
0.0100458 0.00120269 4.60582e-005
0.0101663 0.00120319 4.60582e-005
0.0102878 0.0012037 4.60582e-005
0.0104093 0.0012042 4.60582e-005
0.0105308 0.0012047 4.60582e-005
0.0106523 0.0012052 4.60582e-005
0.0107738 0.0012057 4.60582e-005
0.0108962 0.0012062 4.60582e-005
0.0110186 0.00120669 4.60582e-005
0.0111411 0.00120719 4.60582e-005
0.0112635 0.00120768 4.60582e-005
0.0113859 0.00120816 4.60582e-005
0.0115093 0.00120865 4.60582e-005
0.0116327 0.00120913 4.60582e-005
0.0117561 0.00120962 4.60582e-005
0.0118795 0.0012101 4.60582e-005
0.0120028 0.00121057 4.60582e-005
0.0121272 0.00121104 4.60582e-005
0.0122515 0.00121152 4.60582e-005
0.0123759 0.00121199 4.60582e-005
0.0125002 0.00121246 4.60582e-005
0.0126245 0.00121292 4.60582e-005
0.0127498 0.00121338 4.60582e-005
0.0128752 0.00121384 4.60582e-005
0.0130005 0.0012143 4.60582e-005
0.0131258 0.00121475 4.60582e-005
0.0132511 0.0012152 4.60582e-005
0.0133774 0.00121565 4.60582e-005
0.0135036 0.0012161 4.60582e-005
0.0136299 0.00121655 4.60582e-005
0.0137562 0.00121699 4.60582e-005
0.0138825 0.00121742 4.60582e-005
0.0140098 0.00121785 4.60582e-005
0.014137 0.00121829 4.60582e-005
0.0142643 0.00121872 4.60582e-005
0.0143915 0.00121914 4.60582e-005
0.0145188 0.00121956 4.60582e-005
0.0146471 0.00121998 4.60582e-005
0.0147753 0.00122039 4.60582e-005
0.0149036 0.0012208 4.60582e-005
0.0150318 0.00122121 4.60582e-005
0.0151601 0.00122161 4.60582e-005
0.0152893 0.001222 4.60582e-005
0.0154186 0.0012224 4.60582e-005
0.0155478 0.00122279 4.60582e-005
0.0156771 0.00122317 4.60582e-005
0.0158063 0.00122355 4.60582e-005
0.0159366 0.00122392 4.60582e-005
0.0160668 0.00122429 4.60582e-005
0.0161971 0.00122465 4.60582e-005
0.0163274 0.00122501 4.60582e-005
0.0164576 0.00122537 4.60582e-005
0.0165889 0.00122571 4.60582e-005
0.0167201 0.00122606 4.60582e-005
0.0168514 0.0012264 4.60582e-005
0.0169827 0.00122673 4.60582e-005
0.0171139 0.00122706 4.60582e-005
0.0172067 0.00122728 4.60582e-005
0.0172994 0.0012275 4.60582e-005
0.0173921 0.00122772 4.60582e-005
0.0174848 0.00122794 4.60582e-005
0.0175746 0.00122814 4.60582e-005
0.0176148 0.00122824 4.60582e-005
0.0176549 0.00122833 4.60582e-005
0.0176951 0.00122842 4.60582e-005
0.0177352 0.0012285 4.60582e-005
0.0177754 0.00122859 4.60582e-005
0.0179087 0.00122888 4.60582e-005
0.018042 0.00122917 4.60582e-005
0.0181753 0.00122944 4.60582e-005
0.0183087 0.00122971 4.60582e-005
0.018442 0.00122998 4.60582e-005
0.0185763 0.00123023 4.60582e-005
0.0187107 0.00123048 4.60582e-005
0.018845 0.00123072 4.60582e-005
0.0189794 0.00123095 4.60582e-005
0.0191137 0.00123118 4.60582e-005
0.0192491 0.0012314 4.60582e-005
0.0193845 0.00123161 4.60582e-005
0.0195199 0.00123181 4.60582e-005
0.0196553 0.001232 4.60582e-005
0.0197907 0.00123218 4.60582e-005
0.0199272 0.00123236 4.60582e-005
0.0200636 0.00123252 4.60582e-005
0.0202001 0.00123268 4.60582e-005
0.0203365 0.00123283 4.60582e-005
0.020473 0.00123297 4.60582e-005
0.0206105 0.0012331 4.60582e-005
0.020748 0.00123321 4.60582e-005
0.0208855 0.00123332 4.60582e-005
0.021023 0.00123342 4.60582e-005
0.0211606 0.00123351 4.60582e-005
0.0212991 0.0012336 4.60582e-005
0.0214377 0.00123367 4.60582e-005
0.0215763 0.00123373 4.60582e-005
0.0217149 0.00123378 4.60582e-005
0.0218535 0.00123382 4.60582e-005
0.0219931 0.00123385 4.60582e-005
0.0221328 0.00123387 4.60582e-005
0.0222724 0.00123388 4.60582e-005
0.0224121 0.00123387 4.60582e-005
0.0225517 0.00123386 4.60582e-005
0.0226925 0.00123384 4.60582e-005
[...]
POINT_DATA 11930
 FIELD attributes 2
p 1 11930 float
-1547.8 -1535.2 -1521.4 -1507.75 -1494.25 -1473.62 -1458.96 -1444.23 -1429.42 -1414.53 -1393.77 -1345.63 -1297.57 -1249.58 -1201.65 -1159.18 -1127.53 -1102.07 -1076.62 -1051.17 -1034.36 -1022.58 -1013.1 -1003.62 -994.147 -986.532 -979.763 -971.864 -963.965 -956.065 -947.047 -938.608 -929.98 -921.347 -912.732 -904.334 -896.367 -889.183 -882.09 -875.151 -869.122 -863.338 -858.134 -853.053 -848.129 -843.804 -839.63 -835.684 -831.808 -828.025 -824.496 -821.082 -817.798 -814.568 -811.414 -808.423 -805.522 -802.747 -800.037 -797.411 -794.928 -792.515 -790.213 -787.982 -785.836 -783.808 -781.828 -779.929 -778.094 -776.331 -774.654 -773 -771.408 -769.871 -768.399 -766.992 -765.582 -764.218 -762.903 -761.65 -760.449 -759.219 -758.03 -756.894 -755.827 -754.81 -753.734 -752.684 -751.676 -750.741 -749.85 -748.875 -747.948 -747.11 -746.392 -745.737 -745.006 -744.338 -743.786 -743.373 -743.043 -742.538 -742.077 -741.677 -741.372 -741.139 -740.715 -740.395 -740.193 -740.109 -740.137 -739.972 -739.889 -739.88 -739.938 -740.075 -740.165 -740.244 -740.314 -740.378 -740.431 -740.696 -740.86 -740.965 -741.011 -740.946 -741.335 -741.553 -741.692 -741.745 -741.592 -742.061 -742.305 -742.467 -742.54 -742.332 -742.826 -743.052 -743.205 -743.281 -743.03 -743.484 -743.657 -743.774 -743.84 -743.57 -743.951 -744.078 -744.173 -744.24 -744.005 -744.311 -744.413 -744.501 -744.582 -744.413 -744.646 -744.724 -744.801 -744.878 -744.778 -744.932 -744.99 -745.048 -745.106 -745.065 -745.156 -745.205 -745.253 -745.301 -745.312 -745.37 -745.421 -745.471 -745.522 -745.574 -745.618 -745.673 -745.728 -745.783 -745.861 -745.904 -745.964 -746.023 -746.082 -746.172 -746.226 -746.292 -746.357 -746.422 -746.515 -746.588 -746.663 -746.737 -746.812 -746.902 -747 -747.087 -747.174 -747.261 -747.35 -747.476 -747.579 -747.682 -747.785 -747.877 -748.033 -748.154 -748.276 -748.398 -748.497 -748.679 -748.818 -748.958 -749.097 -749.202 -749.402 -749.555 -749.708 -749.861 -749.976 -750.187 -750.352 -750.517 -750.683 -750.812 -751.027 -751.203 -751.378 -751.554 -751.701 -751.918 -752.106 -752.294 -752.482 -752.651 -752.871 -753.074 -753.277 -753.48 -753.676 -753.833 -753.985 -754.136 -754.288 -754.434 -754.5 -754.565 -754.631 -754.697 -754.772 -754.99 -755.218 -755.445 -755.673 -755.944 -756.146 -756.386 -756.625 -756.865 -757.178 -757.37 -757.623 -757.876 -758.129 -758.478 -758.666 -758.932 -759.197 -759.463 -759.84 -760.031 -760.308 -760.585 -760.862 -761.256 -761.452 -761.738 -762.024 -762.309 -762.709 -762.91 -763.204 -763.498 -763.792 -764.198 -764.411 -764.716 -765.021 -765.326 -765.738 -765.978 -766.295 -766.612 -766.929 -767.334 -767.607 -767.934 -768.261 -768.588 -768.977 -769.287 -769.622 -769.957 -770.292 -770.658 -771.007 -771.349 -771.692 -772.035 -772.372 -772.758 -773.11 -773.46 -773.805 -774.117 -774.534 -774.9 -775.257 -775.599 -775.893 -776.334 -776.718 -777.081 -777.418 -777.698 -778.156 -778.559 -778.929 -779.257 -779.53 -780.001 -780.424 -780.8 -781.121 -781.395 -781.876 -782.321 -782.705 -783.019 -783.294 -783.785 -784.249 -784.641 -784.945 -785.222 -785.718 -786.198 -786.593 -786.887 -787.167 -787.66 -788.15 -788.546 -788.834 -789.121 -789.606 -790.091 -790.484 -790.782 -791.08 -791.554 -792.029 -792.423 -792.733 -793.042 -793.504 -793.966 -794.36 -794.682 -795.005 -795.453 -795.901 -796.293 -796.627 -796.962 -797.395 -797.828 -798.217 -798.562 -798.907 -799.325 -799.743 -800.128 -800.482 -800.835 -801.238 -801.64 -802.021 -802.381 -802.74 -803.127 -803.514 -803.889 -804.253 -804.616 -804.988 -805.36 -805.729 -806.094 -806.458 -806.816 -807.175 -807.536 -807.897 -808.26 -808.603 -808.951 -809.303 -809.658 -810.015 -810.345 -810.681 -811.023 -811.367 -811.717 -812.032 -812.358 -812.687 -813.019 -813.359 -813.658 -813.972 -814.288 -814.604 -814.931 -815.215 -815.514 -815.814 -816.114 -816.423 -816.691 -816.972 -817.253 -817.535 -817.826 -818.075 -818.337 -818.6 -818.862 -819.133 -819.364 -819.605 -819.847 -820.089 -820.337 -820.549 -820.769 -820.989 -821.209 -821.433 -821.625 -821.821 -822.017 -822.214 -822.41 -822.415 -822.419 -822.423 -822.428 -822.432 -822.599 -822.766 -822.933 -823.1 -823.265 -823.41 -823.551 -823.693 -823.835 -823.973 -824.088 -824.198 -824.308 -824.418 -824.521 -824.607 -824.683 -824.759 -824.835 -824.9 -824.955 -824.993 -825.032 -825.071 -825.095 -825.116 -825.114 -825.113 -825.109 -825.09 -825.07 -825.031 -824.986 -824.936 -824.872 -824.809 -824.73 -824.641 -824.54 -824.429 -824.32 -824.201 -824.064 -823.909 -823.749 -823.591 -823.43 -823.242 -823.031 -822.819 -822.609 -822.399 -822.159 -821.892 -821.625 -821.361 -821.097 -820.803 -820.479 -820.155 -819.834 -819.513 -819.162 -818.778 -818.395 -818.014 -817.634 -817.223 -816.777 -816.331 -815.888 -815.442 -814.967 -814.462 -813.951 -813.443 -812.924 -812.382 -811.82 -811.243 -810.667 -810.071 -809.461 -808.84 -808.193 -807.549 -806.873 -806.191 -805.51 -804.792 -804.071 -803.316 -802.561 -801.807 -801.026 -800.22 -799.39 -798.56 -797.73 -796.886 -795.992 -795.085 -794.178 -793.271 -792.362 -792.169 -791.973 -791.777 -791.581 -791.387 -790.601 -789.816 -789.03 -788.245 -787.447 -786.399 -785.339 -784.28 -783.22 -782.132 -781.02 -779.879 -778.738 -777.597 -776.41 -775.233 -774.01 -772.786 -771.554 -770.275 -769.016 -767.726 -766.419 -765.084 -763.721 -762.377 -761.02 -759.629 -758.19 -756.74 -755.311 -753.882 -752.401 -750.865 -749.329 -747.813 -746.298 -744.729 -743.105 -741.482 -739.878 -738.275 -736.616 -734.904 -733.192 -731.499 -729.794 -728.041 -726.256 -724.454 -722.672 -720.854 -719.01 -717.156 -715.265 -713.393 -711.46 -709.525 -707.591 -705.62 -703.635 -701.608 -699.582 -697.556 -695.516 -694.15 -692.768 -691.385 -690.003 -688.678 -687.935 -687.193 -686.45 -685.707 -684.955 -682.765 -680.567 -678.37 -676.173 -673.94 -671.68 -669.39 -667.101 -664.809 -662.457 -660.117 -657.746 -655.364 -652.951 -650.506 -648.072 -645.634 -643.159 -640.623 -638.085 -635.559 -633.033 -630.455 -627.825 -625.194 -622.575 -619.957 -617.277 -614.558 -611.834 -609.123 -606.383 -603.608 -600.823 -598.008 -595.205 -592.339 -589.473 -586.607 -583.716 -581.015 -578.283 -575.551 -572.82 -570.239 -569.984 -569.73 -569.475 -569.22 -568.964 -565.924 -562.885 -559.845 -556.807 -553.742 -550.63 -547.503 -544.376 -541.244 -538.073 -534.88 -531.676 -528.463 -525.221 -521.964 -518.686 -515.408 -512.104 -508.764 -505.424 -502.062 -498.701 -495.304 -491.883 -488.461 -485.018 -481.558 -478.075 -474.587 -471.087 -467.564 -464.003 -460.442 -456.882 -453.312 -450.986 -448.645 -446.303 -443.963 -441.703 -440.394 -439.084 -437.774 -436.465 -435.146 -431.446 -427.741 -424.038 -420.335 -416.596 -412.836 -409.063 -405.289 -401.497 -397.683 -393.854 -390.024 -386.178 -382.299 -378.418 -374.522 -370.626 -366.703 -362.759 -358.815 -354.856 -350.882 -346.889 -342.894 -338.889 -334.866 -330.813 -326.761 -322.709 -318.653 -317.245 -315.83 -314.415 -312.999 -311.609 -308.912 -306.216 -303.521 -300.825 -298.114 -293.96 -289.801 -285.643 -281.48 -277.289 -273.087 -268.882 -264.673 -260.439 -256.199 -251.948 -247.697 -243.429 -239.145 -234.859 -230.562 -226.258 -221.936 -217.612 -213.285 -208.944 -204.581 -200.218 -195.856 -191.491 -190.113 -188.729 -187.346 -185.963 -184.6 -181.579 -178.558 -175.537 -172.516 -169.482 -165.049 -160.614 -156.179 -151.739 -147.281 -142.815 -138.349 -133.882 -129.396 -124.907 -120.411 -115.916 -111.405 -106.89 -102.373 -97.8484 -93.3143 -88.7744 -84.2351 -79.6954 -76.3907 -73.0798 -69.7691 -66.4587 -63.2541 -61.9837 -60.7134 -59.4431 -58.1729 -56.8993 -52.3197 -47.7411 -43.163 -38.585 -33.9909 -29.3925 -24.7962 -20.202 -15.5974 -10.9889 -6.37563 -1.76292 2.85471 7.47082 12.0891 16.7127 21.3395 25.9688 30.5976 35.2228 38.3845 41.5484 44.7121 47.8755 50.95 52.4402 53.9303 55.4204 56.9104 58.4024 63.0478 67.6897 72.3311 76.9726 81.6195 86.269 90.916 95.5562 100.197 104.84 109.487 114.132 118.776 123.412 128.048 132.688 137.324 141.96 146.594 151.227 152.456 153.683 154.91 156.137 157.352 160.758 164.164 167.57 170.975 174.379 179.009 183.629 188.247 192.861 197.475 202.089 206.703 211.306 215.898 220.492 225.087 229.675 234.258 238.84 243.414 245.889 248.357 250.825 253.293 255.714 257.82 259.926 262.032 264.138 266.239 270.794 275.339 279.884 284.422 288.955 293.486 298.016 302.53 307.029 311.531 316.031 320.522 325.003 329.484 333.954 336.41 338.856 341.301 343.747 346.15 348.166 350.182 352.199 354.215 356.223 360.66 365.085 369.509 373.924 378.331 382.732 387.133 391.515 395.88 400.246 404.606 408.952 413.289 417.626 421.955 423.359 424.756 426.153 427.549 428.933 431.844 434.755 437.667 440.577 443.474 447.754 452.023 456.288 460.534 464.777 469.01 473.242 477.452 481.647 485.841 489.593 493.323 497.051 500.778 504.428 504.875 505.321 505.768 506.214 506.659 510.787 514.912 519.037 523.156 527.257 531.343 535.429 539.493 543.537 547.583 551.613 555.628 559.63 563.631 567.625 568.7 569.768 570.834 571.901 572.962 575.857 578.751 581.646 584.536 587.41 591.332 595.248 599.152 603.026 606.901 610.76 614.61 618.436 622.261 626.07 627.682 629.283 630.88 632.478 634.069 636.247 638.424 640.602 642.775 644.933 648.669 652.392 656.106 659.787 663.466 667.127 670.781 674.4 678.016 681.609 683.248 684.876 686.5 688.124 689.756 691.69 693.623 695.557 697.487 699.403 702.927 706.414 709.882 713.266 716.642 719.997 723.376 726.873 730.38 733.936 735.598 736.949 738.2 739.452 740.732 742.373 744.015 745.656 747.196 748.392 750.625 753.491 756.594 761.162 765.943 770.608 774.686 777.135 779.588 781.683 781.847 782.048 782.306 782.564 782.824 784.644 786.466 788.288 790.601 793.232 796.188 799.136 801.945 804.754 807.499 808.041 808.572 809.083 809.594 810.114 812.322 814.528 816.734 818.867 820.955 823.566 826.177 828.69 831.186 833.63 834.243 834.842 835.414 835.987 836.578 838.408 840.235 842.061 843.816 845.525 847.797 850.064 852.17 854.194 856.166 856.838 857.479 858.069 858.659 859.285 860.532 861.776 863.017 864.175 865.27 866.899 868.522 869.945 871.159 872.363 873.018 873.586 874.051 874.514 875.038 875.462 875.885 876.306 876.67 876.968 877.595 878.108 878.509 878.565 878.61 878.519 878.225 877.698 877.163 876.535 876.41 876.243 876.053 875.863 875.665 874.714 873.751 872.777 871.669 870.277 868.451 866.612 864.334 861.642 858.939 855.977 852.623 849.013 845.396 841.602 840.671 839.619 838.547 837.474 836.326 832.717 829.096 825.466 821.785 817.666 811.986 806.006 799.755 792.762 785.664 778.096 770.515 762.36 753.725 745.029 735.811 725.422 714.738 704.051 692.861 688.127 683.385 678.641 673.896 668.504 661.055 653.603 646.145 638.684 631.182 617.332 601.615 585.865 569.166 549.826 529.514 509.801 492.233 478.244 464.327 449.663 434.999 407.534 367.737 327.906 286.281 253.365 236.957 228.341 231.261 233.99 177.445 120.069 62.3985 0