# vtk DataFile Version 2.0
track0
ASCII
DATASET POLYDATA
POINTS 11930 float
-0.0205 0.001 1e-005
-0.0203851 0.00100536 1.50237e-005
-0.0202701 0.00101047 1.96629e-005
-0.0201551 0.00101536 2.39704e-005
-0.0200401 0.00102 2.79414e-005
-0.0198626 0.00102682 3.35442e-005
-0.0196935 0.00103277 3.80934e-005
-0.0195244 0.0010381 4.16103e-005
-0.0193552 0.00104283 4.41039e-005
-0.019186 0.00104695 4.55835e-005
-0.0190172 0.00105046 4.60575e-005
-0.0187132 0.00105599 4.60575e-005
-0.0184093 0.00106087 4.60575e-005
-0.0181054 0.00106524 4.60575e-005
-0.0178014 0.00106908 4.60575e-005
-0.0174976 0.0010724 4.60575e-005
-0.0172058 0.0010753 4.60575e-005
-0.016914 0.00107812 4.60575e-005
-0.0166222 0.00108088 4.60575e-005
-0.0163305 0.00108357 4.60575e-005
-0.0160387 0.0010862 4.60575e-005
-0.0157586 0.00108862 4.60575e-005
-0.0154784 0.00109097 4.60575e-005
-0.0151983 0.00109324 4.60575e-005
-0.0149182 0.00109542 4.60575e-005
-0.0146381 0.00109752 4.60575e-005
-0.0143692 0.0010994 4.60575e-005
-0.0141002 0.00110119 4.60575e-005
-0.0138313 0.00110289 4.60575e-005
-0.0135624 0.00110451 4.60575e-005
-0.0132934 0.00110605 4.60575e-005
-0.0130353 0.00110745 4.60575e-005
-0.0127771 0.00110879 4.60575e-005
-0.0125189 0.00111009 4.60575e-005
-0.0122607 0.00111134 4.60575e-005
-0.0120025 0.00111256 4.60575e-005
-0.0117547 0.00111369 4.60575e-005
-0.0115068 0.0011148 4.60575e-005
-0.0112589 0.00111589 4.60575e-005
-0.0110111 0.00111696 4.60575e-005
-0.0107632 0.00111802 4.60575e-005
-0.0105252 0.00111901 4.60575e-005
-0.0102873 0.00112 4.60575e-005
-0.0100493 0.00112098 4.60575e-005
-0.00981133 0.00112194 4.60575e-005
-0.00957337 0.0011229 4.60575e-005
-0.00934491 0.0011238 4.60575e-005
-0.00911645 0.0011247 4.60575e-005
-0.00888799 0.00112559 4.60575e-005
-0.00865954 0.00112647 4.60575e-005
-0.00843108 0.00112735 4.60575e-005
-0.00821175 0.00112818 4.60575e-005
-0.00799242 0.00112901 4.60575e-005
-0.00777309 0.00112983 4.60575e-005
-0.00755376 0.00113064 4.60575e-005
-0.00733443 0.00113146 4.60575e-005
-0.00712387 0.00113224 4.60575e-005
-0.0069133 0.00113301 4.60575e-005
-0.00670273 0.00113378 4.60575e-005
-0.00649216 0.00113454 4.60575e-005
-0.0062816 0.00113531 4.60575e-005
-0.00607944 0.00113605 4.60575e-005
-0.00587729 0.00113677 4.60575e-005
-0.00567514 0.0011375 4.60575e-005
-0.00547298 0.00113823 4.60575e-005
-0.00527083 0.00113895 4.60575e-005
-0.00507675 0.00113965 4.60575e-005
-0.00488267 0.00114034 4.60575e-005
-0.0046886 0.00114103 4.60575e-005
-0.00449452 0.00114172 4.60575e-005
-0.00430044 0.00114241 4.60575e-005
-0.00411412 0.00114307 4.60575e-005
-0.0039278 0.00114373 4.60575e-005
-0.00374147 0.00114438 4.60575e-005
-0.00355515 0.00114504 4.60575e-005
-0.00336883 0.0011457 4.60575e-005
-0.00318995 0.00114633 4.60575e-005
-0.00301107 0.00114696 4.60575e-005
-0.00283219 0.00114758 4.60575e-005
-0.00265331 0.00114821 4.60575e-005
-0.00247443 0.00114884 4.60575e-005
-0.0023027 0.00114945 4.60575e-005
-0.00213097 0.00115005 4.60575e-005
-0.00195924 0.00115066 4.60575e-005
-0.0017875 0.00115126 4.60575e-005
-0.00161577 0.00115186 4.60575e-005
-0.0014509 0.00115245 4.60575e-005
-0.00128603 0.00115304 4.60575e-005
-0.00112116 0.00115362 4.60575e-005
-0.000956289 0.0011542 4.60575e-005
-0.000791418 0.00115479 4.60575e-005
-0.000633135 0.00115537 4.60575e-005
-0.000474851 0.00115595 4.60575e-005
-0.000316567 0.00115652 4.60575e-005
-0.000158284 0.0011571 4.60575e-005
0 0.00115769 4.60575e-005
0.000105677 0.00115808 4.60575e-005
0.000211355 0.00115848 4.60575e-005
0.000317032 0.00115888 4.60575e-005
0.00042271 0.00115927 4.60575e-005
0.000528387 0.00115968 4.60575e-005
0.000634886 0.0011601 4.60575e-005
0.000741385 0.00116051 4.60575e-005
0.000847885 0.00116093 4.60575e-005
0.000954384 0.00116135 4.60575e-005
0.00106088 0.00116178 4.60575e-005
0.00116821 0.00116222 4.60575e-005
0.00127554 0.00116266 4.60575e-005
0.00138286 0.00116311 4.60575e-005
0.00149019 0.00116355 4.60575e-005
0.00159752 0.001164 4.60575e-005
0.00170568 0.00116447 4.60575e-005
0.00181384 0.00116493 4.60575e-005
0.001922 0.0011654 4.60575e-005
0.00203016 0.00116586 4.60575e-005
0.00213833 0.00116633 4.60575e-005
0.00224733 0.00116681 4.60575e-005
0.00235633 0.0011673 4.60575e-005
0.00246533 0.00116778 4.60575e-005
0.00257434 0.00116826 4.60575e-005
0.00268334 0.00116875 4.60575e-005
0.00279319 0.00116923 4.60575e-005
0.00290304 0.00116973 4.60575e-005
0.00301289 0.00117023 4.60575e-005
0.00312274 0.00117073 4.60575e-005
0.00323259 0.00117123 4.60575e-005
0.00334329 0.00117172 4.60575e-005
0.003454 0.00117223 4.60575e-005
0.0035647 0.00117274 4.60575e-005
0.0036754 0.00117326 4.60575e-005
0.00378611 0.00117377 4.60575e-005
0.00389767 0.00117427 4.60575e-005
0.00400924 0.00117479 4.60575e-005
0.0041208 0.00117531 4.60575e-005
0.00423237 0.00117584 4.60575e-005
0.00434393 0.00117636 4.60575e-005
0.00445636 0.00117686 4.60575e-005
0.00456879 0.00117739 4.60575e-005
0.00468123 0.00117792 4.60575e-005
0.00479366 0.00117846 4.60575e-005
0.00490609 0.00117898 4.60575e-005
0.0050194 0.00117949 4.60575e-005
0.0051327 0.00118003 4.60575e-005
0.00524601 0.00118056 4.60575e-005
0.00535931 0.0011811 4.60575e-005
0.00547262 0.00118163 4.60575e-005
0.00558681 0.00118214 4.60575e-005
0.005701 0.00118268 4.60575e-005
0.00581518 0.00118322 4.60575e-005
0.00592937 0.00118376 4.60575e-005
0.00604356 0.0011843 4.60575e-005
0.00615863 0.00118481 4.60575e-005
0.00627371 0.00118535 4.60575e-005
0.00638878 0.00118589 4.60575e-005
0.00650386 0.00118643 4.60575e-005
0.00661893 0.00118697 4.60575e-005
0.0067349 0.00118749 4.60575e-005
0.00685087 0.00118803 4.60575e-005
0.00696684 0.00118856 4.60575e-005
0.00708281 0.0011891 4.60575e-005
0.00719878 0.00118964 4.60575e-005
0.00731565 0.00119016 4.60575e-005
0.00743252 0.00119069 4.60575e-005
0.00754939 0.00119122 4.60575e-005
0.00766626 0.00119176 4.60575e-005
0.00778313 0.00119229 4.60575e-005
0.00790091 0.00119281 4.60575e-005
0.00801869 0.00119334 4.60575e-005
0.00813647 0.00119386 4.60575e-005
0.00825425 0.00119439 4.60575e-005
0.00837203 0.00119492 4.60575e-005
0.00849073 0.00119543 4.60575e-005
0.00860942 0.00119596 4.60575e-005
0.00872812 0.00119648 4.60575e-005
0.00884682 0.001197 4.60575e-005
0.00896551 0.00119752 4.60575e-005
0.00908513 0.00119803 4.60575e-005
0.00920475 0.00119855 4.60575e-005
0.00932437 0.00119906 4.60575e-005
0.00944398 0.00119957 4.60575e-005
0.0095636 0.00120008 4.60575e-005
0.00968415 0.00120059 4.60575e-005
0.0098047 0.0012011 4.60575e-005
0.00992525 0.00120161 4.60575e-005
0.0100458 0.00120211 4.60575e-005
0.0101663 0.00120261 4.60575e-005
0.0102878 0.00120311 4.60575e-005
0.0104093 0.00120361 4.60575e-005
0.0105308 0.00120411 4.60575e-005
0.0106523 0.00120461 4.60575e-005
0.0107738 0.0012051 4.60575e-005
0.0108962 0.00120559 4.60575e-005
0.0110186 0.00120608 4.60575e-005
0.0111411 0.00120657 4.60575e-005
0.0112635 0.00120706 4.60575e-005
0.0113859 0.00120754 4.60575e-005
0.0115093 0.00120802 4.60575e-005
0.0116327 0.0012085 4.60575e-005
0.0117561 0.00120898 4.60575e-005
0.0118795 0.00120946 4.60575e-005
0.0120028 0.00120993 4.60575e-005
0.0121272 0.0012104 4.60575e-005
0.0122515 0.00121087 4.60575e-005
0.0123759 0.00121134 4.60575e-005
0.0125002 0.0012118 4.60575e-005
0.0126245 0.00121227 4.60575e-005
0.0127498 0.00121272 4.60575e-005
0.0128752 0.00121318 4.60575e-005
0.0130005 0.00121364 4.60575e-005
0.0131258 0.00121409 4.60575e-005
0.0132511 0.00121454 4.60575e-005
0.0133774 0.00121499 4.60575e-005
0.0135036 0.00121543 4.60575e-005
0.0136299 0.00121588 4.60575e-005
0.0137562 0.00121632 4.60575e-005
0.0138825 0.00121675 4.60575e-005
0.0140098 0.00121718 4.60575e-005
0.014137 0.00121761 4.60575e-005
0.0142643 0.00121804 4.60575e-005
0.0143915 0.00121847 4.60575e-005
0.0145188 0.00121889 4.60575e-005
0.0146471 0.0012193 4.60575e-005
0.0147753 0.00121972 4.60575e-005
0.0149036 0.00122013 4.60575e-005
0.0150318 0.00122054 4.60575e-005
0.0151601 0.00122094 4.60575e-005
0.0152893 0.00122133 4.60575e-005
0.0154186 0.00122173 4.60575e-005
0.0155478 0.00122212 4.60575e-005
0.0156771 0.00122251 4.60575e-005
0.0158063 0.00122289 4.60575e-005
0.0159366 0.00122327 4.60575e-005
0.0160668 0.00122364 4.60575e-005
0.0161971 0.00122401 4.60575e-005
0.0163274 0.00122438 4.60575e-005
0.0164576 0.00122474 4.60575e-005
0.0165889 0.00122509 4.60575e-005
0.0167201 0.00122544 4.60575e-005
0.0168514 0.00122578 4.60575e-005
0.0169827 0.00122612 4.60575e-005
0.0171139 0.00122646 4.60575e-005
0.0171939 0.00122665 4.60575e-005
0.0172738 0.00122685 4.60575e-005
0.0173538 0.00122705 4.60575e-005
0.0174337 0.00122724 4.60575e-005
0.0175116 0.00122742 4.60575e-005
0.0175644 0.00122755 4.60575e-005
0.0176171 0.00122767 4.60575e-005
0.0176699 0.00122779 4.60575e-005
0.0177226 0.00122791 4.60575e-005
0.0177754 0.00122803 4.60575e-005
0.0179087 0.00122833 4.60575e-005
0.018042 0.00122862 4.60575e-005
0.0181753 0.00122891 4.60575e-005
0.0183087 0.00122919 4.60575e-005
0.018442 0.00122946 4.60575e-005
0.0185763 0.00122972 4.60575e-005
0.0187107 0.00122998 4.60575e-005
0.018845 0.00123023 4.60575e-005
0.0189794 0.00123047 4.60575e-005
0.0191137 0.00123071 4.60575e-005
0.0192491 0.00123093 4.60575e-005
0.0193845 0.00123115 4.60575e-005
0.0195199 0.00123137 4.60575e-005
0.0196553 0.00123157 4.60575e-005
0.0197907 0.00123176 4.60575e-005
0.0199272 0.00123195 4.60575e-005
0.0200636 0.00123213 4.60575e-005
0.0202001 0.0012323 4.60575e-005
0.0203365 0.00123246 4.60575e-005
0.020473 0.00123261 4.60575e-005
0.0206105 0.00123275 4.60575e-005
0.020748 0.00123288 4.60575e-005
0.0208855 0.00123301 4.60575e-005
0.021023 0.00123312 4.60575e-005
0.0211606 0.00123322 4.60575e-005
0.0212991 0.00123332 4.60575e-005
0.0214377 0.0012334 4.60575e-005
0.0215763 0.00123347 4.60575e-005
0.0217149 0.00123354 4.60575e-005
0.0218535 0.00123359 4.60575e-005
0.0219931 0.00123364 4.60575e-005
0.0221328 0.00123367 4.60575e-005
0.0222724 0.00123369 4.60575e-005
0.0224121 0.0012337 4.60575e-005
0.0225517 0.0012337 4.60575e-005
0.0226925 0.00123369 4.60575e-005
[...]
POINT_DATA 11930
 FIELD attributes 2
p 1 11930 float
-1545.99 -1533.43 -1519.66 -1506.03 -1492.56 -1472 -1457.37 -1442.66 -1427.88 -1413.02 -1392.3 -1344.3 -1296.37 -1248.51 -1200.71 -1158.34 -1126.76 -1101.42 -1076.08 -1050.75 -1034.07 -1022.33 -1012.87 -1003.42 -993.973 -986.402 -979.601 -971.688 -963.775 -955.862 -946.892 -938.496 -929.88 -921.258 -912.651 -904.233 -896.275 -889.055 -881.925 -874.944 -868.827 -862.997 -857.737 -852.599 -847.618 -843.224 -839.009 -835.03 -831.126 -827.315 -823.764 -820.337 -817.045 -813.808 -810.648 -807.653 -804.746 -801.964 -799.249 -796.62 -794.137 -791.716 -789.404 -787.163 -785.008 -782.973 -780.98 -779.067 -777.218 -775.442 -773.752 -772.086 -770.479 -768.929 -767.442 -766.018 -764.597 -763.22 -761.892 -760.623 -759.403 -758.162 -756.96 -755.81 -754.724 -753.683 -752.591 -751.524 -750.496 -749.534 -748.615 -747.615 -746.664 -745.798 -745.049 -744.363 -743.604 -742.906 -742.32 -741.875 -741.513 -740.974 -740.477 -740.04 -739.702 -739.441 -738.985 -738.636 -738.408 -738.305 -738.322 -738.137 -738.039 -738.021 -738.075 -738.217 -738.296 -738.368 -738.436 -738.502 -738.567 -738.822 -738.981 -739.086 -739.136 -739.082 -739.46 -739.677 -739.82 -739.882 -739.749 -740.211 -740.459 -740.631 -740.719 -740.536 -741.025 -741.255 -741.417 -741.507 -741.277 -741.724 -741.898 -742.02 -742.094 -741.841 -742.214 -742.339 -742.436 -742.508 -742.285 -742.584 -742.684 -742.772 -742.855 -742.692 -742.922 -742.998 -743.073 -743.149 -743.051 -743.204 -743.261 -743.318 -743.375 -743.331 -743.426 -743.474 -743.521 -743.568 -743.573 -743.637 -743.687 -743.737 -743.786 -743.83 -743.883 -743.938 -743.992 -744.047 -744.114 -744.17 -744.229 -744.289 -744.349 -744.428 -744.497 -744.565 -744.632 -744.7 -744.782 -744.872 -744.95 -745.029 -745.107 -745.189 -745.304 -745.395 -745.486 -745.577 -745.659 -745.799 -745.904 -746.009 -746.115 -746.197 -746.36 -746.479 -746.598 -746.718 -746.805 -746.986 -747.12 -747.253 -747.387 -747.483 -747.679 -747.827 -747.975 -748.124 -748.234 -748.441 -748.604 -748.767 -748.93 -749.059 -749.274 -749.452 -749.631 -749.809 -749.961 -750.183 -750.379 -750.575 -750.77 -750.949 -751.177 -751.389 -751.602 -751.814 -752.02 -752.161 -752.297 -752.433 -752.569 -752.701 -752.791 -752.881 -752.97 -753.06 -753.163 -753.388 -753.625 -753.862 -754.099 -754.383 -754.592 -754.843 -755.093 -755.343 -755.668 -755.868 -756.131 -756.394 -756.657 -757.018 -757.212 -757.487 -757.763 -758.038 -758.427 -758.623 -758.911 -759.198 -759.486 -759.894 -760.099 -760.398 -760.697 -760.995 -761.414 -761.635 -761.943 -762.252 -762.56 -762.98 -763.223 -763.54 -763.858 -764.176 -764.587 -764.858 -765.184 -765.51 -765.836 -766.231 -766.535 -766.869 -767.203 -767.537 -767.91 -768.249 -768.59 -768.931 -769.272 -769.619 -769.995 -770.343 -770.691 -771.038 -771.358 -771.767 -772.125 -772.48 -772.828 -773.126 -773.561 -773.934 -774.296 -774.639 -774.922 -775.378 -775.769 -776.136 -776.473 -776.747 -777.216 -777.626 -778 -778.329 -778.599 -779.078 -779.508 -779.889 -780.211 -780.482 -780.971 -781.421 -781.808 -782.121 -782.394 -782.889 -783.357 -783.75 -784.052 -784.326 -784.822 -785.304 -785.698 -785.989 -786.266 -786.757 -787.246 -787.64 -787.923 -788.205 -788.687 -789.168 -789.557 -789.849 -790.141 -790.609 -791.078 -791.464 -791.766 -792.067 -792.52 -792.974 -793.357 -793.668 -793.98 -794.416 -794.853 -795.232 -795.554 -795.875 -796.294 -796.713 -797.088 -797.418 -797.747 -798.149 -798.551 -798.921 -799.258 -799.594 -799.979 -800.364 -800.728 -801.07 -801.412 -801.78 -802.149 -802.505 -802.85 -803.195 -803.547 -803.9 -804.249 -804.594 -804.939 -805.276 -805.614 -805.955 -806.296 -806.638 -806.96 -807.286 -807.617 -807.951 -808.288 -808.595 -808.91 -809.23 -809.553 -809.883 -810.176 -810.48 -810.789 -811.099 -811.419 -811.698 -811.992 -812.288 -812.584 -812.893 -813.158 -813.439 -813.721 -814.002 -814.296 -814.546 -814.811 -815.077 -815.342 -815.62 -815.855 -816.103 -816.352 -816.601 -816.86 -817.079 -817.31 -817.54 -817.771 -818.009 -818.213 -818.424 -818.636 -818.847 -819.062 -819.216 -819.373 -819.53 -819.687 -819.837 -819.872 -819.907 -819.942 -819.977 -820.012 -820.18 -820.348 -820.516 -820.684 -820.85 -820.994 -821.135 -821.276 -821.418 -821.556 -821.674 -821.786 -821.898 -822.01 -822.117 -822.207 -822.287 -822.368 -822.448 -822.519 -822.579 -822.624 -822.669 -822.714 -822.745 -822.772 -822.779 -822.784 -822.788 -822.777 -822.765 -822.735 -822.699 -822.656 -822.602 -822.547 -822.478 -822.397 -822.304 -822.202 -822.101 -821.991 -821.862 -821.715 -821.562 -821.411 -821.259 -821.077 -820.871 -820.665 -820.46 -820.256 -820.02 -819.756 -819.493 -819.232 -818.971 -818.679 -818.354 -818.03 -817.709 -817.389 -817.036 -816.648 -816.26 -815.876 -815.492 -815.077 -814.622 -814.168 -813.718 -813.264 -812.779 -812.264 -811.74 -811.221 -810.688 -810.133 -809.557 -808.963 -808.372 -807.757 -807.129 -806.491 -805.823 -805.159 -804.459 -803.755 -803.052 -802.311 -801.565 -800.784 -800.003 -799.223 -798.418 -797.582 -796.723 -795.864 -795.005 -794.133 -793.207 -792.267 -791.329 -790.39 -789.451 -789.412 -789.372 -789.332 -789.292 -789.252 -788.277 -787.303 -786.33 -785.356 -784.368 -783.288 -782.193 -781.098 -780.004 -778.878 -777.733 -776.557 -775.381 -774.205 -772.981 -771.769 -770.513 -769.255 -767.986 -766.674 -765.38 -764.059 -762.721 -761.352 -759.958 -758.581 -757.196 -755.776 -754.307 -752.831 -751.372 -749.914 -748.408 -746.851 -745.293 -743.752 -742.212 -740.622 -738.983 -737.344 -735.72 -734.098 -732.423 -730.702 -728.981 -727.275 -725.554 -723.793 -722.007 -720.204 -718.416 -716.591 -714.747 -712.897 -711.012 -709.139 -707.212 -705.285 -703.359 -701.404 -699.427 -697.417 -695.407 -693.397 -691.378 -690.342 -689.295 -688.248 -687.201 -686.185 -685.139 -684.093 -683.047 -682.001 -680.944 -678.788 -676.624 -674.46 -672.296 -670.097 -667.877 -665.629 -663.381 -661.128 -658.825 -656.528 -654.209 -651.877 -649.513 -647.125 -644.744 -642.361 -639.942 -637.468 -634.994 -632.528 -630.062 -627.549 -624.989 -622.428 -619.876 -617.325 -614.714 -612.072 -609.424 -606.786 -604.118 -601.42 -598.714 -595.979 -593.253 -590.467 -587.681 -584.896 -582.088 -579.553 -576.99 -574.427 -571.864 -569.435 -569.098 -568.762 -568.425 -568.089 -567.749 -564.795 -561.839 -558.884 -555.93 -552.949 -549.922 -546.879 -543.836 -540.789 -537.702 -534.593 -531.472 -528.342 -525.182 -522.008 -518.811 -515.616 -512.392 -509.131 -505.869 -502.586 -499.304 -495.984 -492.636 -489.288 -485.92 -482.535 -479.123 -475.704 -472.272 -468.819 -465.325 -461.829 -458.334 -454.827 -452.233 -449.621 -447.009 -444.397 -441.891 -440.906 -439.921 -438.936 -437.951 -436.958 -433.31 -429.658 -426.006 -422.356 -418.668 -414.957 -411.228 -407.498 -403.752 -399.977 -396.189 -392.399 -388.593 -384.745 -380.896 -377.033 -373.172 -369.278 -365.358 -361.438 -357.504 -353.558 -349.585 -345.607 -341.618 -337.616 -333.576 -329.536 -325.497 -321.451 -319.463 -317.464 -315.464 -313.465 -311.516 -309.405 -307.293 -305.182 -303.07 -300.945 -296.792 -292.632 -288.474 -284.314 -280.118 -275.912 -271.701 -267.486 -263.245 -258.994 -254.734 -250.474 -246.194 -241.894 -237.592 -233.28 -228.964 -224.623 -220.279 -215.93 -211.57 -207.187 -202.801 -198.416 -194.026 -191.968 -189.902 -187.836 -185.77 -183.75 -181.38 -179.011 -176.641 -174.272 -171.891 -167.429 -162.964 -158.5 -154.033 -149.543 -145.047 -140.55 -136.051 -131.533 -127.011 -122.481 -117.953 -113.41 -108.86 -104.307 -99.7472 -95.1795 -90.6038 -86.0287 -81.4518 -77.4743 -73.4893 -69.5047 -65.5204 -61.6905 -61.0476 -60.4048 -59.7619 -59.1191 -58.4746 -53.8574 -49.241 -44.625 -40.0095 -35.3786 -30.7426 -26.1085 -21.4759 -16.8341 -12.187 -7.53532 -2.88421 1.77012 6.42506 11.0822 15.7446 20.4093 25.077 29.7438 34.4075 38.1532 41.9013 45.6491 49.3965 53.0187 53.9699 54.9212 55.8724 56.8236 57.7759 62.4587 67.1393 71.8194 76.4992 81.1846 85.8725 90.5568 95.2358 99.9153 104.597 109.282 113.966 118.649 123.322 127.997 132.676 137.351 142.025 146.698 151.369 153.046 154.721 156.395 158.07 159.722 162.72 165.719 168.717 171.715 174.711 179.38 184.038 188.695 193.349 198.002 202.655 207.308 211.95 216.581 221.215 225.849 230.478 235.1 239.722 244.334 247.141 249.939 252.737 255.535 258.273 260.091 261.908 263.726 265.543 267.357 271.951 276.536 281.121 285.701 290.274 294.845 299.415 303.97 308.511 313.054 317.594 322.127 326.649 331.17 335.681 338.328 340.964 343.6 346.236 348.822 350.69 352.558 354.427 356.295 358.156 362.633 367.1 371.566 376.023 380.473 384.915 389.357 393.781 398.187 402.596 406.998 411.386 415.764 420.142 424.514 425.958 427.395 428.832 430.268 431.691 434.604 437.517 440.43 443.341 446.24 450.561 454.872 459.178 463.465 467.749 472.023 476.295 480.545 484.78 489.015 492.699 496.363 500.023 503.683 507.269 507.822 508.375 508.928 509.481 510.031 514.198 518.362 522.525 526.682 530.82 534.943 539.066 543.167 547.247 551.329 555.394 559.442 563.478 567.513 571.543 572.42 573.293 574.164 575.034 575.902 579.026 582.149 585.273 588.391 591.491 595.444 599.393 603.324 607.226 611.13 615.017 618.891 622.743 626.595 630.432 631.773 633.105 634.433 635.762 637.086 639.558 642.03 644.501 646.968 649.416 653.173 656.921 660.655 664.352 668.049 671.729 675.395 679.03 682.665 686.275 687.595 688.906 690.213 691.52 692.832 695.099 697.366 699.633 701.895 704.14 707.674 711.185 714.659 718.043 721.426 724.787 728.191 731.692 735.194 738.747 740.043 741.096 742.072 743.047 744.04 746.009 747.977 749.945 751.789 753.223 755.455 758.096 761.201 765.982 770.757 775.415 779.218 781.659 784.104 786.456 786.499 786.55 786.617 786.683 786.75 788.71 790.671 792.634 795.127 797.961 800.901 803.815 806.605 809.395 812.141 812.487 812.826 813.151 813.476 813.805 816.188 818.569 820.949 823.249 825.498 828.083 830.66 833.139 835.617 838.038 838.486 838.925 839.343 839.761 840.19 842.153 844.114 846.073 847.953 849.783 852.017 854.247 856.295 858.304 860.236 860.782 861.302 861.781 862.259 862.762 864.093 865.421 866.744 867.978 869.14 870.722 872.297 873.678 874.842 875.997 876.568 877.059 877.456 877.852 878.295 878.752 879.206 879.658 880.045 880.357 880.928 881.417 881.737 881.735 881.723 881.574 881.195 880.61 880.017 879.359 879.268 879.148 879.013 878.878 878.739 877.688 876.623 875.546 874.329 872.814 870.925 869.025 866.688 863.936 861.171 858.146 854.704 851.034 847.357 843.529 842.725 841.817 840.893 839.969 838.99 835.18 831.359 827.526 823.643 819.302 813.562 807.55 801.24 794.167 787.013 779.387 771.749 763.525 754.855 746.108 736.837 726.37 715.638 704.904 693.694 689.166 684.632 680.096 675.559 670.436 662.725 655.01 647.29 639.566 631.801 617.96 602.201 586.41 569.634 550.26 529.913 510.131 492.534 478.549 464.605 449.912 435.22 407.733 367.916 328.066 286.421 253.603 237.168 228.418 231.316 234.023 177.291 119.926 62.2665 0