# vtk DataFile Version 2.0
track0
ASCII
DATASET POLYDATA
POINTS 11930 float
-0.0205 0.001 1e-005
-0.0203851 0.00100536 1.50234e-005
-0.0202701 0.00101048 1.96623e-005
-0.0201552 0.00101536 2.39695e-005
-0.0200402 0.00102001 2.79402e-005
-0.0198627 0.00102682 3.35407e-005
-0.0196936 0.00103277 3.80905e-005
-0.0195244 0.00103811 4.16077e-005
-0.0193552 0.00104284 4.41014e-005
-0.019186 0.00104696 4.5581e-005
-0.0190172 0.00105047 4.6055e-005
-0.0187132 0.001056 4.6055e-005
-0.0184093 0.00106089 4.6055e-005
-0.0181054 0.00106525 4.6055e-005
-0.0178014 0.0010691 4.6055e-005
-0.0174976 0.00107242 4.6055e-005
-0.0172058 0.00107533 4.6055e-005
-0.016914 0.00107814 4.6055e-005
-0.0166222 0.00108087 4.6055e-005
-0.0163305 0.00108354 4.6055e-005
-0.0160387 0.00108614 4.6055e-005
-0.0157586 0.00108854 4.6055e-005
-0.0154784 0.00109087 4.6055e-005
-0.0151983 0.00109311 4.6055e-005
-0.0149182 0.00109527 4.6055e-005
-0.0146381 0.00109734 4.6055e-005
-0.0143692 0.00109922 4.6055e-005
-0.0141002 0.00110099 4.6055e-005
-0.0138313 0.00110269 4.6055e-005
-0.0135624 0.00110431 4.6055e-005
-0.0132934 0.00110585 4.6055e-005
-0.0130353 0.00110726 4.6055e-005
-0.0127771 0.00110861 4.6055e-005
-0.0125189 0.00110992 4.6055e-005
-0.0122607 0.00111119 4.6055e-005
-0.0120025 0.00111243 4.6055e-005
-0.0117547 0.00111358 4.6055e-005
-0.0115068 0.00111471 4.6055e-005
-0.0112589 0.00111582 4.6055e-005
-0.0110111 0.00111692 4.6055e-005
-0.0107632 0.001118 4.6055e-005
-0.0105252 0.00111901 4.6055e-005
-0.0102873 0.00112001 4.6055e-005
-0.0100493 0.001121 4.6055e-005
-0.00981133 0.00112198 4.6055e-005
-0.00957337 0.00112294 4.6055e-005
-0.00934491 0.00112386 4.6055e-005
-0.00911645 0.00112476 4.6055e-005
-0.00888799 0.00112565 4.6055e-005
-0.00865954 0.00112653 4.6055e-005
-0.00843108 0.00112741 4.6055e-005
-0.00821175 0.00112824 4.6055e-005
-0.00799242 0.00112907 4.6055e-005
-0.00777309 0.00112988 4.6055e-005
-0.00755376 0.0011307 4.6055e-005
-0.00733443 0.00113151 4.6055e-005
-0.00712387 0.00113229 4.6055e-005
-0.0069133 0.00113306 4.6055e-005
-0.00670273 0.00113382 4.6055e-005
-0.00649216 0.00113458 4.6055e-005
-0.0062816 0.00113535 4.6055e-005
-0.00607944 0.00113608 4.6055e-005
-0.00587729 0.00113681 4.6055e-005
-0.00567514 0.00113754 4.6055e-005
-0.00547298 0.00113826 4.6055e-005
-0.00527083 0.00113899 4.6055e-005
-0.00507675 0.00113969 4.6055e-005
-0.00488267 0.00114038 4.6055e-005
-0.0046886 0.00114107 4.6055e-005
-0.00449452 0.00114176 4.6055e-005
-0.00430044 0.00114246 4.6055e-005
-0.00411412 0.00114313 4.6055e-005
-0.0039278 0.00114379 4.6055e-005
-0.00374147 0.00114446 4.6055e-005
-0.00355515 0.00114512 4.6055e-005
-0.00336883 0.00114579 4.6055e-005
-0.00318995 0.00114643 4.6055e-005
-0.00301107 0.00114707 4.6055e-005
-0.00283219 0.00114771 4.6055e-005
-0.00265331 0.00114835 4.6055e-005
-0.00247443 0.00114899 4.6055e-005
-0.0023027 0.00114962 4.6055e-005
-0.00213097 0.00115024 4.6055e-005
-0.00195924 0.00115086 4.6055e-005
-0.0017875 0.00115147 4.6055e-005
-0.00161577 0.0011521 4.6055e-005
-0.0014509 0.00115271 4.6055e-005
-0.00128603 0.00115331 4.6055e-005
-0.00112116 0.00115391 4.6055e-005
-0.000956289 0.00115452 4.6055e-005
-0.000791418 0.00115513 4.6055e-005
-0.000633135 0.00115573 4.6055e-005
-0.000474851 0.00115633 4.6055e-005
-0.000316567 0.00115692 4.6055e-005
-0.000158284 0.00115752 4.6055e-005
0 0.00115813 4.6055e-005
0.000105677 0.00115854 4.6055e-005
0.000211355 0.00115895 4.6055e-005
0.000317032 0.00115936 4.6055e-005
0.00042271 0.00115977 4.6055e-005
0.000528387 0.00116019 4.6055e-005
0.000634886 0.00116063 4.6055e-005
0.000741385 0.00116106 4.6055e-005
0.000847885 0.00116149 4.6055e-005
0.000954384 0.00116192 4.6055e-005
0.00106088 0.00116237 4.6055e-005
0.00116821 0.00116283 4.6055e-005
0.00127554 0.00116328 4.6055e-005
0.00138286 0.00116374 4.6055e-005
0.00149019 0.0011642 4.6055e-005
0.00159752 0.00116466 4.6055e-005
0.00170568 0.00116514 4.6055e-005
0.00181384 0.00116562 4.6055e-005
0.001922 0.0011661 4.6055e-005
0.00203016 0.00116658 4.6055e-005
0.00213833 0.00116707 4.6055e-005
0.00224733 0.00116757 4.6055e-005
0.00235633 0.00116807 4.6055e-005
0.00246533 0.00116857 4.6055e-005
0.00257434 0.00116907 4.6055e-005
0.00268334 0.00116957 4.6055e-005
0.00279319 0.00117007 4.6055e-005
0.00290304 0.00117059 4.6055e-005
0.00301289 0.0011711 4.6055e-005
0.00312274 0.00117162 4.6055e-005
0.00323259 0.00117213 4.6055e-005
0.00334329 0.00117264 4.6055e-005
0.003454 0.00117317 4.6055e-005
0.0035647 0.00117369 4.6055e-005
0.0036754 0.00117422 4.6055e-005
0.00378611 0.00117474 4.6055e-005
0.00389767 0.00117525 4.6055e-005
0.00400924 0.00117578 4.6055e-005
0.0041208 0.00117632 4.6055e-005
0.00423237 0.00117685 4.6055e-005
0.00434393 0.00117738 4.6055e-005
0.00445636 0.0011779 4.6055e-005
0.00456879 0.00117844 4.6055e-005
0.00468123 0.00117898 4.6055e-005
0.00479366 0.00117952 4.6055e-005
0.00490609 0.00118005 4.6055e-005
0.0050194 0.00118057 4.6055e-005
0.0051327 0.00118111 4.6055e-005
0.00524601 0.00118166 4.6055e-005
0.00535931 0.0011822 4.6055e-005
0.00547262 0.00118274 4.6055e-005
0.00558681 0.00118326 4.6055e-005
0.005701 0.0011838 4.6055e-005
0.00581518 0.00118435 4.6055e-005
0.00592937 0.00118489 4.6055e-005
0.00604356 0.00118543 4.6055e-005
0.00615863 0.00118595 4.6055e-005
0.00627371 0.0011865 4.6055e-005
0.00638878 0.00118704 4.6055e-005
0.00650386 0.00118759 4.6055e-005
0.00661893 0.00118813 4.6055e-005
0.0067349 0.00118865 4.6055e-005
0.00685087 0.00118919 4.6055e-005
0.00696684 0.00118973 4.6055e-005
0.00708281 0.00119027 4.6055e-005
0.00719878 0.00119081 4.6055e-005
0.00731565 0.00119134 4.6055e-005
0.00743252 0.00119188 4.6055e-005
0.00754939 0.00119241 4.6055e-005
0.00766626 0.00119295 4.6055e-005
0.00778313 0.00119348 4.6055e-005
0.00790091 0.001194 4.6055e-005
0.00801869 0.00119454 4.6055e-005
0.00813647 0.00119507 4.6055e-005
0.00825425 0.0011956 4.6055e-005
0.00837203 0.00119613 4.6055e-005
0.00849073 0.00119665 4.6055e-005
0.00860942 0.00119717 4.6055e-005
0.00872812 0.0011977 4.6055e-005
0.00884682 0.00119822 4.6055e-005
0.00896551 0.00119875 4.6055e-005
0.00908513 0.00119926 4.6055e-005
0.00920475 0.00119978 4.6055e-005
0.00932437 0.0012003 4.6055e-005
0.00944398 0.00120082 4.6055e-005
0.0095636 0.00120134 4.6055e-005
0.00968415 0.00120185 4.6055e-005
0.0098047 0.00120236 4.6055e-005
0.00992525 0.00120288 4.6055e-005
0.0100458 0.00120339 4.6055e-005
0.0101663 0.00120389 4.6055e-005
0.0102878 0.0012044 4.6055e-005
0.0104093 0.00120491 4.6055e-005
0.0105308 0.00120541 4.6055e-005
0.0106523 0.00120592 4.6055e-005
0.0107738 0.00120642 4.6055e-005
0.0108962 0.00120691 4.6055e-005
0.0110186 0.00120741 4.6055e-005
0.0111411 0.00120791 4.6055e-005
0.0112635 0.0012084 4.6055e-005
0.0113859 0.0012089 4.6055e-005
0.0115093 0.00120938 4.6055e-005
0.0116327 0.00120988 4.6055e-005
0.0117561 0.00121036 4.6055e-005
0.0118795 0.00121085 4.6055e-005
0.0120028 0.00121133 4.6055e-005
0.0121272 0.00121181 4.6055e-005
0.0122515 0.00121229 4.6055e-005
0.0123759 0.00121277 4.6055e-005
0.0125002 0.00121324 4.6055e-005
0.0126245 0.00121371 4.6055e-005
0.0127498 0.00121418 4.6055e-005
0.0128752 0.00121465 4.6055e-005
0.0130005 0.00121511 4.6055e-005
0.0131258 0.00121558 4.6055e-005
0.0132511 0.00121603 4.6055e-005
0.0133774 0.00121649 4.6055e-005
0.0135036 0.00121694 4.6055e-005
0.0136299 0.0012174 4.6055e-005
0.0137562 0.00121784 4.6055e-005
0.0138825 0.00121829 4.6055e-005
0.0140098 0.00121873 4.6055e-005
0.014137 0.00121917 4.6055e-005
0.0142643 0.0012196 4.6055e-005
0.0143915 0.00122004 4.6055e-005
0.0145188 0.00122046 4.6055e-005
0.0146471 0.00122088 4.6055e-005
0.0147753 0.00122131 4.6055e-005
0.0149036 0.00122173 4.6055e-005
0.0150318 0.00122214 4.6055e-005
0.0151601 0.00122255 4.6055e-005
0.0152893 0.00122295 4.6055e-005
0.0154186 0.00122335 4.6055e-005
0.0155478 0.00122375 4.6055e-005
0.0156771 0.00122414 4.6055e-005
0.0158063 0.00122453 4.6055e-005
0.0159366 0.00122491 4.6055e-005
0.0160668 0.00122529 4.6055e-005
0.0161971 0.00122566 4.6055e-005
0.0163274 0.00122603 4.6055e-005
0.0164576 0.0012264 4.6055e-005
0.0165889 0.00122675 4.6055e-005
0.0167201 0.00122711 4.6055e-005
0.0168514 0.00122746 4.6055e-005
0.0169827 0.0012278 4.6055e-005
0.0171139 0.00122813 4.6055e-005
0.0172315 0.00122843 4.6055e-005
0.0173491 0.00122872 4.6055e-005
0.0174667 0.001229 4.6055e-005
0.0175842 0.00122928 4.6055e-005
0.0176972 0.00122955 4.6055e-005
0.0177128 0.00122958 4.6055e-005
0.0177285 0.00122962 4.6055e-005
0.0177441 0.00122966 4.6055e-005
0.0177597 0.00122969 4.6055e-005
0.0177754 0.00122973 4.6055e-005
0.0179087 0.00123003 4.6055e-005
0.018042 0.00123032 4.6055e-005
0.0181753 0.00123061 4.6055e-005
0.0183087 0.00123089 4.6055e-005
0.018442 0.00123116 4.6055e-005
0.0185763 0.00123143 4.6055e-005
0.0187107 0.00123169 4.6055e-005
0.018845 0.00123194 4.6055e-005
0.0189794 0.00123219 4.6055e-005
0.0191137 0.00123242 4.6055e-005
0.0192491 0.00123265 4.6055e-005
0.0193845 0.00123287 4.6055e-005
0.0195199 0.00123309 4.6055e-005
0.0196553 0.00123329 4.6055e-005
0.0197907 0.00123349 4.6055e-005
0.0199272 0.00123367 4.6055e-005
0.0200636 0.00123385 4.6055e-005
0.0202001 0.00123403 4.6055e-005
0.0203365 0.00123419 4.6055e-005
0.020473 0.00123434 4.6055e-005
0.0206105 0.00123448 4.6055e-005
0.020748 0.00123462 4.6055e-005
0.0208855 0.00123475 4.6055e-005
0.021023 0.00123486 4.6055e-005
0.0211606 0.00123497 4.6055e-005
0.0212991 0.00123507 4.6055e-005
0.0214377 0.00123516 4.6055e-005
0.0215763 0.00123523 4.6055e-005
0.0217149 0.0012353 4.6055e-005
0.0218535 0.00123536 4.6055e-005
0.0219931 0.00123541 4.6055e-005
0.0221328 0.00123544 4.6055e-005
0.0222724 0.00123547 4.6055e-005
0.0224121 0.00123549 4.6055e-005
0.0225517 0.00123549 4.6055e-005
0.0226925 0.00123549 4.6055e-005
0.0228332 0.00123547 4.6055e-005
0.022974 0.00123545 4.6055e-005
0.0231147 0.00123541 4.6055e-005
0.0232555 0.00123536 4.6055e-005
0.0233973 0.00123531 4.6055e-005
0.0235391 0.00123523 4.6055e-005
0.023681 0.00123515 4.6055e-005
0.0238228 0.00123505 4.6055e-005
[...]
POINT_DATA 11930
 FIELD attributes 2
p 1 11930 float
-1547.6 -1534.96 -1521.1 -1507.39 -1493.84 -1473.16 -1458.43 -1443.64 -1428.76 -1413.81 -1392.94 -1344.67 -1296.54 -1248.48 -1200.48 -1158.05 -1126.46 -1101.1 -1075.75 -1050.41 -1033.72 -1021.98 -1012.51 -1003.04 -993.58 -985.946 -979.117 -971.177 -963.236 -955.295 -946.267 -937.785 -929.16 -920.532 -911.924 -903.58 -895.632 -888.475 -881.414 -874.508 -868.52 -862.759 -857.567 -852.498 -847.585 -843.261 -839.084 -835.131 -831.249 -827.457 -823.917 -820.49 -817.197 -813.959 -810.797 -807.8 -804.888 -802.108 -799.398 -796.775 -794.301 -791.884 -789.585 -787.362 -785.229 -783.221 -781.241 -779.349 -777.526 -775.783 -774.131 -772.48 -770.895 -769.374 -767.924 -766.546 -765.139 -763.783 -762.485 -761.256 -760.086 -758.859 -757.679 -756.56 -755.517 -754.529 -753.456 -752.415 -751.423 -750.511 -749.648 -748.674 -747.753 -746.927 -746.227 -745.593 -744.852 -744.176 -743.621 -743.214 -742.894 -742.369 -741.889 -741.475 -741.166 -740.936 -740.497 -740.167 -739.962 -739.886 -739.93 -739.772 -739.704 -739.718 -739.804 -739.972 -740.085 -740.19 -740.289 -740.379 -740.459 -740.739 -740.918 -741.037 -741.095 -741.042 -741.433 -741.657 -741.799 -741.855 -741.711 -742.177 -742.425 -742.59 -742.664 -742.466 -742.957 -743.187 -743.342 -743.42 -743.176 -743.626 -743.801 -743.92 -743.983 -743.721 -744.094 -744.221 -744.315 -744.38 -744.151 -744.448 -744.549 -744.635 -744.712 -744.549 -744.774 -744.851 -744.926 -745.001 -744.905 -745.054 -745.111 -745.167 -745.224 -745.187 -745.275 -745.323 -745.371 -745.418 -745.432 -745.488 -745.539 -745.589 -745.639 -745.693 -745.738 -745.793 -745.848 -745.904 -745.982 -746.028 -746.088 -746.147 -746.207 -746.296 -746.355 -746.421 -746.487 -746.553 -746.643 -746.722 -746.798 -746.873 -746.949 -747.036 -747.142 -747.23 -747.319 -747.407 -747.492 -747.626 -747.729 -747.832 -747.936 -748.02 -748.179 -748.296 -748.413 -748.531 -748.617 -748.796 -748.926 -749.057 -749.187 -749.28 -749.474 -749.617 -749.761 -749.905 -750.009 -750.213 -750.371 -750.528 -750.685 -750.806 -751.016 -751.187 -751.357 -751.528 -751.668 -751.884 -752.07 -752.255 -752.441 -752.606 -752.827 -753.029 -753.231 -753.433 -753.626 -753.826 -754.017 -754.209 -754.401 -754.585 -754.61 -754.636 -754.661 -754.687 -754.716 -754.94 -755.168 -755.395 -755.623 -755.889 -756.095 -756.336 -756.576 -756.817 -757.128 -757.321 -757.575 -757.829 -758.083 -758.432 -758.619 -758.886 -759.152 -759.419 -759.799 -759.985 -760.264 -760.543 -760.822 -761.225 -761.419 -761.71 -762.001 -762.292 -762.708 -762.918 -763.22 -763.523 -763.826 -764.246 -764.478 -764.791 -765.105 -765.418 -765.833 -766.093 -766.417 -766.74 -767.063 -767.464 -767.758 -768.09 -768.423 -768.756 -769.137 -769.467 -769.809 -770.15 -770.491 -770.847 -771.217 -771.566 -771.915 -772.264 -772.594 -773 -773.358 -773.715 -774.066 -774.372 -774.807 -775.18 -775.543 -775.892 -776.18 -776.636 -777.027 -777.397 -777.738 -778.015 -778.487 -778.896 -779.272 -779.605 -779.875 -780.358 -780.787 -781.169 -781.494 -781.765 -782.257 -782.706 -783.095 -783.411 -783.683 -784.182 -784.65 -785.044 -785.348 -785.622 -786.123 -786.606 -787.002 -787.295 -787.57 -788.066 -788.557 -788.953 -789.237 -789.517 -790.004 -790.491 -790.883 -791.173 -791.463 -791.938 -792.413 -792.803 -793.104 -793.405 -793.866 -794.327 -794.715 -795.028 -795.341 -795.786 -796.232 -796.617 -796.941 -797.265 -797.694 -798.123 -798.505 -798.839 -799.173 -799.585 -799.998 -800.375 -800.717 -801.06 -801.455 -801.851 -802.223 -802.572 -802.921 -803.3 -803.68 -804.045 -804.398 -804.751 -805.115 -805.478 -805.837 -806.192 -806.545 -806.894 -807.244 -807.595 -807.946 -808.298 -808.632 -808.969 -809.311 -809.656 -810.003 -810.322 -810.648 -810.979 -811.313 -811.653 -811.957 -812.272 -812.591 -812.912 -813.242 -813.531 -813.835 -814.14 -814.447 -814.764 -815.038 -815.329 -815.62 -815.91 -816.212 -816.471 -816.744 -817.018 -817.292 -817.576 -817.817 -818.073 -818.328 -818.583 -818.848 -819.072 -819.308 -819.544 -819.779 -820.022 -820.228 -820.443 -820.657 -820.872 -821.091 -821.278 -821.469 -821.661 -821.853 -822.045 -822.06 -822.076 -822.091 -822.107 -822.122 -822.274 -822.426 -822.579 -822.731 -822.882 -823.024 -823.164 -823.303 -823.443 -823.58 -823.695 -823.804 -823.914 -824.024 -824.128 -824.214 -824.292 -824.37 -824.448 -824.517 -824.574 -824.616 -824.66 -824.703 -824.733 -824.758 -824.763 -824.768 -824.772 -824.762 -824.748 -824.718 -824.682 -824.642 -824.59 -824.535 -824.467 -824.389 -824.301 -824.204 -824.106 -823.999 -823.876 -823.737 -823.592 -823.448 -823.3 -823.129 -822.935 -822.74 -822.547 -822.353 -822.13 -821.883 -821.635 -821.389 -821.144 -820.869 -820.566 -820.263 -819.962 -819.662 -819.332 -818.972 -818.611 -818.253 -817.895 -817.508 -817.086 -816.665 -816.247 -815.826 -815.376 -814.897 -814.413 -813.931 -813.439 -812.924 -812.389 -811.838 -811.291 -810.723 -810.14 -809.547 -808.927 -808.31 -807.663 -807.01 -806.356 -805.664 -804.972 -804.245 -803.519 -802.792 -802.038 -801.261 -800.459 -799.657 -798.855 -798.037 -797.173 -796.293 -795.414 -794.535 -793.652 -793.353 -793.05 -792.747 -792.444 -792.147 -791.494 -790.842 -790.189 -789.537 -788.874 -787.851 -786.818 -785.784 -784.751 -783.691 -782.603 -781.487 -780.372 -779.257 -778.096 -776.942 -775.742 -774.543 -773.336 -772.079 -770.844 -769.573 -768.288 -766.977 -765.633 -764.311 -762.972 -761.6 -760.182 -758.749 -757.339 -755.929 -754.465 -752.943 -751.422 -749.922 -748.423 -746.868 -745.256 -743.644 -742.054 -740.464 -738.817 -737.113 -735.41 -733.729 -732.037 -730.292 -728.511 -726.715 -724.942 -723.133 -721.295 -719.443 -717.555 -715.689 -713.763 -711.831 -709.9 -707.927 -705.947 -703.921 -701.895 -699.87 -697.826 -696.148 -694.449 -692.751 -691.053 -689.442 -689.006 -688.569 -688.133 -687.697 -687.255 -685.058 -682.856 -680.655 -678.455 -676.221 -673.953 -671.658 -669.363 -667.069 -664.712 -662.365 -659.985 -657.596 -655.179 -652.727 -650.286 -647.837 -645.355 -642.813 -640.267 -637.733 -635.199 -632.614 -629.974 -627.334 -624.706 -622.079 -619.394 -616.662 -613.929 -611.209 -608.463 -605.679 -602.88 -600.055 -597.243 -594.372 -591.496 -588.62 -585.716 -582.784 -579.816 -576.849 -573.883 -570.915 -570.824 -570.731 -570.639 -570.546 -570.454 -567.495 -564.537 -561.58 -558.623 -555.643 -552.519 -549.38 -546.243 -543.103 -539.921 -536.717 -533.5 -530.275 -527.024 -523.756 -520.466 -517.177 -513.862 -510.509 -507.156 -503.781 -500.407 -496.998 -493.563 -490.127 -486.67 -483.199 -479.702 -476.197 -472.681 -469.144 -465.568 -461.991 -458.415 -454.827 -452.172 -449.499 -446.826 -444.154 -441.588 -440.586 -439.585 -438.584 -437.582 -436.574 -432.853 -429.129 -425.406 -421.683 -417.927 -414.146 -410.351 -406.555 -402.743 -398.905 -395.054 -391.201 -387.333 -383.429 -379.523 -375.602 -371.683 -367.734 -363.763 -359.792 -355.806 -351.807 -347.786 -343.761 -339.727 -335.677 -331.594 -327.512 -323.43 -319.343 -317.694 -316.037 -314.379 -312.722 -311.098 -308.61 -306.122 -303.635 -301.148 -298.646 -294.459 -290.266 -286.075 -281.88 -277.654 -273.418 -269.178 -264.935 -260.667 -256.391 -252.105 -247.819 -243.515 -239.195 -234.873 -230.54 -226.2 -221.842 -217.482 -213.117 -208.741 -204.341 -199.941 -195.542 -191.141 -189.651 -188.156 -186.661 -185.166 -183.695 -180.748 -177.801 -174.855 -171.909 -168.95 -164.48 -160.009 -155.538 -151.063 -146.568 -142.067 -137.565 -133.063 -128.542 -124.019 -119.489 -114.958 -110.414 -105.866 -101.316 -96.7572 -92.1906 -87.6189 -83.0477 -78.4768 -75.1871 -71.8925 -68.5981 -65.304 -62.1135 -60.7975 -59.4815 -58.1656 -56.8497 -55.5308 -50.923 -46.3168 -41.711 -37.1052 -32.4855 -27.861 -23.2389 -18.6199 -13.9924 -9.36162 -4.72526 -0.0894779 4.54938 9.18442 13.8216 18.465 23.11 27.7562 32.4019 37.0429 40.0699 43.0974 46.1248 49.1519 52.0991 53.7375 55.376 57.0143 58.6526 60.2923 64.9491 69.6014 74.2533 78.9048 83.5593 88.2172 92.8727 97.5193 102.164 106.811 111.462 116.112 120.758 125.395 130.032 134.672 139.307 143.94 148.573 153.205 154.234 155.261 156.288 157.315 158.333 161.935 165.536 169.136 172.737 176.334 180.958 185.571 190.182 194.786 199.39 203.995 208.599 213.192 217.771 222.352 226.935 231.51 236.078 240.646 245.206 247.466 249.719 251.971 254.224 256.438 258.742 261.046 263.35 265.654 267.952 272.491 277.018 281.545 286.064 290.578 295.089 299.6 304.095 308.574 313.056 317.535 322.005 326.465 330.924 335.373 337.639 339.894 342.149 344.404 346.624 348.808 350.992 353.176 355.36 357.535 361.951 366.353 370.756 375.148 379.533 383.911 388.289 392.649 396.992 401.336 405.673 409.997 414.312 418.626 422.935 424.199 425.457 426.714 427.972 429.219 432.248 435.277 438.305 441.333 444.347 448.607 452.856 457.1 461.325 465.548 469.76 473.972 478.162 482.339 486.515 490.163 493.791 497.417 501.043 504.594 505.125 505.655 506.185 506.715 507.243 511.355 515.463 519.571 523.673 527.759 531.829 535.899 539.949 543.979 548.011 552.027 556.028 560.017 564.005 567.988 569.015 570.036 571.056 572.076 573.091 576.022 578.952 581.881 584.808 587.717 591.629 595.536 599.429 603.295 607.163 611.013 614.855 618.674 622.492 626.295 627.89 629.474 631.055 632.635 634.21 636.399 638.588 640.777 642.961 645.131 648.863 652.581 656.291 659.97 663.646 667.305 670.956 674.573 678.188 681.78 683.423 685.055 686.682 688.31 689.946 691.875 693.805 695.734 697.66 699.573 703.097 706.586 710.055 713.441 716.819 720.176 723.557 727.057 730.568 734.127 735.804 737.168 738.432 739.696 740.989 742.62 744.252 745.883 747.413 748.604 750.841 753.721 756.829 761.395 766.182 770.853 774.948 777.404 779.863 781.955 782.125 782.332 782.599 782.866 783.134 784.955 786.776 788.599 790.912 793.541 796.506 799.462 802.28 805.098 807.852 808.402 808.942 809.461 809.98 810.508 812.717 814.924 817.131 819.266 821.356 823.978 826.599 829.123 831.63 834.084 834.703 835.307 835.885 836.463 837.06 838.895 840.728 842.559 844.319 846.034 848.317 850.597 852.714 854.748 856.732 857.407 858.051 858.645 859.238 859.868 861.123 862.375 863.623 864.79 865.893 867.534 869.168 870.602 871.826 873.04 873.699 874.27 874.74 875.207 875.735 876.167 876.596 877.024 877.394 877.697 878.335 878.86 879.269 879.332 879.385 879.302 879.014 878.494 877.967 877.348 877.229 877.068 876.885 876.702 876.511 875.562 874.6 873.627 872.518 871.124 869.302 867.468 865.193 862.504 859.802 856.842 853.485 849.875 846.259 842.47 841.569 840.55 839.511 838.473 837.363 833.72 830.066 826.401 822.685 818.525 812.842 806.865 800.609 793.603 786.498 778.922 771.333 763.164 754.525 745.819 736.589 726.176 715.479 704.779 693.589 688.965 684.332 679.698 675.062 669.81 662.231 654.647 647.059 639.467 631.831 617.992 602.255 586.485 569.74 550.38 530.048 510.285 492.695 478.704 464.759 450.064 435.371 407.885 368.071 328.224 286.581 253.791 237.343 228.53 231.394 234.066 177.21 119.837 62.1702 0