/*--------------------------------*- C++ -*----------------------------------*\
| =========                 |                                                 |
| \\      /  F ield         | OpenFOAM: The Open Source CFD Toolbox           |
|  \\    /   O peration     | Version:  5.x                                   |
|   \\  /    A nd           | Web:      www.OpenFOAM.org                      |
|    \\/     M anipulation  |                                                 |
\*---------------------------------------------------------------------------*/
/*   Windows 32 and 64 bit porting by blueCAPE: http://www.bluecape.com.pt   *\
|  Based on Windows porting (2.0.x v4) by Symscape: http://www.symscape.com   |
\*---------------------------------------------------------------------------*/
FoamFile
{
    version     2.0;
    format      ascii;
    class       volScalarField;
    location    "5000";
    object      nut;
}
// * * * * * * * * * * * * * * * * * * * * * * * * * * * * * * * * * * * * * //

dimensions      [0 2 -1 0 0 0 0];

internalField   nonuniform List<scalar> 
4000
(
4.9435
7.38073
9.25821
10.6815
11.8472
12.8461
13.7265
14.5176
15.2378
15.9002
16.5143
17.0872
17.6247
18.1308
18.6093
19.063
19.4944
19.9055
20.2979
20.6733
21.0326
21.3771
21.7077
22.025
22.3298
22.6227
22.9041
23.1744
23.4343
23.6841
23.9239
24.1537
24.3741
24.585
24.7868
24.9794
25.1632
25.338
25.504
25.6615
25.8106
25.9514
26.0839
26.208
26.3235
26.4307
26.5295
26.62
26.7023
26.7765
26.8427
26.901
26.9516
26.9947
27.0306
27.0596
27.082
27.0982
27.11
27.1177
27.1213
27.1219
27.1206
27.1186
27.1172
27.1179
27.1226
27.1327
27.1502
27.1775
27.2164
27.269
27.3378
27.4251
27.5334
27.6651
27.8225
28.008
28.224
28.4724
28.7552
29.0741
29.4304
29.8251
30.2591
30.7328
31.2506
31.8087
32.4059
33.0421
33.7167
34.4286
35.1766
35.9594
36.7751
37.6219
38.4998
39.4095
40.3479
41.3126
42.3011
43.3105
44.3403
45.3893
46.4562
47.5398
48.639
49.7525
50.8794
52.0188
53.1696
54.3311
55.5022
56.6817
57.8721
59.0764
60.2877
61.506
62.7309
63.9622
65.1994
66.442
67.6895
68.9416
70.1981
71.4587
72.722
73.9883
75.2568
76.5227
77.7862
79.0471
80.3038
81.5541
82.7966
84.0294
85.2507
86.4588
87.6516
88.8271
89.9831
91.1172
92.227
93.3101
94.3649
95.4047
96.4092
97.3771
98.3074
99.1981
100.047
100.852
101.611
102.321
102.979
103.58
104.127
104.623
105.066
105.453
105.777
106.03
106.211
106.321
106.356
106.316
106.198
106.002
105.724
105.365
104.922
104.393
103.775
103.102
102.344
101.5
100.571
99.5556
98.4544
97.2663
95.9897
94.6222
93.1612
91.6028
89.9371
88.1488
86.2356
84.1852
81.9717
79.5711
76.9485
74.0572
70.8351
67.1966
63.0182
58.1127
52.2111
44.8083
34.919
22.55
18.0805
48.0686
68.7674
82.8055
93.5743
102.446
110.066
116.781
122.815
128.314
133.378
138.077
142.465
146.586
150.472
154.152
157.647
160.976
164.153
167.191
170.1
172.89
175.568
178.14
180.612
182.989
185.273
187.468
189.575
191.592
193.527
195.382
197.16
198.862
200.49
202.046
203.529
204.941
206.283
207.555
208.757
209.891
210.955
211.951
212.88
213.741
214.535
215.263
215.925
216.523
217.057
217.528
217.939
218.29
218.584
218.824
219.012
219.147
219.224
219.243
219.224
219.179
219.117
219.048
218.986
218.943
218.939
218.982
219.082
219.256
219.521
219.898
220.416
221.094
221.951
223.007
224.282
225.796
227.569
229.619
231.96
234.607
237.572
240.862
244.482
248.427
252.648
257.156
261.979
267.123
272.583
278.353
284.423
290.783
297.42
304.324
311.48
318.869
326.477
334.292
342.304
350.499
358.866
367.392
376.067
384.879
393.82
402.879
412.049
421.32
430.684
440.132
449.653
459.229
468.82
478.338
487.881
497.47
507.108
516.797
526.537
536.327
546.165
556.055
566.003
576.019
586.069
596.116
606.16
616.187
626.219
636.281
646.355
656.419
666.462
676.471
686.434
696.337
706.165
715.9
725.523
735.011
744.342
753.486
762.385
770.764
778.809
786.556
794.002
801.136
807.942
814.403
820.502
826.217
831.532
836.43
840.89
844.888
848.399
851.405
853.894
855.852
857.259
858.1
858.36
858.025
857.083
855.522
853.33
850.493
846.994
842.799
837.813
831.685
824.752
817.125
808.837
799.907
790.349
780.167
769.36
757.921
745.85
733.154
719.698
705.311
689.905
673.343
655.508
636.247
615.238
592.021
565.987
536.265
501.495
459.313
404.812
329.805
218.64
78.8204
25.6766
80.0213
130.477
167.444
195.502
217.944
236.669
252.783
266.982
279.716
291.293
301.929
311.786
320.983
329.615
337.755
345.463
352.786
359.761
366.421
372.792
378.896
384.75
390.37
395.769
400.956
405.941
410.73
415.326
419.732
423.957
428.01
431.893
435.612
439.168
442.565
445.805
448.89
451.82
454.598
457.224
459.7
462.025
464.202
466.23
468.112
469.849
471.44
472.889
474.196
475.365
476.398
477.298
478.069
478.715
479.242
479.654
479.951
480.13
480.203
480.196
480.131
480.032
479.92
479.822
479.767
479.784
479.902
480.149
480.56
481.175
482.038
483.197
484.697
486.583
488.899
491.69
495
498.87
503.34
508.445
514.216
520.676
527.843
535.724
544.311
553.539
563.444
574.05
585.361
597.37
610.062
623.417
637.41
652.016
667.205
682.946
699.201
715.944
733.146
750.779
768.816
787.227
805.988
825.071
844.454
864.115
884.03
904.181
924.546
945.104
965.833
986.706
1007.68
1028.69
1049.68
1070.72
1091.84
1113.06
1134.38
1155.8
1177.32
1198.94
1220.66
1242.47
1264.37
1286.32
1308.29
1330.27
1352.23
1374.2
1396.18
1418.15
1440.08
1461.95
1483.72
1505.38
1526.88
1548.2
1569.3
1590.13
1610.64
1630.77
1650.44
1669.53
1687.78
1705.33
1722.21
1738.43
1753.96
1768.77
1782.83
1796.1
1808.54
1820.1
1830.76
1840.46
1849.15
1856.79
1863.35
1868.78
1873.06
1876.14
1878
1878.59
1877.89
1875.88
1872.51
1867.77
1861.62
1854
1844.84
1833.97
1821.1
1806.5
1790.35
1772.72
1753.66
1733.2
1711.34
1688.06
1663.33
1637.11
1609.28
1579.65
1547.92
1513.81
1476.91
1436.79
1392.8
1344.01
1289.06
1226.02
1152.06
1062.82
951.409
806.799
613.447
361.313
117.3
32.0621
101.939
176.924
237.483
285.258
323.695
355.491
382.491
405.94
426.689
445.328
462.282
477.863
492.302
505.779
518.431
530.367
541.674
552.42
562.661
572.443
581.804
590.774
599.378
607.638
615.571
623.191
630.509
637.533
644.271
650.734
656.931
662.87
668.556
673.994
679.188
684.142
688.858
693.338
697.585
701.601
705.386
708.943
712.273
715.377
718.258
720.917
723.356
725.578
727.586
729.382
730.972
732.361
733.554
734.557
735.378
736.024
736.502
736.812
736.978
737.03
736.998
736.915
736.814
736.735
736.717
736.805
737.044
737.481
738.171
739.171
740.547
742.367
744.698
747.61
751.17
755.448
760.511
766.422
773.242
781.025
789.817
799.656
810.568
822.566
835.646
849.771
864.967
881.252
898.624
917.072
936.572
957.095
978.603
1001.06
1024.41
1048.62
1073.63
1099.39
1125.87
1153.02
1180.8
1209.15
1238.05
1267.45
1297.32
1327.61
1358.3
1389.34
1420.71
1452.38
1484.3
1516.43
1548.73
1581.12
1613.58
1646.13
1678.82
1711.64
1744.61
1777.72
1810.97
1844.34
1877.84
1911.44
1945.13
1978.87
2012.64
2046.4
2080.15
2113.86
2147.54
2181.14
2214.64
2248
2281.18
2314.12
2346.79
2379.13
2411.07
2442.55
2473.5
2503.82
2533.4
2562.1
2589.73
2616.34
2641.94
2666.52
2690.05
2712.48
2733.76
2753.84
2772.67
2790.17
2806.31
2821
2834.19
2845.81
2855.81
2864.12
2870.71
2875.51
2878.46
2879.53
2878.66
2875.8
2870.91
2863.93
2854.8
2843.45
2829.77
2813.6
2794.74
2773.37
2749.61
2723.56
2695.26
2664.72
2631.93
2596.85
2559.37
2519.36
2476.61
2430.77
2381.4
2327.94
2269.63
2205.52
2134.29
2054.08
1962.28
1855.22
1727.71
1572.37
1378.98
1134.54
827.059
463.598
147.942
37.0246
118.04
211.405
291.927
358.031
412.19
457.174
495.23
528.031
556.794
582.4
605.497
626.566
645.97
663.984
680.822
696.651
711.6
725.775
739.259
752.119
764.41
776.176
787.454
798.274
808.66
818.631
828.206
837.394
846.211
854.668
862.778
870.548
877.987
885.1
891.895
898.374
904.542
910.402
915.958
921.211
926.163
930.818
935.177
939.242
943.017
946.503
949.703
952.621
955.261
957.628
959.727
961.565
963.15
964.489
965.593
966.472
967.137
967.599
967.885
968.031
968.072
968.049
968.005
967.988
968.05
968.247
968.637
969.286
970.263
971.643
973.509
975.945
979.04
982.884
987.565
993.173
999.797
1007.52
1016.42
1026.57
1038.03
1050.85
1065.07
1080.7
1097.76
1116.24
1136.14
1157.48
1180.27
1204.46
1230.05
1256.98
1285.22
1314.71
1345.39
1377.2
1410.08
1443.98
1478.82
1514.56
1551.13
1588.48
1626.56
1665.31
1704.68
1744.62
1785.09
1826.04
1867.42
1909.19
1951.3
1993.69
2036.32
2079.12
2122.06
2165.16
2208.43
2251.89
2295.52
2339.32
2383.27
2427.37
2471.59
2515.91
2560.31
2604.75
2649.19
2693.6
2737.96
2782.23
2826.39
2870.4
2914.21
2957.77
3001.03
3043.93
3086.41
3128.38
3169.78
3210.52
3250.5
3289.61
3327.72
3364.69
3400.39
3434.79
3467.89
3499.66
3530.05
3559.01
3586.48
3612.4
3636.7
3659.3
3680.15
3699.15
3716.25
3731.35
3744.39
3755.3
3764
3770.43
3774.53
3776.21
3775.41
3772.08
3766.13
3757.49
3746.08
3731.81
3714.55
3694.16
3670.5
3643.65
3613.7
3580.7
3544.67
3505.6
3463.44
3418.07
3369.34
3316.99
3260.68
3199.91
3134.03
3062.16
2983.15
2895.46
2797.04
2685.03
2555.54
2403.28
2221.1
1999.68
1727.65
1393.48
991.976
543.914
173.004
41.0865
130.663
237.513
333.654
415.074
483.053
540.016
588.289
629.784
665.982
698.011
726.72
752.754
776.603
798.642
819.162
838.389
856.5
873.634
889.905
905.4
920.192
934.34
947.89
960.881
973.345
985.308
996.791
1007.81
1018.38
1028.52
1038.25
1047.56
1056.48
1065.01
1073.15
1080.92
1088.31
1095.34
1102
1108.29
1114.23
1119.81
1125.04
1129.92
1134.45
1138.64
1142.49
1146.01
1149.19
1152.05
1154.59
1156.83
1158.76
1160.4
1161.77
1162.87
1163.72
1164.34
1164.77
1165.03
1165.17
1165.24
1165.29
1165.36
1165.53
1165.86
1166.42
1167.29
1168.54
1170.27
1172.58
1175.56
1179.32
1183.96
1189.59
1196.32
1204.26
1213.5
1224.14
1236.26
1249.95
1265.25
1282.23
1300.9
1321.3
1343.41
1367.26
1392.86
1420.19
1449.23
1479.95
1512.3
1546.23
1581.68
1618.57
1656.85
1696.43
1737.25
1779.23
1822.31
1866.42
1911.48
1957.44
2004.22
2051.78
2100.04
2148.94
2198.44
2248.48
2298.99
2349.92
2401.21
2452.81
2504.64
2556.69
2608.95
2661.44
2714.13
2767.02
2820.09
2873.33
2926.72
2980.21
3033.79
3087.42
3141.07
3194.67
3248.2
3301.62
3354.89
3407.96
3460.78
3513.29
3565.44
3617.16
3668.37
3718.99
3768.95
3818.14
3866.47
3913.83
3960.11
4005.16
4048.85
4091.06
4131.76
4170.91
4208.46
4244.37
4278.57
4311.01
4341.62
4370.32
4397.03
4421.69
4444.2
4464.49
4482.47
4498.06
4511.18
4521.75
4529.68
4534.89
4537.29
4536.81
4533.36
4526.85
4517.17
4504.24
4487.93
4468.12
4444.66
4417.43
4386.45
4351.76
4313.36
4271.24
4225.34
4175.55
4121.7
4063.53
4000.7
3932.71
3858.91
3778.4
3690.03
3592.23
3482.97
3359.47
3218.05
3053.75
2860.02
2628.44
2348.7
2009.54
1601.8
1126.28
614.821
196.568
44.9189
141.811
257.557
365.228
458.504
537.64
604.578
661.531
710.488
753.093
790.647
824.161
854.418
882.02
907.433
931.017
953.054
973.765
993.322
1011.86
1029.5
1046.32
1062.39
1077.77
1092.51
1106.65
1120.21
1133.22
1145.71
1157.69
1169.18
1180.2
1190.75
1200.85
1210.51
1219.73
1228.53
1236.9
1244.85
1252.4
1259.53
1266.26
1272.58
1278.51
1284.04
1289.19
1293.94
1298.32
1302.32
1305.95
1309.21
1312.13
1314.69
1316.92
1318.83
1320.43
1321.74
1322.77
1323.55
1324.12
1324.51
1324.77
1324.95
1325.1
1325.29
1325.59
1326.06
1326.79
1327.86
1329.37
1331.41
1334.09
1337.52
1341.83
1347.12
1353.52
1361.15
1370.12
1380.56
1392.57
1406.25
1421.68
1438.93
1458.08
1479.15
1502.17
1527.15
1554.12
1583.08
1614.02
1646.91
1681.72
1718.39
1756.87
1797.09
1838.97
1882.44
1927.42
1973.83
2021.59
2070.63
2120.85
2172.2
2224.58
2277.94
2332.19
2387.27
2443.11
2499.64
2556.79
2614.51
2672.73
2731.37
2790.38
2849.69
2909.27
2969.13
3029.23
3089.56
3150.11
3210.85
3271.76
3332.79
3393.92
3455.11
3516.31
3577.48
3638.57
3699.53
3760.3
3820.84
3881.08
3940.98
4000.46
4059.44
4117.86
4175.62
4232.65
4288.84
4344.1
4398.31
4451.36
4503.12
4553.47
4602.27
4649.42
4694.87
4738.57
4780.47
4820.52
4858.65
4894.81
4928.93
4960.93
4990.74
5018.28
5043.46
5066.21
5086.44
5104.06
5118.98
5131.11
5140.36
5146.64
5149.84
5149.87
5146.63
5140
5129.87
5116.12
5098.61
5077.22
5051.78
5022.16
4988.35
4950.32
4908.04
4861.44
4810.41
4754.79
4694.34
4628.71
4557.46
4479.98
4395.44
4302.77
4200.54
4086.89
3959.36
3814.68
3648.54
3455.28
3227.58
2956.28
2630.61
2239.53
1775.5
1243.06
688.539
223.845
48.8828
152.481
272.69
388.28
490.024
577.416
651.938
715.614
770.419
818.071
859.983
897.279
930.848
961.378
989.409
1015.36
1039.55
1062.25
1083.65
1103.92
1123.17
1141.52
1159.04
1175.79
1191.85
1207.23
1221.99
1236.15
1249.73
1262.76
1275.25
1287.23
1298.7
1309.68
1320.18
1330.2
1339.76
1348.86
1357.51
1365.71
1373.46
1380.77
1387.65
1394.1
1400.13
1405.73
1410.91
1415.69
1420.06
1424.03
1427.61
1430.82
1433.65
1436.12
1438.25
1440.05
1441.53
1442.73
1443.66
1444.37
1444.89
1445.28
1445.58
1445.85
1446.17
1446.6
1447.22
1448.11
1449.36
1451.09
1453.38
1456.37
1460.16
1464.88
1470.65
1477.62
1485.91
1495.65
1506.96
1519.96
1534.76
1551.45
1570.12
1590.83
1613.62
1638.55
1665.62
1694.85
1726.27
1759.84
1795.55
1833.36
1873.22
1915.06
1958.81
2004.4
2051.75
2100.77
2151.38
2203.49
2257.02
2311.89
2368.01
2425.29
2483.66
2543.05
2603.36
2664.54
2726.49
2789.15
2852.44
2916.3
2980.65
3045.41
3110.53
3175.98
3241.73
3307.75
3374.03
3440.52
3507.21
3574.05
3641
3708.02
3775.06
3842.08
3909.01
3975.81
4042.41
4108.75
4174.77
4240.41
4305.59
4370.23
4434.27
4497.61
4560.16
4621.82
4682.5
4742.09
4800.47
4857.53
4913.14
4967.17
5019.5
5070.04
5118.73
5165.52
5210.35
5253.19
5293.97
5332.62
5369.1
5403.33
5435.23
5464.75
5491.79
5516.27
5538.12
5557.23
5573.53
5586.91
5597.27
5604.52
5608.55
5609.23
5606.46
5600.1
5590.03
5576.1
5558.17
5536.07
5509.65
5478.74
5443.29
5403.24
5358.51
5308.98
5254.5
5194.83
5129.69
5058.66
4981.21
4896.61
4803.95
4702
4589.17
4463.39
4321.94
4161.3
3976.86
3762.66
3511.1
3212.77
2856.67
2431.49
1929.28
1354.68
769.847
259.546
52.5434
161.609
283.131
403.576
510.698
603.483
683.066
751.295
810.099
861.221
906.134
946.035
981.878
1014.41
1044.23
1071.79
1097.44
1121.48
1144.12
1165.54
1185.87
1205.24
1223.72
1241.38
1258.3
1274.51
1290.06
1304.97
1319.27
1332.98
1346.14
1358.74
1370.82
1382.37
1393.42
1403.97
1414.02
1423.6
1432.69
1441.32
1449.48
1457.18
1464.42
1471.22
1477.56
1483.47
1488.94
1493.99
1498.61
1502.82
1506.62
1510.03
1513.06
1515.71
1518.01
1519.97
1521.6
1522.94
1524.01
1524.85
1525.5
1526.01
1526.43
1526.83
1527.27
1527.83
1528.58
1529.62
1531.03
1532.93
1535.43
1538.63
1542.67
1547.67
1553.77
1561.11
1569.82
1580.04
1591.89
1605.5
1620.99
1638.46
1658
1679.67
1703.54
1729.64
1758
1788.65
1821.6
1856.83
1894.33
1934.05
1975.94
2019.94
2065.98
2113.99
2163.87
2215.55
2268.94
2323.95
2380.49
2438.47
2497.82
2558.43
2620.23
2683.13
2747.05
2811.91
2877.63
2944.11
3011.3
3079.1
3147.44
3216.24
3285.44
3355
3424.89
3495.07
3565.51
3636.17
3707.01
3777.99
3849.06
3920.16
3991.26
4062.28
4133.16
4203.85
4274.27
4344.36
4414.05
4483.27
4551.92
4619.95
4687.25
4753.73
4819.3
4883.87
4947.32
5009.54
5070.43
5129.86
5187.71
5243.87
5298.2
5350.62
5401.1
5449.57
5495.99
5540.32
5582.5
5622.48
5660.21
5695.64
5728.68
5759.29
5787.39
5812.9
5835.74
5855.82
5873.06
5887.35
5898.6
5906.7
5911.52
5912.95
5910.86
5905.1
5895.52
5881.96
5864.26
5842.25
5815.73
5784.53
5748.56
5707.72
5661.89
5610.91
5554.58
5492.64
5424.73
5350.39
5269.03
5179.87
5081.91
4973.87
4854.08
4720.4
4570.08
4399.56
4204.3
3978.48
3714.79
3404.19
3035.95
2598.32
2081.01
1483.1
872.741
319.257
55.0888
167.535
288.57
411.307
521.058
616.51
698.622
769.146
829.976
882.863
929.304
970.53
1007.53
1041.08
1071.8
1100.17
1126.56
1151.26
1174.52
1196.51
1217.38
1237.24
1256.19
1274.3
1291.64
1308.25
1324.17
1339.44
1354.09
1368.13
1381.6
1394.5
1406.86
1418.69
1429.99
1440.79
1451.08
1460.87
1470.18
1479.01
1487.36
1495.24
1502.66
1509.62
1516.12
1522.18
1527.8
1532.98
1537.74
1542.07
1546
1549.54
1552.68
1555.45
1557.86
1559.94
1561.69
1563.14
1564.32
1565.27
1566.04
1566.66
1567.2
1567.72
1568.28
1568.95
1569.83
1570.98
1572.52
1574.55
1577.17
1580.51
1584.69
1589.84
1596.11
1603.61
1612.51
1622.92
1634.99
1648.85
1664.61
1682.38
1702.24
1724.29
1748.57
1775.13
1804
1835.22
1868.8
1904.72
1942.97
1983.51
2026.29
2071.25
2118.33
2167.45
2218.53
2271.48
2326.21
2382.65
2440.7
2500.27
2561.27
2623.62
2687.23
2752.01
2817.88
2884.74
2952.51
3021.11
3090.45
3160.45
3231.03
3302.1
3373.6
3445.48
3517.7
3590.22
3663.01
3736
3809.17
3882.45
3955.8
4029.15
4102.44
4175.62
4248.62
4321.35
4393.76
4465.78
4537.31
4608.28
4678.62
4748.23
4817.01
4884.89
4951.76
5017.52
5082.05
5145.26
5207.04
5267.26
5325.81
5382.57
5437.43
5490.32
5541.19
5590
5636.72
5681.3
5723.71
5763.9
5801.84
5837.48
5870.75
5901.61
5930
5955.84
5979.06
5999.59
6017.33
6032.19
6044.06
6052.84
6058.41
6060.63
6059.35
6054.43
6045.7
6032.99
6016.1
5994.85
5969.04
5938.45
5902.97
5862.48
5816.82
5765.8
5709.19
5646.69
5577.91
5502.36
5419.43
5328.32
5228.01
5117.23
4994.34
4857.27
4703.39
4529.41
4331.15
4103.41
3839.79
3532.53
3172.49
2749.35
2252.28
1672.72
1054.36
464.713
55.123
167.637
288.722
411.52
521.316
616.795
698.924
769.456
830.289
883.176
929.616
970.841
1007.84
1041.39
1072.1
1100.46
1126.84
1151.54
1174.78
1196.76
1217.61
1237.45
1256.38
1274.47
1291.78
1308.36
1324.26
1339.5
1354.12
1368.13
1381.56
1394.44
1406.76
1418.56
1429.83
1440.6
1450.86
1460.63
1469.91
1478.72
1487.05
1494.91
1502.31
1509.25
1515.75
1521.8
1527.42
1532.61
1537.38
1541.74
1545.7
1549.26
1552.45
1555.27
1557.74
1559.88
1561.7
1563.23
1564.5
1565.54
1566.4
1567.13
1567.77
1568.39
1569.05
1569.83
1570.8
1572.05
1573.67
1575.77
1578.45
1581.83
1586.05
1591.21
1597.46
1604.94
1613.79
1624.13
1636.1
1649.84
1665.45
1683.05
1702.73
1724.56
1748.62
1774.93
1803.55
1834.51
1867.82
1903.47
1941.46
1981.74
2024.28
2069.02
2115.89
2164.83
2215.76
2268.59
2323.24
2379.64
2437.68
2497.29
2558.38
2620.86
2684.64
2749.63
2815.75
2882.91
2951.01
3019.98
3089.72
3160.14
3231.16
3302.7
3374.67
3447.04
3519.75
3592.76
3666.03
3739.5
3813.11
3886.83
3960.57
4034.3
4107.93
4181.39
4254.63
4327.56
4400.11
4472.2
4543.75
4614.68
4684.9
4754.31
4822.84
4890.38
4956.84
5022.12
5086.1
5148.7
5209.79
5269.27
5327.02
5382.95
5436.93
5488.91
5538.86
5586.74
5632.52
5676.19
5717.71
5757.06
5794.21
5829.12
5861.75
5892.06
5919.99
5945.5
5968.51
5988.95
6006.75
6021.8
6034.02
6043.29
6049.49
6052.48
6052.11
6048.21
6040.61
6029.12
6013.54
5993.65
5969.23
5940.06
5906.01
5866.92
5822.61
5772.88
5717.47
5656.07
5588.28
5513.61
5431.44
5340.99
5241.3
5131.16
5009.04
4873.08
4720.92
4549.7
4355.9
4135.3
3882.94
3593.26
3260.43
2879.4
2448.46
1975.54
1495.06
1117.48
52.6387
161.898
283.588
404.209
511.458
604.324
683.951
752.201
811.012
862.135
907.045
946.941
982.777
1015.3
1045.1
1072.64
1098.27
1122.28
1144.88
1166.26
1186.54
1205.85
1224.27
1241.87
1258.71
1274.84
1290.31
1305.13
1319.35
1332.97
1346.04
1358.55
1370.53
1382
1392.96
1403.42
1413.39
1422.88
1431.9
1440.46
1448.55
1456.2
1463.39
1470.15
1476.47
1482.37
1487.84
1492.91
1497.57
1501.84
1505.72
1509.23
1512.37
1515.17
1517.64
1519.78
1521.63
1523.2
1524.52
1525.63
1526.56
1527.36
1528.09
1528.79
1529.53
1530.38
1531.42
1532.72
1534.38
1536.49
1539.16
1542.51
1546.63
1551.68
1557.76
1565.01
1573.58
1583.58
1595.14
1608.4
1623.47
1640.44
1659.42
1680.48
1703.68
1729.07
1756.69
1786.57
1818.74
1853.19
1889.91
1928.88
1970.06
2013.4
2058.84
2106.32
2155.76
2207.1
2260.25
2315.13
2371.66
2429.76
2489.35
2550.33
2612.64
2676.17
2740.84
2806.56
2873.24
2940.8
3009.15
3078.18
3147.82
3217.98
3288.57
3359.56
3430.88
3502.49
3574.34
3646.38
3718.55
3790.79
3863.04
3935.23
4007.3
4079.17
4150.77
4222.02
4292.86
4363.18
4432.92
4501.99
4570.31
4637.77
4704.31
4769.81
4834.19
4897.35
4959.18
5019.6
5078.49
5135.76
5191.29
5244.98
5296.75
5346.52
5394.28
5440.02
5483.71
5525.36
5564.94
5602.44
5637.85
5671.15
5702.31
5731.29
5758.07
5782.59
5804.8
5824.64
5842.04
5856.91
5869.17
5878.7
5885.37
5889.06
5889.61
5886.84
5880.58
5870.61
5856.73
5838.7
5816.29
5789.26
5757.45
5720.71
5678.86
5631.66
5578.87
5520.16
5455.15
5383.37
5304.23
5217.01
5120.83
5014.6
4897
4766.4
4620.87
4458.06
4275.26
4069.38
3837.11
3575.25
3281.5
2955.94
2604.11
2242.64
1908.89
1674.91
49.0286
152.93
273.445
389.314
491.251
578.759
653.342
717.045
771.86
819.512
861.419
898.709
932.266
962.781
990.791
1016.71
1040.87
1063.52
1084.86
1105.06
1124.23
1142.49
1159.91
1176.56
1192.5
1207.76
1222.39
1236.41
1249.85
1262.74
1275.09
1286.93
1298.25
1309.09
1319.45
1329.33
1338.76
1347.73
1356.26
1364.34
1371.99
1379.22
1386.02
1392.41
1398.39
1403.98
1409.17
1413.97
1418.4
1422.47
1426.17
1429.53
1432.55
1435.26
1437.65
1439.75
1441.57
1443.13
1444.46
1445.6
1446.57
1447.42
1448.2
1448.95
1449.75
1450.64
1451.71
1453.02
1454.67
1456.73
1459.31
1462.52
1466.45
1471.23
1476.98
1483.82
1491.88
1501.28
1512.14
1524.58
1538.7
1554.62
1572.4
1592.14
1613.89
1637.69
1663.58
1691.6
1721.77
1754.1
1788.59
1825.21
1863.94
1904.73
1947.53
1992.29
2038.94
2087.41
2137.63
2189.54
2243.05
2298.1
2354.6
2412.47
2471.64
2532.01
2593.51
2656.05
2719.54
2783.9
2849.03
2914.85
2981.25
3048.16
3115.49
3183.18
3251.2
3319.49
3388
3456.67
3525.46
3594.29
3663.11
3731.85
3800.44
3868.81
3936.88
4004.58
4071.83
4138.54
4204.65
4270.07
4334.7
4398.48
4461.31
4523.09
4583.76
4643.2
4701.33
4758.05
4813.28
4866.9
4918.83
4968.98
5017.24
5063.57
5107.96
5150.41
5190.92
5229.49
5266.14
5300.86
5333.65
5364.5
5393.4
5420.33
5445.27
5468.18
5489.02
5507.74
5524.28
5538.57
5550.53
5560.04
5567
5571.26
5572.68
5571.08
5566.27
5558.04
5546.16
5530.4
5510.49
5486.2
5457.38
5423.85
5385.44
5341.93
5293.07
5238.56
5178.03
5111.06
5037.11
4955.56
4865.63
4766.4
4656.77
4535.43
4400.85
4251.29
4084.81
3899.39
3693.17
3464.94
3214.95
2946.44
2668.09
2397.68
2166.37
2020.81
45.1103
142.405
258.594
366.621
460.125
539.39
606.39
663.368
712.333
754.937
792.486
825.992
856.237
883.822
909.209
932.757
954.747
975.397
994.88
1013.33
1030.87
1047.57
1063.52
1078.76
1093.35
1107.33
1120.73
1133.57
1145.88
1157.68
1168.98
1179.81
1190.18
1200.09
1209.57
1218.61
1227.23
1235.44
1243.24
1250.63
1257.63
1264.24
1270.47
1276.32
1281.8
1286.91
1291.68
1296.09
1300.16
1303.91
1307.33
1310.45
1313.26
1315.78
1318.03
1320.02
1321.76
1323.27
1324.56
1325.68
1326.65
1327.51
1328.31
1329.08
1329.9
1330.8
1331.85
1333.13
1334.7
1336.65
1339.07
1342.04
1345.66
1350.05
1355.31
1361.55
1368.88
1377.43
1387.29
1398.57
1411.39
1425.82
1441.95
1459.84
1479.55
1501.12
1524.59
1549.99
1577.35
1606.69
1638
1671.27
1706.49
1743.61
1782.6
1823.4
1865.97
1910.24
1956.15
2003.64
2052.65
2103.11
2154.94
2208.08
2262.45
2317.98
2374.58
2432.18
2490.69
2550.03
2610.11
2670.84
2732.14
2793.91
2856.05
2918.53
2981.31
3044.32
3107.54
3170.89
3234.34
3297.82
3361.26
3424.61
3487.79
3550.73
3613.37
3675.63
3737.42
3798.69
3859.35
3919.32
3978.52
4036.88
4094.32
4150.75
4206.09
4260.25
4313.16
4364.73
4414.87
4463.5
4510.52
4555.85
4599.4
4641.12
4681.02
4719.11
4755.42
4789.96
4822.75
4853.81
4883.15
4910.78
4936.7
4960.89
4983.35
5004.05
5022.97
5040.06
5055.27
5068.56
5079.85
5089.04
5096.02
5100.67
5102.84
5102.35
5099.03
5092.65
5082.98
5069.78
5052.78
5031.74
5006.51
4976.94
4942.86
4904.08
4860.35
4811.42
4756.96
4696.58
4629.85
4556.22
4475.07
4385.65
4287.1
4178.42
4058.5
3926.11
3780.01
3619.05
3442.44
3250.27
3044.18
2828.6
2612.41
2410.8
2246.5
2147.7
41.3231
131.397
238.794
335.325
416.971
485.062
542.072
590.362
631.859
668.056
700.082
728.786
754.81
778.642
800.655
821.137
840.311
858.355
875.407
891.578
906.96
921.623
935.627
949.02
961.843
974.128
985.903
997.189
1008.01
1018.37
1028.3
1037.81
1046.92
1055.62
1063.94
1071.88
1079.45
1086.66
1093.5
1099.99
1106.14
1111.94
1117.4
1122.54
1127.36
1131.86
1136.05
1139.94
1143.54
1146.85
1149.88
1152.65
1155.16
1157.43
1159.46
1161.27
1162.86
1164.25
1165.46
1166.51
1167.43
1168.26
1169.03
1169.79
1170.58
1171.44
1172.44
1173.63
1175.07
1176.83
1178.99
1181.63
1184.84
1188.7
1193.31
1198.77
1205.18
1212.63
1221.22
1231.04
1242.19
1254.74
1268.76
1284.32
1301.46
1320.2
1340.59
1362.66
1386.43
1411.94
1439.18
1468.16
1498.85
1531.24
1565.29
1600.96
1638.21
1676.98
1717.22
1758.9
1801.94
1846.3
1891.92
1938.73
1986.67
2035.67
2085.66
2136.56
2188.31
2240.81
2294.01
2347.8
2402.1
2456.82
2511.87
2567.2
2622.78
2678.57
2734.53
2790.6
2846.75
2902.91
2959.03
3015.04
3070.88
3126.49
3181.8
3236.73
3291.23
3345.22
3398.64
3451.4
3503.45
3554.71
3605.11
3654.58
3703.04
3750.42
3796.66
3841.67
3885.38
3927.72
3968.6
4007.94
4045.65
4081.68
4116.05
4148.81
4179.98
4209.61
4237.71
4264.33
4289.48
4313.18
4335.44
4356.27
4375.66
4393.59
4410.05
4425
4438.43
4450.28
4460.51
4469.02
4475.73
4480.51
4483.22
4483.71
4481.8
4477.27
4469.91
4459.46
4445.64
4428.22
4407.06
4382.06
4353.07
4319.91
4282.4
4240.29
4193.32
4141.17
4083.47
4019.81
3949.7
3872.58
3787.8
3694.67
3592.43
3480.3
3357.56
3223.67
3078.53
2922.88
2758.82
2590.71
2426.1
2276.64
2157.93
2087.15
37.3033
118.895
212.853
293.738
360.019
414.25
459.257
497.318
530.12
558.883
584.49
607.586
628.651
648.041
666.032
682.834
698.612
713.494
727.586
740.971
753.715
765.875
777.495
788.614
799.262
809.465
819.245
828.619
837.601
846.206
854.449
862.342
869.895
877.118
884.019
890.604
896.881
902.855
908.531
913.914
919.008
923.819
928.353
932.614
936.611
940.348
943.833
947.071
950.07
952.837
955.38
957.708
959.828
961.749
963.481
965.033
966.413
967.631
968.691
969.619
970.442
971.188
971.889
972.577
973.29
974.066
974.949
975.987
977.23
978.736
980.564
982.781
985.458
988.667
992.487
996.996
1002.28
1008.41
1015.47
1023.55
1032.71
1043.01
1054.53
1067.3
1081.37
1096.76
1113.47
1131.55
1151.04
1171.96
1194.32
1218.12
1243.37
1270.03
1298.1
1327.53
1358.3
1390.36
1423.66
1458.19
1493.89
1530.72
1568.64
1607.59
1647.51
1688.35
1730.06
1772.56
1815.79
1859.7
1904.19
1949.21
1994.67
2040.49
2086.55
2132.82
2179.29
2225.93
2272.7
2319.57
2366.5
2413.42
2460.3
2507.08
2553.69
2600.1
2646.23
2692.02
2737.42
2782.37
2826.81
2870.67
2913.91
2956.45
2998.24
3039.22
3079.33
3118.51
3156.7
3193.84
3229.87
3264.72
3298.33
3330.61
3361.48
3390.85
3418.79
3445.35
3470.58
3494.53
3517.23
3538.73
3559.05
3578.22
3596.25
3613.17
3628.96
3643.62
3657.12
3669.47
3680.65
3690.64
3699.39
3706.84
3712.9
3717.47
3720.44
3721.66
3720.97
3718.19
3713.09
3705.43
3694.92
3681.33
3664.59
3644.61
3621.3
3594.53
3564.13
3529.91
3491.66
3449.14
3402.07
3350.15
3293.02
3230.3
3161.54
3086.3
3004.11
2914.52
2817.2
2711.98
2599.11
2479.5
2355.14
2229.62
2108.69
2000.6
1915.65
1864.35
32.3736
102.868
178.401
239.22
287.087
325.547
357.344
384.342
407.795
428.549
447.195
464.154
479.734
494.165
507.624
520.246
532.138
543.386
554.058
564.21
573.888
583.131
591.97
600.431
608.537
616.305
623.753
630.89
637.728
644.275
650.545
656.547
662.29
667.781
673.027
678.032
682.803
687.342
691.656
695.746
699.617
703.272
706.716
709.954
712.992
715.836
718.49
720.959
723.25
725.368
727.32
729.112
730.752
732.246
733.601
734.825
735.923
736.899
737.75
738.496
739.161
739.769
740.343
740.909
741.493
742.125
742.837
743.664
744.644
745.819
747.233
748.937
750.982
753.425
756.322
759.734
763.722
768.347
773.67
779.75
786.642
794.399
803.065
812.677
823.261
834.828
847.364
860.917
875.527
891.223
908.016
925.915
944.916
965.015
986.197
1008.44
1031.72
1055.99
1081.24
1107.44
1134.56
1162.57
1191.45
1221.14
1251.61
1282.81
1314.69
1347.21
1380.32
1413.96
1448.08
1482.62
1517.5
1552.66
1587.98
1623.42
1659
1694.7
1730.5
1766.37
1802.28
1838.19
1874.05
1909.83
1945.47
1980.94
2016.19
2051.16
2085.81
2120.09
2153.97
2187.39
2220.3
2252.66
2284.43
2315.55
2345.99
2375.7
2404.63
2432.74
2459.99
2486.32
2511.69
2536.01
2559.19
2581.12
2601.88
2621.57
2640.24
2657.94
2674.7
2690.56
2705.57
2719.74
2733.11
2745.69
2757.47
2768.43
2778.57
2787.89
2796.4
2804.1
2810.95
2816.92
2821.93
2825.9
2828.73
2830.32
2830.53
2829.2
2826.16
2821.17
2813.95
2804.23
2792.04
2777.37
2760.16
2740.31
2717.71
2692.21
2663.66
2631.89
2596.72
2557.94
2515.32
2468.62
2417.59
2361.94
2301.46
2235.93
2165.23
2089.42
2008.82
1924.27
1837.29
1750.47
1667.74
1594.41
1536.82
1501.01
26.002
80.9302
131.748
168.811
196.877
219.311
238.03
254.147
268.353
281.097
292.683
303.327
313.185
322.379
330.999
339.118
346.794
354.072
360.993
367.586
373.88
379.895
385.652
391.165
396.448
401.513
406.37
411.024
415.48
419.744
423.825
427.732
431.47
435.043
438.456
441.711
444.814
447.767
450.574
453.234
455.751
458.126
460.364
462.469
464.445
466.296
468.025
469.636
471.132
472.519
473.8
474.98
476.065
477.058
477.965
478.791
479.538
480.209
480.791
481.299
481.752
482.168
482.564
482.955
483.358
483.791
484.277
484.836
485.493
486.273
487.205
488.323
489.658
491.247
493.126
495.334
497.911
500.895
504.327
508.244
512.684
517.681
523.264
529.459
536.282
543.737
551.775
560.451
569.809
579.872
590.651
602.154
614.382
627.337
641.016
655.407
670.483
686.215
702.591
719.594
737.219
755.454
774.273
793.648
813.549
833.947
854.811
876.109
897.807
919.87
942.261
964.939
987.857
1010.95
1034.13
1057.33
1080.6
1103.95
1127.36
1150.82
1174.31
1197.78
1221.23
1244.62
1267.92
1291.1
1314.13
1336.96
1359.58
1381.94
1404.03
1425.81
1447.25
1468.32
1488.99
1509.23
1529.02
1548.31
1567.1
1585.34
1603.01
1620.08
1636.52
1652.27
1667.24
1681.23
1694.41
1706.87
1718.67
1729.84
1740.42
1750.42
1759.88
1768.82
1777.3
1785.32
1792.86
1799.88
1806.39
1812.38
1817.89
1822.95
1827.55
1831.63
1835.15
1838.06
1840.28
1841.76
1842.38
1842.06
1840.66
1838.01
1833.81
1827.79
1820.11
1810.81
1799.86
1787.2
1772.76
1756.45
1738.18
1717.84
1695.32
1670.52
1643.32
1613.58
1581.17
1545.97
1507.9
1466.9
1422.96
1376.2
1326.89
1275.62
1223.37
1171.68
1122.83
1079.75
1045.74
1023.5
18.4201
48.7294
69.4909
83.5122
94.2651
103.131
110.751
117.47
123.511
129.017
134.085
138.787
143.176
147.294
151.174
154.842
158.32
161.626
164.775
167.779
170.649
173.394
176.023
178.542
180.957
183.272
185.493
187.621
189.659
191.605
193.468
195.252
196.958
198.588
200.145
201.63
203.046
204.393
205.674
206.889
208.037
209.12
210.139
211.097
211.998
212.842
213.631
214.367
215.051
215.686
216.274
216.817
217.317
217.776
218.198
218.585
218.938
219.259
219.536
219.771
219.982
220.177
220.363
220.546
220.735
220.939
221.166
221.426
221.73
222.09
222.517