/*--------------------------------*- C++ -*----------------------------------*\
| =========                 |                                                 |
| \\      /  F ield         | OpenFOAM: The Open Source CFD Toolbox           |
|  \\    /   O peration     | Version:  5.x                                   |
|   \\  /    A nd           | Web:      www.OpenFOAM.org                      |
|    \\/     M anipulation  |                                                 |
\*---------------------------------------------------------------------------*/
/*   Windows 32 and 64 bit porting by blueCAPE: http://www.bluecape.com.pt   *\
|  Based on Windows porting (2.0.x v4) by Symscape: http://www.symscape.com   |
\*---------------------------------------------------------------------------*/
FoamFile
{
    version     2.0;
    format      ascii;
    class       volScalarField;
    location    "5000";
    object      omega;
}
// * * * * * * * * * * * * * * * * * * * * * * * * * * * * * * * * * * * * * //

dimensions      [0 0 -1 0 0 0 0];

internalField   nonuniform List<scalar> 
4000
(
1.57352e+007
2.34694e+007
2.941e+007
3.38973e+007
3.75594e+007
4.06856e+007
4.34304e+007
4.58877e+007
4.81161e+007
5.01578e+007
5.20433e+007
5.37954e+007
5.54324e+007
5.69677e+007
5.84131e+007
5.97779e+007
6.10701e+007
6.22961e+007
6.34615e+007
6.45709e+007
6.56284e+007
6.66375e+007
6.7601e+007
6.85215e+007
6.94012e+007
7.0242e+007
7.10455e+007
7.18132e+007
7.25471e+007
7.32482e+007
7.39167e+007
7.45535e+007
7.51595e+007
7.57355e+007
7.62819e+007
7.67993e+007
7.72881e+007
7.77487e+007
7.81813e+007
7.85867e+007
7.89659e+007
7.93188e+007
7.96457e+007
7.99461e+007
8.02198e+007
8.04674e+007
8.06891e+007
8.08852e+007
8.10559e+007
8.12016e+007
8.13226e+007
8.14195e+007
8.14929e+007
8.15434e+007
8.1572e+007
8.15796e+007
8.15674e+007
8.15364e+007
8.14921e+007
8.14353e+007
8.13665e+007
8.12888e+007
8.12053e+007
8.11196e+007
8.10359e+007
8.09586e+007
8.08931e+007
8.08439e+007
8.08164e+007
8.08183e+007
8.08545e+007
8.0931e+007
8.10552e+007
8.12341e+007
8.14745e+007
8.17833e+007
8.21676e+007
8.2634e+007
8.31891e+007
8.38387e+007
8.45881e+007
8.5442e+007
8.64041e+007
8.74772e+007
8.86632e+007
8.99635e+007
9.13901e+007
9.29318e+007
9.45849e+007
9.63486e+007
9.82207e+007
1.00198e+008
1.02277e+008
1.04452e+008
1.0672e+008
1.09073e+008
1.11512e+008
1.14038e+008
1.16643e+008
1.19319e+008
1.22058e+008
1.24852e+008
1.277e+008
1.30598e+008
1.33542e+008
1.36528e+008
1.39553e+008
1.42613e+008
1.45706e+008
1.48829e+008
1.51979e+008
1.55153e+008
1.58349e+008
1.61562e+008
1.64801e+008
1.68073e+008
1.71359e+008
1.74658e+008
1.7797e+008
1.81294e+008
1.84628e+008
1.87972e+008
1.91323e+008
1.9468e+008
1.98044e+008
2.01413e+008
2.04782e+008
2.08155e+008
2.11527e+008
2.14885e+008
2.1823e+008
2.21562e+008
2.24875e+008
2.28165e+008
2.31426e+008
2.34654e+008
2.37844e+008
2.4099e+008
2.44089e+008
2.47133e+008
2.50117e+008
2.53035e+008
2.5588e+008
2.58645e+008
2.61327e+008
2.63962e+008
2.66494e+008
2.68921e+008
2.71239e+008
2.73443e+008
2.75529e+008
2.7749e+008
2.79319e+008
2.81012e+008
2.82558e+008
2.83945e+008
2.85179e+008
2.86273e+008
2.87221e+008
2.88012e+008
2.88629e+008
2.89053e+008
2.89281e+008
2.89312e+008
2.89142e+008
2.88766e+008
2.8818e+008
2.87381e+008
2.86365e+008
2.85128e+008
2.83668e+008
2.81976e+008
2.80049e+008
2.77977e+008
2.75679e+008
2.73154e+008
2.70402e+008
2.67426e+008
2.64225e+008
2.60796e+008
2.57136e+008
2.53239e+008
2.49099e+008
2.44707e+008
2.40037e+008
2.35048e+008
2.29735e+008
2.24067e+008
2.17976e+008
2.11398e+008
2.04244e+008
1.9639e+008
1.87673e+008
1.7787e+008
1.66657e+008
1.53543e+008
1.37822e+008
1.1817e+008
9.20019e+007
5.93536e+007
1.5577e+007
1.13662e+007
1.17106e+007
1.26358e+007
1.36027e+007
1.4518e+007
1.5368e+007
1.61565e+007
1.68885e+007
1.75703e+007
1.82075e+007
1.88049e+007
1.93667e+007
1.98962e+007
2.03965e+007
2.08701e+007
2.13192e+007
2.17457e+007
2.21513e+007
2.25376e+007
2.29056e+007
2.32567e+007
2.35917e+007
2.39116e+007
2.4217e+007
2.45088e+007
2.47874e+007
2.50534e+007
2.53078e+007
2.55512e+007
2.57834e+007
2.60045e+007
2.62149e+007
2.64147e+007
2.66042e+007
2.67835e+007
2.6953e+007
2.71126e+007
2.72625e+007
2.74031e+007
2.75344e+007
2.76566e+007
2.77697e+007
2.78737e+007
2.79687e+007
2.80547e+007
2.8132e+007
2.82006e+007
2.82606e+007
2.83123e+007
2.83558e+007
2.83912e+007
2.84189e+007
2.84391e+007
2.84521e+007
2.84583e+007
2.84584e+007
2.84531e+007
2.84449e+007
2.84344e+007
2.84208e+007
2.84049e+007
2.83874e+007
2.83695e+007
2.83524e+007
2.83372e+007
2.8325e+007
2.8318e+007
2.83186e+007
2.83285e+007
2.83498e+007
2.83841e+007
2.8433e+007
2.84986e+007
2.85836e+007
2.86902e+007
2.88207e+007
2.89774e+007
2.91624e+007
2.93777e+007
2.96251e+007
2.99063e+007
3.02227e+007
3.05756e+007
3.0966e+007
3.13957e+007
3.18712e+007
3.23899e+007
3.2948e+007
3.35446e+007
3.41787e+007
3.48494e+007
3.55558e+007
3.62967e+007
3.70707e+007
3.78768e+007
3.87144e+007
3.95835e+007
4.048e+007
4.14024e+007
4.2349e+007
4.33181e+007
4.43086e+007
4.5319e+007
4.63482e+007
4.73948e+007
4.84577e+007
4.95357e+007
5.06277e+007
5.17326e+007
5.28494e+007
5.39772e+007
5.51155e+007
5.62644e+007
5.74284e+007
5.86141e+007
5.98095e+007
6.10115e+007
6.22188e+007
6.34303e+007
6.46449e+007
6.58615e+007
6.70791e+007
6.82964e+007
6.95113e+007
7.07216e+007
7.19292e+007
7.31369e+007
7.43386e+007
7.55337e+007
7.67186e+007
7.78891e+007
7.90448e+007
8.01848e+007
8.13074e+007
8.2411e+007
8.34937e+007
8.45539e+007
8.55897e+007
8.65995e+007
8.75817e+007
8.85348e+007
8.94576e+007
9.03493e+007
9.12133e+007
9.20751e+007
9.2909e+007
9.37081e+007
9.447e+007
9.51931e+007
9.58758e+007
9.65168e+007
9.71145e+007
9.76675e+007
9.81742e+007
9.8633e+007
9.9044e+007
9.94089e+007
9.97259e+007
9.99919e+007
1.00203e+008
1.00357e+008
1.00451e+008
1.00485e+008
1.00456e+008
1.00362e+008
1.00203e+008
9.99762e+007
9.96805e+007
9.93143e+007
9.88768e+007
9.83682e+007
9.77967e+007
9.72025e+007
9.65445e+007
9.581e+007
9.4995e+007
9.40965e+007
9.31118e+007
9.20377e+007
9.08708e+007
8.96069e+007
8.82395e+007
8.6759e+007
8.51644e+007
8.34531e+007
8.16147e+007
7.9649e+007
7.75323e+007
7.52391e+007
7.27485e+007
7.00362e+007
6.7071e+007
6.3817e+007
6.02426e+007
5.63555e+007
5.2351e+007
4.88427e+007
4.85236e+007
6.52997e+007
1.83815e+007
1.06774e+007
9.28935e+006
9.20702e+006
9.48117e+006
9.87117e+006
1.02966e+007
1.07263e+007
1.11468e+007
1.15525e+007
1.19411e+007
1.2312e+007
1.26654e+007
1.30017e+007
1.33219e+007
1.36267e+007
1.3917e+007
1.41936e+007
1.44572e+007
1.47087e+007
1.49487e+007
1.51778e+007
1.53965e+007
1.56055e+007
1.58051e+007
1.59957e+007
1.61778e+007
1.63518e+007
1.6518e+007
1.66769e+007
1.68284e+007
1.69727e+007
1.711e+007
1.72404e+007
1.7364e+007
1.7481e+007
1.75914e+007
1.76955e+007
1.77934e+007
1.7885e+007
1.79707e+007
1.80503e+007
1.8124e+007
1.81917e+007
1.82537e+007
1.83099e+007
1.83605e+007
1.84055e+007
1.8445e+007
1.84791e+007
1.8508e+007
1.85319e+007
1.85508e+007
1.8565e+007
1.85747e+007
1.85803e+007
1.85821e+007
1.85808e+007
1.85773e+007
1.8572e+007
1.85648e+007
1.85563e+007
1.85469e+007
1.85373e+007
1.85281e+007
1.85203e+007
1.85145e+007
1.85121e+007
1.85143e+007
1.85223e+007
1.85372e+007
1.85602e+007
1.85925e+007
1.86354e+007
1.86904e+007
1.87591e+007
1.88428e+007
1.8943e+007
1.90611e+007
1.91983e+007
1.93559e+007
1.95351e+007
1.97368e+007
1.99619e+007
2.02114e+007
2.04865e+007
2.07898e+007
2.11199e+007
2.14758e+007
2.18569e+007
2.22626e+007
2.26923e+007
2.31456e+007
2.36218e+007
2.41203e+007
2.46404e+007
2.51817e+007
2.57433e+007
2.63235e+007
2.69214e+007
2.75359e+007
2.81663e+007
2.88116e+007
2.9471e+007
3.01437e+007
3.08288e+007
3.15255e+007
3.22332e+007
3.2951e+007
3.36783e+007
3.44145e+007
3.5159e+007
3.59116e+007
3.66727e+007
3.74436e+007
3.82253e+007
3.90141e+007
3.98081e+007
4.06059e+007
4.14066e+007
4.22093e+007
4.30131e+007
4.38172e+007
4.46206e+007
4.54224e+007
4.62216e+007
4.70185e+007
4.78127e+007
4.86019e+007
4.93848e+007
5.01599e+007
5.09254e+007
5.16802e+007
5.24234e+007
5.31539e+007
5.38707e+007
5.45727e+007
5.52587e+007
5.59278e+007
5.6579e+007
5.72114e+007
5.78244e+007
5.84177e+007
5.89917e+007
5.95487e+007
6.00944e+007
6.0622e+007
6.1128e+007
6.16104e+007
6.20682e+007
6.25002e+007
6.29058e+007
6.32842e+007
6.36346e+007
6.39563e+007
6.42488e+007
6.45119e+007
6.47456e+007
6.49489e+007
6.51203e+007
6.52581e+007
6.53609e+007
6.54276e+007
6.54571e+007
6.54482e+007
6.53999e+007
6.53111e+007
6.51807e+007
6.50078e+007
6.47916e+007
6.45317e+007
6.42293e+007
6.3888e+007
6.35178e+007
6.31068e+007
6.26484e+007
6.21386e+007
6.15746e+007
6.09539e+007
6.02743e+007
5.95333e+007
5.87282e+007
5.7856e+007
5.69132e+007
5.58985e+007
5.48099e+007
5.36444e+007
5.24032e+007
5.10813e+007
4.9674e+007
4.81808e+007
4.66063e+007
4.49639e+007
4.32864e+007
4.16493e+007
4.02309e+007
3.9473e+007
4.05795e+007
4.76894e+007
7.79862e+007
2.0268e+007
1.10523e+007
8.81071e+006
8.21751e+006
8.14269e+006
8.27519e+006
8.49985e+006
8.76626e+006
9.04979e+006
9.33762e+006
9.62277e+006
9.90138e+006
1.01714e+007
1.04316e+007
1.06816e+007
1.09213e+007
1.11508e+007
1.13704e+007
1.15803e+007
1.1781e+007
1.19729e+007
1.21563e+007
1.23317e+007
1.24993e+007
1.26594e+007
1.28125e+007
1.29588e+007
1.30985e+007
1.3232e+007
1.33595e+007
1.34811e+007
1.35969e+007
1.3707e+007
1.38116e+007
1.39108e+007
1.40047e+007
1.40933e+007
1.41769e+007
1.42553e+007
1.43289e+007
1.43976e+007
1.44614e+007
1.45205e+007
1.45749e+007
1.46246e+007
1.46698e+007
1.47104e+007
1.47466e+007
1.47785e+007
1.48061e+007
1.48295e+007
1.4849e+007
1.48646e+007
1.48764e+007
1.48848e+007
1.489e+007
1.48923e+007
1.4892e+007
1.48899e+007
1.48861e+007
1.48809e+007
1.48746e+007
1.48676e+007
1.48605e+007
1.48537e+007
1.4848e+007
1.48441e+007
1.48427e+007
1.48449e+007
1.48516e+007
1.48636e+007
1.48819e+007
1.49075e+007
1.49415e+007
1.49851e+007
1.50393e+007
1.51053e+007
1.51843e+007
1.52774e+007
1.53856e+007
1.551e+007
1.56514e+007
1.58107e+007
1.59886e+007
1.61861e+007
1.64039e+007
1.66432e+007
1.69034e+007
1.71842e+007
1.74851e+007
1.7806e+007
1.81463e+007
1.85057e+007
1.88836e+007
1.92798e+007
1.96935e+007
2.01246e+007
2.05718e+007
2.10343e+007
2.15115e+007
2.20024e+007
2.25066e+007
2.30231e+007
2.35514e+007
2.40909e+007
2.46407e+007
2.52004e+007
2.57693e+007
2.63468e+007
2.69324e+007
2.75256e+007
2.8126e+007
2.87334e+007
2.93478e+007
2.99697e+007
3.05986e+007
3.12331e+007
3.18718e+007
3.25138e+007
3.31581e+007
3.38041e+007
3.4451e+007
3.50979e+007
3.57443e+007
3.63894e+007
3.70326e+007
3.76734e+007
3.83112e+007
3.89444e+007
3.9572e+007
4.01931e+007
4.08064e+007
4.1411e+007
4.20061e+007
4.25908e+007
4.31641e+007
4.37254e+007
4.42738e+007
4.48085e+007
4.53288e+007
4.58342e+007
4.63243e+007
4.67989e+007
4.72583e+007
4.77036e+007
4.81361e+007
4.85533e+007
4.89532e+007
4.93348e+007
4.96968e+007
5.00387e+007
5.03598e+007
5.06596e+007
5.09374e+007
5.11929e+007
5.14256e+007
5.16352e+007
5.18215e+007
5.19837e+007
5.21206e+007
5.22314e+007
5.23151e+007
5.23707e+007
5.23973e+007
5.23942e+007
5.23604e+007
5.2295e+007
5.21974e+007
5.20668e+007
5.19026e+007
5.17047e+007
5.14735e+007
5.12105e+007
5.09183e+007
5.05924e+007
5.0229e+007
4.98253e+007
4.93789e+007
4.88881e+007
4.83509e+007
4.77658e+007
4.71312e+007
4.64455e+007
4.57075e+007
4.49169e+007
4.40738e+007
4.31787e+007
4.22352e+007
4.12468e+007
4.02196e+007
3.9166e+007
3.8108e+007
3.70846e+007
3.61659e+007
3.54828e+007
3.52964e+007
3.61792e+007
3.95982e+007
5.04778e+007
8.85116e+007
2.18449e+007
1.15833e+007
8.8075e+006
7.89606e+006
7.6027e+006
7.57407e+006
7.67445e+006
7.84164e+006
8.04376e+006
8.26321e+006
8.48974e+006
8.71721e+006
8.94188e+006
9.16146e+006
9.37457e+006
9.58045e+006
9.77871e+006
9.9692e+006
1.0152e+007
1.03272e+007
1.04949e+007
1.06556e+007
1.08093e+007
1.09563e+007
1.1097e+007
1.12314e+007
1.136e+007
1.14828e+007
1.16001e+007
1.17121e+007
1.1819e+007
1.19207e+007
1.20175e+007
1.21094e+007
1.21966e+007
1.2279e+007
1.23569e+007
1.24303e+007
1.24993e+007
1.25639e+007
1.26243e+007
1.26804e+007
1.27323e+007
1.27801e+007
1.28238e+007
1.28635e+007
1.28992e+007
1.29311e+007
1.29591e+007
1.29835e+007
1.30042e+007
1.30215e+007
1.30354e+007
1.30461e+007
1.30538e+007
1.30587e+007
1.30611e+007
1.30613e+007
1.30597e+007
1.30566e+007
1.30522e+007
1.30468e+007
1.30409e+007
1.30348e+007
1.3029e+007
1.30242e+007
1.3021e+007
1.302e+007
1.3022e+007
1.30277e+007
1.30381e+007
1.30539e+007
1.30761e+007
1.31055e+007
1.31431e+007
1.319e+007
1.32471e+007
1.33155e+007
1.33961e+007
1.34898e+007
1.35975e+007
1.37201e+007
1.38583e+007
1.40129e+007
1.41845e+007
1.43738e+007
1.45813e+007
1.4807e+007
1.50507e+007
1.53121e+007
1.5591e+007
1.58872e+007
1.62002e+007
1.65297e+007
1.68753e+007
1.72366e+007
1.76131e+007
1.80038e+007
1.84083e+007
1.88258e+007
1.92557e+007
1.96974e+007
2.01503e+007
2.06137e+007
2.10871e+007
2.15699e+007
2.20615e+007
2.25614e+007
2.30692e+007
2.35842e+007
2.41062e+007
2.46347e+007
2.51694e+007
2.57103e+007
2.62574e+007
2.681e+007
2.73672e+007
2.7928e+007
2.84917e+007
2.90575e+007
2.96247e+007
3.01927e+007
3.07608e+007
3.13283e+007
3.18946e+007
3.24593e+007
3.30217e+007
3.35809e+007
3.41359e+007
3.46859e+007
3.523e+007
3.57674e+007
3.62971e+007
3.68185e+007
3.73308e+007
3.78332e+007
3.83251e+007
3.88057e+007
3.92745e+007
3.97308e+007
4.01743e+007
4.06046e+007
4.10216e+007
4.14253e+007
4.18162e+007
4.21943e+007
4.25585e+007
4.29076e+007
4.32406e+007
4.35568e+007
4.38556e+007
4.41363e+007
4.43985e+007
4.46418e+007
4.48657e+007
4.50697e+007
4.52537e+007
4.54172e+007
4.55595e+007
4.56799e+007
4.57775e+007
4.58515e+007
4.59013e+007
4.59259e+007
4.59249e+007
4.58972e+007
4.58424e+007
4.57597e+007
4.56485e+007
4.55083e+007
4.5339e+007
4.51406e+007
4.49136e+007
4.46586e+007
4.43731e+007
4.40549e+007
4.37019e+007
4.33123e+007
4.28847e+007
4.24178e+007
4.19106e+007
4.13622e+007
4.07721e+007
4.01403e+007
3.94678e+007
3.87561e+007
3.80087e+007
3.72313e+007
3.64327e+007
3.5626e+007
3.48324e+007
3.40858e+007
3.3442e+007
3.29944e+007
3.29078e+007
3.34933e+007
3.54077e+007
4.03002e+007
5.36955e+007
9.78334e+007
2.31201e+007
1.20618e+007
8.93397e+006
7.81191e+006
7.37222e+006
7.23441e+006
7.25013e+006
7.34995e+006
7.49733e+006
7.67145e+006
7.85979e+006
8.05455e+006
8.25076e+006
8.44523e+006
8.6359e+006
8.82149e+006
9.00122e+006
9.17465e+006
9.3416e+006
9.502e+006
9.65593e+006
9.8035e+006
9.94487e+006
1.00802e+007
1.02098e+007
1.03337e+007
1.04522e+007
1.05655e+007
1.06737e+007
1.0777e+007
1.08755e+007
1.09693e+007
1.10586e+007
1.11433e+007
1.12237e+007
1.12998e+007
1.13716e+007
1.14393e+007
1.15029e+007
1.15625e+007
1.16182e+007
1.16699e+007
1.17178e+007
1.17619e+007
1.18022e+007
1.18388e+007
1.18718e+007
1.19012e+007
1.19272e+007
1.19497e+007
1.19689e+007
1.19849e+007
1.19979e+007
1.20079e+007
1.20151e+007
1.20199e+007
1.20223e+007
1.20227e+007
1.20213e+007
1.20185e+007
1.20145e+007
1.20096e+007
1.20042e+007
1.19987e+007
1.19934e+007
1.1989e+007
1.1986e+007
1.19851e+007
1.19869e+007
1.19921e+007
1.20014e+007
1.20157e+007
1.20358e+007
1.20624e+007
1.20966e+007
1.21392e+007
1.21912e+007
1.22534e+007
1.23267e+007
1.24121e+007
1.25103e+007
1.26222e+007
1.27484e+007
1.28896e+007
1.30464e+007
1.32194e+007
1.3409e+007
1.36151e+007
1.38378e+007
1.40769e+007
1.43322e+007
1.46034e+007
1.48904e+007
1.51926e+007
1.55098e+007
1.58415e+007
1.61872e+007
1.65462e+007
1.6918e+007
1.73019e+007
1.76974e+007
1.81039e+007
1.85208e+007
1.89476e+007
1.93837e+007
1.98286e+007
2.02817e+007
2.07425e+007
2.12107e+007
2.16856e+007
2.21671e+007
2.26546e+007
2.31478e+007
2.36466e+007
2.41509e+007
2.46598e+007
2.51727e+007
2.56889e+007
2.62077e+007
2.67284e+007
2.72503e+007
2.7773e+007
2.82957e+007
2.88178e+007
2.93389e+007
2.98583e+007
3.03755e+007
3.08895e+007
3.13997e+007
3.19052e+007
3.24053e+007
3.28992e+007
3.33862e+007
3.38655e+007
3.43366e+007
3.47988e+007
3.52513e+007
3.56937e+007
3.61254e+007
3.65459e+007
3.69547e+007
3.73517e+007
3.77365e+007
3.81091e+007
3.84697e+007
3.8818e+007
3.91532e+007
3.94743e+007
3.97808e+007
4.00719e+007
4.03471e+007
4.06058e+007
4.08476e+007
4.10721e+007
4.12788e+007
4.14673e+007
4.16372e+007
4.17883e+007
4.19197e+007
4.20308e+007
4.2121e+007
4.21895e+007
4.22358e+007
4.22591e+007
4.22587e+007
4.22341e+007
4.21845e+007
4.21094e+007
4.20084e+007
4.18808e+007
4.17266e+007
4.15454e+007
4.13375e+007
4.11026e+007
4.08394e+007
4.0546e+007
4.02211e+007
3.98632e+007
3.94715e+007
3.90448e+007
3.85828e+007
3.80851e+007
3.75519e+007
3.69842e+007
3.63839e+007
3.5754e+007
3.50998e+007
3.44291e+007
3.37543e+007
3.3093e+007
3.24724e+007
3.19349e+007
3.15473e+007
3.14186e+007
3.17363e+007
3.28467e+007
3.54689e+007
4.13915e+007
5.64833e+007
1.05823e+008
2.39957e+007
1.23516e+007
9.06793e+006
7.8129e+006
7.27636e+006
7.06415e+006
7.02119e+006
7.07396e+006
7.18311e+006
7.32576e+006
7.48785e+006
7.66041e+006
7.83758e+006
8.01549e+006
8.19157e+006
8.36413e+006
8.53211e+006
8.69483e+006
8.85191e+006
9.00318e+006
9.14859e+006
9.28818e+006
9.42204e+006
9.55031e+006
9.67315e+006
9.7907e+006
9.90315e+006
1.00107e+007
1.01134e+007
1.02114e+007
1.03049e+007
1.0394e+007
1.04787e+007
1.05592e+007
1.06355e+007
1.07078e+007
1.0776e+007
1.08403e+007
1.09007e+007
1.09573e+007
1.10101e+007
1.10592e+007
1.11047e+007
1.11465e+007
1.11848e+007
1.12196e+007
1.12509e+007
1.12789e+007
1.13035e+007
1.1325e+007
1.13433e+007
1.13585e+007
1.13709e+007
1.13805e+007
1.13875e+007
1.13921e+007
1.13945e+007
1.13949e+007
1.13937e+007
1.13911e+007
1.13873e+007
1.13827e+007
1.13775e+007
1.13722e+007
1.13672e+007
1.1363e+007
1.13602e+007
1.13592e+007
1.13608e+007
1.13656e+007
1.13742e+007
1.13875e+007
1.14062e+007
1.14311e+007
1.14631e+007
1.1503e+007
1.15517e+007
1.16101e+007
1.1679e+007
1.17592e+007
1.18516e+007
1.19569e+007
1.20757e+007
1.22088e+007
1.23566e+007
1.25198e+007
1.26985e+007
1.28929e+007
1.3103e+007
1.33287e+007
1.35698e+007
1.38262e+007
1.40975e+007
1.43835e+007
1.46837e+007
1.49978e+007
1.53252e+007
1.56653e+007
1.60176e+007
1.63815e+007
1.67565e+007
1.7142e+007
1.75374e+007
1.79422e+007
1.8356e+007
1.8778e+007
1.9208e+007
1.96453e+007
2.00896e+007
2.05403e+007
2.09972e+007
2.14598e+007
2.19278e+007
2.2401e+007
2.2879e+007
2.33613e+007
2.38471e+007
2.4336e+007
2.48272e+007
2.53202e+007
2.58144e+007
2.63091e+007
2.68039e+007
2.72982e+007
2.77913e+007
2.82828e+007
2.87721e+007
2.92584e+007
2.97409e+007
3.02191e+007
3.06922e+007
3.11594e+007
3.16203e+007
3.2074e+007
3.252e+007
3.29577e+007
3.33865e+007
3.38058e+007
3.42152e+007
3.46142e+007
3.50023e+007
3.53794e+007
3.57451e+007
3.60994e+007
3.6442e+007
3.67728e+007
3.7091e+007
3.7396e+007
3.7687e+007
3.79636e+007
3.82252e+007
3.84712e+007
3.87013e+007
3.89149e+007
3.91117e+007
3.92913e+007
3.94532e+007
3.9597e+007
3.9722e+007
3.98278e+007
3.99135e+007
3.99788e+007
4.00228e+007
4.0045e+007
4.00447e+007
4.00215e+007
3.99746e+007
3.99036e+007
3.98081e+007
3.96875e+007
3.95415e+007
3.937e+007
3.91727e+007
3.89495e+007
3.86991e+007
3.84204e+007
3.81121e+007
3.77734e+007
3.74034e+007
3.70016e+007
3.65678e+007
3.61022e+007
3.56056e+007
3.50795e+007
3.45266e+007
3.39512e+007
3.33597e+007
3.27615e+007
3.21711e+007
3.16092e+007
3.11069e+007
3.07115e+007
3.04966e+007
3.05814e+007
3.11689e+007
3.26323e+007
3.57425e+007
4.23999e+007
5.82504e+007
1.12022e+008
2.44089e+007
1.23994e+007
9.16361e+006
7.83615e+006
7.23979e+006
6.97901e+006
6.89665e+006
6.91736e+006
7.00031e+006
7.1214e+006
7.26559e+006
7.42314e+006
7.58755e+006
7.75448e+006
7.92099e+006
8.08511e+006
8.24554e+006
8.40144e+006
8.5523e+006
8.69785e+006
8.83795e+006
8.97259e+006
9.10181e+006
9.22571e+006
9.34442e+006
9.45808e+006
9.56682e+006
9.67081e+006
9.77017e+006
9.86503e+006
9.9555e+006
1.00417e+007
1.01237e+007
1.02015e+007
1.02754e+007
1.03453e+007
1.04113e+007
1.04735e+007
1.0532e+007
1.05868e+007
1.06379e+007
1.06855e+007
1.07294e+007
1.07699e+007
1.0807e+007
1.08407e+007
1.0871e+007
1.08981e+007
1.09219e+007
1.09427e+007
1.09604e+007
1.09752e+007
1.09872e+007
1.09965e+007
1.10033e+007
1.10078e+007
1.10102e+007
1.10107e+007
1.10096e+007
1.1007e+007
1.10033e+007
1.09988e+007
1.09938e+007
1.09886e+007
1.09838e+007
1.09797e+007
1.09768e+007
1.09758e+007
1.09772e+007
1.09816e+007
1.09898e+007
1.10024e+007
1.10202e+007
1.1044e+007
1.10746e+007
1.11127e+007
1.11594e+007
1.12153e+007
1.12814e+007
1.13584e+007
1.14471e+007
1.15483e+007
1.16626e+007
1.17906e+007
1.19329e+007
1.209e+007
1.22621e+007
1.24494e+007
1.26518e+007
1.28695e+007
1.31021e+007
1.33496e+007
1.36116e+007
1.38878e+007
1.41779e+007
1.44815e+007
1.47979e+007
1.51268e+007
1.54675e+007
1.58195e+007
1.61822e+007
1.65552e+007
1.69378e+007
1.73294e+007
1.77297e+007
1.81381e+007
1.8554e+007
1.8977e+007
1.94068e+007
1.98427e+007
2.02845e+007
2.07318e+007
2.11843e+007
2.16416e+007
2.21033e+007
2.2569e+007
2.30381e+007
2.35099e+007
2.39839e+007
2.44595e+007
2.49362e+007
2.54135e+007
2.58907e+007
2.63673e+007
2.68429e+007
2.73168e+007
2.77885e+007
2.82573e+007
2.87225e+007
2.91834e+007
2.96395e+007
3.00901e+007
3.05346e+007
3.09724e+007
3.14028e+007
3.18253e+007
3.22394e+007
3.26446e+007
3.30403e+007
3.34262e+007
3.38018e+007
3.41668e+007
3.45211e+007
3.48643e+007
3.51963e+007
3.55168e+007
3.58251e+007
3.61206e+007
3.64027e+007
3.66708e+007
3.69245e+007
3.71633e+007
3.73867e+007
3.75942e+007
3.77854e+007
3.79598e+007
3.81171e+007
3.82567e+007
3.83781e+007
3.84806e+007
3.85637e+007
3.86269e+007
3.86694e+007
3.86908e+007
3.86903e+007
3.86676e+007
3.8622e+007
3.85531e+007
3.84603e+007
3.83434e+007
3.82019e+007
3.80356e+007
3.78443e+007
3.76277e+007
3.73848e+007
3.71147e+007
3.68164e+007
3.64893e+007
3.61328e+007
3.57466e+007
3.53309e+007
3.4886e+007
3.44134e+007
3.39148e+007
3.33937e+007
3.2855e+007
3.23057e+007
3.17565e+007
3.12227e+007
3.07266e+007
3.0301e+007
2.9995e+007
2.98852e+007
3.00949e+007
3.08348e+007
3.24965e+007
3.58961e+007
4.30551e+007
5.92025e+007
1.16416e+008
2.44718e+007
1.23034e+007
9.21552e+006
7.85713e+006
7.22796e+006
6.93841e+006
6.83188e+006
6.83261e+006
6.89909e+006
7.00659e+006
7.13952e+006
7.28765e+006
7.44411e+006
7.60425e+006
7.76489e+006
7.92386e+006
8.07972e+006
8.23152e+006
8.37867e+006
8.52081e+006
8.65778e+006
8.7895e+006
8.916e+006
9.03735e+006
9.15366e+006
9.26504e+006
9.37164e+006
9.47359e+006
9.57101e+006
9.66403e+006
9.75275e+006
9.83726e+006
9.91767e+006
9.99405e+006
1.00665e+007
1.01351e+007
1.01998e+007
1.02609e+007
1.03182e+007
1.03719e+007
1.04221e+007
1.04687e+007
1.05119e+007
1.05516e+007
1.0588e+007
1.0621e+007
1.06507e+007
1.06773e+007
1.07007e+007
1.07211e+007
1.07385e+007
1.0753e+007
1.07648e+007
1.07739e+007
1.07806e+007
1.07851e+007
1.07874e+007
1.07879e+007
1.07868e+007
1.07842e+007
1.07806e+007
1.07761e+007
1.07712e+007
1.0766e+007
1.07612e+007
1.07571e+007
1.07543e+007
1.07532e+007
1.07544e+007
1.07586e+007
1.07664e+007
1.07786e+007
1.07958e+007
1.08189e+007
1.08485e+007
1.08856e+007
1.0931e+007
1.09854e+007
1.10498e+007
1.11248e+007
1.12113e+007
1.131e+007
1.14216e+007
1.15467e+007
1.16858e+007
1.18393e+007
1.20076e+007
1.21909e+007
1.23891e+007
1.26022e+007
1.28301e+007
1.30726e+007
1.33295e+007
1.36004e+007
1.3885e+007
1.41828e+007
1.44933e+007
1.48161e+007
1.51504e+007
1.54959e+007
1.5852e+007
1.6218e+007
1.65935e+007
1.69779e+007
1.73707e+007
1.77713e+007
1.81794e+007
1.85943e+007
1.90157e+007
1.94432e+007
1.98763e+007
2.03146e+007
2.0758e+007
2.12059e+007
2.1658e+007
2.21138e+007
2.25728e+007
2.30344e+007
2.3498e+007
2.39631e+007
2.44292e+007
2.48958e+007
2.53623e+007
2.58283e+007
2.62931e+007
2.67562e+007
2.72172e+007
2.76752e+007
2.81298e+007
2.85802e+007
2.9026e+007
2.94665e+007
2.99011e+007
3.03292e+007
3.07503e+007
3.11638e+007
3.15691e+007
3.19659e+007
3.23537e+007
3.27319e+007
3.31003e+007
3.34585e+007
3.38062e+007
3.41433e+007
3.44694e+007
3.47842e+007
3.50871e+007
3.53775e+007
3.56548e+007
3.59185e+007
3.61682e+007
3.64032e+007
3.66231e+007
3.68274e+007
3.70158e+007
3.71876e+007
3.73425e+007
3.74799e+007
3.75993e+007
3.77002e+007
3.77818e+007
3.78437e+007
3.78853e+007
3.7906e+007
3.79052e+007
3.78824e+007
3.78372e+007
3.7769e+007
3.76774e+007
3.7562e+007
3.74225e+007
3.72587e+007
3.70703e+007
3.6857e+007
3.6618e+007
3.63526e+007
3.60599e+007
3.57394e+007
3.53908e+007
3.5014e+007
3.46092e+007
3.41773e+007
3.37197e+007
3.32387e+007
3.27379e+007
3.22224e+007
3.17e+007
3.11814e+007
3.0682e+007
3.02243e+007
2.98404e+007
2.95787e+007
2.95132e+007
2.97633e+007
3.05343e+007
3.22124e+007
3.56225e+007
4.28691e+007
5.90457e+007
1.16855e+008
2.43553e+007
1.21761e+007
9.23595e+006
7.86918e+006
7.22565e+006
6.92274e+006
6.80471e+006
6.79581e+006
6.85431e+006
6.95521e+006
7.08266e+006
7.22621e+006
7.37882e+006
7.53567e+006
7.69347e+006
7.84996e+006
8.00364e+006
8.15348e+006
8.29886e+006
8.4394e+006
8.57488e+006
8.70523e+006
8.83046e+006
8.95062e+006
9.06581e+006
9.17614e+006
9.28175e+006
9.38276e+006
9.47929e+006
9.57146e+006
9.65938e+006
9.74313e+006
9.82282e+006
9.89853e+006
9.97032e+006
1.00383e+007
1.01025e+007
1.0163e+007
1.02198e+007
1.02731e+007
1.03228e+007
1.0369e+007
1.04118e+007
1.04512e+007
1.04872e+007
1.052e+007
1.05495e+007
1.05758e+007
1.0599e+007
1.06192e+007
1.06364e+007
1.06508e+007
1.06625e+007
1.06716e+007
1.06782e+007
1.06826e+007
1.06849e+007
1.06854e+007
1.06842e+007
1.06817e+007
1.06781e+007
1.06736e+007
1.06686e+007
1.06635e+007
1.06586e+007
1.06545e+007
1.06516e+007
1.06504e+007
1.06515e+007
1.06556e+007
1.06632e+007
1.06751e+007
1.06919e+007
1.07145e+007
1.07437e+007
1.07802e+007
1.08248e+007
1.08785e+007
1.09419e+007
1.1016e+007
1.11014e+007
1.11989e+007
1.13091e+007
1.14328e+007
1.15704e+007
1.17223e+007
1.1889e+007
1.20704e+007
1.22668e+007
1.24781e+007
1.27041e+007
1.29447e+007
1.31996e+007
1.34685e+007
1.3751e+007
1.40467e+007
1.4355e+007
1.46755e+007
1.50076e+007
1.53507e+007
1.57042e+007
1.60676e+007
1.64404e+007
1.68219e+007
1.72117e+007
1.76092e+007
1.80139e+007
1.84254e+007
1.88431e+007
1.92668e+007
1.96959e+007
2.01301e+007
2.05691e+007
2.10126e+007
2.146e+007
2.1911e+007
2.23649e+007
2.28213e+007
2.32797e+007
2.37394e+007
2.42e+007
2.46611e+007
2.5122e+007
2.55823e+007
2.60414e+007
2.64989e+007
2.69541e+007
2.74065e+007
2.78554e+007
2.83004e+007
2.87408e+007
2.9176e+007
2.96055e+007
3.00286e+007
3.04449e+007
3.08539e+007
3.1255e+007
3.16477e+007
3.20315e+007
3.24062e+007
3.27712e+007
3.31263e+007
3.34712e+007
3.38056e+007
3.41293e+007
3.44418e+007
3.47426e+007
3.50311e+007
3.53067e+007
3.55689e+007
3.58172e+007
3.6051e+007
3.62698e+007
3.64733e+007
3.66607e+007
3.68318e+007
3.6986e+007
3.71227e+007
3.72415e+007
3.73416e+007
3.74227e+007
3.7484e+007
3.7525e+007
3.75452e+007
3.75439e+007
3.75207e+007
3.74751e+007
3.74067e+007
3.7315e+007
3.71997e+007
3.70605e+007
3.68971e+007
3.67093e+007
3.64969e+007
3.62592e+007
3.59954e+007
3.57049e+007
3.53873e+007
3.50423e+007
3.46701e+007
3.42709e+007
3.38457e+007
3.33962e+007
3.29246e+007
3.24347e+007
3.19318e+007
3.14233e+007
3.09197e+007
3.0436e+007
2.99932e+007
2.96211e+007
2.93637e+007
2.92875e+007
2.94971e+007
3.017e+007
3.16354e+007
3.45936e+007
4.08584e+007
5.51574e+007
1.02737e+008
2.43685e+007
1.21804e+007
9.239e+006
7.87124e+006
7.22721e+006
6.92403e+006
6.80586e+006
6.79687e+006
6.85531e+006
6.95615e+006
7.08355e+006
7.22704e+006
7.37959e+006
7.53637e+006
7.69411e+006
7.85054e+006
8.00415e+006
8.15395e+006
8.29928e+006
8.43976e+006
8.57521e+006
8.70552e+006
8.83072e+006
8.95086e+006
9.06603e+006
9.17635e+006
9.28195e+006
9.38295e+006
9.47949e+006
9.57166e+006
9.65959e+006
9.74335e+006
9.82305e+006
9.89877e+006
9.97059e+006
1.00386e+007
1.01028e+007
1.01633e+007
1.02202e+007
1.02735e+007
1.03232e+007
1.03695e+007
1.04123e+007
1.04517e+007
1.04877e+007
1.05205e+007
1.055e+007
1.05763e+007
1.05996e+007
1.06197e+007
1.0637e+007
1.06514e+007
1.0663e+007
1.06721e+007
1.06787e+007
1.06831e+007
1.06854e+007
1.06858e+007
1.06846e+007
1.0682e+007
1.06783e+007
1.06738e+007
1.06688e+007
1.06636e+007
1.06587e+007
1.06545e+007
1.06515e+007
1.06502e+007
1.06512e+007
1.06552e+007
1.06627e+007
1.06744e+007
1.06911e+007
1.07136e+007
1.07426e+007
1.07789e+007
1.08233e+007
1.08768e+007
1.094e+007
1.10139e+007
1.10991e+007
1.11964e+007
1.13065e+007
1.14301e+007
1.15677e+007
1.17197e+007
1.18864e+007
1.20681e+007
1.22648e+007
1.24765e+007
1.2703e+007
1.29443e+007
1.31999e+007
1.34697e+007
1.37531e+007
1.40498e+007
1.43592e+007
1.46808e+007
1.5014e+007
1.53582e+007
1.57129e+007
1.60774e+007
1.64512e+007
1.68336e+007
1.72243e+007
1.76225e+007
1.80279e+007
1.84399e+007
1.8858e+007
1.9282e+007
1.97112e+007
2.01454e+007
2.05842e+007
2.10274e+007
2.14744e+007
2.19248e+007
2.2378e+007
2.28336e+007
2.3291e+007
2.37497e+007
2.42092e+007
2.46691e+007
2.51287e+007
2.55877e+007
2.60455e+007
2.65016e+007
2.69555e+007
2.74065e+007
2.78542e+007
2.82978e+007
2.8737e+007
2.91711e+007
2.95995e+007
3.00217e+007
3.04371e+007
3.08453e+007
3.12458e+007
3.1638e+007
3.20215e+007
3.2396e+007
3.2761e+007
3.31162e+007
3.34613e+007
3.3796e+007
3.41201e+007
3.44332e+007
3.47347e+007
3.5024e+007
3.53004e+007
3.55635e+007
3.58127e+007
3.60475e+007
3.62673e+007
3.64716e+007
3.66599e+007
3.68318e+007
3.69866e+007
3.71239e+007
3.72431e+007
3.73436e+007
3.74248e+007
3.74861e+007
3.75269e+007
3.75467e+007
3.75449e+007
3.7521e+007
3.74745e+007
3.74051e+007
3.73122e+007
3.71957e+007
3.70552e+007
3.68906e+007
3.67016e+007
3.6488e+007
3.62492e+007
3.59845e+007
3.56933e+007
3.53753e+007
3.50303e+007
3.46584e+007
3.426e+007
3.38362e+007
3.33884e+007
3.29191e+007
3.24318e+007
3.19316e+007
3.14256e+007
3.09236e+007
3.04391e+007
2.99908e+007
2.96049e+007
2.93187e+007
2.91862e+007
2.92889e+007
2.97549e+007
3.0797e+007
3.27914e+007
3.64327e+007
4.29044e+007
5.21788e+007
2.45123e+007
1.23172e+007
9.22456e+006
7.86325e+006
7.23263e+006
6.94232e+006
6.83538e+006
6.83586e+006
6.90215e+006
7.00949e+006
7.14225e+006
7.2902e+006
7.44647e+006
7.60642e+006
7.76686e+006
7.92563e+006
8.08131e+006
8.23294e+006
8.37993e+006
8.52193e+006
8.65877e+006
8.79039e+006
8.9168e+006
9.03808e+006
9.15433e+006
9.26568e+006
9.37225e+006
9.47419e+006
9.57161e+006
9.66464e+006
9.75338e+006
9.83792e+006
9.91837e+006
9.9948e+006
1.00673e+007
1.01359e+007
1.02007e+007
1.02618e+007
1.03192e+007
1.0373e+007
1.04233e+007
1.047e+007
1.05132e+007