/*--------------------------------*- C++ -*----------------------------------*\
| =========                 |                                                 |
| \\      /  F ield         | OpenFOAM: The Open Source CFD Toolbox           |
|  \\    /   O peration     | Version:  5.x                                   |
|   \\  /    A nd           | Web:      www.OpenFOAM.org                      |
|    \\/     M anipulation  |                                                 |
\*---------------------------------------------------------------------------*/
/*   Windows 32 and 64 bit porting by blueCAPE: http://www.bluecape.com.pt   *\
|  Based on Windows porting (2.0.x v4) by Symscape: http://www.symscape.com   |
\*---------------------------------------------------------------------------*/
FoamFile
{
    version     2.0;
    format      ascii;
    class       surfaceScalarField;
    location    "5000";
    object      phi;
}
// * * * * * * * * * * * * * * * * * * * * * * * * * * * * * * * * * * * * * //

dimensions      [0 3 -1 0 0 0 0];

internalField   nonuniform List<scalar> 
7780
(
8.28678e-005
-3.28677e-005
0.000605478
-0.00052261
0.00117467
-0.000569192
0.00164317
-0.000468502
0.00195643
-0.00031326
0.00209971
-0.000143274
0.00207576
2.39459e-005
0.00189997
0.000175792
0.00159238
0.000307593
0.00117484
0.000417535
0.00066684
0.000508002
7.8707e-005
0.000588133
-0.000579563
0.00065827
-0.00129619
0.000716625
-0.00206282
0.000766627
-0.00286188
0.000799061
-0.00367177
0.000809893
-0.00447656
0.000804792
-0.00526153
0.000784971
-0.00601255
0.00075102
-0.00671622
0.00070367
-0.00736001
0.000643787
-0.00793238
0.00057237
-0.00842295
0.000490576
-0.00882244
0.000399486
-0.00912314
0.000300704
-0.00931843
0.000195283
-0.00939802
7.95921e-005
-0.00935237
-4.56447e-005
-0.00918051
-0.000171868
-0.00888251
-0.000297995
-0.0084556
-0.00042691
-0.00789711
-0.000558496
-0.00720513
-0.000691973
-0.00637843
-0.000826702
-0.00541644
-0.000961985
-0.00432076
-0.00109569
-0.00310358
-0.00121718
-0.00178237
-0.0013212
-0.000355297
-0.00142708
0.0011837
-0.001539
0.00282773
-0.00164402
0.00458617
-0.00175844
0.00644571
-0.00185954
0.00837249
-0.00192678
0.0103461
-0.00197364
0.012346
-0.00199989
0.0143486
-0.00200255
0.0163271
-0.00197852
0.0182519
-0.00192479
0.0200904
-0.00183856
0.0218078
-0.00171737
0.0233671
-0.00155924
0.0247297
-0.00136268
0.0258568
-0.00112701
0.0267098
-0.00085309
0.0272489
-0.000539078
0.0274208
-0.00017184
0.027176
0.000244753
0.0264924
0.000683598
0.02535
0.00114239
0.023722
0.00162806
0.0215858
0.00213611
0.0189258
0.00266004
0.0157333
0.00319252
0.0120192
0.00371407
0.00786357
0.00415565
0.00329986
0.0045637
-0.0017018
0.00500166
-0.00710876
0.00540697
-0.012918
0.00580926
-0.0190985
0.00618049
-0.025537
0.00643853
-0.0321223
0.00658529
-0.0387644
0.00664206
-0.0453691
0.00660472
-0.0518358
0.00646668
-0.058058
0.00622226
-0.0639255
0.00586748
-0.0693256
0.00540009
-0.0741457
0.0048201
-0.0782746
0.00412885
-0.0816066
0.00333204
-0.0840424
0.00243583
-0.0854729
0.00143045
-0.0857711
0.000298214
-0.0848447
-0.000926351
-0.0826676
-0.00217716
-0.0792179
-0.00344964
-0.0744631
-0.00475483
-0.0683882
-0.00607487
-0.0609983
-0.00738995
-0.0523187
-0.00867964
-0.0424032
-0.00991541
-0.0313888
-0.0110144
-0.0195331
-0.0118558
-0.00692519
-0.0126079
0.00644501
-0.0133702
0.0204231
-0.0139781
0.0350393
-0.0146162
0.0501261
-0.0150868
0.0653145
-0.0151884
0.0803795
-0.015065
0.0951226
-0.0147432
0.109344
-0.0142218
0.122846
-0.0135013
0.135431
-0.0125849
0.14691
-0.0114794
0.157104
-0.0101944
0.165848
-0.00874341
0.172988
-0.00713972
0.178394
-0.00540672
0.181956
-0.00356222
0.183513
-0.00155614
0.182898
0.000615064
0.180093
0.00280416
0.175126
0.00496767
0.167987
0.00713917
0.158672
0.00931492
0.1472
0.011472
0.133611
0.0135882
0.117968
0.0156431
0.100352
0.0176162
0.0808746
0.0194775
0.0597606
0.0211141
0.03748
0.0222806
0.0141938
0.0232862
-0.0101807
0.0243746
-0.0354393
0.0252586
-0.0616558
0.0262165
-0.0886149
0.0269592
-0.115745
0.0271299
-0.142665
0.0269203
-0.16907
0.0264044
-0.194647
0.0255774
-0.219077
0.02443
-0.242032
0.0229554
-0.263184
0.0211521
-0.282208
0.0190234
-0.298786
0.0165787
-0.312619
0.0138323
-0.323426
0.0108069
-0.330947
0.00752178
-0.334873
0.00392511
-0.33486
-1.21445e-005
-0.330749
-0.004111
-0.322535
-0.00821429
-0.310187
-0.0123479
-0.293662
-0.0165254
-0.272968
-0.0206938
-0.248172
-0.0247962
-0.219395
-0.0287772
-0.186814
-0.0325805
-0.150673
-0.0361409
-0.111393
-0.0392799
-0.0699995
-0.0413939
-0.0269399
-0.0430595
0.0179224
-0.0448623
0.0640627
-0.0461404
0.111416
-0.0473528
0.159531
-0.0481151
0.207279
-0.0477488
0.253771
-0.0464917
0.298315
-0.044544
0.340244
-0.041929
0.378899
-0.0386552
0.413641
-0.0347414
0.443862
-0.0302212
0.469005
-0.0251427
0.488575
-0.0195698
0.502147
-0.0135725
0.509254
-0.007107
0.509383
-0.000129144
0.502333
0.00704989
0.488254
0.014079
0.467299
0.0209552
0.439604
0.0276949
0.405404
0.0342
0.365043
0.0403614
0.318963
0.0460799
0.267699
0.0512641
0.211873
0.0558262
0.152358
0.0595142
0.0908179
0.0615404
0.0281423
0.0626756
-0.0356845
0.0638268
-0.0998712
0.0641867
-0.164093
0.0642218
-0.227534
0.0634412
-0.288466
0.0609317
-0.345375
0.0569093
-0.396951
0.0515755
-0.441699
0.0447484
-0.477777
0.0360774
-0.50271
0.024933
-0.512738
0.0100286
-0.503351
-0.00938677
-0.471781
-0.0315704
-0.418162
-0.053619
-0.0566382
0.000533339
-0.000516206
0.000855423
-0.000844695
0.00111167
-0.000825437
0.00129245
-0.000649282
0.00138726
-0.000408074
0.0013901
-0.000146108
0.00130073
0.000113313
0.00111973
0.000356792
0.000850009
0.000577312
0.000495871
0.000771673
6.3393e-005
0.00094048
-0.000435563
0.00108709
-0.000988534
0.00121124
-0.0015837
0.0013118
-0.00220568
0.0013886
-0.00284414
0.00143752
-0.00349009
0.00145585
-0.00413069
0.00144539
-0.00475334
0.00140763
-0.00534611
0.00134379
-0.00589773
0.00125529
-0.0063977
0.00114376
-0.0068363
0.00101097
-0.00720461
0.000858883
-0.00749455
0.000689424
-0.00769854
0.000504693
-0.00780946
0.000306207
-0.00782391
9.40403e-005
-0.00774015
-0.000129405
-0.00755247
-0.000359551
-0.00725613
-0.00059433
-0.00684962
-0.000833419
-0.00633223
-0.00107588
-0.00570389
-0.00132032
-0.00496556
-0.00156503
-0.00411968
-0.00180787
-0.00316997
-0.0020454
-0.00211546
-0.00227169
-0.00095173
-0.00248493
0.000313225
-0.00269203
0.00166696
-0.00289274
0.00310443
-0.00308149
0.0046045
-0.00325851
0.00615734
-0.00341238
0.00775979
-0.00352923
0.00939425
-0.0036081
0.0110405
-0.00364618
0.0126769
-0.00363886
0.0142795
-0.00358119
0.0158228
-0.00346811
0.0172792
-0.00329487
0.018619
-0.00305723
0.0198114
-0.00275164
0.0208241
-0.00237537
0.0216238
-0.00192668
0.0221757
-0.00140506
0.0224456
-0.000808948
0.0224093
-0.000135532
0.0220454
0.00060868
0.0213198
0.00140912
0.0202046
0.00225768
0.0186835
0.00314908
0.016746
0.00407361
0.014388
0.00501807
0.0116145
0.005966
0.00843628
0.00689231
0.00482758
0.00776435
0.000797061
0.00859423
-0.00359212
0.00939084
-0.00831117
0.010126
-0.0132923
0.0107903
-0.0184695
0.0113577
-0.0238091
0.0117782
-0.0292549
0.0120311
-0.034725
0.0121121
-0.0401322
0.012012
-0.0453863
0.0117207
-0.0503937
0.0112297
-0.0550587
0.0105325
-0.0592843
0.00962573
-0.0629735
0.00850928
-0.0660308
0.00718614
-0.0683622
0.00566347
-0.0698764
0.00394998
-0.0704972
0.00205123
-0.0701787
-2.03033e-005
-0.0688746
-0.00223036
-0.0665198
-0.00453203
-0.0630737
-0.00689573
-0.0585302
-0.00929829
-0.0528987
-0.0117064
-0.0462074
-0.0140813
-0.0385072
-0.0163798
-0.0298715
-0.0185511
-0.0203604
-0.0205255
-0.00996847
-0.0222477
0.0011944
-0.0237707
0.0129288
-0.0251046
0.0251413
-0.0261906
0.0375719
-0.0270469
0.0500767
-0.0275916
0.0626034
-0.0277151
0.0749784
-0.0274399
0.0870177
-0.0267825
0.0985441
-0.0257482
0.109387
-0.024344
0.119382
-0.02258
0.128373
-0.0204707
0.136214
-0.0180348
0.142766
-0.0152957
0.147905
-0.0122787
0.151513
-0.00901453
0.15348
-0.00552961
0.153755
-0.00183063
0.152327
0.00204306
0.149125
0.00600622
0.144087
0.0100048
0.137212
0.0140147
0.128521
0.0180059
0.118053
0.0219399
0.105866
0.0257754
0.0920405
0.0294684
0.0766864
0.0329703
0.0599416
0.0362223
0.041924
0.0391317
0.0225905
0.041614
0.00208803
0.0437887
-0.0192464
0.045709
-0.0412741
0.0472863
-0.0636053
0.0485477
-0.0860185
0.0493724
-0.108459
0.0495703
-0.130689
0.0491505
-0.152422
0.0481378
-0.173375
0.0465299
-0.193266
0.0443208
-0.211817
0.0415068
-0.228754
0.0380892
-0.243807
0.0340766
-0.256714
0.029485
-0.26722
0.0243382
-0.27508
0.0186674
-0.280063
0.0125041
-0.282005
0.00586782
-0.280827
-0.00119019
-0.276395
-0.00854348
-0.268543
-0.0160665
-0.2572
-0.0236904
-0.242376
-0.0313491
-0.224119
-0.0389512
-0.202521
-0.0463938
-0.177732
-0.0535661
-0.149967
-0.0603464
-0.119511
-0.0665966
-0.0866712
-0.0721195
-0.0513842
-0.0766809
-0.0139604
-0.0804833
0.0248178
-0.0836405
0.0646214
-0.0859439
0.104688
-0.0874196
0.144454
-0.0878805
0.183688
-0.0869831
0.221912
-0.0847155
0.258518
-0.0811505
0.292915
-0.0763262
0.324539
-0.0702792
0.352856
-0.0630585
0.377367
-0.0547314
0.397608
-0.0453843
0.41316
-0.0351214
0.423643
-0.0240558
0.428819
-0.0122831
0.428622
6.74724e-005
0.42294
0.012732
0.411602
0.0254176
0.39461
0.0379471
0.372134
0.0501707
0.344426
0.0619085
0.311816
0.0729713
0.274725
0.083171
0.233668
0.0923204
0.189267
0.100228
0.142148
0.106633
0.0924278
0.11126
0.0406856
0.114418
-0.0118092
0.116322
-0.0643806
0.116758
-0.115927
0.115768
-0.16562
0.113134
-0.213085
0.108397
-0.257637
0.101461
-0.298363
0.0923016
-0.334335
0.0807203
-0.364612
0.0663547
-0.388324
0.0486446
-0.40514
0.026845
-0.41519
0.000663401
-0.417988
-0.0287728
-0.411819
-0.0597883
-0.076439
0.000575753
-0.00104196
0.000829196
-0.00109814
0.000962897
-0.000959138
0.00102473
-0.000711113
0.00102607
-0.000409417
0.000967288
-8.73256e-005
0.000846448
0.000234153
0.000661695
0.000541545
0.000412529
0.000826478
0.000100191
0.00108401
-0.000271304
0.00131198
-0.000694078
0.00150986
-0.00115902
0.00167618
-0.00165637
0.00180915
-0.00217502
0.00190725
-0.00270536
0.00196787
-0.00323884
0.00198933
-0.00376566
0.0019722
-0.00427567
0.00191763
-0.00475897
0.00182709
-0.00520609
0.00170242
-0.00560813
0.00154579
-0.00595679
0.00135964
-0.00624446
0.00114655
-0.00646423
0.000909193
-0.00660981
0.000650277
-0.00667585
0.000372246
-0.00665896
7.71549e-005
-0.00655633
-0.000232038
-0.00636423
-0.000551655
-0.00607952
-0.000879033
-0.00570063
-0.00121231
-0.00522697
-0.00154954
-0.00465873
-0.00188856
-0.00399688
-0.00222688
-0.00324314
-0.0025616
-0.00239934
-0.00288921
-0.00146551
-0.00320552
-0.000442207
-0.00350823
0.000663658
-0.0037979
0.00184309
-0.00407217
0.00308746
-0.00432586
0.00438331
-0.00455436
0.00571911
-0.00474818
0.00708667
-0.00489679
0.00847268
-0.00499412
0.00986045
-0.00503395
0.0112313
-0.00500968
0.0125647
-0.00491458
0.0138384
-0.00474184
0.0150287
-0.00448517
0.0161104
-0.00413893
0.0170572
-0.00369843
0.0178419
-0.00316009
0.0184369
-0.00252167
0.0188142
-0.00178235
0.0189476
-0.000942342
0.0188155
-3.4913e-006
0.0183973
0.00102695
0.0176693
0.00213712
0.0166113
0.00331565
0.0152096
0.00455072
0.0134559
0.00582737
0.0113466
0.00712736
0.00888338
0.00842921
0.0060679
0.00970778
0.00289543
0.0109368
-0.00061618
0.0121058
-0.00442832
0.013203
-0.00850416
0.0142019
-0.0127931
0.0150793
-0.0172393
0.0158039
-0.0217978
0.0163367
-0.0264171
0.0166504
-0.0310314
0.0167264
-0.0355673
0.0165479
-0.039947
0.0161004
-0.0440892
0.0153719
-0.047911
0.0143542
-0.0513284
0.0130431
-0.054258
0.0114389
-0.0566186
0.00954677
-0.0583321
0.00737692
-0.0593261
0.00494397
-0.0595412
0.00226637
-0.0589321
-0.000629372
-0.0574585
-0.00370401
-0.0550805
-0.00691006
-0.0517732
-0.010203
-0.047533
-0.0135384
-0.0423728
-0.0168666
-0.036321
-0.0201331
-0.0294212
-0.0232796
-0.0217276
-0.0262448
-0.0132884
-0.0289648
-0.00414683
-0.0313892
0.00559085
-0.0335084
0.0157874
-0.0353011
0.0263184
-0.0367215
0.0370162
-0.0377447
0.0477365
-0.0383119
0.0583831
-0.0383618
0.0688274
-0.0378841
0.0789238
-0.0368789
0.0885263
-0.0353507
0.0974917
-0.0333094
0.105682
-0.0307705
0.112967
-0.0277554
0.119223
-0.0242912
0.124338
-0.0204103
0.128208
-0.0161492
0.130742
-0.0115487
0.131863
-0.00665012
0.131525
-0.00149314
0.129702
0.00386666
0.126352
0.00935557
0.121448
0.0149098
0.114985
0.0204768
0.106987
0.026004
0.0974918
0.0314353
0.0865549
0.0367123
0.0742495
0.0417738
0.0606647
0.0465551
0.0458991
0.050988
0.0300322
0.0549985
0.0131166
0.0585297
-0.00469149
0.0615967
-0.0231773
0.0641948
-0.0421556
0.0662646
-0.0613794
0.0677715
-0.0806321
0.068625
-0.0997786
0.0687168
-0.118638
0.0680101
-0.13699
0.0664895
-0.154602
0.0641419
-0.171239
0.0609579
-0.186667
0.0569343
-0.200653
0.0520752
-0.21297
0.0463942
-0.2234
0.0399149
-0.231733
0.032671
-0.237772
0.0247068
-0.241343
0.0160752
-0.242313
0.00683767
-0.240584
-0.00291971
-0.236053
-0.0130742
-0.228624
-0.023495
-0.21825
-0.0340652
-0.204933
-0.0446652
-0.188723
-0.0551617
-0.169706
-0.0654104
-0.148015
-0.0752571
-0.123824
-0.0845381
-0.0973397
-0.0930806
-0.0687572
-0.100702
-0.0382026
-0.107235
-0.00601528
-0.112671
0.0273239
-0.11698
0.0614019
-0.120022
0.0956987
-0.121716
0.129724
-0.121905
0.163134
-0.120394
0.195538
-0.117119
0.226474
-0.112087
0.25547
-0.105322
0.282061
-0.0968711
0.305809
-0.0868056
0.326299
-0.0752214
0.343155
-0.0622407
0.356044
-0.0480103
0.364687
-0.0326986
0.368893
-0.0164896
0.368563
0.000397642
0.363617
0.0176785
0.353987
0.0350472
0.339701
0.0522336
0.32089
0.0689815
0.29777
0.0850288
0.270627
0.100113
0.239821
0.113978
0.20577
0.126371
0.168942
0.137056
0.129775
0.145799
0.0886141
0.152422
0.0460679
0.156964
0.002925
0.159465
-0.0401376
0.159821
-0.0823597
0.15799
-0.123056
0.15383
-0.161776
0.147117
-0.198059
0.137745
-0.23139
0.125633
-0.261299
0.110629
-0.287432
0.0924873
-0.309652
0.0708652
-0.328197
0.0453898
-0.34348
0.0159458
-0.355379
-0.016873
-0.362652
-0.0525153
-0.0781801
0.000495511
-0.00148747
0.000694838
-0.00129747
0.000775494
-0.00103979
0.000788658
-0.000724276
0.000751717
-0.000372477
0.00066901
-4.61854e-006
0.000540186
0.000362977
0.00036374
0.000717991
0.000138791
0.00105143
-0.000134062
0.00135686
-0.000452021
0.00162993
-0.000809758
0.0018676
-0.0012005
0.00206692
-0.00161658
0.00222523
-0.00204955
0.00234021
-0.00249137
0.00240969
-0.00293429
0.00243225
-0.00337013
0.00240804
-0.00379054
0.00233805
-0.00418729
0.00222384
-0.00455242
0.00206754
-0.00487837
0.00187175
-0.00515813
0.00163939
-0.00538522
0.00137364
-0.00555381
0.00107779
-0.00565871
0.00075518
-0.00569555
0.000409087
-0.00566105
4.26475e-005
-0.00555242
-0.000340663
-0.00536691
-0.000737166
-0.00510228
-0.00114366
-0.00475723
-0.00155736
-0.00433127
-0.00197551
-0.00382458
-0.00239525
-0.00323797
-0.00281348
-0.00257276
-0.00322681
-0.00183049
-0.00363148
-0.00101252
-0.00402349
-0.000121286
-0.00439946
0.000837627
-0.00475681
0.00185677
-0.00509131
0.00292786
-0.00539696
0.00404049
-0.00566698
0.0051845
-0.00589219
0.0063503
-0.00606259
0.00752598
-0.00616979
0.00869731
-0.00620529
0.0098483
-0.00616067
0.0109614
-0.00602768
0.0120176
-0.00579799
0.0129964
-0.00546404
0.0138766
-0.00501911
0.0146359
-0.00445767
0.0152514
-0.0037756
0.0157002
-0.00297048
0.0159596
-0.00204179
0.0160084
-0.000991096
0.0158275
0.000177428
0.0153989
0.00145551
0.0147049
0.0028311
0.0137303
0.00429033
0.0124638
0.00581722
0.0108984
0.00739274
0.00903105
0.0089947
0.00686225
0.010598
0.00439473
0.0121753
0.00163312
0.0136984
-0.00140567
0.0151446
-0.0046924
0.0164897
-0.00819345
0.0177029
-0.0118671
0.0187529
-0.0156679
0.0196047
-0.0195515
0.0202203
-0.0234695
0.0205683
-0.0273653
0.0206222
-0.0311764
0.020359
-0.0348363
0.0197603
-0.0382751
0.0188108
-0.0414217
0.0175008
-0.044204
0.0158254
-0.0465511
0.013786
-0.0483943
0.01139
-0.0496688
0.00865142
-0.0503158
0.00559103
-0.0502858
0.00223634
-0.0495387
-0.00137651
-0.0480412
-0.0052015
-0.0457662
-0.00918504
-0.0426983
-0.0132709
-0.0388369
-0.0173999
-0.0341951
-0.0215083
-0.0287991
-0.0255291
-0.0226864
-0.0293924
-0.0159032
-0.0330279
-0.00850037
-0.0363676
-0.000536818
-0.0393528
0.00789767
-0.0419429
0.0166927
-0.0440962
0.0257345
-0.0457633
0.0348934
-0.0469036
0.0440488
-0.0474673
0.0530973
-0.0474103
0.0619262
-0.046713
0.0704151
-0.0453678
0.0784425
-0.0433781
0.0858888
-0.0407557
0.0926386
-0.0375203
0.0985826
-0.0336993
0.103619
-0.0293272
0.107653
-0.024445
0.110603
-0.0190991
0.112396
-0.0133411
0.112972
-0.00722633
0.112292
-0.000813249
0.110328
0.00583038
0.107056
0.012628
0.10246
0.0195055
0.0965442
0.0263928
0.0893284
0.0332198
0.0808483
0.0399154
0.0711539
0.0464068
0.060308
0.0526197
0.0483844
0.0584788
0.0354634
0.0639089
0.0216248
0.0688371
0.00695197
0.0732025
-0.00842396
0.0769726
-0.0243375
0.0801084
-0.0406214
0.0825485
-0.0570858
0.0842358
-0.0735535
0.0850927
-0.0898759
0.0850393
-0.105889
0.0840235
-0.121411
0.0820114
-0.13625
0.0789802
-0.150208
0.0749163
-0.163089
0.0698158
-0.174699
0.0636851
-0.184848
0.0565424
-0.193351
0.0484183
-0.200037
0.039357
-0.204746
0.0294161
-0.207339
0.0186679
-0.207701
0.00719983
-0.205742
-0.00487899
-0.201381
-0.0174348
-0.194555
-0.0303212
-0.185232
-0.0433883
-0.173419
-0.0564786
-0.159157
-0.0694232
-0.142525
-0.0820427
-0.123633
-0.0941488
-0.102625
-0.105547
-0.0796668
-0.116039
-0.0549373
-0.125431
-0.028622
-0.133551
-0.00100579
-0.140287
0.0275471
-0.145533
0.0566682
-0.149143
0.0859486
-0.150997
0.114993
-0.15095
0.143456
-0.148857
0.170984
-0.144647
0.197196
-0.138299
0.221706
-0.129832
0.244134
-0.119299
0.264115
-0.106787
0.281311
-0.0924176
0.295415
-0.0763449
0.306161
-0.0587557
0.313329
-0.0398671
0.316765
-0.0199251
0.316372
0.000789971
0.312094
0.0219566
0.303908
0.0432334
0.291856
0.0642855
0.276055
0.0847821
0.25669
0.104394
0.234006
0.122797
0.208305
0.139679
0.179935
0.154742
0.149276
0.167714
0.116718
0.178358
0.0826515
0.186488
0.0475823
0.192033
0.0121019
0.194945
-0.0232179
0.195141
-0.0577927
0.192565
-0.0911009
0.187138
-0.122741
0.178758
-0.152367
0.16737
-0.179673
0.152939
-0.204447
0.135403
-0.226615
0.114656
-0.246302
0.0905522
-0.263858
0.0629458
-0.279721
0.0318083
-0.294033
-0.00256053
-0.306563
-0.0399859
-0.0691095
0.000382145
-0.00181961
0.00053472
-0.00145004
0.00058811
-0.00109318
0.000581781
-0.000717948
0.000532417
-0.000323113
0.000445957
8.18412e-005
0.000323537
0.000485397
0.000164592
0.000876936
-3.13978e-005
0.00124742
-0.000263958
0.00158942
-0.000531045
0.00189702
-0.000828865
0.00216542
-0.00115236
0.00239042
-0.00149561
0.00256847
-0.00185204
0.00269664
-0.00221508
0.00277274
-0.00257811
0.00279528
-0.00293431
0.00276424
-0.00327685
0.00268059
-0.00359891
0.00254589
-0.00389387
0.00236251
-0.00415548
0.00213335
-0.00437786
0.00186177
-0.00455564
0.00155141
-0.00468395
0.0012061
-0.00475853
0.000829754
-0.00477572
0.00042628
-0.00473262
-4.57726e-007
-0.00462677
-0.000446507
-0.00445603
-0.000907905
-0.00421873
-0.00138097
-0.00391384
-0.00186225
-0.00354097
-0.00234838
-0.00310031
-0.00283591
-0.00259255
-0.00332124
-0.00201885
-0.00380051
-0.00138073
-0.0042696
-0.000680106
-0.00472411
8.01178e-005
-0.00515969
0.00089516
-0.00557185
0.00175882
-0.00595497
0.00266392
-0.00630206
0.00360199
-0.00660505
0.00456421
-0.00685441
0.00554138
-0.00703976
0.00652305
-0.00715146
0.00749704
-0.00717928
0.00844983
-0.00711346
0.00936669
-0.00694455
0.0102316
-0.00666285
0.0110273
-0.00625983
0.0117362
-0.00572793
0.0123395
-0.00506103
0.0128186
-0.00425467
0.0131545
-0.00330643
0.013329
-0.00221621
0.0133244
-0.000986549
0.0131249
0.000376918
0.0127156
0.00186481
0.0120827
0.00346407
0.0112143
0.00515872
0.0101017
0.00692983
0.0087392
0.0087552
0.00712448
0.0106094
0.00525827
0.0124642
0.00314445
0.0142891
0.000790525
0.0160524
-0.00178807
0.0177232
-0.00456782
0.0192695
-0.0075202
0.0206553
-0.0106109
0.0218436
-0.0138019
0.0227957
-0.0170535
0.0234719
-0.0203228
0.0238376
-0.0235614
0.0238609
-0.0267165
0.0235141
-0.0297321
0.0227759
-0.0325495
0.0216282
-0.0351085
0.0200598
-0.037349
0.0180659
-0.0392116
0.0156486
-0.0406392
0.0128177
-0.0415788
0.00959094
-0.0419821
0.00599438
-0.0418083
0.00206248
-0.0410237
-0.0021611
-0.0396018
-0.00662339
-0.0375231
-0.0112637
-0.0347781
-0.016016
-0.0313681
-0.0208098
-0.027306
-0.0255705
-0.0226149
-0.0302201
-0.017328
-0.0346793
-0.0114865
-0.0388694
-0.00513931
-0.0427148
0.00165468
-0.0461468
0.00881876
-0.049107
0.0162624
-0.0515398
0.0238891
-0.05339
0.0315944
-0.0546089
0.0392768
-0.0551497
0.0468423
-0.0549758
0.0541934
-0.054064
0.0612293
-0.0524038
0.0678495
-0.0499983
0.0739552
-0.0468613
0.0794511
-0.0430163
0.0842475
-0.0384958
0.0882609
-0.0333406
0.0914153
-0.0275994
0.0936437
-0.0213274
0.0948885
-0.0145859
0.0951037
-0.00744156
0.0942561
3.43422e-005
0.0923226
0.00776388
0.0892869
0.0156637
0.0851425
0.0236499
0.0798956
0.0316397
0.0735655
0.0395499
0.0661839
0.047297
0.057794
0.0547966
0.0484493
0.0619644
0.0382121
0.068716
0.0271518
0.0749692
0.0153436
0.0806453
0.00287253
0.0856736
-0.0101504
0.0899956
-0.0235931
0.0935511
-0.0373158
0.0962712
-0.051167
0.098087
-0.0649995
0.0989252
-0.078678
0.0987178
-0.0920589
0.0974045
-0.104989
0.0949416
-0.11731
0.0913008
-0.128859
0.0864652
-0.139473
0.0804304
-0.148993
0.0732045
-0.15726
0.0648099
-0.164125
0.0552836
-0.169447
0.0446789
-0.173097
0.0330656
-0.17496
0.0205311
-0.174942
0.00718154
-0.172965
-0.00685626
-0.168965
-0.021434
-0.162899
-0.0363879
-0.154744
-0.0515429
-0.14451
-0.0667129
-0.132233
-0.0817001
-0.117979
-0.0962965
-0.101842
-0.110286
-0.0839395
-0.123449
-0.0644145
-0.135564
-0.0434281
-0.146418
-0.0211651
-0.155814
0.00213358
-0.163586
0.0261786
-0.169578
0.0506622
-0.173627
0.0752568
-0.175591
0.099638
-0.175331
0.123498
-0.172717
0.146527
-0.167677
0.168411
-0.160182
0.18883
-0.150251
0.207476
-0.137944
0.224051
-0.123362
0.238281
-0.106648
0.24992
-0.0879839
0.258756
-0.0675908
0.264615
-0.0457264
0.267373
-0.0226834
0.266952
0.00121104
0.263312
0.0255969
0.256452
0.0500938
0.246421
0.0743161
0.233325
0.0978777
0.217323
0.120396
0.198624
0.141497
0.177479
0.160823
0.154181
0.17804
0.12905
0.192846
0.102426
0.204981
0.0746736
0.214241
0.0462127
0.220494
0.017505
0.223653
-0.0109887
0.223634
-0.0388151
0.220391
-0.0655736
0.213897
-0.0909449
0.204129
-0.114681
0.191106
-0.136615
0.174873
-0.15669
0.155477
-0.174996
0.132962
-0.191803
0.10736
-0.207567
0.0787099
-0.222845
0.047086
-0.238092
0.0126865
-0.253584
-0.0244936
-0.0546205
0.00027489
-0.0020445
0.000387093
-0.00156224
0.000424107
-0.0011302
0.000411392
-0.000705233
0.000362486
-0.000274206
0.000283352
0.000160975
0.000175938
0.000592812
4.04512e-005
0.00101242
-0.000123192
0.00141106
-0.000314509
0.00178074
-0.00053196
0.00211447
-0.000772784
0.00240624
-0.00103322
0.00265086
-0.00130874
0.00284399
-0.00159428
0.00298218
-0.00188464
0.0030631
-0.00217438
0.00308502
-0.002458
0.00304785
-0.00273003
0.00295263
-0.00298496
0.00280081
-0.00321743
0.00259499
-0.0034224
0.00233832
-0.0035951
0.00203448
-0.00373118
0.0016875
-0.00382672
0.00130164
-0.00387826
0.000881294
-0.00388284
0.000430859
-0.00383802
-4.52787e-005
-0.00374178
-0.000542749
-0.00359243
-0.00105726
-0.00338871
-0.00158469
-0.00312984
-0.00212112
-0.00281553
-0.00266268
-0.00244597
-0.00320547
-0.00202177
-0.00374543
-0.00154398
-0.00427831
-0.00101404
-0.00479954
-0.000433919
-0.00530423
0.000193573
-0.00578718
0.000864421
-0.0062427
0.00157354
-0.00666409
0.00231499
-0.0070435
0.00308189
-0.00737196
0.00386686
-0.00763937
0.00466181
-0.00783472
0.00545799
-0.00794763
0.00624522
-0.00796651
0.00701236
-0.0078806
0.00774749
-0.00767969
0.00843738
-0.00735274
0.00906812
-0.00689056
0.00962519
-0.00628501
0.0100937
-0.00552952
0.0104584
-0.00461944
0.0107044
-0.00355243
0.010817
-0.00232876
0.0107822
-0.000951727
0.0105871
0.000571999
0.0102199
0.002232
0.00966987
0.00401409
0.00892804
0.00590055
0.00798767
0.0078702
0.0068445
0.00989837
0.00549693
0.011957
0.00394612
0.014015
0.00219629
0.016039
0.000255275
0.0179934
-0.00186362
0.0198421
-0.00414144
0.0215473
-0.00655486
0.0230687
-0.00907614
0.0243649
-0.0116742
0.0253938
-0.0143154
0.026113
-0.0169637
0.0264859
-0.0195793
0.0264765
-0.0221184
0.0260532
-0.0245355
0.025193
-0.0267826
0.0238753
-0.0288107
0.0220879
-0.0305709
0.019826
-0.032015
0.0170927
-0.0330972
0.0138998
-0.0337745
0.0102683
-0.0340086
0.0062285
-0.0337666
0.0018204
-0.0330214
-0.00290628
-0.0317523
-0.00789243
-0.0299454
-0.0130706
-0.0275944
-0.018367
-0.024702
-0.0237022
-0.0212799
-0.0289926
-0.0173482
-0.0341518
-0.0129354
-0.0390922
-0.00807726
-0.0437275
-0.00281751
-0.0479745
0.00279166
-0.0517559
0.0086864
-0.0550017
0.0147935
-0.0576469
0.0210338
-0.0596304
0.0273234
-0.0608985
0.0335786
-0.0614048
0.0397208
-0.061118
0.0456689
-0.0600121
0.05134
-0.0580748
0.0566524
-0.0553108
0.0615267
-0.0517356
0.0658867
-0.0473762
0.0696604
-0.0422695
0.0727815
-0.0364617
0.0751899
-0.0300079
0.0768331
-0.0229706
0.0776665
-0.0154193
0.0776545
-0.00742957
0.0767711
0.000917764
0.0749985
0.00953642
0.0723264
0.0183358
0.0687525
0.0272238
0.0642846
0.0361077
0.05894
0.0448945
0.0527462
0.0534908
0.0457393
0.0618035
0.0379639
0.0697397
0.0294721
0.0772078
0.0203227
0.0841186
0.0105815
0.0903865
0.000324157
0.095931
-0.0103584
0.100678
-0.0213613
0.104554
-0.0325719
0.107482
-0.0438694
0.109384
-0.0551338
0.11019
-0.0662535
0.109837
-0.077108
0.108259
-0.0875712
0.105405
-0.0975144
0.101244
-0.106807
0.0957583
-0.11532
0.0889426
-0.122922
0.0808068
-0.129489
0.0713766
-0.1349
0.0606945
-0.139042
0.0488212
-0.141813
0.0358363
-0.143121
0.0218394
-0.142889
0.00695021
-0.141056
-0.00868999
-0.137571
-0.0249193
-0.132401
-0.0415578
-0.125532
-0.058411
-0.116975
-0.0752707
-0.106758
-0.0919163
-0.0949382
-0.108117
-0.0815906
-0.123634
-0.0668138
-0.138225
-0.0507264
-0.151651
-0.0334674
-0.163677
-0.0151994
-0.174082
0.00387955
-0.182665
0.0235392
-0.189237
0.0435293
-0.193617
0.0635895
-0.195652
0.08346
-0.195201
0.102881
-0.192138
0.121597
-0.186393
0.139349
-0.177934
0.155881
-0.166783
0.170946
-0.153009
0.184309
-0.136725
0.195752
-0.118091
0.205082
-0.0973145
0.212135
-0.0746436
0.216778
-0.050369
0.218914
-0.0248197
0.218485
0.0016402
0.215466
0.0286161
0.209867
0.0556925
0.201739
0.0824435
0.191177
0.108441
0.178313
0.133259
0.163324
0.156487
0.146417
0.177729
0.127835
0.196623
0.107842
0.212838
0.0867277
0.226095
0.0648011
0.236168
0.0424042
0.242891
0.0198951
0.246162
-0.00236546
0.245895
-0.0240292
0.242055
-0.0447991
0.234667
-0.0644406
0.22377
-0.0827933
0.209459
-0.0997873
0.191867
-0.11547
0.17116
-0.130037
0.147529
-0.143861
0.121184
-0.157503
0.0923525
-0.171686
0.0612692
-0.187199
0.0281989
-0.204724
-0.00696871
-0.0370471
0.00019015
-0.00218465
0.000268288
-0.00164038
0.00029358
-0.00115549
0.000280226
-0.000691879
0.000238108
-0.000232088
0.000172306
0.000226777
8.49126e-005
0.000680205
-2.34616e-005
0.0011208
-0.000152617
0.00154022
-0.000302076
0.0019302
-0.000470681
0.00228308
-0.000656442
0.002592
-0.000856625
0.00285104
-0.00106789
0.00305526
-0.00128643
0.00320071
-0.00150835
0.00328502
-0.00172936
0.00330603
-0.00194527
0.00326376
-0.00215193
0.00315929
-0.00234501
0.00299389
-0.0025204
0.00277038
-0.00267421
0.00249212
-0.00280277
0.00216304
-0.00290273
0.00178746
-0.00297105
0.00136996
-0.00300506
0.000915305
-0.00300247
0.000428266
-0.00296136
-8.63904e-005
-0.00288015
-0.000623957
-0.00275757
-0.00117983
-0.00259269
-0.00174957
-0.00238494
-0.00232888
-0.00213412
-0.0029135
-0.00184041
-0.00349918
-0.00150433
-0.00408151
-0.00112676
-0.00465587
-0.000709
-0.0052173
-0.000252781
-0.00576045
0.000239497
-0.00627946
0.000764614
-0.00676781
0.00131857
-0.00721805
0.0018967
-0.00762163
0.00249365
-0.00796892
0.00310357
-0.00824929
0.00371981
-0.00845096
0.0043355
-0.00856332
0.00494251
-0.00857352
0.00553212
-0.00847021
0.00609521
-0.00824277
0.00662126
-0.00787879
0.00709948
-0.00736879
0.00751869
-0.00670421
0.00786739
-0.00587821
0.00813397
-0.00488603
0.00830692
-0.00372538
0.00837505
-0.00239688
0.00832773
-0.000904405
0.00815509
0.000744632
0.00784816
0.00253894
0.00739895
0.00446329
0.00680087
0.00649863
0.006049
0.00862207
0.00514032
0.010807
0.00407394
0.0130234
0.0028512
0.0152378
0.00147603
0.0174141
-4.46426e-005
0.019514
-0.00170004
0.0214975
-0.00347544
0.0233227
-0.00535269
0.0249459
-0.00731039
0.0263226
-0.00932439
0.0274078
-0.0113674
0.0281561
-0.0134115
0.02853
-0.0154255
0.0284905
-0.0173747
0.0280025
-0.0192243
0.0270426
-0.0209365
0.0255875
-0.0224736
0.023625
-0.0237976
0.02115
-0.0248714
0.0181665
-0.0256597
0.0146881
-0.0261295
0.0107381
-0.0262514
0.00635034
-0.0259999
0.00156894
-0.0253545
-0.00355165
-0.0242997
-0.00894725
-0.0228254
-0.014545
-0.0209277
-0.0202646
-0.0186097
-0.0260202
-0.015881
-0.0317212
-0.0127585
-0.0372744
-0.00926508
-0.0425856
-0.00543041
-0.0475622
-0.00129037
-0.0521146
0.00311227
-0.0561586
0.00772701
-0.0596165
0.012497
-0.0624168
0.0173607
-0.0644941
0.0222526
-0.0657904
0.0271059
-0.0662581
0.0318604
-0.0658726
0.0364516
-0.0646033
0.0408137
-0.0624369
0.0448836
-0.0593807
0.0486004
-0.0554524
0.0519057
-0.0506815
0.0547447
-0.0451085
0.0570669
-0.038784
0.0588273
-0.0317682
0.0599862
-0.0241295
0.0605106
-0.0159438
0.0603745
-0.00729342
0.0595586
0.00173367
0.0580504
0.0110446
0.0558438
0.0205425
0.0529389
0.0301286
0.0493436
0.039703
0.0450727
0.0491653
0.0401487
0.0584149
0.0346005
0.0673517
0.0284637
0.0758765
0.0217798
0.0838917
0.0145962
0.0913023
0.00696634
0.0980163
-0.00104865
0.103946
-0.00937791
0.109007
-0.0179418
0.113118
-0.0266548
0.116195
-0.0354227
0.118152
-0.0441513
0.118918
-0.0527574
0.118444
-0.0611446
0.116646
-0.0692128
0.113473
-0.0768637
0.108895
-0.0839974
0.102892
-0.0905141
0.0954593
-0.0963148
0.0866075
-0.101303
0.076365
-0.105387
0.0647784
-0.10848
0.0519143
-0.110504
0.0378597
-0.111387
0.0227231
-0.111072
0.00663471
-0.109508
-0.0102533
-0.10666
-0.0277676
-0.102503
-0.0457153
-0.0970268
-0.0638869
-0.0902402
-0.0820574
-0.0821678
-0.0999886
-0.0728526
-0.117432
-0.0623547
-0.134132
-0.0507518
-0.149828
-0.0381388
-0.164264
-0.0246278
-0.177188
-0.0103504
-0.188359
0.00453831
-0.197553
0.0198615
-0.20456
0.0354219