/*--------------------------------*- C++ -*----------------------------------*\
| =========                 |                                                 |
| \\      /  F ield         | OpenFOAM: The Open Source CFD Toolbox           |
|  \\    /   O peration     | Version:  5.x                                   |
|   \\  /    A nd           | Web:      www.OpenFOAM.org                      |
|    \\/     M anipulation  |                                                 |
\*---------------------------------------------------------------------------*/
/*   Windows 32 and 64 bit porting by blueCAPE: http://www.bluecape.com.pt   *\
|  Based on Windows porting (2.0.x v4) by Symscape: http://www.symscape.com   |
\*---------------------------------------------------------------------------*/
FoamFile
{
    version     2.0;
    format      ascii;
    class       volVectorField;
    location    "5000";
    object      U;
}
// * * * * * * * * * * * * * * * * * * * * * * * * * * * * * * * * * * * * * //

dimensions      [0 1 -1 0 0 0 0];

internalField   nonuniform List<vector> 
4000
(
(-1.08168 1.36545 -3.42321e-017)
(6.094 -8.42455 0)
(18.3022 -9.87959 0)
(28.8369 -8.4152 0)
(36.8004 -5.82733 0)
(41.3448 -2.85162 0)
(42.4592 0.206004 6.90528e-018)
(40.3785 2.91634 0)
(35.4409 5.1115 0)
(28.0875 6.73188 5.99546e-018)
(18.8021 7.84556 0)
(7.84299 8.88197 0)
(-4.63651 9.93186 5.45481e-018)
(-18.3663 10.9151 0)
(-33.1563 12.0011 5.1746e-018)
(-48.7958 12.7164 5.04986e-018)
(-64.853 12.8897 4.93285e-018)
(-80.922 12.809 4.82156e-018)
(-96.7279 12.5056 4.71457e-018)
(-111.981 11.9856 4.61089e-018)
(-126.41 11.2589 4.50979e-018)
(-139.757 10.3379 4.41073e-018)
(-151.785 9.2373 0)
(-162.279 7.97755 4.21745e-018)
(-171.054 6.5722 4.12293e-018)
(-177.914 5.05086 4.02971e-018)
(-182.772 3.43486 3.93796e-018)
(-185.464 1.54424 3.84828e-018)
(-185.71 -0.651148 3.76076e-018)
(-183.482 -2.76688 3.67515e-018)
(-178.764 -4.75304 0)
(-171.546 -6.77242 3.51198e-018)
(-161.763 -8.84412 3.43554e-018)
(-149.377 -10.9567 3.36319e-018)
(-134.359 -13.1062 3.29545e-018)
(-116.7 -15.2914 3.2329e-018)
(-96.3812 -17.4746 3.17599e-018)
(-73.4949 -19.2094 3.12451e-018)
(-48.5212 -20.1755 3.07889e-018)
(-21.5666 -21.2939 0)
(7.58682 -22.9725 3.01019e-018)
(38.837 -24.6354 2.98496e-018)
(72.1428 -27.1557 2.96941e-018)
(107.659 -29.3506 2.96345e-018)
(144.859 -30.3977 2.96631e-018)
(183.053 -31.1158 2.97943e-018)
(221.952 -31.5454 3.00352e-018)
(261.11 -31.629 0)
(300.036 -31.3133 3.08559e-018)
(338.179 -30.5468 3.1438e-018)
(374.931 -29.2841 3.2134e-018)
(409.634 -27.4841 3.29416e-018)
(441.585 -25.1167 3.38572e-018)
(470.063 -22.1594 3.48751e-018)
(494.295 -18.5958 3.59887e-018)
(513.501 -14.4523 3.71906e-018)
(527.056 -9.6697 0)
(534.009 -3.61654 3.97923e-018)
(533.156 3.66922 4.11531e-018)
(523.997 10.9261 4.25479e-018)
(506.116 18.1225 4.39576e-018)
(479.082 25.7676 4.53536e-018)
(442.397 33.8231 4.67123e-018)
(395.694 42.2013 4.80103e-018)
(338.818 50.8387 0)
(271.331 59.3066 5.03337e-018)
(194.707 64.4339 5.13585e-018)
(110.307 68.2474 5.2225e-018)
(17.5924 74.5085 5.28093e-018)
(-83.3097 80.6521 5.30167e-018)
(-191.778 88.4117 5.28289e-018)
(-307.849 96.476 5.23348e-018)
(-430.243 101.312 5.15704e-018)
(-556.28 103.497 5.0521e-018)
(-684.112 104.32 4.91588e-018)
(-812.052 103.76 4.74767e-018)
(-938.209 101.698 4.54753e-018)
(-1060.58 98.034 4.31594e-018)
(-1177.08 92.7007 4.0538e-018)
(-1285.57 85.6593 3.76241e-018)
(-1383.86 76.9173 3.44342e-018)
(-1469.85 66.4821 0)
(-1541.34 54.4639 2.73142e-018)
(-1596.58 40.9895 2.34356e-018)
(-1633.6 25.4923 1.94035e-018)
(-1649.88 6.62466 1.52707e-018)
(-1643.39 -14.4093 1.10603e-018)
(-1612.98 -34.6862 6.79662e-019)
(-1558.44 -54.458 2.53735e-019)
(-1479.22 -74.858 -1.64596e-019)
(-1374.83 -95.6357 0)
(-1245.21 -116.517 -9.55318e-019)
(-1090.7 -137.262 -1.3158e-018)
(-912.021 -157.453 -1.64532e-018)
(-710.233 -174.287 -1.9437e-018)
(-490.705 -181.795 -2.21071e-018)
(-257.132 -187.77 -2.42688e-018)
(-8.36337 -199.002 -2.57406e-018)
(253.354 -207.892 -2.65044e-018)
(525.753 -224.015 -2.64409e-018)
(809.939 -236.977 -2.57248e-018)
(1099.74 -238.469 -2.44921e-018)
(1388.19 -236.134 -2.26519e-018)
(1672.24 -230.998 -2.0183e-018)
(1947.99 -222.965 -1.71055e-018)
(2211.67 -211.99 -1.34456e-018)
(2459.51 -198.088 -9.23646e-019)
(2687.87 -181.339 -4.51704e-019)
(2893.27 -161.863 6.68645e-020)
(3072.4 -139.899 6.27368e-019)
(3222.48 -115.589 1.22421e-018)
(3340.32 -89.3611 1.85296e-018)
(3424.42 -61.4874 2.50731e-018)
(3472.41 -29.4784 3.17519e-018)
(3479.8 7.8742 3.84913e-018)
(3445.92 44.3391 4.52946e-018)
(3370.77 78.2357 5.21037e-018)
(3254.8 111.853 5.88114e-018)
(3097.76 145.719 6.53317e-018)
(2899.83 179.471 7.15896e-018)
(2661.65 212.803 7.75089e-018)
(2384.22 245.481 8.30129e-018)
(2068.97 277.314 8.8026e-018)
(1717.78 307.981 9.24766e-018)
(1332.02 333.747 9.63839e-018)
(921.845 341.956 9.97937e-018)
(492.681 346.342 1.02405e-017)
(43.1982 361.973 1.03786e-017)
(-424.391 375.218 1.0375e-017)
(-908.099 400.124 1.02271e-017)
(-1408.86 421.738 9.98041e-018)
(-1919.18 425.176 9.65828e-018)
(-2427.08 420.905 9.24921e-018)
(-2927.81 412.28 8.74675e-018)
(-3415.53 399.186 8.1522e-018)
(-3884.34 381.402 7.46798e-018)
(-4328.16 358.757 6.69754e-018)
(-4740.88 331.191 5.84507e-018)
(-5116.38 298.739 4.91552e-018)
(-5448.69 261.541 3.91457e-018)
(-5732.09 219.816 2.84883e-018)
(-5961.09 173.992 1.72527e-018)
(-6131.04 124.305 5.52673e-019)
(-6236.78 67.5201 -6.54239e-019)
(-6271.64 0.924304 -1.88159e-018)
(-6230.72 -68.0964 -3.12487e-018)
(-6113.08 -133.112 -4.3783e-018)
(-5918.86 -196.793 -5.62402e-018)
(-5647.22 -261.417 -6.84374e-018)
(-5297.81 -326.181 -8.02241e-018)
(-4871.44 -390.251 -9.14444e-018)
(-4369.98 -452.927 -1.01936e-017)
(-3796.26 -513.579 -1.11536e-017)
(-3154.66 -571.573 -1.20078e-017)
(-2447.89 -622.178 -1.27528e-017)
(-1693.83 -636.804 -1.34068e-017)
(-910.243 -640.511 -1.39081e-017)
(-91.5874 -667.218 -1.41656e-017)
(755.143 -686.311 -1.41542e-017)
(1621.48 -721.147 -1.38661e-017)
(2508.97 -751.614 -1.33793e-017)
(3401.48 -749.054 -1.27444e-017)
(4275.85 -727.387 -1.19527e-017)
(5119.5 -695.69 -1.0996e-017)
(5920.15 -654.484 -9.88372e-018)
(6665.54 -603.696 -8.62932e-018)
(7343.68 -543.479 -7.2482e-018)
(7943.08 -474.266 -5.75731e-018)
(8453.03 -396.755 -4.17475e-018)
(8863.85 -311.986 -2.51928e-018)
(9167.4 -221.077 -8.10749e-019)
(9355.97 -119.406 9.23035e-019)
(9420.02 -2.14923 2.65349e-018)
(9351.85 118.76 4.36839e-018)
(9152.2 230.137 6.06183e-018)
(8824.77 335.432 7.70769e-018)
(8372.16 438.946 9.27898e-018)
(7797.67 539.44 1.07565e-017)
(7106.81 635.248 1.21227e-017)
(6307.03 725.051 1.33606e-017)
(5407.4 807.752 1.44546e-017)
(4419.47 882.559 1.53888e-017)
(3351.14 942.45 1.61673e-017)
(2235.05 949.723 1.68152e-017)
(1093.69 937.618 1.72634e-017)
(-68.2598 955.28 1.73335e-017)
(-1243.54 963.622 1.69704e-017)
(-2421.08 987.914 1.62514e-017)
(-3592.01 1002.32 1.52997e-017)
(-4736.5 968.097 1.41849e-017)
(-5817.33 901.913 1.29133e-017)
(-6811.54 816.535 1.14855e-017)
(-7694.82 709.139 9.93367e-018)
(-8437.37 573.523 8.30652e-018)
(-9001.9 395.68 6.67848e-018)
(-9334.52 133.717 5.17965e-018)
(-9345.03 -235.017 3.91573e-018)
(-8950.55 -633.316 2.9704e-018)
(-8423.1 -994.089 3.36568e-018)
(-6666.78 -801.632 1.51096e-018)
(8.19295 -5.28746 -9.45033e-018)
(13.8474 -13.9136 0)
(20.0483 -14.6771 0)
(24.4122 -11.9299 0)
(27.1997 -7.80143 0)
(28.1665 -3.27594 0)
(27.2903 1.16413 1.3765e-018)
(24.5729 5.28494 0)
(20.0539 8.97447 0)
(13.8047 12.1895 1.17297e-018)
(5.92254 14.9637 0)
(-3.40092 17.374 0)
(-13.9167 19.4085 1.05363e-018)
(-25.3839 21.05 0)
(-37.5161 22.3112 9.94512e-019)
(-50.0591 23.1322 9.68934e-019)
(-62.8341 23.4514 9.45628e-019)
(-75.6218 23.2993 9.24077e-019)
(-88.165 22.7069 9.03969e-019)
(-100.219 21.6955 8.8507e-019)
(-111.553 20.2889 8.67196e-019)
(-121.955 18.5135 8.502e-019)
(-131.224 16.3989 0)
(-139.178 13.9771 8.18421e-019)
(-145.653 11.2804 8.03496e-019)
(-150.493 8.34618 7.89152e-019)
(-153.554 5.19723 7.75376e-019)
(-154.728 1.82424 7.62313e-019)
(-153.988 -1.72626 7.49957e-019)
(-151.262 -5.38174 7.38072e-019)
(-146.433 -9.11253 0)
(-139.445 -12.9148 7.15902e-019)
(-130.285 -16.777 7.0584e-019)
(-118.947 -20.6775 6.96543e-019)
(-105.443 -24.5904 6.88067e-019)
(-89.8073 -28.4811 6.80458e-019)
(-72.1226 -32.2842 6.73735e-019)
(-52.4152 -35.8902 6.67632e-019)
(-30.6035 -39.2893 6.62136e-019)
(-6.72334 -42.6292 0)
(18.9978 -45.869 6.55645e-019)
(46.4033 -48.9143 6.54683e-019)
(75.2133 -51.7831 6.55782e-019)
(105.102 -54.3369 6.5822e-019)
(135.983 -56.2938 6.61332e-019)
(167.662 -57.6307 6.65598e-019)
(199.752 -58.321 6.71077e-019)
(231.837 -58.2922 0)
(263.474 -57.464 6.85517e-019)
(294.182 -55.7537 6.94339e-019)
(323.442 -53.0841 7.04092e-019)
(350.697 -49.3855 7.14647e-019)
(375.36 -44.6008 7.2586e-019)
(396.817 -38.686 7.3756e-019)
(414.436 -31.6173 7.49552e-019)
(427.549 -23.3938 7.61643e-019)
(435.48 -13.9766 0)
(437.656 -3.29624 7.84553e-019)
(433.689 8.52412 7.94588e-019)
(423.039 21.2518 8.0424e-019)
(405.066 34.7665 8.13311e-019)
(379.353 48.9904 8.21219e-019)
(345.662 63.7782 8.27702e-019)
(303.847 78.9185 8.32601e-019)
(253.954 94.1372 0)
(196.216 108.944 8.37346e-019)
(130.436 122.821 8.39125e-019)
(56.2854 136.16 8.38771e-019)
(-25.3825 148.99 8.33175e-019)
(-113.654 160.829 8.23645e-019)
(-207.622 171.522 8.09072e-019)
(-305.845 180.808 7.90344e-019)
(-407.451 187.788 7.7008e-019)
(-511.649 192.04 7.48064e-019)
(-617.067 193.54 7.23542e-019)
(-722.034 192.175 6.96467e-019)
(-824.836 187.789 6.66924e-019)
(-923.702 180.241 6.35062e-019)
(-1016.81 169.428 6.0109e-019)
(-1102.32 155.293 5.65258e-019)
(-1178.35 137.833 5.27848e-019)
(-1243.08 117.094 0)
(-1294.69 93.2012 4.49748e-019)
(-1331.39 66.2847 4.09861e-019)
(-1351.53 36.3636 3.70568e-019)
(-1354.02 3.65604 3.33103e-019)
(-1338.1 -31.2952 2.9704e-019)
(-1302.63 -67.7657 2.61113e-019)
(-1246.55 -105.3 2.25941e-019)
(-1169.47 -143.558 1.92802e-019)
(-1071.46 -182.031 0)
(-952.899 -220.107 1.3452e-019)
(-814.57 -257.088 1.10011e-019)
(-657.828 -292.085 8.87587e-020)
(-484.016 -323.797 6.90703e-020)
(-293.415 -351.406 4.8593e-020)
(-86.9434 -376.235 3.44225e-020)
(132.17 -398.059 3.09102e-020)
(361.263 -415.861 3.46267e-020)
(596.725 -430 5.1175e-020)
(834.434 -439.649 7.41532e-020)
(1072.92 -442.443 9.67183e-020)
(1310.17 -438.664 1.23237e-019)
(1542.59 -428.756 1.54373e-019)
(1766.68 -412.831 1.90043e-019)
(1979.17 -390.991 2.30055e-019)
(2176.88 -363.392 2.74066e-019)
(2356.78 -330.259 3.21645e-019)
(2516.03 -291.889 3.72275e-019)
(2651.94 -248.659 4.25442e-019)
(2762.09 -200.977 4.80419e-019)
(2844.15 -149.386 5.36585e-019)
(2896 -94.3077 5.93123e-019)
(2916 -35.6474 6.47364e-019)
(2903.92 25.8767 6.98026e-019)
(2859.08 88.8512 7.48417e-019)
(2779.99 152.445 7.98841e-019)
(2666.09 216.291 8.46996e-019)
(2517.71 279.959 8.91565e-019)
(2335.47 342.842 9.31762e-019)
(2120.33 404.278 9.66922e-019)
(1873.62 463.574 9.96525e-019)
(1597.15 519.946 1.0203e-018)
(1293.53 572.342 1.03814e-018)
(965.331 618.913 1.05257e-018)
(612.921 658.46 1.06943e-018)
(236.879 693.819 1.07647e-018)
(-157.672 725.111 1.06366e-018)
(-566.438 750.806 1.03796e-018)
(-984.168 771.409 9.91745e-019)
(-1404.46 785.816 9.34364e-019)
(-1825.56 790.053 8.77929e-019)
(-2244.96 784.016 8.16597e-019)
(-2657.45 768.459 7.48546e-019)
(-3057.56 743.425 6.73743e-019)
(-3440.03 708.816 5.92418e-019)
(-3799.65 664.55 5.0508e-019)
(-4131.28 610.638 4.12366e-019)
(-4429.85 547.209 3.15039e-019)
(-4690.4 474.526 2.1395e-019)
(-4908.18 392.98 1.10106e-019)
(-5078.56 303.097 4.59057e-021)
(-5197.02 205.348 -1.0118e-019)
(-5259.83 99.9311 -2.03633e-019)
(-5265.05 -12.3005 -3.00137e-019)
(-5210.99 -129.301 -3.9408e-019)
(-5094.59 -249.071 -4.8813e-019)
(-4913.57 -370.561 -5.79246e-019)
(-4667.54 -492.781 -6.64282e-019)
(-4357.19 -614.296 -7.41801e-019)
(-3983.87 -733.46 -8.10585e-019)
(-3549.91 -848.503 -8.69634e-019)
(-3058.67 -957.468 -9.18412e-019)
(-2515.19 -1058 -9.56683e-019)
(-1925.63 -1146.18 -9.8709e-019)
(-1291.59 -1218.32 -1.02435e-018)
(-614.253 -1279.69 -1.04623e-018)
(95.1389 -1330.74 -1.03103e-018)
(825.976 -1367.85 -9.93845e-019)
(1568.3 -1391.62 -9.22567e-019)
(2308.7 -1400.36 -8.30435e-019)
(3040.58 -1387.09 -7.39997e-019)
(3758.17 -1351.13 -6.45681e-019)
(4451.08 -1294.16 -5.43103e-019)
(5107.89 -1217.01 -4.32653e-019)
(5717.93 -1120.29 -3.15468e-019)
(6271.12 -1004.79 -1.9313e-019)
(6757.98 -871.572 -6.74752e-020)
(7169.7 -722.037 5.94905e-020)
(7498.22 -557.893 1.85661e-019)
(7736.09 -380.92 3.08746e-019)
(7877.51 -192.543 4.23321e-019)
(7920.14 5.28584 5.24442e-019)
(7862.96 208.333 6.17286e-019)
(7703.04 411.715 7.08936e-019)
(7438.57 612.635 7.95811e-019)
(7071.42 808.799 8.73357e-019)
(6605.77 997.39 9.40377e-019)
(6047.1 1175.36 9.9639e-019)
(5402.43 1339.67 1.0413e-018)
(4680.37 1487.3 1.0757e-018)
(3891.86 1615 1.10038e-018)
(3049.18 1717.55 1.11994e-018)
(2158.77 1790.75 1.15434e-018)
(1224.78 1842.19 1.17486e-018)
(265.61 1873.28 1.1524e-018)
(-699.872 1880.2 1.10669e-018)
(-1655.78 1863.72 1.02451e-018)
(-2583.35 1821.93 9.23585e-019)
(-3472.49 1745.36 8.35655e-019)
(-4314.65 1631.11 7.56851e-019)
(-5095.12 1478.63 6.82625e-019)
(-5796.64 1283.73 6.18757e-019)
(-6402.04 1038.28 5.74835e-019)
(-6893.87 729.406 5.65827e-019)
(-7261.15 340.224 6.20645e-019)
(-7503.58 -136.113 7.46291e-019)
(-7607.35 -674.212 8.64719e-019)
(-7666.42 -1222.27 1.16766e-018)
(-7211.63 -1443.27 7.78535e-019)
(9.86586 -15.8381 1.21038e-017)
(14.4322 -19.6349 0)
(18.3055 -18.0821 0)
(20.1501 -13.8356 0)
(20.7641 -8.36326 0)
(20.185 -2.45605 0)
(18.3943 3.4284 -1.33274e-018)
(15.346 9.01209 0)
(11.0155 14.1368 0)
(5.40833 18.7206 -1.12746e-018)
(-1.42876 22.7454 0)
(-9.36908 26.2322 0)
(-18.2337 29.1678 -1.01375e-018)
(-27.8371 31.5266 0)
(-37.9622 33.2842 -9.58585e-019)
(-48.3967 34.3781 -9.34631e-019)
(-58.9707 34.7723 -9.12577e-019)
(-69.5034 34.486 -8.91946e-019)
(-79.7927 33.5447 -8.72432e-019)
(-89.6392 31.9766 -8.53811e-019)
(-98.8508 29.8155 -8.35914e-019)
(-107.246 27.1 -8.18612e-019)
(-114.657 23.8729 0)
(-120.925 20.1802 -7.85449e-019)
(-125.911 16.0683 -7.6949e-019)
(-129.486 11.5843 -7.53903e-019)
(-131.532 6.76763 -7.387e-019)
(-131.965 1.64544 -7.24005e-019)
(-130.738 -3.72885 -2.13644e-018)
(-127.787 -9.27635 -6.96042e-019)
(-123.038 -14.9492 0)
(-116.449 -20.7229 -6.69923e-019)
(-108.002 -26.5678 -6.57803e-019)
(-97.6974 -32.4482 -6.46412e-019)
(-85.5489 -38.3219 -1.94222e-018)
(-71.5863 -44.1363 -6.26126e-019)
(-55.8559 -49.8225 -6.17359e-019)
(-38.3787 -55.2885 -6.09379e-019)
(-19.1373 -60.4964 -6.02225e-019)
(1.79544 -65.5 0)
(24.2378 -70.2799 -1.83656e-018)
(48.0297 -74.7398 -5.89676e-019)
(72.9456 -78.8145 -5.88986e-019)
(98.7123 -82.2945 -5.8984e-019)
(125.163 -84.9617 -5.91848e-019)
(152.103 -86.7308 -5.95371e-019)
(179.226 -87.5058 -1.86772e-018)
(206.182 -87.1751 0)
(232.589 -85.6217 -6.15609e-019)
(258.031 -82.7269 -6.25535e-019)
(282.06 -78.3795 -6.36968e-019)
(304.199 -72.4795 -6.49821e-019)
(323.947 -64.9439 -6.63985e-019)
(340.787 -55.7084 -6.79319e-019)
(354.189 -44.7315 -6.95659e-019)
(363.609 -31.9947 -7.12835e-019)
(368.513 -17.4859 0)
(368.445 -1.2116 -7.48263e-019)
(363.026 16.6922 -7.6576e-019)
(351.825 35.9757 -7.83329e-019)
(334.398 56.4384 -8.0065e-019)
(310.422 77.8967 -8.17159e-019)
(279.699 100.1 -8.32497e-019)
(242.12 122.727 -8.46352e-019)
(197.686 145.391 0)
(146.487 167.605 -8.68583e-019)
(88.4399 188.826 -8.77877e-019)
(23.5779 208.993 -8.84492e-019)
(-47.4359 228.064 -8.86298e-019)
(-123.858 245.541 -8.84137e-019)
(-204.876 261.068 -8.76944e-019)
(-289.354 274.022 -8.64996e-019)
(-376.341 283.579 -8.4982e-019)
(-464.979 289.264 -8.31112e-019)
(-554.121 290.811 -8.08194e-019)
(-642.399 287.955 -7.80915e-019)
(-728.35 280.455 -7.4927e-019)
(-810.44 268.107 -7.13326e-019)
(-887.089 250.765 -6.73229e-019)
(-956.693 228.353 -6.29195e-019)
(-1017.65 200.873 -5.81505e-019)
(-1068.37 168.406 0)
(-1107.35 131.119 -4.76718e-019)
(-1133.13 89.2386 3.91307e-019)
(-1144.43 43.0289 3.71614e-019)
(-1140.3 -7.10027 -3.0537e-019)
(-1119.99 -60.4151 -2.47616e-019)
(-1082.71 -115.997 -1.89455e-019)
(-1027.81 -173.089 -1.31792e-019)
(-955.04 -230.983 -7.59897e-020)
(-864.542 -288.84 3.07324e-019)
(-756.731 -345.717 2.67108e-020)
(-632.324 -400.58 7.2106e-020)
(-492.344 -452.294 1.12707e-019)
(-337.85 -499.586 1.49312e-019)
(-169.527 -541.492 1.8305e-019)
(11.2823 -578.216 2.67373e-019)
(201.979 -609.671 2.2334e-019)
(400.163 -634.95 2.29092e-019)
(602.991 -653.799 2.21755e-019)
(807.179 -664.77 2.05242e-019)
(1010.68 -666.422 1.83966e-019)
(1211.52 -658.757 3.38814e-019)
(1406.95 -641.885 1.17551e-019)
(1594.19 -615.92 7.20104e-020)
(1770.49 -581.041 1.86157e-020)
(1933.19 -537.512 -4.21656e-020)
(2079.74 -485.699 -1.09748e-019)
(2207.76 -426.066 -1.83436e-019)
(2315.04 -359.173 4.91541e-019)
(2399.55 -285.643 -3.45958e-019)
(2459.49 -206.176 -4.33054e-019)
(2493.22 -121.441 -5.22699e-019)
(2499.59 -31.9928 -6.12378e-019)
(2478.12 61.1987 -7.0067e-019)
(2428.23 156.61 6.14888e-019)
(2349.15 253.057 -8.77451e-019)
(2240.61 349.725 -9.63167e-019)
(2102.88 445.764 -1.04486e-018)
(1936.58 540.228 -1.12141e-018)
(1742.63 632.11 -1.19174e-018)
(1522.3 720.339 6.58812e-019)
(1277.15 803.754 -1.31e-018)
(1009.07 881.056 -1.35645e-018)
(719.927 950.689 -1.39567e-018)
(410.634 1011.44 -1.43097e-018)
(82.9039 1064.22 -1.45377e-018)
(-259.271 1109.55 5.72082e-019)
(-612.234 1146.23 -1.44698e-018)
(-971.92 1173.9 -1.41617e-018)
(-1333.43 1190.34 -1.37071e-018)
(-1693.84 1192.98 -1.31833e-018)
(-2050.5 1181.42 -1.25502e-018)
(-2399.46 1155.62 3.30858e-019)
(-2736.44 1115.43 -1.09075e-018)
(-3057.04 1060.73 -9.90049e-019)
(-3356.88 991.444 -8.77561e-019)
(-3631.62 907.651 -7.53969e-019)
(-3876.98 809.572 -6.20124e-019)
(-4088.83 697.606 2.21152e-020)
(-4263.19 572.327 -3.25864e-019)
(-4396.3 434.476 -1.67951e-019)
(-4484.69 284.897 -4.9469e-021)
(-4525.48 124.479 1.59865e-019)
(-4516.74 -45.3312 3.237e-019)
(-4456.75 -222.101 4.87661e-019)
(-4343.59 -403.308 -2.70467e-019)
(-4175.83 -587.008 8.14052e-019)
(-3953.2 -771.274 9.69695e-019)
(-3676.29 -953.848 1.11687e-018)
(-3346.43 -1132.24 1.25338e-018)
(-2965.72 -1303.77 1.37713e-018)
(-2537.08 -1465.51 -3.39119e-019)
(-2064.23 -1614.29 1.57917e-018)
(-1551.37 -1746.49 1.65682e-018)
(-1000.92 -1858.55 1.72806e-018)
(-416.498 -1951.5 1.77695e-018)
(193.262 -2026.22 1.78829e-018)
(820.034 -2079.78 -1.7931e-019)
(1455.41 -2111.18 1.72068e-018)
(2089.1 -2116.74 1.63997e-018)
(2713.77 -2091.76 1.54548e-018)
(3323.26 -2035.36 1.43336e-018)
(3909.48 -1948.05 1.30046e-018)
(4463.64 -1830.47 1.60998e-019)
(4977.09 -1683.51 9.76397e-019)
(5441.48 -1508.39 7.88996e-019)
(5848.99 -1306.77 5.87899e-019)
(6192.38 -1080.76 3.75905e-019)
(6465.17 -832.856 1.56025e-019)
(6661.68 -565.883 4.31419e-019)
(6777.58 -282.759 -2.91898e-019)
(6810.49 12.8693 -5.08761e-019)
(6759.14 315.569 -7.20137e-019)
(6622.06 619.465 -9.28349e-019)
(6398.74 919.921 -1.12871e-018)
(6090.8 1212.73 -1.31602e-018)
(5701.67 1493.43 4.43521e-019)
(5236.07 1757.49 -1.64081e-018)
(4700.07 2000.39 -1.77417e-018)
(4100.9 2217.69 -1.88623e-018)
(3446.98 2404.98 -1.97591e-018)
(2747.22 2557.58 -2.04597e-018)
(2008.14 2671.48 2.91644e-019)
(1237.43 2749 -2.1443e-018)
(449.227 2792.75 -2.1338e-018)
(-342.805 2800.3 -2.08996e-018)
(-1125.87 2771.08 -2.0033e-018)
(-1885.68 2701.11 -1.88544e-018)
(-2612.25 2584.37 1.83212e-019)
(-3298.14 2418.54 -1.61699e-018)
(-3934.25 2202.02 -1.46196e-018)
(-4511.23 1931.04 -1.2978e-018)
(-5021.37 1599.34 -1.13396e-018)
(-5459.62 1198.01 -9.85867e-019)
(-5826.95 716.769 5.83744e-019)
(-6131.63 151.979 -8.50673e-019)
(-6373.59 -481.732 -8.7156e-019)
(-6586.65 -1167.25 -1.25297e-018)
(-6581.94 -1637.46 -8.77077e-019)
(8.90529 -25.8112 -1.92505e-017)
(12.3379 -24.2084 0)
(15.0715 -20.15 0)
(15.8782 -14.4744 0)
(15.6015 -7.90045 0)
(14.3946 -0.953433 0)
(12.2854 5.99103 1.76989e-018)
(9.24432 12.6712 0)
(5.24361 18.9102 0)
(0.278185 24.592 1.46562e-018)
(-5.62056 29.6485 0)
(-12.3673 34.0401 0)
(-19.8356 37.7219 1.30229e-018)
(-27.881 40.6497 0)
(-36.338 42.7853 1.22628e-018)
(-45.0392 44.0835 1.19421e-018)
(-53.8316 44.5158 1.16518e-018)
(-62.5577 44.0877 1.13865e-018)
(-71.0521 42.8206 1.1142e-018)
(-79.1502 40.7448 1.09151e-018)
(-86.6909 37.9013 1.07033e-018)
(-93.5215 34.3382 1.05044e-018)
(-99.4984 30.1099 0)
(-104.489 25.2748 1.01393e-018)
(-108.374 19.8932 9.97095e-019)
(-111.044 14.0261 9.81101e-019)
(-112.407 7.73183 9.65907e-019)
(-112.388 1.06431 9.51509e-019)
(-110.935 -5.91183 1.87046e-018)
(-107.995 -13.1247 9.24972e-019)
(-103.516 -20.5155 0)
(-97.4662 -28.0363 9.01487e-019)
(-89.8314 -35.6389 8.90978e-019)
(-80.6109 -43.2724 8.81352e-019)
(-69.8176 -50.8805 1.72678e-018)
(-57.4749 -58.3998 8.64937e-019)
(-43.6162 -65.7589 8.58236e-019)
(-28.271 -72.8794 8.5257e-019)
(-11.467 -79.7053 8.48006e-019)
(6.71675 -86.2087 0)
(26.1405 -92.3211 1.65628e-018)
(46.653 -97.9322 8.42156e-019)
(68.0661 -102.924 8.42989e-019)
(90.1665 -107.114 8.45137e-019)
(112.77 -110.303 8.48442e-019)
(135.675 -112.341 8.52889e-019)
(158.62 -113.077 1.68719e-018)
(181.31 -112.359 0)
(203.417 -110.036 8.72469e-019)
(224.583 -105.958 8.80746e-019)
(244.425 -99.9833 8.89676e-019)
(262.536 -91.9895 8.99102e-019)
(278.492 -81.8734 9.08844e-019)
(291.857 -69.5575 9.18707e-019)
(302.187 -54.995 9.28478e-019)
(309.038 -38.1728 9.37942e-019)
(311.981 -19.1111 0)
(310.631 2.1236 9.54937e-019)
(304.644 25.3765 9.6196e-019)
(293.675 50.4139 9.67886e-019)
(277.398 76.9809 9.72515e-019)
(255.561 104.792 9.75615e-019)
(227.999 133.502 9.77008e-019)
(194.62 162.703 9.76554e-019)
(155.411 191.926 0)
(110.427 220.653 9.69715e-019)
(59.7163 248.354 9.63357e-019)
(3.45386 274.672 9.54515e-019)
(-57.8647 299.223 9.42691e-019)
(-123.619 321.438 9.28107e-019)
(-193.084 340.763 9.10638e-019)
(-265.374 356.538 8.9048e-019)
(-339.622 368.014 8.68175e-019)
(-414.964 374.6 8.43956e-019)
(-490.386 375.828 8.17902e-019)
(-564.73 371.295 7.90144e-019)
(-636.746 360.67 7.60905e-019)
(-705.12 343.682 7.30359e-019)
(-768.494 320.15 6.98758e-019)
(-825.49 289.986 6.66358e-019)
(-874.739 253.207 6.33439e-019)
(-914.902 209.942 0)
(-944.702 160.435 5.67281e-019)
(-962.954 105.046 3.62649e-021)
(-968.622 44.2478 2.23413e-020)
(-960.875 -21.3203 4.72434e-019)
(-939.042 -90.8072 4.43252e-019)
(-902.551 -163.212 4.15513e-019)
(-850.988 -237.516 3.89481e-019)
(-784.219 -312.665 3.65518e-019)
(-702.393 -387.51 -2.01021e-019)
(-605.912 -460.822 3.24841e-019)
(-495.411 -531.314 3.08514e-019)
(-371.734 -597.67 2.95056e-019)
(-235.843 -658.594 2.84454e-019)
(-88.7106 -713.017 2.76732e-019)
(68.2674 -760.364 2.34991e-019)
(233.059 -799.96 2.74891e-019)
(403.539 -830.878 2.81126e-019)
(577.352 -852.418 2.92751e-019)
(751.98 -863.545 3.08889e-019)
(925.376 -863.267 3.28033e-019)
(1095.56 -851.245 2.30252e-019)
(1260.28 -827.381 3.76095e-019)
(1417.22 -791.752 4.04698e-019)
(1564.1 -744.576 4.3607e-019)
(1698.68 -686.215 4.69897e-019)
(1818.84 -617.165 5.05806e-019)
(1922.59 -538.048 5.43365e-019)
(2008.1 -449.607 8.90832e-020)
(2073.71 -352.68 6.21473e-019)
(2117.96 -248.197 6.60917e-019)
(2139.61 -137.141 6.99836e-019)
(2137.76 -20.5299 7.37371e-019)
(2111.86 100.393 7.72894e-019)
(2061.46 224.153 -1.11096e-019)
(1986.16 349.371 8.37864e-019)
(1885.87 474.794 8.66244e-019)
(1760.86 599.171 8.91047e-019)
(1611.71 721.216 9.11737e-019)
(1439.26 839.602 9.27868e-019)
(1244.6 952.963 -3.10186e-019)
(1029.08 1059.89 9.45215e-019)
(794.209 1158.95 9.46079e-019)
(541.552 1248.74 9.41748e-019)
(272.514 1328.11 9.32455e-019)
(-10.9695 1396.78 9.1574e-019)
(-305.899 1454.22 -4.3375e-019)
(-609.148 1499.26 8.56799e-019)
(-917.339 1530.93 8.1477e-019)
(-1226.81 1547.64 7.65445e-019)
(-1534.62 1547.58 7.11468e-019)
(-1838 1529.84 6.52659e-019)
(-2133.65 1493.87 -3.96846e-019)
(-2418.04 1439.28 5.21703e-019)
(-2687.54 1365.86 4.50278e-019)
(-2938.46 1273.54 3.7555e-019)
(-3167.15 1162.44 2.98133e-019)
(-3370.03 1032.87 2.18731e-019)
(-3543.65 885.398 -1.88303e-019)
(-3684.69 720.802 5.71662e-020)
(-3790.1 540.119 -2.31969e-020)
(-3857.08 344.627 -1.01977e-019)
(-3883.31 135.864 -1.77991e-019)
(-3866.99 -84.1904 -2.50247e-019)
(-3806.61 -312.996 -3.18466e-019)
(-3700.83 -547.799 2.21856e-019)
(-3548.75 -785.889 -4.40786e-019)
(-3350.21 -1024.44 -4.9275e-019)
(-3105.74 -1260.4 -5.37328e-019)
(-2816.52 -1490.49 -5.7375e-019)
(-2484.37 -1711.26 -6.01432e-019)
(-2111.74 -1919.1 5.75313e-019)
(-1701.59 -2110.3 -6.29464e-019)
(-1257.3 -2281.17 -6.29644e-019)
(-782.022 -2428.43 -6.21787e-019)
(-279.89 -2550.64 -6.01692e-019)
(242.657 -2646.25 -5.66527e-019)
(778.753 -2712.5 7.59427e-019)
(1321.21 -2747.26 -4.56867e-019)
(1862.23 -2747.63 -3.84076e-019)
(2395.07 -2710.42 -3.04976e-019)
(2913.51 -2634.23 -2.2085e-019)
(3410.75 -2518.8 -1.32526e-019)
(3879.63 -2364.55 6.05289e-019)
(4313.07 -2172.49 5.14975e-020)
(4704.2 -1944.23 1.44339e-019)
(5046.57 -1681.96 2.35603e-019)
(5334.24 -1388.49 3.23623e-019)
(5561.98 -1067.19 4.06732e-019)
(5725.34 -721.964 1.55742e-019)
(5820.91 -357.203 5.51865e-019)
(5846.56 22.0129 6.10954e-019)
(5801.07 409.649 6.60739e-019)
(5683.71 799.274 7.02191e-019)
(5494.65 1184.76 7.35024e-019)
(5235.46 1560.13 7.58995e-019)
(4909.05 1919.41 -4.88574e-019)
(4519.47 2256.68 7.81796e-019)
(4071.87 2566.17 7.82203e-019)
(3572.34 2842.39 7.76949e-019)
(3027.71 3080.22 7.67569e-019)
(2445.26 3275.08 7.55675e-019)
(1831.87 3423.48 -8.22306e-019)
(1195.45 3524.8 7.28266e-019)
(546.586 3578.64 7.06162e-019)
(-103.929 3583.28 6.80947e-019)
(-745.532 3537.64 6.52055e-019)
(-1367.65 3439.63 6.24118e-019)
(-1961.95 3286.22 -6.67618e-019)
(-2521.93 3075.68 5.97819e-019)
(-3041.56 2806.61 6.07433e-019)
(-3515.93 2476.72 6.39986e-019)
(-3942.29 2082.46 7.04112e-019)
(-4320.9 1619.05 8.10697e-019)
(-4656.41 1081.62 -4.02042e-020)
(-4956.96 468.79 1.20945e-018)
(-5230.22 -211.568 1.56552e-018)
(-5481.18 -954.446 2.09341e-018)
(-5707.53 -1521.75 3.18605e-018)
(6.99071 -33.6241 1.66105e-017)
(9.53749 -27.6868 0)
(11.5555 -21.4112 0)
(11.9087 -14.4526 0)
(11.3079 -6.95303 0)
(9.93452 0.808006 0)
(7.84838 8.55581 -1.37534e-018)
(5.04482 16.0602 0)
(1.50845 23.1388 2.36493e-018)
(-2.76369 29.6509 -1.12298e-018)
(-7.74775 35.4907 2.13491e-018)
(-13.3833 40.5773 2.04924e-018)
(-19.5788 44.8383 -9.93221e-019)
(-26.2235 48.2112 0)
(-33.1896 50.6435 -9.34143e-019)
(-40.345 52.0927 -9.09427e-019)
(-47.5598 52.5314 -8.87132e-019)
(-54.6999 51.9603 -8.66817e-019)
(-61.6301 50.3993 -8.48145e-019)
(-68.2147 47.8796 -8.30846e-019)
(-74.3203 44.4473 -8.14716e-019)
(-79.8201 40.1579 -7.99587e-019)
(-84.5944 35.0747 0)
(-88.5329 29.2666 -7.71846e-019)
(-91.5355 22.8055 -7.59059e-019)
(-93.5131 15.7649 -7.46916e-019)
(-94.3885 8.21727 -7.35381e-019)
(-94.0989 0.233958 -7.24451e-019)
(-92.5951 -8.11039 -7.14094e-019)
(-89.8332 -16.7397 -7.043e-019)
(-85.776 -25.5848 0)
(-80.3988 -34.5825 -6.86462e-019)
(-73.69 -43.6707 -6.78479e-019)
(-65.6496 -52.7858 -6.71167e-019)
(-56.2888 -61.8606 -6.64561e-019)
(-45.6278 -70.8223 -6.58696e-019)
(-33.6956 -79.5927 -6.53605e-019)
(-20.5264 -88.089 -6.49302e-019)
(-6.1641 -96.2332 -6.45834e-019)
(9.31492 -103.951 0)
(25.7976 -111.143 -6.41867e-019)
(43.1525 -117.677 -6.41429e-019)
(61.2232 -123.405 -6.42084e-019)
(79.8357 -128.141 -6.43738e-019)
(98.8163 -131.683 -6.46272e-019)
(117.977 -133.849 -6.49675e-019)
(137.095 -134.45 -6.53911e-019)
(155.918 -133.302 0)
(174.171 -130.228 -6.64622e-019)
(191.554 -125.047 -6.70933e-019)
(207.743 -117.598 -6.77739e-019)
(222.399 -107.737 -6.84919e-019)
(235.167 -95.3476 -6.92336e-019)
(245.686 -80.3443 -6.99841e-019)
(253.59 -62.6787 -7.07273e-019)
(258.519 -42.3455 -7.14466e-019)
(260.125 -19.388 1.42386e-018)
(258.088 6.09284 -7.27352e-019)
(252.117 33.9194 -7.32662e-019)
(241.934 63.8417 -7.37124e-019)
(227.292 95.5587 -7.40589e-019)
(207.996 128.717 -7.42883e-019)
(183.911 162.9 -7.4387e-019)
(154.968 197.63 -7.43448e-019)
(121.157 232.37 0)
(82.5337 266.543 -7.38084e-019)
(39.1992 299.553 -7.33166e-019)
(-8.63402 330.85 -7.2636e-019)
(-60.5676 359.859 6.19641e-019)
(-116.088 385.911 -7.062e-019)
(-174.584 408.319 -6.92895e-019)
(-235.338 426.341 -6.77553e-019)
(-297.594 439.214 -6.60584e-019)
(-360.568 446.272 -6.42169e-019)
(-423.381 446.926 -6.22365e-019)
(-485.053 440.667 -6.01271e-019)
(-544.53 427.093 -5.79056e-019)
(-600.708 405.873 -5.5585e-019)
(-652.442 376.797 -5.31843e-019)
(-698.575 339.77 -5.07229e-019)
(-737.961 294.829 -4.82219e-019)
(-769.485 242.149 9.06485e-019)
(-792.092 182.054 -4.31948e-019)
(-804.814 115.017 -4.07184e-019)
(-806.805 41.6673 -3.8306e-019)
(-797.367 -37.1877 -3.5983e-019)
(-775.944 -120.554 -3.37626e-019)
(-742.103 -207.287 -3.16508e-019)
(-695.57 -296.156 -2.96683e-019)
(-636.285 -385.851 -2.78429e-019)
(-564.403 -474.976 0)
(-480.292 -562.073 -2.47435e-019)
(-384.51 -645.644 -2.3499e-019)
(-277.792 -724.199 4.45335e-019)
(-161.017 -796.306 -2.16641e-019)
(-35.1917 -860.69 -2.10738e-019)
(98.3921 -916.328 -2.0811e-019)
(238.083 -962.226 -2.09333e-019)
(382.086 -997.341 -2.1409e-019)
(528.462 -1020.77 -2.22949e-019)
(675.187 -1031.56 -2.35244e-019)
(820.43 -1028.93 -2.49825e-019)
(962.41 -1012.45 -2.66917e-019)
(1099.23 -981.935 -2.86424e-019)
(1228.96 -937.444 -3.08199e-019)
(1349.72 -879.235 -3.32079e-019)
(1459.67 -807.748 -3.57823e-019)
(1557.06 -723.589 -3.85147e-019)
(1640.26 -627.52 -4.13721e-019)
(1707.78 -520.444 -4.43188e-019)
(1758.27 -403.39 -4.73127e-019)
(1790.58 -277.494 -5.03115e-019)
(1803.74 -143.991 -5.32696e-019)
(1797.03 -4.19901 -5.61209e-019)
(1769.96 140.416 -5.88168e-019)
(1722.2 288.258 -6.13675e-019)
(1653.53 437.744 -6.37429e-019)
(1563.98 587.325 -6.58919e-019)
(1453.82 735.455 -6.77683e-019)
(1323.57 880.574 -6.93318e-019)
(1173.95 1021.1 -7.05485e-019)
(1005.93 1155.44 -7.13924e-019)
(820.621 1281.99 -7.1849e-019)
(619.298 1399.18 -7.19066e-019)
(403.352 1505.52 -7.15705e-019)
(174.243 1599.68 -7.08582e-019)
(-66.2059 1680.71 -6.95835e-019)
(-315.618 1747.58 -6.76407e-019)
(-571.419 1798.99 -6.51112e-019)
(-830.845 1833.66 -6.19231e-019)