/*--------------------------------*- C++ -*----------------------------------*\
| =========                 |                                                 |
| \\      /  F ield         | OpenFOAM: The Open Source CFD Toolbox           |
|  \\    /   O peration     | Version:  5.x                                   |
|   \\  /    A nd           | Web:      www.OpenFOAM.org                      |
|    \\/     M anipulation  |                                                 |
\*---------------------------------------------------------------------------*/
/*   Windows 32 and 64 bit porting by blueCAPE: http://www.bluecape.com.pt   *\
|  Based on Windows porting (2.0.x v4) by Symscape: http://www.symscape.com   |
\*---------------------------------------------------------------------------*/
FoamFile
{
    version     2.0;
    format      ascii;
    class       volScalarField;
    location    "2000";
    object      omega;
}
// * * * * * * * * * * * * * * * * * * * * * * * * * * * * * * * * * * * * * //

dimensions      [0 0 -1 0 0 0 0];

internalField   nonuniform List<scalar> 
4000
(
191.904
191.712
191.521
191.33
191.139
190.948
190.758
190.568
190.378
190.189
190
189.811
189.622
189.434
189.246
189.058
188.871
188.684
188.497
188.31
188.124
187.938
187.752
187.566
187.381
187.196
187.011
186.827
186.643
186.459
186.275
186.092
185.909
185.726
185.544
185.361
185.179
184.998
184.816
184.635
184.454
184.273
184.093
183.913
183.733
183.553
183.374
183.195
183.016
182.838
182.659
182.481
182.303
182.126
181.949
181.772
181.595
181.418
181.242
181.066
180.891
180.715
180.54
180.365
180.19
180.016
179.842
179.668
179.494
179.321
179.147
178.975
178.802
178.629
178.457
178.285
178.114
177.942
177.771
177.6
177.429
177.259
177.089
176.919
176.749
176.58
176.41
176.242
176.073
175.904
175.736
175.568
175.4
175.233
175.065
174.898
174.732
174.565
174.399
174.233
174.067
173.901
173.736
173.571
173.406
173.241
173.077
172.912
172.748
172.585
172.421
172.258
172.095
171.932
171.769
171.607
171.445
171.283
171.121
170.96
170.799
170.638
170.477
170.316
170.156
169.996
169.836
169.677
169.517
169.358
169.199
169.04
168.882
168.724
168.566
168.408
168.25
168.093
167.936
167.779
167.622
167.465
167.309
167.153
166.997
166.842
166.686
166.531
166.376
166.221
166.067
165.912
165.758
165.604
165.451
165.297
165.144
164.991
164.838
164.685
164.533
164.381
164.229
164.077
163.925
163.774
163.623
163.472
163.321
163.171
163.02
162.87
162.72
162.571
162.421
162.272
162.123
161.974
161.825
161.677
161.528
161.38
161.233
161.085
160.937
160.79
160.643
160.496
160.35
160.203
160.057
159.911
159.765
159.619
159.474
159.329
159.184
159.039
158.894
158.75
7.09424
12.8326
17.0335
20.3903
23.1972
25.6078
27.7125
29.5727
31.2298
32.7153
34.0545
35.2675
36.3702
37.3757
38.2948
39.1367
39.9094
40.62
41.2748
41.8789
42.4375
42.9546
43.4341
43.8796
44.294
44.6803
45.041
45.3784
45.6947
45.9919
46.2717
46.5358
46.7856
47.0227
47.2483
47.4636
47.6696
47.8675
48.0581
48.2422
48.4207
48.5943
48.7636
48.9294
49.0921
49.2522
49.4098
49.5655
49.7196
49.8728
50.0252
50.1774
50.3294
50.4818
50.6345
50.788
50.9423
51.0975
51.2539
51.4114
51.5702
51.7303
51.8918
52.0545
52.2185
52.3838
52.5502
52.7177
52.8862
53.0555
53.2254
53.3958
53.5665
53.7373
53.908
54.0782
54.2479
54.4169
54.585
54.7511
54.9135
55.0719
55.226
55.3752
55.5192
55.6574
55.7893
55.9145
56.0323
56.1423
56.244
56.3369
56.4205
56.4944
56.5582
56.6115
56.6539
56.6852
56.7053
56.714
56.7112
56.6971
56.6717
56.6352
56.5881
56.5307
56.4636
56.3874
56.3028
56.2106
56.1116
56.0068
55.897
55.7832
55.6664
55.5475
55.4287
55.3156
55.2096
55.1094
55.0148
54.9256
54.8417
54.763
54.6893
54.6203
54.5559
54.4956
54.4394
54.3869
54.3378
54.2918
54.2487
54.2081
54.1699
54.1337
54.0993
54.0666
54.0351
54.0049
53.9756
53.9472
53.9194
53.8922
53.8654
53.8389
53.8126
53.7865
53.7604
53.7344
53.7083
53.682
53.6557
53.6291
53.6023
53.5752
53.5478
53.5201
53.492
53.4636
53.4347
53.4054
53.3757
53.3455
53.3148
53.2836
53.2519
53.2197
53.187
53.1538
53.12
53.0856
53.0508
53.0153
52.9794
52.9429
52.9058
52.8682
52.8301
52.7914
52.7522
52.7125
52.6723
52.6316
52.5904
52.5487
52.5066
52.4641
52.4213
52.3781
52.3346
52.291
52.2473
52.2035
52.16
52.1165
52.0738
52.031
51.9906
51.9523
1.71405
2.9214
4.04599
5.07149
6.01214
6.88183
7.69088
8.44722
9.15673
9.82424
10.4538
11.0488
11.612
12.1458
12.6522
13.133
13.5898
14.0242
14.4377
14.8313
15.2064
15.5641
15.9052
16.2307
16.5416
16.8386
17.1225
17.3941
17.654
17.9029
18.1414
18.3701
18.5895
18.8001
19.0026
19.1973
19.3846
19.5651
19.7392
19.9071
20.0693
20.226
20.3777
20.5246
20.6671
20.8052
20.9395
21.0699
21.1969
21.3205
21.4411
21.5587
21.6735
21.7857
21.8955
22.0029
22.1082
22.2113
22.3124
22.4117
22.509
22.6046
22.6985
22.7907
22.8813
22.9702
23.0575
23.1432
23.2273
23.3098
23.3906
23.4697
23.547
23.6226
23.6963
23.7681
23.8379
23.9057
23.9714
24.0345
24.0944
24.1512
24.2047
24.2549
24.3016
24.3448
24.3844
24.4202
24.4522
24.4801
24.5041
24.5238
24.5393
24.5505
24.5573
24.5598
24.5579
24.5517
24.5413
24.5267
24.5081
24.4857
24.4595
24.43
24.3973
24.3618
24.3237
24.2835
24.2414
24.1979
24.1533
24.1081
24.0625
24.017
23.9719
23.9274
23.8841
23.8424
23.8029
23.7666
23.7335
23.7034
23.6764
23.6523
23.6308
23.6119
23.5955
23.5815
23.5696
23.5598
23.5518
23.5456
23.541
23.5377
23.5358
23.5351
23.5353
23.5364
23.5383
23.5409
23.544
23.5476
23.5516
23.5559
23.5604
23.565
23.5698
23.5746
23.5794
23.5842
23.5889
23.5935
23.598
23.6023
23.6063
23.6102
23.6138
23.6171
23.6202
23.6229
23.6253
23.6274
23.6292
23.6306
23.6316
23.6323
23.6326
23.6325
23.632
23.6312
23.63
23.6283
23.6263
23.6239
23.6211
23.6178
23.6141
23.6099
23.6053
23.6003
23.5949
23.589
23.5828
23.5762
23.5692
23.5618
23.5541
23.5461
23.5378
23.5292
23.5203
23.5112
23.502
23.4926
23.4832
23.4739
23.4647
23.4558
23.4472
23.4407
1.18432
1.55842
1.95886
2.35883
2.74878
3.12575
3.48915
3.83927
4.17668
4.50206
4.81604
5.11925
5.41224
5.69548
5.96939
6.23435
6.49076
6.73897
6.97929
7.21202
7.43745
7.65585
7.86745
8.07252
8.27128
8.46396
8.65077
8.83192
9.0076
9.17802
9.34336
9.5038
9.6595
9.81064
9.95738
10.0999
10.2383
10.3728
10.5034
10.6304
10.7539
10.8739
10.9906
11.1041
11.2144
11.3218
11.4262
11.5278
11.6266
11.7228
11.8164
11.9075
11.9961
12.0823
12.1661
12.2477
12.327
12.4041
12.479
12.5517
12.6224
12.6909
12.7574
12.8218
12.8841
12.9444
13.0027
13.0589
13.1131
13.1653
13.2154
13.2634
13.3094
13.3533
13.3951
13.4348
13.4724
13.5079
13.5412
13.5723
13.6013
13.628
13.6525
13.6746
13.6945
13.712
13.7272
13.7401
13.7507
13.7589
13.7647
13.7683
13.7695
13.7684
13.7652
13.7597
13.7521
13.7425
13.7309
13.7175
13.7024
13.6856
13.6674
13.6479
13.6273
13.6057
13.5833
13.5603
13.5368
13.5132
13.4894
13.4657
13.4423
13.4193
13.3969
13.3751
13.3542
13.3341
13.3152
13.2974
13.2809
13.2656
13.2518
13.2393
13.2282
13.2185
13.2101
13.203
13.197
13.1921
13.1883
13.1854
13.1834
13.1822
13.1818
13.182
13.1828
13.1842
13.1861
13.1884
13.191
13.194
13.1972
13.2007
13.2044
13.2083
13.2123
13.2164
13.2205
13.2248
13.229
13.2332
13.2375
13.2417
13.2458
13.2499
13.2539
13.2578
13.2615
13.2652
13.2687
13.2721
13.2754
13.2785
13.2814
13.2841
13.2867
13.2891
13.2914
13.2934
13.2953
13.297
13.2984
13.2997
13.3008
13.3017
13.3024
13.303
13.3033
13.3034
13.3033
13.3031
13.3026
13.302
13.3012
13.3002
13.299
13.2977
13.2962
13.2946
13.2929
13.291
13.2891
13.2872
13.2852
13.2833
13.2815
13.2797
13.2785
13.2798
1.06682
1.21676
1.39261
1.58063
1.77322
1.96636
2.15792
2.34681
2.53246
2.71463
2.89319
3.06813
3.23948
3.40728
3.57158
3.73244
3.88994
4.04414
4.19509
4.34285
4.4875
4.62907
4.76763
4.90324
5.03595
5.16582
5.29289
5.41721
5.53885
5.65785
5.77427
5.88814
5.99953
6.10847
6.21502
6.31921
6.42111
6.52075
6.61816
6.7134
6.80649
6.89746
6.98635
7.07318
7.15799
7.24079
7.32162
7.40049
7.47744
7.55247
7.6256
7.69685
7.76622
7.83373
7.89938
7.96318
8.02513
8.08524
8.1435
8.19992
8.25448
8.30719
8.35805
8.40704
8.45417
8.49942
8.54279
8.58427
8.62386
8.66155
8.69734
8.73123
8.76321
8.79328
8.82146
8.84773
8.87211
8.89462
8.91525
8.93401
8.95093
8.96603
8.97931
8.9908
9.00055
9.00856
9.01488
9.01955
9.02258
9.02404
9.02395
9.02238
9.01936
9.01496
9.00924
9.00228
8.99413
8.98489
8.97463
8.96344
8.95141
8.93865
8.92524
8.9113
8.89692
8.88221
8.86727
8.85221
8.83713
8.82211
8.80726
8.79265
8.77836
8.76446
8.75103
8.73811
8.72576
8.71402
8.70294
8.69254
8.68286
8.67389
8.66567
8.65818
8.65142
8.64538
8.64003
8.63536
8.63134
8.62793
8.62509
8.6228
8.62102
8.61971
8.61883
8.61836
8.61826
8.61849
8.61904
8.61988
8.62097
8.62229
8.62382
8.62553
8.6274
8.62941
8.63154
8.63376
8.63607
8.63844
8.64087
8.64333
8.64581
8.6483
8.65079
8.65328
8.65574
8.65818
8.66057
8.66293
8.66524
8.66749
8.66968
8.6718
8.67386
8.67584
8.67773
8.67955
8.68129
8.68293
8.68449
8.68596
8.68733
8.68862
8.68981
8.6909
8.6919
8.69281
8.69363
8.69435
8.69498
8.69552
8.69598
8.69634
8.69663
8.69683
8.69696
8.69702
8.69701
8.69694
8.69683
8.69667
8.69649
8.69631
8.69614
8.69601
8.6959
8.69603
8.69668
8.69982
1.02872
1.09731
1.18402
1.28247
1.38815
1.49805
1.61022
1.72342
1.83688
1.95008
2.06269
2.17449
2.28532
2.39507
2.50366
2.61103
2.71715
2.82197
2.92547
3.02761
3.12839
3.22779
3.32579
3.4224
3.51759
3.61138
3.70375
3.7947
3.88423
3.97234
4.05904
4.14432
4.22819
4.31065
4.39171
4.47137
4.54962
4.62649
4.70196
4.77604
4.84872
4.92001
4.98991
5.05841
5.1255
5.19118
5.25546
5.31831
5.37974
5.43973
5.49827
5.55535
5.61096
5.66509
5.71771
5.76882
5.81841
5.86644
5.91292
5.95782
6.00112
6.04282
6.0829
6.12134
6.15813
6.19326
6.22672
6.2585
6.2886
6.31701
6.34374
6.36878
6.39215
6.41384
6.43387
6.45226
6.46903
6.48419
6.49777
6.5098
6.52031
6.52933
6.53691
6.54307
6.54787
6.55136
6.55357
6.55456
6.55438
6.55308
6.55072
6.54736
6.54305
6.53786
6.53185
6.52509
6.51764
6.50957
6.50095
6.49184
6.48232
6.47246
6.46232
6.45197
6.44148
6.43092
6.42034
6.40981
6.39938
6.38911
6.37904
6.36921
6.35968
6.35046
6.34161
6.33313
6.32506
6.31741
6.31021
6.30345
6.29714
6.29129
6.2859
6.28096
6.27646
6.27239
6.26874
6.26549
6.26263
6.26014
6.25799
6.25618
6.25467
6.25346
6.25251
6.25181
6.25135
6.2511
6.25105
6.25118
6.25148
6.25193
6.25252
6.25324
6.25407
6.25499
6.25601
6.2571
6.25826
6.25947
6.26074
6.26204
6.26339
6.26475
6.26614
6.26753
6.26893
6.27033
6.27172
6.27309
6.27445
6.27578
6.27709
6.27837
6.27961
6.28083
6.282
6.28314
6.28424
6.2853
6.28631
6.28728
6.28821
6.28909
6.28992
6.29072
6.29147
6.29217
6.29283
6.29346
6.29404
6.29458
6.29508
6.29555
6.29598
6.29638
6.29675
6.29709
6.29741
6.29771
6.29799
6.29827
6.29854
6.29881
6.29911
6.29942
6.29982
6.3004
6.30152
6.3053
1.01367
1.0477
1.09348
1.14846
1.21031
1.27715
1.34759
1.42059
1.49539
1.57145
1.64838
1.72587
1.80368
1.88163
1.95957
2.03738
2.11495
2.1922
2.26906
2.34545
2.42133
2.49664
2.57133
2.64537
2.71873
2.79137
2.86327
2.9344
3.00473
3.07425
3.14293
3.21077
3.27773
3.34381
3.40899
3.47326
3.5366
3.59899
3.66043
3.72089
3.78035
3.83882
3.89625
3.95264
4.00797
4.06222
4.11537
4.1674
4.21829
4.26802
4.31656
4.36389
4.40999
4.45483
4.49839
4.54064
4.58157
4.62114
4.65934
4.69615
4.73154
4.76549
4.79799
4.82902
4.85857
4.88663
4.91319
4.93823
4.96178
4.98381
5.00434
5.02337
5.04093
5.05701
5.07165
5.08487
5.09669
5.10714
5.11626
5.12409
5.13066
5.13602
5.14021
5.14328
5.14528
5.14627
5.14629
5.14539
5.14364
5.14109
5.1378
5.13381
5.12919
5.124
5.11829
5.11211
5.10553
5.09859
5.09135
5.08387
5.07619
5.06836
5.06043
5.05246
5.04447
5.03652
5.02864
5.02087
5.01324
5.00578
4.99852
4.99148
4.98469
4.97816
4.9719
4.96594
4.96028
4.95492
4.94987
4.94514
4.94071
4.9366
4.93279
4.92928
4.92607
4.92313
4.92047
4.91808
4.91593
4.91403
4.91235
4.91089
4.90964
4.90857
4.90769
4.90697
4.90641
4.906
4.90572
4.90557
4.90553
4.90559
4.90575
4.90601
4.90634
4.90674
4.9072
4.90772
4.9083
4.90891
4.90957
4.91025
4.91097
4.9117
4.91246
4.91322
4.914
4.91478
4.91556
4.91635
4.91713
4.9179
4.91866
4.91941
4.92015
4.92087
4.92158
4.92226
4.92293
4.92358
4.9242
4.92481
4.9254
4.92597
4.92652
4.92705
4.92757
4.92807
4.92855
4.92902
4.92947
4.92991
4.93034
4.93076
4.93117
4.93157
4.93197
4.93235
4.93274
4.93312
4.9335
4.93388
4.93426
4.93465
4.93506
4.93549
4.93599
4.93665
4.93791
4.94209
1.00704
1.02516
1.05083
1.08333
1.12164
1.16478
1.21183
1.26207
1.31488
1.36976
1.4263
1.48417
1.54309
1.60283
1.6632
1.72404
1.78521
1.84659
1.90807
1.96956
2.03097
2.09225
2.15332
2.21413
2.27464
2.33478
2.39453
2.45385
2.51269
2.57104
2.62885
2.68611
2.74278
2.79884
2.85427
2.90904
2.96312
3.01651
3.06916
3.12106
3.17219
3.22252
3.27202
3.32067
3.36844
3.41532
3.46126
3.50625
3.55026
3.59326
3.63521
3.6761
3.71589
3.75455
3.79206
3.82839
3.8635
3.89739
3.93001
3.96135
3.99139
4.0201
4.04747
4.07349
4.09814
4.12141
4.1433
4.16381
4.18294
4.20069
4.21707
4.23211
4.24581
4.2582
4.2693
4.27914
4.28776
4.29519
4.30148
4.30666
4.31078
4.31388
4.31602
4.31725
4.31761
4.31717
4.31597
4.31407
4.31152
4.30838
4.3047
4.30053
4.29592
4.29093
4.28559
4.27997
4.2741
4.26804
4.26181
4.25547
4.24905
4.24259
4.23612
4.22967
4.22328
4.21698
4.21078
4.20471
4.19878
4.19303
4.18746
4.18209
4.17693
4.17198
4.16726
4.16277
4.15851
4.15448
4.15069
4.14713
4.1438
4.1407
4.13782
4.13515
4.1327
4.13045
4.12839
4.12652
4.12482
4.1233
4.12195
4.12074
4.11968
4.11876
4.11797
4.11729
4.11674
4.11628
4.11593
4.11566
4.11548
4.11538
4.11535
4.11538
4.11547
4.11562
4.11581
4.11605
4.11632
4.11663
4.11697
4.11733
4.11772
4.11812
4.11854
4.11897
4.1194
4.11985
4.1203
4.12074
4.12119
4.12164
4.12208
4.12252
4.12295
4.12338
4.1238
4.12421
4.12462
4.12502
4.12541
4.12579
4.12617
4.12654
4.12691
4.12727
4.12763
4.12798
4.12834
4.12869
4.12905
4.12941
4.12977
4.13013
4.1305
4.13087
4.13124
4.13162
4.132
4.13239
4.13278
4.13318
4.13358
4.13398
4.1344
4.13483
4.13532
4.13598
4.1373
4.14177
1.00403
1.01472
1.03056
1.05156
1.07745
1.10778
1.14203
1.17968
1.22026
1.26332
1.30848
1.35541
1.40381
1.45342
1.50403
1.55544
1.60748
1.66003
1.71294
1.76612
1.81947
1.8729
1.92634
1.97973
2.03299
2.08609
2.13897
2.19159
2.24391
2.29588
2.34749
2.39868
2.44943
2.49972
2.54951
2.59877
2.64748
2.69561
2.74312
2.79001
2.83622
2.88175
2.92656
2.97061
3.01389
3.05636
3.09799
3.13875
3.17861
3.21754
3.25551
3.29249
3.32844
3.36333
3.39714
3.42984
3.46139
3.49177
3.52096
3.54893
3.57566
3.60114
3.62534
3.64825
3.66987
3.69018
3.70918
3.72689
3.74329
3.7584
3.77224
3.78482
3.79616
3.80629
3.81524
3.82305
3.82974
3.83536
3.83996
3.84357
3.84624
3.84804
3.84899
3.84917
3.84861
3.84738
3.84553
3.8431
3.84015
3.83674
3.83291
3.82871
3.82419
3.81939
3.81436
3.80913
3.80376
3.79826
3.79269
3.78708
3.78145
3.77583
3.77025
3.76473
3.7593
3.75397
3.74876
3.74369
3.73877
3.73401
3.72942
3.72502
3.72079
3.71675
3.71291
3.70926
3.7058
3.70253
3.69946
3.69657
3.69386
3.69134
3.68899
3.68682
3.6848
3.68295
3.68125
3.67969
3.67828
3.67699
3.67584
3.6748
3.67388
3.67307
3.67235
3.67173
3.6712
3.67076
3.67039
3.67009
3.66985
3.66968
3.66957
3.6695
3.66948
3.66951
3.66957
3.66967
3.6698
3.66995
3.67013
3.67033
3.67055
3.67078
3.67102
3.67127
3.67153
3.67179
3.67206
3.67233
3.6726
3.67287
3.67314
3.67341
3.67367
3.67393
3.67419
3.67444
3.67469
3.67494
3.67519
3.67544
3.67569
3.67594
3.6762
3.67645
3.67672
3.67698
3.67726
3.67754
3.67783
3.67813
3.67844
3.67876
3.67909
3.67943
3.67977
3.68013
3.68049
3.68086
3.68124
3.68162
3.682
3.68239
3.68278
3.68318
3.68364
3.68426
3.68564
3.69034
1.00284
1.01056
1.02235
1.0385
1.05904
1.08376
1.11234
1.1444
1.17953
1.21732
1.2574
1.29944
1.34313
1.38822
1.43446
1.48166
1.52963
1.57823
1.62732
1.67678
1.72651
1.77642
1.82643
1.87647
1.92647
1.97639
2.02616
2.07574
2.1251
2.17418
2.22295
2.27138
2.31943
2.36707
2.41427
2.46101
2.50724
2.55294
2.59809
2.64265
2.6866
2.72989
2.77252
2.81443
2.85561
2.89602
2.93563
2.97441
3.01233
3.04935
3.08544
3.12057
3.1547
3.18782
3.21987
3.25084
3.2807
3.30942
3.33697
3.36333
3.38848
3.4124
3.43507
3.4565
3.47665
3.49554
3.51316
3.5295
3.54459
3.55843
3.57104
3.58243
3.59263
3.60167
3.60958
3.61639
3.62215
3.62689
3.63067
3.63352
3.6355
3.63666
3.63704
3.63671
3.63571
3.6341
3.63192
3.62924
3.6261
3.62256
3.61866
3.61445
3.60997
3.60527
3.60038
3.59536
3.59022
3.58501
3.57977
3.5745
3.56926
3.56405
3.5589
3.55384
3.54887
3.54402
3.5393
3.53472
3.53029
3.52602
3.52191
3.51798
3.51421
3.51062
3.50721
3.50398
3.50091
3.49803
3.49531
3.49276
3.49037
3.48814
3.48606
3.48414
3.48235
3.48071
3.4792
3.47781
3.47655
3.4754
3.47436
3.47343
3.47259
3.47185
3.47119
3.47062
3.47012
3.46969
3.46933
3.46904
3.46879
3.4686
3.46846
3.46837
3.46831
3.46829
3.4683
3.46834
3.46841
3.4685
3.46861
3.46874
3.46888
3.46904
3.4692
3.46937
3.46955
3.46973
3.46992
3.4701
3.47029
3.47047
3.47065
3.47083
3.47101
3.47119
3.47136
3.47153
3.4717
3.47188
3.47205
3.47223
3.47241
3.47259
3.47278
3.47297
3.47318
3.47339
3.47361
3.47385
3.47409
3.47435
3.47462
3.47491
3.4752
3.47551
3.47583
3.47615
3.47649
3.47684
3.47719
3.47754
3.47789
3.47825
3.47861
3.47898
3.47939
3.47999
3.48139
3.48629
1.00284
1.01058
1.02242
1.03866
1.05932
1.08419
1.11294
1.14517
1.18047
1.21844
1.25868
1.30088
1.34471
1.38993
1.43628
1.48358
1.53165
1.58033
1.62949
1.67901
1.72879
1.77875
1.8288
1.87888
1.92892
1.97886
2.02866
2.07826
2.12764
2.17673
2.22552
2.27396
2.32203
2.36968
2.4169
2.46365
2.50989
2.55561
2.60077
2.64534
2.6893
2.73261
2.77524
2.81717
2.85836
2.89879
2.93841
2.9772
3.01513
3.05216
3.08826
3.1234
3.15755
3.19067
3.22273
3.25371
3.28357
3.31228
3.33983
3.36619
3.39133
3.41524
3.4379
3.4593
3.47943
3.49829
3.51588
3.53219
3.54723
3.56103
3.57358
3.58492
3.59506
3.60403
3.61187
3.61862
3.6243
3.62896
3.63265
3.63542
3.63732
3.63839
3.63868
3.63826
3.63718
3.63548
3.63322
3.63046
3.62725
3.62363
3.61966
3.61539
3.61086
3.60611
3.60119
3.59613
3.59098
3.58575
3.5805
3.57524
3.57001
3.56482
3.55971
3.55468
3.54976
3.54495
3.54029
3.53577
3.5314
3.5272
3.52317
3.51931
3.51562
3.51211
3.50878
3.50562
3.50264
3.49984
3.4972
3.49472
3.49241
3.49026
3.48825
3.4864
3.48468
3.4831
3.48165
3.48032
3.47911
3.47801
3.47702
3.47613
3.47534
3.47463
3.47401
3.47347
3.473
3.47259
3.47226
3.47198
3.47176
3.47158
3.47145
3.47137
3.47132
3.47131
3.47132
3.47137
3.47143
3.47152
3.47163
3.47175
3.47189
3.47204
3.47219
3.47235
3.47251
3.47268
3.47285
3.47301
3.47318
3.47334
3.4735
3.47366
3.47381
3.47396
3.47411
3.47426
3.4744
3.47454
3.47469
3.47483
3.47498
3.47513
3.47529
3.47546
3.47563
3.47581
3.476
3.4762
3.47642
3.47664
3.47688
3.47713
3.4774
3.47767
3.47796
3.47826
3.47856
3.47887
3.47919
3.47951
3.47983
3.48015
3.48048
3.48081
3.48119
3.48176
3.48317
3.48826
1.00403
1.0148
1.03081
1.05211
1.07841
1.10922
1.144
1.18221
1.22335
1.26696
1.31264
1.36004
1.40888
1.45889
1.50986
1.56159
1.61393
1.66674
1.71988
1.77326
1.82679
1.88037
1.93395
1.98745
2.04082
2.09401
2.14698
2.19967
2.25205
2.30408
2.35574
2.40698
2.45779
2.50812
2.55795
2.60726
2.65601
2.70418
2.75174
2.79867
2.84493
2.8905
2.93535
2.97946
3.02278
3.0653
3.10698
3.14779
3.1877
3.22668
3.26469
3.30171
3.3377
3.37264
3.40648
3.43921
3.47079
3.50119
3.53039
3.55836
3.58508
3.61054
3.63471
3.65758
3.67914
3.69939
3.71832
3.73593
3.75222
3.76722
3.78092
3.79335
3.80453
3.81448
3.82324
3.83084
3.83731
3.84271
3.84706
3.85042
3.85284
3.85436
3.85504
3.85494
3.8541
3.85259
3.85047
3.84777
3.84457
3.84092
3.83686
3.83246
3.82775
3.82279
3.81762
3.81228
3.80682
3.80127
3.79566
3.79004
3.78443
3.77886
3.77335
3.76793
3.76261
3.75742
3.75238
3.74748
3.74276
3.73821
3.73384
3.72966
3.72567
3.72187
3.71828
3.71487
3.71166
3.70864
3.70581
3.70317
3.7007
3.69841
3.69628
3.69432
3.69251
3.69085
3.68934
3.68796
3.68671
3.68558
3.68457
3.68367
3.68287
3.68217
3.68156
3.68103
3.68059
3.68022
3.67991
3.67967
3.67949
3.67936
3.67927
3.67924
3.67924
3.67928
3.67935
3.67945
3.67957
3.67971
3.67988
3.68006
3.68025
3.68045
3.68065
3.68086
3.68108
3.68129
3.6815
3.68172
3.68192
3.68212
3.68232
3.68251
3.68269
3.68287
3.68304
3.68321
3.68337
3.68352
3.68368
3.68383
3.68398
3.68413
3.68429
3.68444
3.6846
3.68477
3.68494
3.68513
3.68532
3.68552
3.68572
3.68594
3.68617
3.68641
3.68666
3.68691
3.68718
3.68744
3.68772
3.68799
3.68827
3.68855
3.68883
3.68912
3.68947
3.69001
3.6914
3.69667
1.00703
1.02531
1.05138
1.08451
1.12365
1.16774
1.21584
1.26714
1.32099
1.37687
1.43436
1.4931
1.55284
1.61332
1.67437
1.73581
1.79752
1.85937
1.92127
1.98313
2.04487
2.10644
2.16776
2.22879
2.28948
2.3498
2.4097
2.46915
2.52811
2.58657
2.64449
2.70184
2.75861
2.81476
2.87028
2.92514
2.97931
3.03279
3.08553
3.13753
3.18876
3.23918
3.28879
3.33755
3.38544
3.43243
3.47849
3.5236
3.56773
3.61085
3.65292
3.69393
3.73384
3.77261
3.81023
3.84666
3.88188
3.91585
3.94855
3.97995
4.01003
4.03878
4.06616
4.09217
4.1168
4.14002
4.16184
4.18226
4.20126
4.21887
4.23509
4.24992
4.2634
4.27554
4.28636
4.2959
4.3042
4.31128
4.31719
4.32197
4.32567
4.32834
4.33004
4.33081
4.33071
4.3298
4.32814
4.32578
4.32278
4.31919
4.31508
4.3105
4.30549
4.30013
4.29447
4.28856
4.28245
4.2762
4.26984
4.26342
4.25696
4.25052
4.24411
4.23778
4.23154
4.22543
4.21947
4.21367
4.20805
4.20263
4.19742
4.19243
4.18767
4.18313
4.17883
4.17477
4.17095
4.16735
4.16399
4.16086
4.15795
4.15525
4.15277
4.15048
4.14839
4.14648
4.14475
4.14319
4.14178
4.14053
4.13942
4.13844
4.13759
4.13685
4.13623
4.13571
4.13528
4.13494
4.13468
4.1345
4.13438
4.13433
4.13433
4.13439
4.13449
4.13464
4.13482
4.13503
4.13527
4.13554
4.13583
4.13613
4.13645
4.13677
4.1371
4.13744
4.13777
4.13811
4.13844
4.13876
4.13908
4.13939
4.13969
4.13998
4.14025
4.14051
4.14077
4.141
4.14123
4.14145
4.14166
4.14186
4.14205
4.14223
4.14241
4.14258
4.14275
4.14292
4.14309
4.14325
4.14342
4.1436
4.14377
4.14395
4.14413
4.14432
4.14451
4.1447
4.1449
4.1451
4.1453
4.14551
4.14572
4.14593
4.14615
4.14638
4.14668
4.14717
4.14851
4.15394
1.01362
1.04798
1.09458
1.15082
1.21424
1.28284
1.35509
1.4299
1.50647
1.58423
1.66274
1.74169
1.82085
1.90002
1.97905
2.05784
2.13629
2.21431
2.29184
2.36883
2.44522
2.52098
2.59607
2.67046
2.74412
2.81703
2.88916
2.9605
3.03103
3.10073
3.16958
3.23758
3.30471
3.37095
3.43629
3.50073
3.56423
3.6268
3.68842
3.74907
3.80874
3.86741
3.92506
3.98168
4.03725
4.09175
4.14516
4.19746
4.24862
4.29862
4.34745
4.39507
4.44145
4.48659
4.53043
4.57297
4.61418
4.65403
4.69249
4.72954
4.76515
4.79931
4.832
4.86319
4.89287
4.92102
4.94764
4.97273
4.99626
5.01825
5.03869
5.0576
5.07499
5.09086
5.10524
5.11815
5.12962
5.13968
5.14836
5.15571
5.16176
5.16656
5.17017
5.17262
5.17398
5.1743
5.17364
5.17205
5.16961
5.16637
5.16239
5.15774
5.15248
5.14667
5.14037
5.13365
5.12656
5.11915
5.1115
5.10367
5.09573
5.08773
5.07973
5.07175
5.06385
5.05605
5.0484
5.04092
5.03364
5.02659
5.0198
5.01327
5.00702
5.00107
4.99542
4.99008
4.98505
4.98033
4.97593
4.97183
4.96804
4.96454
4.96133
4.95839
4.95572
4.9533
4.95113
4.94918
4.94746
4.94594
4.94461
4.94346
4.94248
4.94166
4.94098
4.94044
4.94003
4.93973
4.93954
4.93944
4.93944
4.93951
4.93966
4.93987
4.94014
4.94047
4.94084
4.94126
4.9417
4.94218
4.94268
4.9432
4.94374
4.94429
4.94484
4.9454
4.94595
4.9465
4.94704
4.94758
4.94809
4.9486
4.94908
4.94955
4.95
4.95042
4.95083
4.95121
4.95157
4.9519
4.95222
4.95251
4.95278
4.95303
4.95327
4.95348
4.95368
4.95386
4.95403
4.95418
4.95432
4.95445
4.95458
4.95469
4.95479
4.95489
4.95498
4.95507
4.95515
4.95523
4.9553
4.95538
4.95546
4.95554
4.95563
4.95575
4.95594
4.95633
4.95755
4.96311
1.0285
1.09781
1.18631
1.28734
1.39604
1.50914
1.62456
1.74094
1.85743
1.97347
2.08871
2.20291
2.31591
2.42762
2.53795
2.64687
2.75434
2.86035
2.96487
3.06791
3.16947
3.26954
3.36812
3.46523
3.56086
3.65503
3.74775
3.83901
3.92883
4.01722
4.10419
4.18974
4.27388
4.35663
4.43797
4.51794
4.59651
4.67372
4.74954
4.824
4.89709
4.96881
5.03916
5.10813
5.17573
5.24195
5.30678
5.37022
5.43225
5.49287
5.55206
5.6098
5.66609
5.72091
5.77424
5.82607
5.87636
5.92511
5.9723
6.0179
6.06189
6.10425
6.14496
6.18401
6.22138
6.25705
6.29101
6.32324
6.35374
6.38249
6.40951
6.43477
6.45829
6.48007
6.50012
6.51845
6.53508
6.55002
6.56331
6.57496
6.58501
6.5935
6.60046
6.60594
6.60999
6.61265
6.61398
6.61404
6.61289
6.61058
6.6072
6.60279
6.59745
6.59123
6.58421
6.57647
6.56808
6.55912
6.54966
6.53977
6.52952
6.51899
6.50826
6.49745
6.48666
6.47593
6.46532
6.45488
6.44467
6.43472
6.42508
6.41578
6.40686
6.39833
6.39021
6.38253
6.37529
6.36851
6.36217
6.35629
6.35085
6.34585
6.34128
6.33712
6.33336
6.32998
6.32697
6.3243
6.32196
6.31993
6.31818
6.3167
6.31547
6.31447
6.31368
6.31309
6.31267
6.31242
6.31232
6.31236
6.31252
6.3128
6.31317
6.31363
6.31417
6.31479
6.31546
6.31619
6.31696
6.31777
6.31861
6.31948
6.32036
6.32125
6.32215
6.32305
6.32395
6.32484
6.32571
6.32656
6.32739
6.3282
6.32898
6.32972
6.33043
6.3311
6.33174
6.33233
6.33288
6.3334
6.33386
6.33429
6.33467
6.33502
6.33531
6.33557
6.33579
6.33596
6.3361
6.3362
6.33626
6.33629
6.33628
6.33625
6.33618
6.33608
6.33596
6.33581
6.33564
6.33545
6.33525
6.33504
6.33483
6.33462
6.33443
6.33427
6.33418
6.33432
6.33527
6.34092
1.06583
1.21757
1.39781
1.59159
1.79051
1.99005
2.18781
2.38255
2.57364
2.76078
2.94384
3.12282
3.29775
3.4687
3.63576
3.79902
3.95859
4.11455
4.26701
4.41606
4.56179
4.70428
4.84363
4.9799
5.11319
5.24357
5.3711
5.49586
5.61792
5.73733
5.85417
5.96849
6.08035
6.1898
6.2969
6.4017
6.50424
6.60457
6.70274
6.79877
6.89272
6.98462
7.0745
7.1624
7.24833
7.33233
7.41443
7.49463
7.57296
7.64944
7.72408
7.79688
7.86786
7.93702
8.00436
8.06988
8.13358
8.19547
8.25551
8.31373
8.37009
8.42459
8.47722
8.52796
8.57679
8.62372
8.66871
8.71176
8.75285
8.79197
8.82911
8.86426
8.89741
8.92855
8.95766
8.98476
9.00982
9.03286
9.05387
9.07286
9.08983
9.10481
9.1178
9.12883
9.13792
9.14512
9.15045
9.15396
9.15569
9.15571
9.15406
9.15083
9.14607
9.13987
9.1323
9.12346
9.11344
9.10234
9.09025
9.07729
9.06356
9.04917
9.03422
9.01879
9.00298
8.98697
8.97098
8.95515
8.93955
8.92428
8.90939
8.89497
8.88107
8.86774
8.85503
8.84296
8.83157
8.82088
8.81089
8.80162
8.79306
8.78521
8.77804
8.77154
8.76569
8.76046
8.75583
8.75175
8.74821
8.74516
8.74258
8.74042
8.73866
8.73726
8.73619
8.73543
8.73495
8.73471
8.7347
8.73489
8.73526
8.73579
8.73647
8.73726
8.73817
8.73917
8.74026
8.74141
8.74262
8.74388
8.74517
8.74649
8.74782
8.74917
8.75051
8.75185
8.75317
8.75447
8.75574
8.75698
8.75818
8.75933
8.76043
8.76148
8.76246
8.76338
8.76423
8.76502
8.76572
8.76635
8.76691
8.76738
8.76777
8.76808
8.7683
8.76845
8.76851
8.76848
8.76837
8.76819
8.76792
8.76757
8.76714
8.76664
8.76606
8.76542
8.7647
8.76393
8.7631
8.76222
8.76131
8.76036
8.75939
8.75843
8.75748
8.75658
8.75571
8.75512
8.75533
8.76089
1.17901
1.55949
1.97315
2.38845
2.79364
3.18487
3.56126
3.92305
4.27086
4.6054
4.92738
5.2375
5.53638
5.82461
6.10271
6.37119
6.6305
6.88107
7.1233
7.35757
7.58422
7.80358
8.01597
8.22168
8.421
8.61418
8.80148
8.98313
9.15937
9.33041
9.49646
9.65772
9.81436
9.96658
10.1145
10.2584
10.3983
10.5344
10.6669
10.7959
10.9214
11.0437
11.1629
11.279
11.3922
11.5025
11.6101
11.7149
11.8172
11.917
12.0144
12.1093
12.2019
12.2922
12.3803
12.4661
12.5498
12.6314
12.7108
12.7882
12.8634
12.9366
13.0078
13.0768
13.1438
13.2087
13.2715
13.3322
13.3908
13.4472
13.5015
13.5536
13.6035
13.6512
13.6965
13.7395
13.7801
13.8182
13.8538
13.8869
13.9173
13.9452
13.9703
13.9928
14.0125
14.0295
14.0437
14.0552
14.0639
14.0699
14.0732
14.0738
14.0718
14.0673
14.0602
14.0508
14.0392
14.0253
14.0094
13.9917
13.9722
13.9511
13.9287
13.9051
13.8804
13.8549
13.8286
13.8019
13.7751
13.7489
13.7232
13.6982
13.674
13.6508
13.6286
13.6075
13.5876
13.5688
13.5513
13.535
13.5199
13.506
13.4934
13.4819
13.4716
13.4623
13.4541
13.4469
13.4406
13.4352
13.4306
13.4267
13.4235
13.4209
13.4188
13.4173
13.4162
13.4155
13.4152
13.4151
13.4154
13.4158
13.4165
13.4174
13.4183
13.4195
13.4207
13.422
13.4233
13.4247
13.4262
13.4276
13.429
13.4305
13.4319
13.4333
13.4346
13.4359
13.4371
13.4382
13.4393
13.4403
13.4411
13.4419
13.4425
13.4431
13.4435
13.4437
13.4439
13.4438
13.4437
13.4433
13.4429
13.4422
13.4414
13.4405
13.4393
13.4381
13.4366
13.435
13.4332
13.4313
13.4292
13.4269
13.4245
13.4219
13.4193
13.4164
13.4135
13.4104
13.4072
13.404
13.4007
13.3974
13.3941
13.3909
13.3878
13.3848
13.3826
13.387
1.67328
2.92087
4.10161
5.17803
6.16159
7.0667
7.90499
8.68536
9.41471
10.0985
10.7412
11.3466
11.9177
12.4574
12.9681
13.4518
13.9106
14.3462
14.76
15.1537
15.5284
15.8854
16.2259
16.5509
16.8613
17.1581
17.4421
17.714
17.9747
18.2248
18.4649
18.6957
18.9178
19.1315
19.3376
19.5364
19.7283
19.9139
20.0934
20.2673
20.436
20.5996
20.7587
20.9134
21.064
21.2108
21.354
21.4938
21.6304
21.764
21.8949
22.0231
22.1488
22.2721
22.3933
22.5123
22.6292
22.7443
22.8575
22.9689
23.0785
23.1865
23.2927
23.3973
23.5002
23.6015
23.7011
23.7989
23.895
23.9893
24.0818
24.1724
24.261
24.3473
24.4304
24.5105
24.5873
24.6608
24.731
24.7975
24.8604
24.9194
24.9744
25.0252
25.0717
25.1137
25.1512
25.184
25.2119
25.2349
25.2528
25.2657
25.2735
25.2761
25.2737
25.2662
25.2537
25.2364
25.2143
25.1878
25.1571
25.1224
25.084
25.0422
24.9975
24.9501
24.9004
24.8488
24.7954
24.7408
24.6872
24.6352
24.5849
24.5365
24.4903
24.4463
24.4046
24.3653
24.3284
24.294
24.2619
24.2323
24.205
24.18
24.1572
24.1365
24.1178
24.101
24.0859
24.0724
24.0605
24.0499
24.0405
24.0322
24.025
24.0186
24.013
24.008
24.0037
23.9998
23.9964
23.9933
23.9906
23.988
23.9857
23.9835
23.9814
23.9793
23.9774
23.9754
23.9734
23.9714
23.9693
23.9672
23.9649
23.9626
23.9601
23.9576
23.9548
23.952
23.9489
23.9456
23.942
23.9381
23.934
23.9296
23.925
23.92
23.9148
23.9092
23.9034
23.8973
23.8909
23.8841
23.8771
23.8697
23.8621
23.8541
23.8459
23.8373
23.8284
23.8192
23.8097
23.7999
23.7898
23.7794
23.7688
23.7579
23.7468
23.7355
23.724
23.7123
23.7005
23.6887
23.6769
23.6653
23.6538
23.6427
23.6321
23.6297
6.36832
12.8028
17.3519
20.9052
23.8304
26.314
28.4644
30.3514
32.0235
33.5161
34.8562
36.0651
37.1598
38.1547
39.0615
39.8903
40.6496
41.3471
41.9891
42.5815
43.1292
43.6368
44.1082
44.547
44.9563
45.3392
45.6981
46.0355
46.3535
46.6539
46.9385
47.2091
47.4669
47.7133
47.9497
48.177
48.3963
48.6086
48.8148
49.0155
49.2115
49.4036
49.5924
49.778
49.9609
50.1416
50.3206
50.4982
50.675
50.8513
51.0273
51.2034
51.3797
51.5565
51.734
51.9123