/*--------------------------------*- C++ -*----------------------------------*\
| =========                 |                                                 |
| \\      /  F ield         | OpenFOAM: The Open Source CFD Toolbox           |
|  \\    /   O peration     | Version:  5.x                                   |
|   \\  /    A nd           | Web:      www.OpenFOAM.org                      |
|    \\/     M anipulation  |                                                 |
\*---------------------------------------------------------------------------*/
/*   Windows 32 and 64 bit porting by blueCAPE: http://www.bluecape.com.pt   *\
|  Based on Windows porting (2.0.x v4) by Symscape: http://www.symscape.com   |
\*---------------------------------------------------------------------------*/
FoamFile
{
    version     2.0;
    format      ascii;
    class       volScalarField;
    location    "2000";
    object      k;
}
// * * * * * * * * * * * * * * * * * * * * * * * * * * * * * * * * * * * * * //

dimensions      [0 2 -2 0 0 0 0];

internalField   nonuniform List<scalar> 
4000
(
5.47352e+012
5.26609e+012
6.05076e+012
8.51727e+012
1.27119e+013
1.76376e+013
2.31113e+013
2.89525e+013
3.50528e+013
4.13288e+013
4.77053e+013
5.41146e+013
6.04976e+013
6.68044e+013
7.29941e+013
7.90327e+013
8.48936e+013
9.05572e+013
9.60099e+013
1.01244e+014
1.06256e+014
1.11047e+014
1.15622e+014
1.19986e+014
1.24149e+014
1.28119e+014
1.31907e+014
1.35522e+014
1.38974e+014
1.42269e+014
1.45415e+014
1.48416e+014
1.51274e+014
1.5399e+014
1.56562e+014
1.58987e+014
1.61259e+014
1.63369e+014
1.65309e+014
1.67069e+014
1.68636e+014
1.7e+014
1.71151e+014
1.72089e+014
1.72829e+014
1.73429e+014
1.73823e+014
1.73992e+014
1.73928e+014
1.73626e+014
1.73082e+014
1.72293e+014
1.71259e+014
1.69979e+014
1.68457e+014
1.66696e+014
1.64703e+014
1.62484e+014
1.6005e+014
1.5741e+014
1.54578e+014
1.51568e+014
1.48395e+014
1.45077e+014
1.41631e+014
1.38078e+014
1.34436e+014
1.30727e+014
1.26972e+014
1.23192e+014
1.1941e+014
1.15645e+014
1.11921e+014
1.08256e+014
1.04671e+014
1.01184e+014
9.78133e+013
9.45742e+013
9.14816e+013
8.85484e+013
8.57861e+013
8.32045e+013
8.08119e+013
7.86148e+013
7.66178e+013
7.48236e+013
7.32343e+013
7.18512e+013
7.06742e+013
6.97019e+013
6.89318e+013
6.83591e+013
6.79778e+013
6.77793e+013
6.77528e+013
6.78845e+013
6.81577e+013
6.8552e+013
6.90432e+013
6.96032e+013
7.01995e+013
7.0793e+013
7.13326e+013
7.17323e+013
7.18145e+013
7.15904e+013
7.12604e+013
7.09532e+013
7.06433e+013
7.0186e+013
6.94586e+013
6.84932e+013
6.73654e+013
6.61227e+013
6.48076e+013
6.34646e+013
6.21375e+013
6.08681e+013
5.96977e+013
5.86685e+013
5.78244e+013
5.72146e+013
5.68968e+013
5.69452e+013
5.74579e+013
5.85676e+013
6.04541e+013
6.33596e+013
6.76007e+013
7.35721e+013
8.17358e+013
9.25899e+013
1.06621e+014
1.24252e+014
1.45798e+014
1.71447e+014
2.01255e+014
2.35164e+014
2.73021e+014
3.14596e+014
3.59605e+014
4.07717e+014
4.58566e+014
5.11757e+014
5.66874e+014
6.23487e+014
6.81154e+014
7.3943e+014
7.97874e+014
8.56048e+014
9.13526e+014
9.69895e+014
1.02476e+015
1.07777e+015
1.12857e+015
1.17685e+015
1.22234e+015
1.2648e+015
1.30403e+015
1.33988e+015
1.37221e+015
1.40096e+015
1.42606e+015
1.44749e+015
1.46527e+015
1.47941e+015
1.48996e+015
1.49695e+015
1.50045e+015
1.50052e+015
1.4973e+015
1.49167e+015
1.48525e+015
1.47704e+015
1.46638e+015
1.45283e+015
1.43612e+015
1.41608e+015
1.39263e+015
1.36577e+015
1.33551e+015
1.30193e+015
1.26513e+015
1.22526e+015
1.18249e+015
1.137e+015
1.08903e+015
1.03882e+015
9.86644e+014
9.32808e+014
8.77624e+014
8.21425e+014
7.6456e+014
7.07383e+014
6.50259e+014
5.93529e+014
5.37588e+014
4.82664e+014
4.29466e+014
3.79466e+014
1.21579e+013
1.67511e+013
2.14669e+013
2.81117e+013
3.73783e+013
4.91368e+013
6.29435e+013
7.81175e+013
9.42381e+013
1.11003e+014
1.28162e+014
1.45499e+014
1.62833e+014
1.80015e+014
1.96932e+014
2.13489e+014
2.29613e+014
2.45249e+014
2.60357e+014
2.74912e+014
2.88901e+014
3.02321e+014
3.15177e+014
3.27479e+014
3.39243e+014
3.50489e+014
3.61236e+014
3.71504e+014
3.81312e+014
3.90678e+014
3.99613e+014
4.08129e+014
4.16229e+014
4.23914e+014
4.31179e+014
4.38014e+014
4.44405e+014
4.50333e+014
4.55776e+014
4.60707e+014
4.651e+014
4.68925e+014
4.72154e+014
4.74758e+014
4.76718e+014
4.78024e+014
4.7875e+014
4.78852e+014
4.78311e+014
4.77118e+014
4.7527e+014
4.72766e+014
4.69611e+014
4.65813e+014
4.61385e+014
4.56342e+014
4.50705e+014
4.44499e+014
4.37751e+014
4.30494e+014
4.22764e+014
4.14599e+014
4.0604e+014
3.97133e+014
3.87923e+014
3.78459e+014
3.68792e+014
3.58971e+014
3.49049e+014
3.39076e+014
3.29104e+014
3.19182e+014
3.0936e+014
2.99683e+014
2.90196e+014
2.8094e+014
2.71953e+014
2.63271e+014
2.54923e+014
2.46937e+014
2.39335e+014
2.32138e+014
2.25359e+014
2.19009e+014
2.13096e+014
2.07623e+014
2.02591e+014
1.98e+014
1.93844e+014
1.9012e+014
1.86819e+014
1.8393e+014
1.81442e+014
1.79337e+014
1.77596e+014
1.76193e+014
1.75097e+014
1.74267e+014
1.73657e+014
1.73208e+014
1.72848e+014
1.72494e+014
1.72048e+014
1.71409e+014
1.70474e+014
1.69158e+014
1.67389e+014
1.65278e+014
1.62876e+014
1.60115e+014
1.5701e+014
1.53618e+014
1.50002e+014
1.46241e+014
1.42438e+014
1.38705e+014
1.35153e+014
1.31893e+014
1.2904e+014
1.26715e+014
1.25053e+014
1.24218e+014
1.24414e+014
1.25911e+014
1.29067e+014
1.34356e+014
1.42388e+014
1.53923e+014
1.69854e+014
1.91162e+014
2.18838e+014
2.53801e+014
2.96821e+014
3.48474e+014
4.09128e+014
4.78949e+014
5.57922e+014
6.45868e+014
7.42465e+014
8.47261e+014
9.59693e+014
1.0791e+015
1.20474e+015
1.33578e+015
1.47137e+015
1.61057e+015
1.75244e+015
1.89602e+015
2.04034e+015
2.18443e+015
2.32735e+015
2.46819e+015
2.60607e+015
2.74015e+015
2.86965e+015
2.99387e+015
3.11217e+015
3.22397e+015
3.3288e+015
3.42625e+015
3.51599e+015
3.59776e+015
3.67139e+015
3.73672e+015
3.79368e+015
3.84219e+015
3.88224e+015
3.91381e+015
3.93697e+015
3.95182e+015
3.95876e+015
3.95931e+015
3.95087e+015
3.93308e+015
3.9057e+015
3.86852e+015
3.82144e+015
3.76443e+015
3.69752e+015
3.62086e+015
3.53462e+015
3.43909e+015
3.33462e+015
3.22163e+015
3.10064e+015
2.97224e+015
2.8371e+015
2.69597e+015
2.54969e+015
2.39915e+015
2.24532e+015
2.08919e+015
1.93185e+015
1.77435e+015
1.61785e+015
1.46323e+015
1.31217e+015
1.1643e+015
1.02553e+015
9.00344e+014
1.93253e+013
2.90345e+013
3.79899e+013
4.89252e+013
6.31531e+013
8.04813e+013
1.00204e+014
1.21576e+014
1.44065e+014
1.67268e+014
1.90872e+014
2.14628e+014
2.38333e+014
2.61828e+014
2.84986e+014
3.07703e+014
3.29897e+014
3.51504e+014
3.72478e+014
3.92784e+014
4.12401e+014
4.31317e+014
4.49529e+014
4.67042e+014
4.83865e+014
5.00009e+014
5.15489e+014
5.3032e+014
5.44515e+014
5.58085e+014
5.71039e+014
5.83379e+014
5.95104e+014
6.06208e+014
6.16679e+014
6.265e+014
6.35649e+014
6.44101e+014
6.51824e+014
6.58788e+014
6.64959e+014
6.70302e+014
6.74786e+014
6.78384e+014
6.81071e+014
6.82833e+014
6.83713e+014
6.83689e+014
6.82747e+014
6.80878e+014
6.7808e+014
6.74358e+014
6.69722e+014
6.64188e+014
6.57777e+014
6.50515e+014
6.42434e+014
6.33573e+014
6.23972e+014
6.13678e+014
6.02743e+014
5.91222e+014
5.79173e+014
5.66659e+014
5.53744e+014
5.40493e+014
5.26975e+014
5.13259e+014
4.99412e+014
4.85504e+014
4.716e+014
4.57767e+014
4.44067e+014
4.30561e+014
4.17304e+014
4.04348e+014
3.91741e+014
3.79526e+014
3.6774e+014
3.56415e+014
3.45578e+014
3.35249e+014
3.25444e+014
3.16172e+014
3.07439e+014
2.99246e+014
2.91588e+014
2.8446e+014
2.77854e+014
2.71758e+014
2.6616e+014
2.61045e+014
2.56396e+014
2.52193e+014
2.48414e+014
2.45032e+014
2.4201e+014
2.39306e+014
2.36867e+014
2.34625e+014
2.32498e+014
2.3039e+014
2.28191e+014
2.25788e+014
2.23074e+014
2.19942e+014
2.16296e+014
2.12263e+014
2.07847e+014
2.03011e+014
1.97809e+014
1.92339e+014
1.86712e+014
1.81066e+014
1.75563e+014
1.70373e+014
1.65672e+014
1.61637e+014
1.58459e+014
1.56349e+014
1.55556e+014
1.56386e+014
1.59235e+014
1.64611e+014
1.73156e+014
1.85664e+014
2.0307e+014
2.26412e+014
2.56778e+014
2.95234e+014
3.42756e+014
4.00191e+014
4.68228e+014
5.47388e+014
6.38017e+014
7.40284e+014
8.54181e+014
9.79526e+014
1.11596e+015
1.26298e+015
1.41991e+015
1.58595e+015
1.76019e+015
1.94159e+015
2.12905e+015
2.3214e+015
2.51742e+015
2.71586e+015
2.91545e+015
3.11494e+015
3.31307e+015
3.50863e+015
3.70045e+015
3.8874e+015
4.06846e+015
4.24266e+015
4.40912e+015
4.56708e+015
4.71586e+015
4.8549e+015
4.98372e+015
5.10192e+015
5.2092e+015
5.3053e+015
5.39004e+015
5.46324e+015
5.52479e+015
5.57462e+015
5.6127e+015
5.63924e+015
5.65509e+015
5.65915e+015
5.65048e+015
5.62871e+015
5.59354e+015
5.54471e+015
5.48202e+015
5.40541e+015
5.31486e+015
5.21048e+015
5.09246e+015
4.96113e+015
4.81688e+015
4.66027e+015
4.49193e+015
4.31263e+015
4.12325e+015
3.92476e+015
3.71826e+015
3.50494e+015
3.28609e+015
3.06308e+015
2.83735e+015
2.6104e+015
2.38387e+015
2.15923e+015
1.93895e+015
1.72442e+015
1.52628e+015
1.36058e+015
2.79013e+013
4.15689e+013
5.44081e+013
6.91843e+013
8.73468e+013
1.08697e+014
1.32514e+014
1.58072e+014
1.84809e+014
2.12302e+014
2.40226e+014
2.68325e+014
2.96394e+014
3.24272e+014
3.51824e+014
3.7894e+014
4.0553e+014
4.31521e+014
4.56854e+014
4.81485e+014
5.05379e+014
5.28512e+014
5.50871e+014
5.72448e+014
5.9324e+014
6.13251e+014
6.32484e+014
6.50945e+014
6.6864e+014
6.85572e+014
7.01741e+014
7.17143e+014
7.3177e+014
7.4561e+014
7.58644e+014
7.70849e+014
7.82199e+014
7.92661e+014
8.02203e+014
8.10789e+014
8.18381e+014
8.24945e+014
8.30448e+014
8.34859e+014
8.38157e+014
8.40324e+014
8.41359e+014
8.41282e+014
8.40073e+014
8.37727e+014
8.34245e+014
8.29635e+014
8.23913e+014
8.17102e+014
8.09229e+014
8.0033e+014
7.90446e+014
7.79624e+014
7.67917e+014
7.55384e+014
7.42087e+014
7.28094e+014
7.13477e+014
6.98309e+014
6.82667e+014
6.66632e+014
6.50283e+014
6.33701e+014
6.16966e+014
6.00159e+014
5.83356e+014
5.66633e+014
5.50062e+014
5.33711e+014
5.17644e+014
5.01919e+014
4.86589e+014
4.71701e+014
4.57295e+014
4.43406e+014
4.3006e+014
4.17278e+014
4.05074e+014
3.93456e+014
3.82426e+014
3.7198e+014
3.6211e+014
3.52806e+014
3.44052e+014
3.35834e+014
3.28132e+014
3.20929e+014
3.14204e+014
3.07935e+014
3.02098e+014
2.96663e+014
2.91594e+014
2.86848e+014
2.82368e+014
2.78082e+014
2.73904e+014
2.6973e+014
2.65445e+014
2.60926e+014
2.56055e+014
2.50717e+014
2.44853e+014
2.38599e+014
2.31899e+014
2.24768e+014
2.1731e+014
2.09687e+014
2.0209e+014
1.94736e+014
1.87867e+014
1.8173e+014
1.76577e+014
1.72671e+014
1.70297e+014
1.6978e+014
1.7151e+014
1.7597e+014
1.8376e+014
1.95611e+014
2.12389e+014
2.3507e+014
2.64707e+014
3.02373e+014
3.49106e+014
4.05876e+014
4.73549e+014
5.52878e+014
6.44484e+014
7.48852e+014
8.66311e+014
9.97025e+014
1.14098e+015
1.29798e+015
1.46765e+015
1.64941e+015
1.84254e+015
2.04613e+015
2.25914e+015
2.48041e+015
2.70867e+015
2.94256e+015
3.18067e+015
3.42155e+015
3.66371e+015
3.90568e+015
4.14599e+015
4.38319e+015
4.61591e+015
4.84282e+015
5.06269e+015
5.27437e+015
5.47683e+015
5.66914e+015
5.8505e+015
6.02021e+015
6.17769e+015
6.32243e+015
6.45402e+015
6.57211e+015
6.67642e+015
6.76668e+015
6.84269e+015
6.90428e+015
6.95139e+015
6.98414e+015
7.00311e+015
7.00652e+015
6.99401e+015
6.96525e+015
6.91997e+015
6.85794e+015
6.77903e+015
6.68315e+015
6.57036e+015
6.44081e+015
6.29476e+015
6.13259e+015
5.95485e+015
5.76217e+015
5.55534e+015
5.33529e+015
5.10305e+015
4.85978e+015
4.60677e+015
4.34541e+015
4.07718e+015
3.80367e+015
3.52657e+015
3.24766e+015
2.96891e+015
2.69238e+015
2.42134e+015
2.1598e+015
1.92256e+015
1.73669e+015
3.62839e+013
5.31661e+013
6.94979e+013
8.75269e+013
1.0873e+014
1.32992e+014
1.59686e+014
1.8815e+014
2.17847e+014
2.48364e+014
2.79382e+014
3.10647e+014
3.41955e+014
3.7314e+014
4.04061e+014
4.346e+014
4.64657e+014
4.94147e+014
5.22998e+014
5.51151e+014
5.7856e+014
6.05186e+014
6.31002e+014
6.55988e+014
6.80128e+014
7.03415e+014
7.25841e+014
7.47402e+014
7.68094e+014
7.87911e+014
8.06847e+014
8.2489e+014
8.42025e+014
8.58234e+014
8.73493e+014
8.87774e+014
9.01047e+014
9.13277e+014
9.24425e+014
9.34455e+014
9.43328e+014
9.51006e+014
9.57455e+014
9.62644e+014
9.66548e+014
9.69147e+014
9.70428e+014
9.70413e+014
9.69092e+014
9.66459e+014
9.62519e+014
9.57286e+014
9.50778e+014
9.43025e+014
9.3406e+014
9.23926e+014
9.12671e+014
9.00351e+014
8.87028e+014
8.72769e+014
8.57646e+014
8.41737e+014
8.25123e+014
8.07888e+014
7.9012e+014
7.71907e+014
7.5334e+014
7.34508e+014
7.15502e+014
6.96408e+014
6.77313e+014
6.58299e+014
6.39444e+014
6.20823e+014
6.02504e+014
5.84549e+014
5.67015e+014
5.4995e+014
5.33398e+014
5.17392e+014
5.0196e+014
4.8712e+014
4.72886e+014
4.5926e+014
4.46243e+014
4.33826e+014
4.21997e+014
4.10739e+014
4.00032e+014
3.89855e+014
3.80184e+014
3.70998e+014
3.6227e+014
3.53977e+014
3.46091e+014
3.38582e+014
3.31412e+014
3.24535e+014
3.1789e+014
3.11403e+014
3.0498e+014
2.98511e+014
2.9187e+014
2.84925e+014
2.7755e+014
2.69633e+014
2.61244e+014
2.52378e+014
2.43033e+014
2.33296e+014
2.23355e+014
2.13474e+014
2.03959e+014
1.95148e+014
1.8739e+014
1.81034e+014
1.76429e+014
1.73934e+014
1.73946e+014
1.76915e+014
1.83371e+014
1.93947e+014
2.09387e+014
2.30543e+014
2.58355e+014
2.93822e+014
3.3796e+014
3.91768e+014
4.56201e+014
5.32145e+014
6.20405e+014
7.21686e+014
8.36579e+014
9.65541e+014
1.10888e+015
1.26672e+015
1.43902e+015
1.62553e+015
1.82582e+015
2.03925e+015
2.26501e+015
2.50211e+015
2.74938e+015
3.00554e+015
3.26918e+015
3.5388e+015
3.81281e+015
4.0896e+015
4.3675e+015
4.64486e+015
4.92004e+015
5.19142e+015
5.45744e+015
5.71663e+015
5.96761e+015
6.20909e+015
6.43992e+015
6.65904e+015
6.86556e+015
7.05866e+015
7.23767e+015
7.40199e+015
7.55111e+015
7.68461e+015
7.80208e+015
7.90319e+015
7.98762e+015
8.05513e+015
8.10557e+015
8.13905e+015
8.15519e+015
8.15276e+015
8.13148e+015
8.09109e+015
8.0314e+015
7.95228e+015
7.85366e+015
7.73558e+015
7.59819e+015
7.44176e+015
7.2667e+015
7.07355e+015
6.86298e+015
6.63582e+015
6.39304e+015
6.13573e+015
5.86512e+015
5.58256e+015
5.2895e+015
4.9875e+015
4.67821e+015
4.36339e+015
4.0449e+015
3.72474e+015
3.40519e+015
3.08891e+015
2.78018e+015
2.48564e+015
2.22386e+015
2.02912e+015
4.34829e+013
6.30628e+013
8.24249e+013
1.03133e+014
1.26644e+014
1.5298e+014
1.81656e+014
2.12105e+014
2.43841e+014
2.76475e+014
3.097e+014
3.4327e+014
3.76982e+014
4.10666e+014
4.44177e+014
4.77388e+014
5.10189e+014
5.42483e+014
5.74185e+014
6.05224e+014
6.35539e+014
6.65078e+014
6.93799e+014
7.21669e+014
7.48661e+014
7.74753e+014
7.99927e+014
8.24169e+014
8.47464e+014
8.69798e+014
8.91156e+014
9.1152e+014
9.30868e+014
9.49175e+014
9.66415e+014
9.82553e+014
9.97557e+014
1.01139e+015
1.024e+015
1.03537e+015
1.04544e+015
1.05418e+015
1.06155e+015
1.06751e+015
1.07206e+015
1.07515e+015
1.07677e+015
1.07695e+015
1.07566e+015
1.07292e+015
1.06874e+015
1.06312e+015
1.05609e+015
1.04768e+015
1.03793e+015
1.0269e+015
1.01463e+015
1.00119e+015
9.86649e+014
9.71076e+014
9.54554e+014
9.37168e+014
9.19008e+014
9.00165e+014
8.80736e+014
8.60817e+014
8.40505e+014
8.19899e+014
7.99093e+014
7.78183e+014
7.5726e+014
7.36412e+014
7.15722e+014
6.95269e+014
6.75125e+014
6.55354e+014
6.36015e+014
6.17158e+014
5.98826e+014
5.81054e+014
5.63867e+014
5.47283e+014
5.31312e+014
5.15954e+014
5.01205e+014
4.87053e+014
4.73479e+014
4.60461e+014
4.47975e+014
4.35993e+014
4.24486e+014
4.13425e+014
4.02782e+014
3.92528e+014
3.82632e+014
3.73061e+014
3.63775e+014
3.54722e+014
3.45839e+014
3.37042e+014
3.28231e+014
3.19284e+014
3.10068e+014
3.00437e+014
2.90262e+014
2.79557e+014
2.68294e+014
2.56467e+014
2.44166e+014
2.31596e+014
2.19088e+014
2.0707e+014
1.96018e+014
1.86427e+014
1.78779e+014
1.73528e+014
1.71111e+014
1.7197e+014
1.7657e+014
1.85433e+014
1.99151e+014
2.18398e+014
2.43935e+014
2.76603e+014
3.17309e+014
3.67002e+014
4.26649e+014
4.97203e+014
5.79585e+014
6.74661e+014
7.8322e+014
9.05957e+014
1.04345e+015
1.19612e+015
1.36424e+015
1.5479e+015
1.74698e+015
1.96116e+015
2.18993e+015
2.43255e+015
2.68812e+015
2.95553e+015
3.2335e+015
3.52062e+015
3.81535e+015
4.11604e+015
4.42097e+015
4.72837e+015
5.03644e+015
5.34337e+015
5.6474e+015
5.94676e+015
6.2398e+015
6.5249e+015
6.80059e+015
7.06547e+015
7.3183e+015
7.55794e+015
7.78339e+015
7.99377e+015
8.18831e+015
8.36633e+015
8.52723e+015
8.67049e+015
8.79562e+015
8.90215e+015
8.98968e+015
9.05786e+015
9.10645e+015
9.1355e+015
9.1437e+015
9.13067e+015
9.09614e+015
9.03995e+015
8.96199e+015
8.86224e+015
8.74077e+015
8.59778e+015
8.43356e+015
8.24857e+015
8.04339e+015
7.81875e+015
7.57555e+015
7.31482e+015
7.03774e+015
6.7456e+015
6.43983e+015
6.12196e+015
5.79363e+015
5.45655e+015
5.1125e+015
4.76336e+015
4.41113e+015
4.05797e+015
3.70644e+015
3.35977e+015
3.02317e+015
2.70541e+015
2.42758e+015
2.22809e+015
4.82241e+013
7.08276e+013
9.27256e+013
1.15583e+014
1.40789e+014
1.6853e+014
1.98476e+014
2.30172e+014
2.63195e+014
2.97191e+014
3.31873e+014
3.67003e+014
4.02385e+014
4.37847e+014
4.73241e+014
5.08433e+014
5.43305e+014
5.7775e+014
6.11674e+014
6.44991e+014
6.77628e+014
7.09521e+014
7.40614e+014
7.70861e+014
8.00222e+014
8.28664e+014
8.56157e+014
8.82675e+014
9.08195e+014
9.32693e+014
9.56145e+014
9.78526e+014
9.99807e+014
1.01996e+015
1.03895e+015
1.05674e+015
1.0733e+015
1.08857e+015
1.10253e+015
1.11513e+015
1.12632e+015
1.13607e+015
1.14434e+015
1.15109e+015
1.1563e+015
1.15994e+015
1.162e+015
1.16248e+015
1.16137e+015
1.1587e+015
1.15445e+015
1.14866e+015
1.14135e+015
1.13255e+015
1.12231e+015
1.11068e+015
1.09772e+015
1.08349e+015
1.06808e+015
1.05156e+015
1.03402e+015
1.01555e+015
9.96244e+014
9.76201e+014
9.55524e+014
9.34316e+014
9.12679e+014
8.90717e+014
8.68532e+014
8.46222e+014
8.23885e+014
8.01611e+014
7.79488e+014
7.57597e+014
7.36012e+014
7.148e+014
6.9402e+014
6.73723e+014
6.53952e+014
6.3474e+014
6.16111e+014
5.9808e+014
5.80656e+014
5.63834e+014
5.47607e+014
5.31957e+014
5.1686e+014
5.0229e+014
4.88214e+014
4.74599e+014
4.6141e+014
4.48612e+014
4.36171e+014
4.24054e+014
4.12225e+014
4.00648e+014
3.89277e+014
3.78054e+014
3.66908e+014
3.55749e+014
3.44465e+014
3.32919e+014
3.20977e+014
3.08469e+014
2.95411e+014
2.81687e+014
2.6728e+014
2.52273e+014
2.36895e+014
2.21539e+014
2.06763e+014
1.93238e+014
1.81658e+014
1.72682e+014
1.66899e+014
1.6481e+014
1.66851e+014
1.73437e+014
1.85001e+014
2.02015e+014
2.25014e+014
2.54607e+014
2.91504e+014
3.36511e+014
3.90514e+014
4.5446e+014
5.29321e+014
6.16062e+014
7.15615e+014
8.28851e+014
9.5656e+014
1.09943e+015
1.25801e+015
1.43269e+015
1.6237e+015
1.83104e+015
2.05452e+015
2.29373e+015
2.54805e+015
2.81665e+015
3.09849e+015
3.39236e+015
3.69685e+015
4.01042e+015
4.33143e+015
4.6581e+015
4.98855e+015
5.32089e+015
5.65323e+015
5.98366e+015
6.31031e+015
6.63135e+015
6.94502e+015
7.24965e+015
7.54369e+015
7.8257e+015
8.09434e+015
8.34843e+015
8.58689e+015
8.80879e+015
9.01326e+015
9.19955e+015
9.36698e+015
9.5149e+015
9.64274e+015
9.74992e+015
9.83592e+015
9.90025e+015
9.94253e+015
9.96253e+015
9.95903e+015
9.93182e+015
9.88078e+015
9.80584e+015
9.70704e+015
9.58449e+015
9.43842e+015
9.2692e+015
9.07732e+015
8.86343e+015
8.62834e+015
8.37301e+015
8.09855e+015
7.80623e+015
7.49745e+015
7.17373e+015
6.83667e+015
6.48799e+015
6.1295e+015
5.76304e+015
5.39049e+015
5.01382e+015
4.63507e+015
4.25652e+015
3.88086e+015
3.51164e+015
3.15448e+015
2.81906e+015
2.5268e+015
2.31889e+015
5.15983e+013
7.64362e+013
1.00227e+014
1.24719e+014
1.51084e+014
1.79664e+014
2.10276e+014
2.42582e+014
2.76229e+014
3.1091e+014
3.4636e+014
3.82359e+014
4.18715e+014
4.55261e+014
4.91848e+014
5.28339e+014
5.64612e+014
6.00553e+014
6.36057e+014
6.7103e+014
7.05389e+014
7.39056e+014
7.71966e+014
8.0406e+014
8.35286e+014
8.65598e+014
8.94956e+014
9.23324e+014
9.50668e+014
9.76954e+014
1.00215e+015
1.02623e+015
1.04914e+015
1.07087e+015
1.09136e+015
1.11059e+015
1.1285e+015
1.14505e+015
1.16021e+015
1.17392e+015
1.18614e+015
1.19683e+015
1.20596e+015
1.21348e+015
1.21937e+015
1.2236e+015
1.22616e+015
1.22703e+015
1.22623e+015
1.22376e+015
1.21963e+015
1.21386e+015
1.20648e+015
1.19753e+015
1.18705e+015
1.1751e+015
1.16175e+015
1.14705e+015
1.1311e+015
1.11398e+015
1.09577e+015
1.07658e+015
1.0565e+015
1.03564e+015
1.01411e+015
9.92005e+014
9.69439e+014
9.46521e+014
9.23355e+014
9.00045e+014
8.7669e+014
8.53384e+014
8.30216e+014
8.0727e+014
7.84621e+014
7.62336e+014
7.40476e+014
7.1909e+014
6.98221e+014
6.77899e+014
6.58149e+014
6.38981e+014
6.204e+014
6.024e+014
5.84967e+014
5.68078e+014
5.51706e+014
5.35816e+014
5.2037e+014
5.05327e+014
4.90646e+014
4.76286e+014
4.62206e+014
4.48366e+014
4.34728e+014
4.21249e+014
4.07877e+014
3.94546e+014
3.8117e+014
3.67656e+014
3.53884e+014
3.3967e+014
3.24978e+014
3.09633e+014
2.93536e+014
2.76635e+014
2.58989e+014
2.40823e+014
2.22584e+014
2.0496e+014
1.88837e+014
1.75181e+014
1.64895e+014
1.58718e+014
1.57188e+014
1.60677e+014
1.69456e+014
1.83772e+014
2.03903e+014
2.30211e+014
2.63162e+014
3.03317e+014
3.51383e+014
4.08198e+014
4.74697e+014
5.51876e+014
6.4075e+014
7.4231e+014
8.57497e+014
9.87176e+014
1.13212e+015
1.293e+015
1.47032e+015
1.66442e+015
1.87545e+015
2.10335e+015
2.34781e+015
2.60833e+015
2.88418e+015
3.1744e+015
3.47785e+015
3.79319e+015
4.11891e+015
4.45338e+015
4.79485e+015
5.1414e+015
5.49104e+015
5.8418e+015
6.19173e+015
6.53886e+015
6.88127e+015
7.21709e+015
7.54454e+015
7.86191e+015
8.16763e+015
8.4602e+015
8.73829e+015
9.00065e+015
9.24618e+015
9.47386e+015
9.68279e+015
9.87212e+015
1.00411e+016
1.01889e+016
1.0315e+016
1.04186e+016
1.04991e+016
1.05559e+016
1.05883e+016
1.0596e+016
1.05781e+016
1.05345e+016
1.04651e+016
1.03701e+016
1.02495e+016
1.01038e+016
9.93312e+015
9.73819e+015
9.51966e+015
9.2784e+015
9.01545e+015
8.732e+015
8.4294e+015
8.10915e+015
7.77285e+015
7.42221e+015
7.05901e+015
6.68514e+015
6.30256e+015
5.91321e+015
5.51904e+015
5.122e+015
4.72416e+015
4.32772e+015
3.93528e+015
3.55014e+015
3.17726e+015
2.82464e+015
2.50992e+015
2.27366e+015
5.37279e+013
7.9916e+013
1.0495e+014
1.30566e+014
1.57611e+014
1.86535e+014
2.17279e+014
2.49623e+014
2.83294e+014
3.18031e+014
3.53602e+014
3.89804e+014
4.2646e+014
4.63409e+014
5.00505e+014
5.37613e+014
5.74609e+014
6.11374e+014
6.47801e+014
6.83787e+014
7.19239e+014
7.54074e+014
7.88215e+014
8.21591e+014
8.54141e+014
8.85809e+014
9.16543e+014
9.46297e+014
9.75027e+014
1.00269e+015
1.02925e+015
1.05466e+015
1.07889e+015
1.10188e+015
1.1236e+015
1.144e+015
1.16304e+015
1.18068e+015
1.19685e+015
1.21152e+015
1.22465e+015
1.23619e+015
1.2461e+015
1.25434e+015
1.26089e+015
1.26572e+015
1.26882e+015
1.27016e+015
1.26975e+015
1.26761e+015
1.26374e+015
1.25816e+015
1.2509e+015
1.24201e+015
1.23153e+015
1.21952e+015
1.20604e+015
1.19117e+015
1.17499e+015
1.15758e+015
1.13905e+015
1.11948e+015
1.09899e+015
1.07768e+015
1.05566e+015
1.03304e+015
1.00993e+015
9.86446e+014
9.62691e+014
9.38773e+014
9.14791e+014
8.90842e+014
8.67018e+014
8.43401e+014
8.20067e+014
7.97084e+014
7.74511e+014
7.52398e+014
7.30784e+014
7.09699e+014
6.89163e+014
6.69185e+014
6.49767e+014
6.30897e+014
6.12556e+014
5.94718e+014
5.77347e+014
5.60404e+014
5.43842e+014
5.27615e+014
5.11674e+014
4.95969e+014
4.80453e+014
4.65078e+014
4.49802e+014
4.34579e+014
4.19346e+014
4.04025e+014
3.88505e+014
3.72705e+014
3.56524e+014
3.39786e+014
3.22352e+014
3.04092e+014
2.84931e+014
2.64891e+014
2.44169e+014
2.23221e+014
2.02834e+014
1.84122e+014
1.68369e+014
1.56785e+014
1.50302e+014
1.49471e+014
1.54508e+014
1.65438e+014
1.82247e+014
2.04984e+014
2.33818e+014
2.69102e+014
3.11319e+014
3.6105e+014
4.19101e+014
4.86408e+014
5.63977e+014
6.52843e+014
7.54035e+014
8.68542e+014
9.97285e+014
1.1411e+015
1.30073e+015
1.47679e+015
1.66974e+015
1.87985e+015
2.10719e+015
2.35159e+015
2.61265e+015
2.88977e+015
3.18208e+015
3.48854e+015
3.80788e+015
4.13867e+015
4.4793e+015
4.8281e+015
5.1833e+015
5.54279e+015
5.90446e+015
6.26632e+015
6.62642e+015
6.9828e+015
7.33352e+015
7.67674e+015
8.01066e+015
8.33359e+015
8.64397e+015
8.94031e+015
9.22125e+015
9.48557e+015
9.7321e+015
9.95982e+015
1.01678e+016
1.0355e+016
1.05207e+016
1.06641e+016
1.07843e+016
1.08805e+016
1.09521e+016
1.09983e+016
1.10185e+016
1.10119e+016
1.09781e+016
1.09172e+016
1.08292e+016
1.07144e+016
1.05729e+016
1.04052e+016
1.02118e+016
9.99359e+015
9.75134e+015
9.48615e+015
9.19929e+015
8.89216e+015
8.56635e+015
8.22353e+015
7.8655e+015
7.49411e+015
7.11127e+015
6.71893e+015
6.31932e+015
5.91442e+015
5.5061e+015
5.09626e+015
4.68679e+015
4.27963e+015
3.87682e+015
3.48047e+015
3.09283e+015
2.71513e+015
2.35387e+015
2.01377e+015
5.4574e+013
8.13882e+013
1.07071e+014
1.33308e+014
1.60585e+014
1.89424e+014
2.1981e+014
2.51677e+014
2.8482e+014
3.1903e+014
3.54111e+014
3.89884e+014
4.26188e+014
4.62876e+014
4.99808e+014
5.36856e+014
5.73896e+014
6.10812e+014
6.47492e+014
6.83831e+014
7.19732e+014
7.55104e+014
7.89861e+014
8.23927e+014
8.5723e+014
8.89705e+014
9.21291e+014
9.51932e+014
9.81575e+014
1.01017e+015
1.03767e+015
1.06402e+015
1.08918e+015
1.1131e+015
1.13573e+015
1.15703e+015
1.17693e+015
1.1954e+015
1.21239e+015
1.22784e+015
1.24172e+015
1.25397e+015
1.26455e+015
1.27344e+015
1.2806e+015
1.286e+015
1.28963e+015
1.29147e+015
1.29152e+015
1.28979e+015
1.28629e+015
1.28103e+015
1.27407e+015
1.26542e+015
1.25514e+015
1.24329e+015
1.22994e+015
1.21515e+015
1.19902e+015
1.18164e+015
1.16309e+015
1.14348e+015
1.12292e+015
1.10151e+015
1.07937e+015
1.0566e+015
1.03333e+015
1.00965e+015
9.8569e+014
9.6155e+014
9.37331e+014
9.1313e+014
8.89036e+014
8.65135e+014
8.415e+014
8.182e+014
7.9529e+014
7.7282e+014
7.50827e+014
7.29338e+014
7.08371e+014
6.87931e+014
6.68014e+014
6.48605e+014
6.29682e+014
6.1121e+014
5.93148e+014
5.75451e+014
5.58065e+014
5.40935e+014
5.24004e+014
5.07215e+014
4.90511e+014
4.73828e+014
4.57138e+014
4.40381e+014
4.23482e+014
4.06353e+014
3.88886e+014
3.70964e+014
3.52454e+014
3.33205e+014
3.13081e+014
2.9199e+014
2.69927e+014
2.47046e+014
2.23763e+014
2.00896e+014
1.79728e+014
1.61905e+014
1.49023e+014
1.42209e+014
1.42018e+014
1.48435e+014
1.61166e+014
1.79896e+014
2.04455e+014
2.34874e+014
2.71364e+014
3.14373e+014
3.64429e+014
4.22267e+014
4.88826e+014
5.6509e+014
6.52075e+014
7.50804e+014
8.62279e+014
9.87449e+014
1.12719e+015
1.2823e+015
1.45348e+015
1.64129e+015
1.84612e+015
2.06816e+015
2.30738e+015
2.56351e+015
2.83606e+015
3.1243e+015
3.42728e+015
3.74384e+015
4.07263e+015
4.41212e+015
4.76064e+015
5.11652e+015
5.47829e+015
5.84334e+015
6.20937e+015
6.57458e+015
6.9371e+015
7.29499e+015
7.64637e+015
7.9894e+015
8.32234e+015
8.64356e+015
8.95152e+015
9.24477e+015
9.52198e+015
9.78193e+015
1.00235e+016
1.02456e+016
1.04472e+016
1.06274e+016
1.07853e+016
1.092e+016
1.10306e+016
1.11163e+016
1.11762e+016
1.12096e+016
1.12157e+016
1.11939e+016
1.11441e+016
1.10665e+016
1.0961e+016
1.0828e+016
1.06679e+016
1.04812e+016
1.02687e+016
1.00312e+016
9.76979e+015
9.48579e+015
9.18063e+015
8.8559e+015
8.51335e+015
8.15482e+015
7.78223e+015
7.39751e+015
7.00258e+015
6.59912e+015
6.1903e+015
5.77772e+015
5.36303e+015
4.94788e+015
4.53381e+015
4.12213e+015
3.71365e+015
3.30815e+015
2.9043e+015
2.49911e+015
2.08828e+015
1.62833e+015
5.39041e+013
8.09476e+013
1.06907e+014
1.33321e+014
1.6041e+014
1.88689e+014
2.18308e+014
2.49237e+014
2.81352e+014
3.145e+014
3.48523e+014
3.83273e+014
4.1861e+014
4.54402e+014
4.90523e+014
5.26853e+014
5.63275e+014
5.99675e+014
6.35945e+014
6.71978e+014
7.07677e+014
7.42945e+014
7.77693e+014
8.11838e+014
8.45302e+014
8.78012e+014
9.09898e+014
9.40898e+014
9.70951e+014
9.99997e+014
1.02798e+015
1.05485e+015
1.08054e+015
1.10501e+015
1.1282e+015
1.15006e+015
1.17053e+015
1.18957e+015
1.20711e+015
1.22312e+015
1.23754e+015
1.25034e+015
1.26146e+015
1.27087e+015
1.27855e+015
1.28446e+015
1.28858e+015
1.29091e+015
1.29144e+015
1.29017e+015
1.28711e+015
1.28229e+015
1.27573e+015
1.26748e+015
1.25758e+015
1.24609e+015
1.23308e+015
1.21863e+015
1.20281e+015
1.18572e+015
1.16745e+015
1.1481e+015
1.12779e+015
1.10662e+015
1.08469e+015
1.06214e+015
1.03906e+015
1.01556e+015
9.9177e+014
9.6779e+014
9.43716e+014
9.19645e+014
8.95668e+014
8.71867e+014
8.48316e+014
8.2508e+014
8.02215e+014
7.79766e+014
7.57767e+014
7.36244e+014
7.1521e+014
6.94667e+014
6.74607e+014
6.5501e+014
6.35848e+014
6.17081e+014
5.98662e+014
5.80537e+014
5.62647e+014
5.44927e+014
5.27313e+014
5.09739e+014
4.92138e+014
4.74447e+014
4.56604e+014
4.38543e+014
4.2018e+014
4.01418e+014
3.82139e+014
3.6221e+014
3.41497e+014
3.19869e+014
2.97237e+014
2.73587e+014
2.49038e+014
2.23953e+014
1.99064e+014
1.75747e+014
1.55902e+014
1.41634e+014
1.34255e+014
1.34369e+014
1.41803e+014
1.55846e+014
1.75832e+014
2.01375e+014
2.32437e+014
2.69197e+014
3.11919e+014
3.61174e+014
4.17644e+014
4.82187e+014
5.55729e+014
6.39236e+014
7.33691e+014
8.40078e+014
9.59351e+014
1.09242e+015
1.24013e+015
1.40324e+015
1.58238e+015
1.77803e+015
1.99051e+015
2.21989e+015
2.46606e+015
2.72866e+015
3.0071e+015
3.30057e+015
3.60802e+015
3.9282e+015
4.25969e+015
4.60089e+015
4.95003e+015
5.30583e+015
5.66674e+015
6.02967e+015
6.3925e+015
6.75335e+015
7.11068e+015
7.46258e+015
7.80717e+015
8.14271e+015
8.46753e+015
8.78005e+015
9.07882e+015
9.36245e+015
9.62967e+015
9.87929e+015
1.01102e+016
1.03213e+016
1.05116e+016
1.06802e+016
1.08262e+016
1.09485e+016
1.10463e+016
1.11188e+016
1.11649e+016
1.11841e+016
1.11753e+016
1.11385e+016
1.10736e+016
1.09807e+016
1.086e+016
1.07118e+016
1.05366e+016
1.03351e+016
1.01082e+016
9.85676e+015
9.58216e+015
9.28577e+015
8.96919e+015
8.63415e+015
8.2825e+015
7.91617e+015
7.53716e+015
7.14746e+015
6.74902e+015
6.34382e+015
5.93406e+015
5.52147e+015
5.10758e+015
4.69367e+015
4.2807e+015
3.86908e+015
3.45814e+015
3.04491e+015
2.62751e+015
2.20076e+015
1.7539e+015
1.22889e+015
5.20197e+013
7.88846e+013
1.04799e+014
1.30826e+014
1.57247e+014
1.84582e+014
2.13028e+014
2.42609e+014
2.73259e+014
3.04872e+014
3.37333e+014
3.70523e+014
4.04329e+014
4.38638e+014
4.73341e+014
5.08329e+014
5.43497e+014
5.78738e+014
6.1395e+014
6.49029e+014
6.83878e+014
7.18401e+014
7.52508e+014
7.86111e+014
8.19127e+014
8.5148e+014
8.83093e+014
9.13898e+014
9.43826e+014
9.72813e+014
1.0008e+015
1.02771e+015
1.0535e+015
1.07811e+015
1.10147e+015
1.12353e+015
1.14423e+015
1.16352e+015
1.18135e+015
1.19765e+015
1.2124e+015
1.22553e+015
1.23701e+015
1.2468e+015