/*--------------------------------*- C++ -*----------------------------------*\
| =========                 |                                                 |
| \\      /  F ield         | OpenFOAM: The Open Source CFD Toolbox           |
|  \\    /   O peration     | Version:  5.x                                   |
|   \\  /    A nd           | Web:      www.OpenFOAM.org                      |
|    \\/     M anipulation  |                                                 |
\*---------------------------------------------------------------------------*/
/*   Windows 32 and 64 bit porting by blueCAPE: http://www.bluecape.com.pt   *\
|  Based on Windows porting (2.0.x v4) by Symscape: http://www.symscape.com   |
\*---------------------------------------------------------------------------*/
FoamFile
{
    version     2.0;
    format      ascii;
    class       volScalarField;
    location    "2000";
    object      nut;
}
// * * * * * * * * * * * * * * * * * * * * * * * * * * * * * * * * * * * * * //

dimensions      [0 2 -1 0 0 0 0];

internalField   nonuniform List<scalar> 
4000
(
1312.5
1288.77
1381.15
1636.86
2000.42
2357.63
2700.49
3024.45
3329.89
3617.85
3889.18
4144.56
4384.61
4610.01
4821.45
5019.59
5205.14
5378.77
5541.22
5693.18
5835.39
5968.53
6093.31
6210.36
6320.33
6423.8
6521.31
6613.34
6700.33
6782.65
6860.6
6934.43
7004.32
7070.39
7132.7
7191.25
7245.99
7296.84
7343.65
7386.25
7424.47
7458.11
7487.02
7511.21
7531.06
7547.83
7560.12
7567.52
7569.87
7567.03
7558.9
7545.39
7526.42
7501.97
7472
7436.53
7395.6
7349.26
7297.61
7240.77
7178.9
7112.19
7040.85
6965.14
6885.35
6801.8
6714.84
6624.84
6532.23
6437.45
6340.98
6243.32
6144.98
6046.52
5948.48
5851.43
5755.94
5662.6
5571.97
5484.59
5401
5321.71
5247.2
5177.92
5114.25
5056.51
5005.02
4960.01
4921.7
4890.2
4865.59
4847.81
4836.74
4832.14
4833.64
4840.77
4852.91
4869.29
4889.04
4911.1
4934.31
4957.26
4978.17
4993.99
4998.35
4992.23
4983.08
4974.63
4965.88
4951.63
4927.49
4894.94
4856.39
4813.33
4767.2
4719.57
4672.03
4626.18
4583.67
4546.21
4515.69
4494.19
4484.16
4488.66
4511.57
4557.87
4633.87
4747.36
4907.38
5123.48
5404.35
5756.11
6180.85
6676.1
7235.34
7849.33
8507.6
9199.73
9916.04
10648
11388.3
12130.6
12869.6
13600.7
14320.1
15024.2
15710.2
16375.3
17017.5
17634.7
18225.2
18787.6
19320.5
19822.9
20294.1
20733.3
21140.1
21514.3
21855.7
22164.6
22441.1
22685.6
22898.8
23081.1
23233.4
23356.2
23450.2
23516
23554.3
23565.6
23550.9
23517.1
23476.8
23422.2
23347.7
23249.7
23125.6
22973.6
22792.4
22581.1
22339
22065.7
21760.7
21424
21055.4
20654.9
20222.7
19759
19264.1
18738.5
18182.9
17597.8
16984.2
16342.8
15674.6
14980.5
14261.8
13517.9
12754.9
11992.8
4189.02
7342.04
7803.95
8323.46
9417.08
11072.2
13114.9
15355.9
17704.9
20106.9
22518.9
24904.3
27232.7
29481.4
31634.7
33681.3
35613.7
37428.1
39123.9
40703
42169.3
43528.3
44786.6
45951.5
47030.8
48032.4
48964.1
49833.4
50647.5
51412.8
52135.2
52819.8
53470.9
54092.1
54686.1
55254.7
55799.1
56319.7
56815.9
57286.7
57729.9
58142.3
58519.1
58852.9
59131.6
59339.3
59514.5
59652
59750
59807.4
59823
59796.1
59725.8
59611.6
59453.2
59250.3
59002.9
58711.3
58376
57997.5
57577
57115.6
56614.7
56076.2
55501.8
54893.9
54255
53587.8
52895.1
52180.3
51446.5
50697.4
49936.6
49168
48395.5
47623.1
46854.8
46094.9
45347.3
44616.1
43905.2
43218.7
42560.1
41933.1
41341
40786.9
40273.5
39803.6
39379.7
39003.9
38678
38403.2
38180.2
38008.8
37887.8
37815
37786.4
37796.5
37837.7
37900.4
37972.2
38038.4
38081.3
38080.9
38015.9
37869.1
37621.7
37273
36841.5
36332
35751
35111.9
34431.4
33727.1
33018.8
32327.6
31674.4
31080.7
30568.7
30162.2
29888.4
29779.6
29876.3
30230.5
30908
31990.6
33573.6
35758.4
38635.7
42263.1
46641.8
51705
57326.5
63346.8
69605.8
75968.3
82335.2
88641.3
94848.1
100933
106883
112688
118339
123824
129131
134249
139162
143858
148324
152545
156512
160215
163645
166796
169664
172246
174542
176555
178287
179744
180933
181863
182541
182977
183179
183155
182912
182458
181800
180946
179911
178723
176988
174793
172206
169270
166020
162483
158682
154636
150362
145874
141186
136312
131267
126068
120730
115272
109713
104072
98372.5
92635.2
86882.9
81137.1
75422.9
69748.6
64160.7
58602.5
53242.2
48354.7
5344.54
12338.7
15412.8
17275.6
19838.3
23326.4
27510.8
32135.9
37028
42059.2
47128.3
52154
57072.5
61836.4
66411.1
70772.8
74906.4
78804.7
82466.2
85894.7
89097.4
92084.9
94869.4
97465
99886.2
102148
104266
106254
108126
109894
111571
113165
114687
116141
117535
118871
120151
121375
122544
123652
124696
125669
126561
127362
128055
128629
129112
129508
129816
130033
130157
130185
130117
129950
129684
129318
128851
128285
127620
126857
125999
125047
124006
122879
121669
120382
119024
117599
116115
114577
112995
111374
109723
108051
106366
104676
102991
101318
99668.4
98049.4
96469.8
94938
93461.8
92048.7
90705.3
89437.7
88251.1
87150.2
86138.7
85219.4
84394
83662.6
83023.8
82474.1
82007.8
81616.1
81287
81004.4
80748
80492.7
80208.6
79860.7
79409.9
78813.9
78030.7
77024.6
75764.6
74301.4
72668.1
70888.1
68994.1
67029.4
65043.1
63086
61208.6
59460.1
57888.1
56540.5
55468
54727.4
54385.9
54526.9
55254.6
56698.1
59010.7
62362.9
66925.6
72844.2
80208
89024.6
99208.9
110591
122941
136004
149530
163300
177140
190917
204539
217942
231080
243918
256424
268569
280322
291651
302522
312901
322755
332053
340765
348865
356331
363146
369298
374781
379593
383738
387226
390069
392286
393896
394918
395376
395290
394679
393563
391957
389880
387355
384452
380849
376422
371199
365221
358532
351173
343185
334606
325474
315825
305694
295118
284135
272784
261106
249146
236949
224564
212042
199436
186800
174189
161658
149264
137059
125124
113543
102715
93953.1
6934.89
16848.3
23053.8
27082.2
31487.5
36878.4
43123.3
49959.1
57160.4
64547.1
71975.8
79333.4
86533.3
93511.3
100222
106633
112727
118495
123935
129052
133858
138365
142590
146551
150268
153759
157044
160143
163072
165849
168489
171004
173405
175701
177900
180004
182016
183936
185762
187488
189109
190616
191998
193244
194340
195278
196057
196700
197204
197565
197780
197846
197762
197525
197134
196588
195888
195034
194029
192875
191574
190132
188553
186844
185011
183061
181003
178847
176600
174275
171881
169431
166936
164408
161860
159305
156754
154222
151721
149263
146860
144523
142263
140089
138010
136032
134162
132403
130757
129225
127805
126492
125279
124156
123107
122113
121151
120191
119197
118127
116936
115570
113976
112098
109887
107302
104338
101125
97699.3
94125.1
90480.1
86851.3
83327.9
79995.4
76933.4
74215.8
71912.4
70093.8
68836.4
68228.1
68374
69400.7
71457.1
74709.4
79328.5
85471
93255.2
102741
113917
126705
140965
156517
173158
190676
208869
227549
246549
265729
284968
304164
323228
342079
360643
378846
396617
413885
430578
446628
461968
476537
490276
503135
515070
526047
536039
545028
553007
559976
565944
570926
574943
578021
580186
581468
581895
581492
580283
578288
575527
572016
567761
562440
556048
548595
540101
530590
520096
508653
496300
483078
469032
454211
438667
422455
405636
388275
370440
352205
333648
314848
295892
276866
257861
238968
220288
201932
184062
166975
151468
139882
8312.82
20773.9
30208.1
36767.3
43178.7
50400.1
58475.2
67190
76308.8
85626.9
94977.7
104230
113283
122064
130519
138614
146327
153649
160578
167121
173290
179099
184568
189717
194568
199142
203462
207550
211424
215103
218605
221942
225128
228172
231080
233858
236506
239025
241410
243658
245759
247705
249486
251089
252503
253719
254728
255548
256179
256617
256860
256906
256751
256395
255837
255077
254116
252955
251599
250052
248318
246403
244316
242064
239657
237104
234418
231609
228691
225676
222580
219415
216197
212942
209663
206377
203100
199845
196627
193462
190362
187339
184405
181570
178840
176223
173722
171339
169071
166915
164863
162903
161020
159194
157399
155603
153770
151855
149808
147573
145089
142292
139119
135514
131428
126835
121852
116581
111115
105571
100087
94800.2
89846.1
85345.5
81405.7
78122
75583
73877.3
73100
73356.5
74764.2
77450.2
81544.8
87169.2
94422.1
103365
114013
126334
140252
155660
172429
190421
209494
229505
250319
271803
293832
316286
339050
362015
385070
408110
431025
453707
476046
497935
519263
539927
559825
578863
596954
614021
629997
644827
658466
670884
682061
691991
700674
708123
714356
719396
723270
726006
727630
728167
727638
726058
723438
719782
714966
708847
701429
692717
682719
671451
658933
645192
630260
614178
596990
578749
559516
539358
518347
496566
474102
451050
427510
403590
379401
355060
330687
306413
282380
258768
235849
214159
194958
181389
9412.28
24069.2
36515.1
45665.7
54095.6
63012.5
72657.2
82906
93549.2
104383
115233
125961
136460
146651
156477
165900
174898
183459
191583
199277
206551
213423
219912
226040
231830
237305
242487
247399
252062
256494
260714
264735
268569
272226
275714
279035
282191
285182
288004
290650
293113
295384
297452
299306
300936
302330
303481
304393
305070
305511
305713
305674
305394
304871
304106
303100
301856
300378
298670
296738
294591
292236
289683
286943
284027
280949
277722
274360
270878
267292
263619
259874
256074
252236
248378
244515
240664
236841
233061
229338
225686
222116
218638
215261
211991
208830
205779
202837
199996
197246
194574
191958
189375
186794
184178
181482
178655
175640
172372
168782
164800
160355
155383
149829
143659
136972
129876
122495
114994
107563
100410
93734.1
87720.1
82525.8
78283.2
75102.3
73078.1
72296.7
72839.1
74780.3
78186.8
83115
89609.9
97700.6
107396
118683
131521
145848
161582
178635
196915
216334
236803
258236
280546
303646
327445
351847
376751
402052
427638
453388
479177
504877
530352
555468
580088
604082
627322
649690
671077
691382
710522
728422
745026
760289
774181
786685
797796
807518
815863
822850
828498
832830
835865
837619
838104
837323
835270
831927
827107
820800
813005
803720
792949
780699
766982
751817
735231
717257
697940
677332
655496
632503
608436
583386
557452
530743
503378
475481
447183
418622
389940
361291
332846
304822
277560
251752
229024
213252
10165
26818.3
41751.5
53345.9
63694.1
74139.7
85101.3
96566.8
108379
120355
132327
144158
155739
166988
177846
188275
198249
207757
216797
225376
233506
241203
248487
255379
261904
268085
273944
279504
284785
289806
294585
299135
303469
307595
311519
315246
318775
322107
325236
328157
330863
333344
335589
337590
339335
340815
342020
342943
343595
343973
344075
343901
343452
342727
341729
340461
338928
337134
335087
332795
330268
327517
324553
321389
318041
314522
310849
307037
303104
299067
294944
290752
286509
282234
277943
273652
269379
265138
260945
256811
252750
248770
244879
241084
237388
233789
230284
226867
223525
220241
216995
213757
210494
207164
203718
200099
196242
192075
187521
182503
176943
170767
163923
156356
148175
139440
130289
120920
111580
102553
94131.1
86584.5
80148.2
75008.2
71300.6
69116.6
68509.9
69504.4
72100.3
76275.5
81989.6
89203.7
97887.4
108018
119574
132528
146838
162448
179297
197328
216487
236727
258000
280257
303446
327505
352365
377949
404165
430913
458081
485544
513170
540816
568334
595573
622380
648608
674115
698768
722441
745023
766415
786535
805313
822697
838648
853143
866167
877718
887802
896428
903609
909358
913685
916594
918084
918141
916736
913814
909249
903043
895197
885708
874576
861800
847387
831350
813710
794496
773749
751520
727872
702877
676621
649199
620718
591295
561057
530139
498682
466829
434725
402513
370333
338333
306710
275915
247391
225872
10711
29022.3
45785
59536.1
71621.8
83408.3
95451.7
107853
120524
133316
146080
158684
171023
183016
194602
205741
216408
226591
236286
245500
254244
262536
270394
277840
284897
291589
297938
303966
309693
315138
320316
325240
329923
334372
338594
342590
346362
349908
353224
356304
359140
361725
364049
366101
367873
369355
370537
371410
371980
372244
372205
371863
371218
370274
369034
367504
365689
363598
361239
358623
355762
352669
349358
345844
342144
338273
334251
330093
325820
321449
316999
312488
307934
303355
298768
294189
289633
285115
280646
276238
271901
267641
263464
259372
255364
251435
247577
243778
240020
236281
232529
228729
224837
220800
216556
212036
207161
201847
196004
189549
182410
174496
165838
156432
146343
135692
124680
113595
102799
92688
83654
76035.8
70095.1
65996.8
63810.6
63524.9
65070.9
68346
73231.7
79602.6
87332.7
96349
106620
118137
130894
144876
160052
176381
193823
212353
231951
252602
274287
296980
320647
345243
370711
396981
423968
451576
479690
508184
536922
565755
594527
623075
651240
678867
705806
731915
757063
781131
804015
825624
845884
864737
882138
898057
912474
925381
936774
946655
955030
961899
967262
971112
973431
974190
973340
970802
966511
960472
952681
943133
931823
918747
903905
887306
868966
848912
827180
803822
778896
752476
724647
695505
665157
633721
601330
568117
534217
499755
464841
429545
393855
357602
320309
280989
238550
196752
11062.2
30607.6
48563.5
64073.4
77657.6
90582.4
103489
116580
129838
143161
156422
169505
182310
194758
206791
218367
229461
240060
250160
259768
268894
277556
285771
293563
300953
307965
314619
320938
326941
332644
338064
343212
348100
352733
357118
361256
365148
368791
372183
375316
378185
380781
383095
385119
386844
388260
389359
390133
390579
390698
390492
389964
389115
387951
386477
384700
382629
380272
377641
374750
371611
368240
364653
360867
356900
352769
348495
344095
339589
334996
330335
325625
320883
316125
311369
306629
301918
297249
292632
288076
283587
279169
274824
270549
266340
262188
258079
253996
249914
245804
241628
237340
232887
228202
223213
217837
211983
205553
198444
190584
181932
172443
162125
151015
139212
126895
114356
102008
90361.3
79946.3
71248.3
64626.8
60279.1
58224.9
58346.4
60449.1
64316.9
69745.1
76552.4
84580.6
93688.1
103846
115070
127377
140777
155262
170812
187404
205025
223678
243372
264113
285897
308712
332534
357324
383034
409595
436927
464932
493498
522498
551792
581231
610654
639893
668784
697171
724904
751837
777837
802783
826568
849098
870296
890100
908461
925343
940721
954580
966907
977698
986946
994644
1.00078e+006
1.00533e+006
1.00826e+006
1.00954e+006
1.0091e+006
1.00684e+006
1.00276e+006
996858
989125
979554
968132
954854
939716
922722
903887
883235
860800
836629
810783
783331
754357
723951
692214
659254
625210
590199
554324
517658
480219
441905
402385
360843
315397
261722
193337
104907
11178.6
31452.3
50059.3
66856.6
81663.5
95512.5
109075
122635
136240
149837
163329
176618
189614
202245
214454
226201
237462
248224
258484
268247
277524
286333
294692
302623
310147
317288
324066
330501
336613
342416
347925
353152
358105
362790
367213
371374
375274
378909
382276
385370
388184
390711
392943
394872
396490
397789
398761
399399
399696
399653
399272
398557
397512
396143
394457
392464
390172
387595
384745
381637
378286
374709
370924
366949
362804
358507
354079
349539
344906
340201
335441
330644
325829
321010
316202
311418
306671
301969
297321
292732
288206
283743
279340
274992
270689
266417
262158
257888
253576
249186
244671
239977
235038
229773
224100
217923
211140
203650
195361
186211
176172
165243
153456
140885
127673
114081
100527
87598.2
75987.7
66357.5
59207.7
54738
52894
53430.7
56017.1
60324.2
66076
73059
81112.5
90119.1
99996.8
110761
122434
135038
148594
163113
178601
195063
212514
230976
250471
271011
292602
315236
338893
363543
389135
415607
442878
470852
499417
528449
557809
587351
616917
646327
675422
704049
732060
759312
785673
811020
835246
858258
879976
900334
919280
936772
952779
967277
980247
991674
1.00154e+006
1.00983e+006
1.01651e+006
1.02156e+006
1.02493e+006
1.02656e+006
1.02638e+006
1.02433e+006
1.0204e+006
1.01459e+006
1.00691e+006
997321
985824
972404
957055
939780
920589
899506
876563
851806
825292
797088
767271
735923
703127
668946
633560
597038
559416
520670
480655
439004
394940
346953
292513
229035
156199
77098.4
10932.3
31208.1
50172.9
67852.4
83553
98091
112113
125937
139669
153300
166769
179999
192917
205458
217572
229224
240389
251056
261224
270899
280094
288823
297108
304970
312430
319509
326229
332608
338664
344412
349863
355029
359916
364530
368873
372948
376753
380284
383540
386513
389198
391589
393679
395460
396926
398069
398884
399364
399502
399295
398746
397858
396639
395094
393234
391067
388607
385866
382860
379604
376116
372414
368516
364442
360213
355847
351366
346788
342135
337424
332673
327901
323123
318353
313604
308888
304215
299591
295021
290509
286053
281651
277296
272978
268683
264393
260083
255723
251276
246697
241933
236918
231575
225815
219537
212635
204997
196525
187143
176817
165560
153417
140459
126795
112628
98333.2
84504.6
71950.5
61554.6
53954.5
49383.3
47729.5
48640.7
51631.5
56253
62161.9
69128.2
76995.1
85652.2
95060.5
105212
116109
127776
140245
153551
167731
182818
198844
215841
233834
252845
272891
293980
316107
339257
363400
388489
414465
441248
468746
496850
525439
554380
583537
612765
641863
670681
699075
726905
754032
780326
805668
829951
853080
874975
895566
914796
932618
948994
963889
977278
989132
999424
1.00812e+006
1.0152e+006
1.02059e+006
1.02426e+006
1.02614e+006
1.02614e+006
1.02424e+006
1.02045e+006
1.01475e+006
1.00714e+006
997585
986078
972600
957143
939708
920303
898950
875679
850533
823565
794837
764416
732376
698786
663715
627240
589387
550113
509269
466531
421303
372573
318864
259040
194097
126461
61030
10410.6
29708.6
48749.9
66861
83126.7
98139.5
112439
126345
140001
153442
166642
179554
192122
204297
216036
227312
238106
248410
258225
267559
276427
284844
292832
300411
307604
314431
320911
327063
332903
338442
343693
348663
353359
357784
361941
365829
369446
372789
375855
378639
381134
383335
385236
386830
388113
389078
389720
390034
390015
389657
388960
387929
386571
384894
382909
380626
378061
375226
372139
368816
365276
361538
357621
353546
349332
345001
340572
336064
331497
326889
322258
317619
312986
308374
303793
299253
294760
290319
285932
281600
277318
273079
268874
264687
260501
256292
252029
247678
243193
238523
233603
228360
222703
216532
209732
202185
193776
184419
174070
162752
150540
137538
123855
109632
95143.7
80921.8
67788
56764.9
48720.6
44005.9
42469.5
43650.3
46951.2
51751.4
57653
64419.2
71931.1
80095.6
88831.3
98166.8
108126
118739
130041
142071
154872
168486
182952
198310
214595
231840
250070
269304
289552
310812
333071
356302
380461
405492
431322
457863
485011
512654
540665
568910
597245
625512
653564
681260
708462
735039
760865
785824
809813
832735
854509
875060
894326
912253
928794
943904
957547
969682
980271
989271
996634
1.00231e+006
1.00622e+006
1.00832e+006
1.00851e+006
1.00681e+006
1.00322e+006
997717
990281
980886
969509
956130
940738
923329
903910
882498
859119
833812
806621
777599
746804
714290
680107
644293
606863
567775
526906
484009
438676
390302
338125
281511
221187
160338
102180
50511.6
9710.42
27206.2
45756.6
63833.4
80338.1
95577.9
109947
123733
137098
150110
162783
175098
187025
198535
209600
220201
230330
239984
249169
257897
266182
274045
281505
288586
295306
301688
307748
313504
318968
324151
329064
333712
338098
342227
346096
349706
353054
356136
358947
361484
363740
365710
367389
368772
369855
370632
371101
371257
371096
370615
369806
368675
367229
365479
363434
361107
358513
355667
352587
349290
345796
342123
338292
334322
330234
326047
321782
317457
313089
308698
304297
299903
295527
291182
286876
282617
278409
274255
270154
266103
262094
258118
254162
250205
246227
242197
238081
233838
229415
224753
219778
214405
208534
202048
194823
186732
177668
167570
156461
144449
131701
118380
104603
90525.4
76524
63335.8
51993
43553.6
38617.6
37108.6
38428.8
41845.5
46701.3
52403.5
58770.5
65703.1
73155.9
81108.1
89551.9
98508.9
108009
118087
128783
140137
152193
164994
178583
193001
208285
224469
241581
259641
278661
298641
319572
341430
364177
387763
412122
437174
462828
488981
515516
542312
569239
596159
622939
649447
675555
701138
726080
750269
773603
795987
817338
837577
856636
874452
890967
906129
919886
932188
942982
952214
959826
965755
969932
972286
972756
971380
968141
963009
955952
946935
935929
922908
907855
890760
871625
850459
827281
802120
775009
745987
715094
682365
647824
611474
573287
533178
490990
446481
399334
349221
296010
240196
183751
130305
82500.9
42267.3
8845.74
24072.1
41482.1
58975.6
75305
90440
104593
117986
130779
143068
154903
166298
177254
187765
197824
207426
216574
225275
233539
241382
248825
255886
262589
268954
275000
280748
286213
291408
296345
301033
305479
309685
313653
317385
320878
324130
327138
329895
332399
334645
336626
338338
339777
340939
341820
342417
342727
342749
342479
341915
341045
339874
338408
336657
334632
332347
329817
327059
324089
320925
317587
314094
310465
306720
302878
298957
294977
290955
286907
282850
278797
274763
270757
266790
262868
258997
255179
251414
247699
244028
240391
236776
233165
229537
225864
222114
218246
214214
209959
205413
200495
195107
189139
182463
174946
166461
156922
146325
134800
122583
109938
97045.4
83974.7
70889.9
58299
47087.1
38450.4
33260.2
31667.3
33087.2
36437.1
40953.9
46239.4
52062.9
58331.3
65007
72080.1
79555
87444.8
95773
104570
113870
123711
134134
145180
156891
169311
182477
196429
211198
226814
243296
260658
278903
298025
318006
338814
360408
382733
405719
429290
453355
477817
502568
527497
552486
577419
602177
626647
650717
674277
697225
719464
740900
761450
781031
799571
816997
833244
848247
861942
874267
885158
894551
902376
908564
913041
915728
916646
915797
913153
908672
902309
894022
883771
871523
857252
840940
822576
802159
779694
755193
728673
700153
669650
637179
602741
566321
527879
487344
444616
399592
352223
302654
251438
199835
150039
104825
65979.2
34115.7
7850.73
20615
36359.2
52707.1
68329
82874.8
96365.9
108943
120755
131919
142515
152598
162197
171335
180027
188285
196125
203562
210616
217305
223652
229678
235404
240851
246037
250977
255685
260171
264445
268510
272372
276030
279484
282732
285771
288597
291204
293588
295744
297666
299350
300791
301986
302931
303624
304063
304245
304171
303840
303249
302387
301251
299847
298185
296277
294137
291780
289223
286482
283575
280520
277336
274040
270651
267186
263663
260099
256509
252909
249311
245729
242174
238654
235178
231750
228373
225048
221773
218543
215349
212181
209021
205852
202648
199380
196011
192498
188788
184818
180515
175787
170531
164626
157938
150332
141696
131989
121303
109921
98228.9
86566.4
75026
63554
52264.7
41822.9
33259.2
27913.1
26247.4
27571.1
30630.4
34688.1
39369.5
44498.7
49987.8
55799.3
61920.8
68353.8
75108.8
82202.8
89658.9
97505.1
105774
114499
123719
133471
143795
154729
166309
178572
191547
205261
219734
234981
251008
267810
285377
303684
322700
342381
362673
383515
404833
426549
448576
470823
493194
515593
537921
560080
581975
603510
624594
645137
665054
684260
702676
720224
736828
752413
766905
780232
792319
803092
812479
820404
826795
831576
834672
836187
836088
834326
830846
825593
818513
809560
798688
785862
771051
754228
735376
714478
691525
666508
639421
610255
579002
545651
510187
472603
432903
391132
347420
302062
255626
209074
163802
121433
83310
50933.5
17834.4
6756.81
17198.5
30949
45593.8
59808
73033.7
85158.8
96265.8
106495
115981
124835
133140
140956
148328
155292
161875
168103
174001
179590
184893
189933
194729
199300
203665
207836
211827
215647
219303
222798
226136
229316
232336
235194
237884
240404
242746
244905
246877
248654
250233
251609
252778
253737
254483
255015
255331
255431
255315
254982
254433
253661
252649
251405
249936
248256
246378
244318
242090
239712
237198
234567
231833
229013
226123
223179
220194
217185
214163
211142
208133
205146
202190
199273
196398
193571
190792
188060
185371
182719
180095
177485
174873
172238
169555
166791
163910
160866
157604
154059
150152
145791
140868
135259
128835
121470
113087
103718
93597.2
83189
73019
63374.9
54084.6
44859.6
35774
27897.6
22502.2
20941.4
22011.1
24605.2
28031.3
31968
36268.1
40859.7
45705.8
50789
56104.5
61656
67453.9
73513.7
79855.6
86504.2
93486.7
100833
108575
116746
125379
134507
144162
154374
165171
176575
188605
201275
214592
228556
243160
258389
274219
290622
307556
324978
342833
361064
379604
398387
417339
436388
455456
474468
493347
512017
530400
548422
566007
583080
599566
615390
630475
644744
658118
670516
681860
692066
701056
708753
715086
719992
723423
725560
726326
725653
723477
719738
714377
707342
698580
688047
675698
661494
645397
627369
607373
585371
561326
535200
506958
476574
444045
409399
372734
334244
294267
253329
212172
171727
133026
96797.8
63746.9
36789.1
7354.06
5466.22
14215.1
25780.2
38057.6
49874.3
60705.1
70444.7
79176.7
87046.3
94199.4
100759
106823
112465
117740
122694
127362
131772
135950
139918
143698
147306
150760
154073
157258
160323
163276
166122
168863
171500
174031
176455
178766
180961
183033
184978
186789
188461
189987
191363
192585
193648
194549
195287
195858
196262
196498
196567
196468
196204
195774
195177
194384
193400
192235
190901
189411
187779
186019
184144
182170
180108
177973
175776
173531
171250
168945
166628
164308
161995
159698
157424
155180
152971
150800
148670
146579
144527
142508
140516
138541
136570
134587
132573
130501
128343
126062
123614
120947
117999
114693
110942
106644
101687
95958.4
89364
81879.4
73639.4
65041.8
56695.9
49108.2
42319.3
35702.6
28824.1
21842.2
17325.3
15769.9
16530.2
18527.6
21178.1
24229.5
27570.7
31144.1
34915.2
38863.2
42977
47252.8
51693.3
56305.9
61102.3
66098.5
71313
76767.4
82484.8
88490.1
94809
101467
108491
115906
123734
131998
140715
149901
159567
169720
180361
191488
203092
215159
227669
240598
253915
267585
281571
295828
310311
324972
339761
354627
369515
384373
399146
413777
428210
442387
456249
469732
482773
495303
507251
518540
529092
538823
547649
555488
562260
567893
572321
575757
578215
579627
579932
579071
576989
573636
568962
562920
555466
546555
536142
524181
510623
495414
478497
459808
439282
416855
392473
366105
337768
307551
275654
242412
208315
173973
139889
106625
74576.1
45432.6
23674.9
1980.18
3911.63
11672.3
20676.5
29495.1
37550.5
44671.9
50900.2
56353.8
61170.4
65475.2
69370.2
72934.9
76229.6
79300.8
82184.1
84907.7
87494
89961.4
92325.2
94598.4
96791.8
98914.4
100974
102974
104921
106815
108657
110447
112181
113858
115474
117023
118501
119903
121225
122459
123603
124652
125601
126448
127189
127822
128345
128758
129060
129250
129329
129298
129157
128908
128552
128061
127428
126665
125784
124797
123715
122550
121310
120006
118646
117240
115796
114322
112829
111322
109811
108301
106798
105309
103839
102391
100968
99572.2
98204.7
96864.6
95549.4
94255.2
92975.9
91703.5
90427.3
89134.3
87808
86428
84970.1
83404.6
81695.8
79800.9
77668.3
75236.6
72435.3
69185.9
65406.4
61021.6
55986.9
50337.8
44294.6
38361.1
33086.2
28668.5
24811.2
20346.1
15584.1
12084.9
10826
11274.1
12603.4
14378.5
16433.6
18698.9
21136
23718.4
26426.4
29245.6
32167.2
35186.6
38303.8
41522.7
44850.4
48296.8
51873.9
55595.8
59477.8
63536.4
67788.4
72251.1
76941.4
81875.6
87069
92535.1
98285.9
104331
110677
117330
124290
131556
139124
146984
155128
163539
172202
181097
190202
199493
208945
218530
228221
237988
247802
257630
267443
277206
286886
296446
305850
315056
324019
332690
341016
348937
356386
363290
369570
375145
379934
383871
386914
389468
391430
392742
393363
393255
392386
390725
388245
384918
380718
375621
369598
362620
354654
345661
335595
324404
312027
298395
283437
267080
249261
229942
209111
186789
163018
132369
98621.3
70436.3
48992.4
28445.6
12689
288.746
2459.04
8360.1
13176.9
17123.3
20429.3
23224.6
25608.9
27668.8
29476.7
31090.8
32555.9
33905.4
35164.6
36352.4
37483.7
38569.5
39618.6
40637.7
41632
42605.7
43561.7
44502.2
45428.6
46341.3
47240.4
48125.1
48994.1
49845.7
50677.8
51487.9
52273.4
53031.4
53759
54453.4
55111.7
55731.3
56309.5
56844.2
57333.3
57775.1
58168.3
58511.6
58804.2
59045.7
59235.8
59374.4
59461.7
59498.2
59484.4
59420.9
59307.3
59135.8
58883.6
58564.7
58188.8
57762.9
57292.7
56783.4
56239.8
55666.1
55065.9
54443.7
53802.5
53147.6
52482.8
51811.7
51137.5
50463.2
49791.7
49125.7
48467.4
47818.5
47180.5
46554.4
45940.4
45337.9
44745.7
44161.6
43582.2
43003.4
42419.3
41823.2
41205.9
40556.4
39861.7
39105.9
38269.6
37329.3
36257.2
35020.2
33582.2
31905
29952.5
27697.5
25131.9
22294.9
19382.6
16821.2
14691.8
12651.4
10754.7
8558.14
6766.73
6123.23
6370.58
7055.41
7956.98
8996.23
10143.8
11383.8
12703.8
14093
15542.2
17043.6
18591.6
20183
21816.3
23492.5
25214.4
26986
28812.6
30700.2
32655.8
34686.8
36800.7
39005
41307.1
43713.7
46230.9
48864.1
51617.5
54494.3
57496.5
60625
63879.1
67257.1
70755.7
74370.5
78095.7
81924.5
85849.1
89860.5
93949.2
98105.2
102318
106577
110870
115185
119510
123834
128143
132425
136666
140854
144971
149003
152930
156732
160382
163854
167114
170119
172817
175147
177032
178380
179434
180282
180879
181204
181246
180994
180440
179579
178408
176922
175122
173005
170570
167817
164741
161338
157600
153513
149061
144219
138956
133231
126995
120191
112754
104594
95545.2
78578
59618.3
41911.1
27741.5
15631.3
4651.81
18.5642
1173.3
1643.43
2159.72
2575.33
2899.9
3165.89
3392.35
3587.21
3762.2
3922.52
4071.49
4211.58
4344.68
4472.26
4595.54
4715.49
4832.92
4948.5
5062.77
5176.17
5289.03
5401.63
5514.13
5626.61
5739.03
5851.27
5963.15
6074.38
6184.61
6293.45
6400.46
6505.16
6607.09
6705.73
6800.61
6891.25
6977.21
7058.09
7133.52
7203.18
7266.82
7324.21
7375.19
7419.62
7457.43
7488.57
7513.05
7530.88
7542.13
7546.85
7545.09
7538.16
7526.4
7508.88
7485.35
7455.87
7420.63
7379.9
7334
7283.25
7227.98
7168.54
7105.29
7038.62
6968.92
6896.58
6821.99
6745.53
6667.57
6588.48
6508.59
6428.24
6347.71
6267.27
6187.13
6107.48
6028.42
5949.99
5872.16
5794.8
5717.72
5640.58
5562.93
5484.17
5403.54
5320.08
5232.58
5139.54
5039.07
4928.81
4805.85
4666.53
4506.32
4319.44
4098.41
3833.29
3513.06
3112.16
2619.34
2269.74
2060.19
1993.53
2061
2218.83
2418.77
2637.15
2865.25
3099.93
3340.03
3585.17
3835.4
4090.98
4352.37
4620.12
4894.92
5177.51
5468.66
5769.19
6079.91
6401.58
6734.93
7080.63
7439.22
7811.14
8196.7
8596.04
9009.11
9435.68
9875.32
10327.4
10791.2
11265.5
11749.3
12241.2
12739.7
13243.2
13750
14258.5
14766.7
15272.9
15775.4
16272.2
16761.8
17242.3
17712.3
18170.1
18614.2
19043.2
19455.8
19850.6
20226.4
20582
20916.2
21227.8
21515.9
21779.3
22017.1
22228.4
22412.7
22569.3
22698.3
22800.1