/*--------------------------------*- C++ -*----------------------------------*\
| =========                 |                                                 |
| \\      /  F ield         | OpenFOAM: The Open Source CFD Toolbox           |
|  \\    /   O peration     | Version:  5.x                                   |
|   \\  /    A nd           | Web:      www.OpenFOAM.org                      |
|    \\/     M anipulation  |                                                 |
\*---------------------------------------------------------------------------*/
/*   Windows 32 and 64 bit porting by blueCAPE: http://www.bluecape.com.pt   *\
|  Based on Windows porting (2.0.x v4) by Symscape: http://www.symscape.com   |
\*---------------------------------------------------------------------------*/
FoamFile
{
    version     2.0;
    format      ascii;
    class       surfaceScalarField;
    location    "2000";
    object      phi;
}
// * * * * * * * * * * * * * * * * * * * * * * * * * * * * * * * * * * * * * //

dimensions      [0 3 -1 0 0 0 0];

internalField   nonuniform List<scalar> 
7780
(
50.3819
-50.3819
52.9692
-2.58727
19.124
33.8452
-35.9111
55.0351
-104.788
68.8766
-179.071
74.2833
-251.526
72.4551
-319.831
68.3049
-382.988
63.1571
-440.507
57.5193
-492.206
51.6982
-538.148
45.9425
-578.592
40.4442
-613.914
35.3221
-644.529
30.6142
-670.873
26.3445
-693.4
22.5274
-712.563
19.1623
-728.799
16.2365
-742.527
13.728
-754.136
11.6087
-763.982
9.84603
-772.387
8.40494
-779.636
7.24905
-785.978
6.34172
-791.624
5.64677
-796.754
5.12914
-801.509
4.75541
-806.003
4.49418
-810.32
4.31636
-814.515
4.19547
-818.623
4.10772
-822.655
4.03212
-826.605
3.95056
-830.453
3.84772
-834.164
3.71109
-837.695
3.53077
-840.994
3.29929
-844.006
3.01138
-846.669
2.66368
-848.924
2.25433
-850.706
1.78243
-851.953
1.24708
-852.596
0.64324
-852.59
-0.00636747
-851.927
-0.663043
-850.566
-1.36067
-848.487
-2.07971
-845.668
-2.81821
-842.102
-3.56688
-837.785
-4.31683
-832.726
-5.05919
-826.941
-5.78499
-820.455
-6.48525
-813.304
-7.15113
-805.53
-7.77404
-797.184
-8.34576
-788.326
-8.85862
-779.02
-9.30559
-769.34
-9.68038
-759.362
-9.97762
-749.169
-10.1929
-738.846
-10.3228
-728.481
-10.3654
-718.161
-10.3205
-707.972
-10.1889
-698
-9.97148
-688.328
-9.67182
-679.033
-9.29495
-670.186
-8.84741
-661.849
-8.33733
-654.074
-7.77425
-646.905
-7.16901
-640.372
-6.53373
-634.49
-5.88169
-629.263
-5.2273
-624.676
-4.58623
-620.701
-3.9758
-617.287
-3.41325
-614.372
-2.91496
-611.873
-2.49928
-609.688
-2.18541
-607.694
-1.99371
-605.746
-1.94823
-603.678
-2.06825
-601.307
-2.37081
-598.43
-2.87694
-594.82
-3.61014
-590.224
-4.59602
-584.363
-5.86054
-576.933
-7.4299
-567.603
-9.32993
-556.018
-11.5856
-541.798
-14.2201
-524.544
-17.2539
-503.84
-20.7032
-479.262
-24.5783
-450.379
-28.8827
-416.767
-33.6128
-378.008
-38.759
-333.7
-44.3073
-283.465
-50.2354
-226.971
-56.4936
-164.196
-62.7758
-96.8545
-67.3411
-26.3647
-70.4898
47.6292
-73.9939
124.854
-77.2246
205.667
-80.8137
289.533
-83.8658
374.563
-85.0295
459.496
-84.9333
543.709
-84.2132
626.693
-82.9838
708.044
-81.3506
787.505
-79.4615
864.962
-77.4572
940.414
-75.4518
1013.97
-73.556
1085.85
-71.8768
1156.35
-70.5014
1225.85
-69.4983
1294.75
-68.9057
1363.53
-68.7802
1432.71
-69.1808
1502.85
-70.1343
1574.52
-71.6741
1648.37
-73.8454
1725.07
-76.6989
1805.35
-80.2842
1889.99
-84.6383
1979.76
-89.7714
2075.42
-95.6561
2177.64
-102.222
2287
-109.365
2403.95
-116.949
2528.78
-124.826
2661.61
-132.837
2802.44
-140.823
2951.07
-148.631
3107.18
-156.109
3270.29
-163.116
3439.81
-169.516
3615
-175.187
3795.02
-180.021
3978.94
-183.926
4165.77
-186.831
4354.46
-188.689
4543.94
-189.476
4733.11
-189.173
4920.89
-187.772
5106.18
-185.291
5287.93
-181.758
5465.15
-177.213
5636.85
-171.702
5802.13
-165.284
5960.15
-158.021
6110.14
-149.985
6251.39
-141.252
6383.29
-131.901
6505.31
-122.017
6616.99
-111.68
6717.96
-100.973
6807.93
-89.9691
6886.67
-78.7376
6954.01
-67.3368
7009.82
-55.8152
7054.04
-44.2204
7086.61
-32.5704
7107.52
-20.9018
7116.72
-9.20609
7113.83
2.89228
7098.5
15.3255
7070.87
27.6328
7031.09
39.7765
6979.18
51.9145
6915.08
64.0982
6838.78
76.304
6750.25
88.5243
6649.49
100.759
6536.49
113.004
6411.24
125.251
6273.76
137.483
6124.08
149.676
5962.28
161.799
5788.47
173.809
5602.82
185.658
5405.53
197.286
5196.91
208.624
4977.31
219.595
4747.2
230.111
4507.12
240.084
4257.71
249.404
3999.66
258.048
3733.92
265.747
3460.72
273.201
3181.9
278.819
2894.23
287.667
2597.44
296.789
319.535
1.69382
-52.0756
-20.6882
19.7947
-59.3041
72.4611
-110.68
106.411
-166.332
124.528
-222.824
130.776
-279.57
129.2
-334.643
123.378
-386.606
115.12
-434.665
105.578
-478.466
95.4998
-517.928
85.4046
-553.118
75.6343
-584.199
66.4023
-611.428
57.8432
-635.123
50.04
-655.628
43.032
-673.291
36.8254
-688.457
31.4025
-701.458
26.7287
-712.606
22.7573
-722.194
19.4337
-730.487
16.6977
-737.724
14.4862
-744.117
12.735
-749.85
11.3798
-755.079
10.3576
-759.931
9.60819
-764.511
9.07411
-768.897
8.70194
-773.144
8.44258
-777.288
8.25164
-781.345
8.08968
-785.317
7.92235
-789.19
7.72044
-792.939
7.45982
-796.529
7.1212
-799.92
6.68981
-803.063
6.15509
-805.91
5.51032
-808.408
4.75222
-810.506
3.88065
-812.157
2.89825
-813.325
1.81068
-813.965
0.634381
-814.027
-0.601936
-813.489
-1.89836
-812.32
-3.24878
-810.499
-4.63909
-808.013
-6.05312
-804.855
-7.4749
-801.026
-8.88819
-796.534
-10.2765
-791.396
-11.6234
-785.635
-12.9123
-779.281
-14.1274
-772.374
-15.2533
-764.957
-16.2756
-757.081
-17.181
-748.804
-17.9575
-740.187
-18.5949
-731.295
-19.0844
-722.199
-19.4196
-712.968
-19.5959
-703.678
-19.6105
-694.403
-19.4639
-685.215
-19.1595
-676.184
-18.7023
-667.379
-18.1003
-658.862
-17.3644
-650.691
-16.5085
-642.916
-15.5488
-635.581
-14.5043
-628.719
-13.3962
-622.352
-12.248
-616.494
-11.0855
-611.144
-9.93674
-606.287
-8.83194
-601.898
-7.80263
-597.931
-6.8816
-594.327
-6.10409
-591.004
-5.50753
-587.867
-5.13167
-584.796
-5.01878
-581.655
-5.20942
-578.282
-5.74369
-574.493
-6.66622
-570.077
-8.02565
-564.799
-9.87385
-558.395
-12.2646
-550.573
-15.252
-541.014
-18.8893
-529.372
-23.2272
-515.28
-28.312
-498.352
-34.1825
-478.188
-40.8668
-454.388
-48.3788
-426.557
-56.7132
-394.328
-65.8417
-357.38
-75.707
-315.472
-86.2152
-268.49
-97.2177
-216.511
-108.473
-159.752
-119.535
-97.6041
-129.488
-29.8575
-138.236
42.2908
-146.142
118.012
-152.946
195.982
-158.784
275.51
-163.393
356.571
-166.091
438.649
-167.012
521.009
-166.574
603.006
-164.98
684.107
-162.451
763.917
-159.272
842.188
-155.728
918.827
-152.091
993.886
-148.615
1067.54
-145.529
1140.07
-143.028
1211.84
-141.272
1283.32
-140.388
1355.05
-140.506
1427.61
-141.741
1501.65
-144.181
1577.89
-147.908
1657.04
-152.993
1739.82
-159.48
1826.91
-167.376
1918.92
-176.649
2016.37
-187.22
2119.68
-198.97
2229.2
-211.737
2345.16
-225.323
2467.71
-239.501
2596.9
-254.023
2732.69
-268.619
2874.88
-283.014
3023.18
-296.929
3177.16
-310.093
3336.3
-322.25
3499.94
-333.161
3667.36
-342.606
3837.74
-350.399
4010.2
-356.39
4183.84
-360.474
4357.72
-362.567
4530.85
-362.601
4702.24
-360.565
4870.95
-356.479
5036.04
-350.385
5196.63
-342.344
5351.85
-332.437
5500.91
-320.762
5643.06
-307.432
5777.61
-292.576
5903.96
-276.333
6021.56
-258.853
6129.95
-240.292
6228.74
-220.807
6317.62
-200.554
6396.32
-179.682
6464.68
-158.325
6522.55
-136.605
6569.84
-114.627
6606.5
-92.4778
6632.53
-70.2463
6647.99
-48.0297
6653.02
-25.9387
6647.34
-3.52241
6631.12
19.1114
6604.58
41.866
6567.57
64.6385
6519.95
87.4026
6461.68
110.182
6392.78
132.996
6313.24
155.85
6223.02
178.742
6122.11
201.667
6010.5
224.61
5888.21
247.546
5755.25
270.438
5611.69
293.237
5457.61
315.88
5293.13
338.289
5118.42
360.369
4933.7
382.008
4739.25
403.074
4535.42
423.419
4322.66
442.877
4101.48
461.263
3872.48
478.395
3636.45
494.087
3394.01
508.18
3146.56
520.653
2893.73
531.653
2639.95
541.441
2382.07
554.671
567.124
-29.6788
-22.3967
-65.2522
55.3681
-105.848
113.057
-150.039
150.602
-196.006
170.495
-242.603
177.373
-288.948
175.546
-333.936
168.366
-376.721
157.905
-416.725
145.582
-453.611
132.387
-487.223
119.017
-517.539
105.95
-544.64
93.5031
-568.68
81.883
-589.859
71.2194
-608.408
61.581
-624.574
52.9914
-638.612
45.4404
-650.776
38.893
-661.315
33.2958
-670.464
28.5827
-678.444
24.6781
-685.459
21.5007
-691.69
18.966
-697.298
16.9882
-702.423
15.4825
-707.181
14.3662
-711.667
13.5603
-715.956
12.9906
-720.102
12.5883
-724.141
12.291
-728.094
12.0425
-731.965
11.7939
-735.748
11.5032
-739.424
11.1354
-742.965
10.6625
-746.338
10.0626
-749.503
9.32014
-752.418
8.42499
-755.038
7.37227
-757.319
6.16202
-759.22
4.79886
-760.701
3.29215
-761.725
1.65837
-762.247
-0.0804495
-762.237
-1.9083
-761.673
-3.81294
-760.534
-5.77761
-758.805
-7.78188
-756.476
-9.80391
-753.543
-11.8211
-750.009
-13.8105
-745.884
-15.7489
-741.183
-17.6134
-735.929
-19.3816
-730.15
-21.0317
-723.882
-22.5434
-717.166
-23.8977
-710.046
-25.0776
-702.572
-26.0681
-694.8
-26.8567
-686.786
-27.4333
-678.591
-27.791
-670.276
-27.9254
-661.905
-27.8355
-653.54
-27.5245
-645.243
-26.999
-637.074
-26.2692
-629.09
-25.3488
-621.342
-24.2558
-613.879
-23.0121
-606.741
-21.6426
-599.961
-20.1759
-593.565
-18.6438
-587.569
-17.0814
-581.979
-15.5271
-576.789
-14.0223
-571.98
-12.6115
-567.52
-11.3418
-563.36
-10.2637
-559.437
-9.43103
-555.667
-8.90133
-551.951
-8.73496
-548.167
-8.99312
-544.172
-9.73899
-539.797
-11.0406
-534.851
-12.9716
-529.115
-15.6099
-522.344
-19.0364
-514.263
-23.3329
-504.572
-28.5794
-492.947
-34.8522
-479.04
-42.2196
-462.484
-50.7381
-442.905
-60.4465
-419.923
-71.36
-393.174
-83.463
-362.315
-96.7005
-327.053
-110.969
-287.162
-126.106
-242.512
-141.868
-193.079
-157.906
-138.889
-173.725
-79.707
-188.67
-15.6106
-202.333
52.7928
-214.546
124.917
-225.071
199.933
-233.8
277.086
-240.545
355.956
-244.961
435.978
-247.034
516.431
-247.026
596.654
-245.204
676.093
-241.891
754.321
-237.499
831.062
-232.469
906.207
-227.236
979.797
-222.205
1052.02
-217.751
1123.17
-214.182
1193.66
-211.763
1264.02
-210.745
1334.85
-211.337
1406.82
-213.708
1480.63
-217.991
1557.01
-224.286
1636.65
-232.639
1720.21
-243.035
1808.23
-255.402
1901.19
-269.606
1999.44
-285.467
2103.23
-302.766
2212.74
-321.248
2328.05
-340.628
2449.14
-360.588
2575.9
-380.787
2708.14
-400.859
2845.55
-420.43
2987.75
-439.124
3134.23
-456.576
3284.43
-472.444
3437.68
-486.411
3593.27
-498.198
3750.44
-507.567
3908.38
-514.336
4066.27
-518.358
4223.23
-519.531
4378.44
-517.812
4531.07
-513.199
4680.33
-505.735
4825.43
-495.486
4965.64
-482.552
5100.26
-467.054
5228.63
-449.139
5350.18
-428.975
5464.35
-406.747
5570.67
-382.658
5668.74
-356.919
5758.2
-329.751
5838.76
-301.371
5910.2
-271.995
5972.34
-241.825
6025.07
-211.046
6068.29
-179.826
6101.97
-148.309
6126.11
-116.621
6140.73
-84.8628
6145.76
-53.0625
6140.99
-21.1674
6126.58
10.8834
6102.62
43.0738
6069.12
75.3704
6026.04
107.717
5973.34
140.097
5911.01
172.516
5839.03
204.979
5757.39
237.485
5666.11
270.026
5565.19
302.585
5454.67
335.133
5334.59
367.629
5205.01
400.016
5066.02
432.22
4917.76
464.147
4760.37
495.682
4594.05
526.685
4419.07
556.991
4235.73
586.411
4044.43
614.723
3845.62
641.681
3639.88
667.01
3427.86
690.406
3210.44
711.512
2988.54
730.076
2763.59
745.603
2536.63
758.612
2310.82
767.255
2087.53
777.962
779.414
-44.924
22.5273
-87.5654
98.0095
-127.907
153.398
-167.191
189.886
-206.08
209.385
-244.656
215.949
-282.628
213.518
-319.442
205.18
-354.602
193.065
-387.739
178.719
-418.598
163.245
-447.018
147.437
-472.932
131.863
-496.346
116.917
-517.329
102.867
-535.997
89.8871
-552.497
78.0814
-567.003
67.4971
-579.702
58.1392
-590.789
49.9803
-600.462
42.9684
-608.912
37.0328
-616.323
32.0895
-622.868
28.0451
-628.702
24.8003
-633.967
22.2532
-638.786
20.3012
-643.263
18.8436
-647.486
17.7833
-651.524
17.0281
-655.428
16.4925
-659.234
16.0977
-662.965
15.7733
-666.628
15.4569
-670.22
15.0947
-673.726
14.642
-677.126
14.0624
-680.391
13.3275
-683.488
12.4168
-686.38
11.3168
-689.028
10.0208
-691.395
8.52838
-693.441
6.84512
-695.131
4.98215
-696.429
2.95643
-697.299
0.789519
-697.71
-1.49761
-697.637
-3.88578
-697.061
-6.3536
-695.966
-8.87708
-694.339
-11.43
-692.176
-13.9848
-689.473
-16.513
-686.236
-18.986
-682.475
-21.375
-678.204
-23.652
-673.446
-25.7897
-668.227
-27.7625
-662.579
-29.5463
-656.537
-31.1193
-650.143
-32.4624
-643.44
-33.5593
-636.477
-34.3968
-629.303
-34.9652
-621.969
-35.2584
-614.531
-35.2744
-607.04
-35.0154
-599.551
-34.4879
-592.117
-33.7035
-584.787
-32.6779
-577.611
-31.4326
-570.629
-29.9935
-563.881
-28.3904
-557.4
-26.6578
-551.209
-24.8343
-545.328
-22.9627
-539.765
-21.0903
-534.518
-19.2687
-529.576
-17.5536
-524.913
-16.0047
-520.49
-14.6863
-516.254
-13.6677
-512.133
-13.0225
-508.039
-12.8289
-503.864
-13.1676
-499.479
-14.1239
-494.731
-15.7888
-489.443
-18.2602
-483.411
-21.6415
-476.407
-26.04
-468.176
-31.564
-458.436
-38.3198
-446.88
-46.4083
-433.18
-55.9195
-416.991
-66.9268
-397.958
-79.4794
-375.725
-93.5937
-349.944
-109.244
-320.293
-126.351
-286.491
-144.771
-248.313
-164.284
-205.606
-184.574
-158.291
-205.222
-106.331
-225.685
-49.6702
-245.331
11.5844
-263.587
77.067
-280.028
146.29
-294.293
218.59
-306.1
293.231
-315.187
369.556
-321.285
446.873
-324.351
524.425
-324.578
601.498
-322.277
677.484
-317.877
751.93
-311.945
824.545
-305.084
895.243
-297.935
964.116
-291.078
1031.4
-285.036
1097.49
-280.269
1162.89
-277.168
1228.24
-276.092
1294.23
-277.326
1361.59
-281.072
1431.09
-287.484
1503.44
-296.639
1579.32
-308.521
1659.31
-323.027
1743.88
-339.973
1833.39
-359.112
1928.07
-380.148
2028.05
-402.748
2133.36
-426.552
2243.9
-451.174
2359.52
-476.206
2479.95
-501.218
2604.86
-525.768
2733.84
-549.407
2866.41
-571.694
3002.03
-592.202
3140.13
-610.536
3280.05
-626.334
3421.13
-639.278
3562.66
-649.102
3703.93
-655.6
3844.2
-658.626
3982.76
-658.092
4118.92
-653.973
4252.01
-646.288
4381.37
-635.101
4506.4
-620.51
4626.49
-602.646
4741.11
-581.672
4849.75
-557.778
4951.95
-531.176
5047.3
-502.102
5135.45
-470.806
5216.09
-437.552
5288.94
-402.607
5353.81
-366.238
5410.52
-328.703
5458.94
-290.246
5498.98
-251.089
5530.58
-211.43
5553.71
-171.434
5568.32
-131.232
5574.36
-90.8989
5571.74
-50.4431
5560.45
-9.87885
5540.52
30.8137
5511.96
71.6294
5474.78
112.554
5428.94
153.556
5374.42
194.621
5311.19
235.743
5239.25
276.913
5158.62
318.121
5069.3
359.345
4971.33
400.555
4864.75
441.709
4749.63
482.748
4626.06
523.594
4494.13
564.149
4353.98
604.292
4205.79
643.869
4049.78
682.701
3886.2
720.571
3715.38
757.226
3537.73
792.373
3353.74
825.677
3164
856.748
2969.26
885.146
2770.44
910.334
2568.73
931.785
2365.76
948.57
2163.89
960.487
1966.45
964.694
1778.72
965.689
950.963
-50.7155
73.2428
-95.5883
142.882
-133.882
191.691
-168.334
224.338
-200.871
241.922
-232.389
247.466
-263.076
244.205
-292.782
234.886
-321.268
221.551
-348.298
205.749
-373.682
188.629
-397.274
171.03
-418.984
153.573
-438.773
136.706
-456.655
120.749
-472.687
105.919
-486.959
92.353
-499.587
80.1252
-510.707
69.2597
-520.468
59.7411
-529.023
51.5232
-536.526
44.5363
-543.129
38.6924
-548.975
33.891
-554.198
30.0228
-558.918
26.9733
-563.243
24.6264
-567.266
22.8667
-571.065
21.5822
-574.703
20.6658
-578.227
20.0172
-581.674
19.5441
-585.063
19.163
-588.406
18.7997
-591.701
18.3898
-594.939
17.8796
-598.102
17.2254
-601.167
16.3928
-604.107
15.3563
-606.889
14.0992
-609.481
12.6127
-611.848
10.8956
-613.957
8.95381
-615.774
6.79921
-617.267
4.44949
-618.404
1.92691
-619.157
-0.745
-619.5
-3.54251
-619.414
-6.44004
-618.881
-9.40995
-617.889
-12.4224
-616.428
-15.4456
-614.494
-18.4468
-612.087
-21.3927
-609.213
-24.2497
-605.88
-26.9849
-602.103
-29.5663
-597.902
-31.9636
-593.3
-34.1483
-588.325
-36.0944
-583.008
-37.7789
-577.386
-39.1819
-571.495
-40.2873
-565.378
-41.0829
-559.075
-41.5607
-552.632
-41.7172
-546.094
-41.5537
-539.506
-41.0759
-532.914
-40.296
-526.361
-39.2304
-519.891
-37.9033
-513.54
-36.3438
-507.345
-34.5858
-501.335
-32.6681
-495.534
-30.6349
-489.961
-28.5356
-484.626
-26.425
-479.532
-24.3634
-474.669
-22.4164
-470.018
-20.6552
-465.548
-19.1566
-461.212
-18.0035
-456.95
-17.2852
-452.682
-17.0962
-448.314
-17.5362
-443.726
-18.7111
-438.781
-20.7345
-433.313
-23.7278
-427.135
-27.8192
-420.034
-33.1417
-411.768
-39.8294
-402.074
-48.0145
-390.66
-57.822
-377.216
-69.3634
-361.414
-82.7288
-342.916
-97.9778
-321.381
-115.129
-296.479
-134.146
-267.9
-154.93
-235.372
-177.299
-198.671
-200.985
-157.634
-225.611
-112.164
-250.692
-62.2182
-275.631
-7.80635
-299.743
50.9534
-322.347
113.781
-342.855
180.222
-360.735
249.637
-375.516
321.236
-386.785
394.181
-394.23
467.623
-397.794
540.667
-397.621
612.488
-394.098
682.403
-387.792
749.957
-379.498
814.919
-370.046
877.291
-360.307
937.362
-351.148
995.612
-343.285
1052.62
-337.28
1109.08
-333.622
1165.74
-332.758
1223.42
-335.001
1282.9
-340.558
1344.96
-349.546
1410.28
-361.957
1479.43
-377.666
1552.85
-396.446
1630.86
-417.992
1713.69
-441.94
1801.43
-467.882
1894.06
-495.379
1991.48
-523.969
2093.48
-553.174
2199.77
-582.501
2310
-611.448
2423.74
-639.509
2540.52
-666.183
2659.81
-690.988
2781.08
-713.466
2903.74
-733.196
3027.2
-749.798
3150.86
-762.931
3274.08
-772.324
3396.27
-777.791
3516.84
-779.193
3635.21
-776.463
3750.83
-769.601
3863.2
-758.651
3971.8
-743.7
4076.16
-724.876
4175.86
-702.341
4270.47
-676.289
4359.64
-646.944
4443.02
-614.558
4520.32
-579.4
4591.27
-541.759
4655.65
-501.932
4713.27
-460.223
4763.96
-416.929
4807.6
-372.338
4844.07
-326.72
4873.3
-280.318
4895.21
-233.345
4909.75
-185.974
4916.85
-138.332
4916.45
-90.492
4908.49
-42.4904
4892.97
5.64959
4869.85
53.9312
4839.12
102.354
4800.77
150.906
4754.76
199.566
4701.07
248.314
4639.68
297.134
4570.59
346.005
4493.81
394.903
4409.36
443.793
4317.28
492.633
4217.63
541.363
4110.46
589.91
3995.88
638.179
3873.98
686.049
3744.9
733.371
3608.81
779.962
3465.91
825.6
3316.46
870.018
3160.78
912.904
2999.26
953.891
2832.39
992.553
2660.75
1028.38
2485.1
1060.79
2306.39
1089.04
2125.93
1112.25
1945.51
1128.99
1768
1138
1597.27
1135.42
1439.95
1123.01
1090.75
-53.0504
126.293
-94.6813
184.513
-128.585
225.594
-157.501
253.255
-183.728
268.149
-208.519
272.257
-232.424
268.11
-255.572
258.034
-277.896
243.874
-299.246
227.1
-319.464
208.846
-338.415
189.981
-355.998
171.156
-372.151
152.859
-386.853
135.451
-400.118
119.184
-411.994
104.229
-422.554
90.6851
-431.891
78.5971
-440.114
67.9639
-447.339
58.7483
-453.688
50.8846
-459.28
44.2849
-464.234
38.8451
-468.661
34.4492
-472.662
30.9744
-476.329
28.2939
-479.744
26.2811
-482.973
24.8118
-486.074
23.7668
-489.091
23.0335
-492.055
22.508
-494.987
22.0955
-497.899
21.7116
-500.791
21.2823
-503.658
20.7462
-506.486
20.0531
-509.256
19.163
-511.946
18.0459
-514.528
16.6818
-516.975
15.0599
-519.258
13.1779
-521.345
11.0412
-523.208
8.66223
-524.818
6.05916
-526.146
3.25487
-527.165
0.274802
-527.853
-2.85445
-528.189
-6.10423
-528.155
-9.44371
-527.738
-12.8399
-526.926
-16.2578
-525.712
-19.661
-524.092
-23.0122
-522.068
-26.2742
-519.643
-29.4099
-516.825
-32.3834
-513.629
-35.1602
-510.069
-37.7081
-506.166
-39.9974
-501.943
-42.0016
-497.427
-43.6979
-492.648
-45.0672
-487.635
-46.095
-482.425
-46.7714
-477.051
-47.0912
-471.549
-47.0548
-465.959
-46.6664
-460.316
-45.9385
-454.66
-44.8867
-449.026
-43.5376
-443.447
-41.923
-437.953
-40.0794
-432.572
-38.049
-427.327
-35.8803
-422.234
-33.628
-417.306
-31.3535
-412.545
-29.1243
-407.947
-27.0149
-403.495
-25.1063
-399.165
-23.4866
-394.918
-22.2513
-390.699
-21.5037
-386.441
-21.3541
-382.058
-21.9197
-377.442
-23.3264
-372.468
-25.7093
-366.983
-29.2128
-360.812
-33.9895
-353.757
-40.1971
-345.59
-47.9959
-336.061
-57.5436
-324.894
-68.9896
-311.79
-82.4669
-296.436
-98.0828
-278.507
-115.907
-257.674
-135.961
-233.621
-158.2
-206.048
-182.502
-174.694
-208.653
-139.344
-236.335
-99.8399
-265.115
-56.0895
-294.443
-8.06605
-323.654
44.1885
-351.997
100.539
-378.698
160.683
-402.999
224.096
-424.148
290.038
-441.457
357.566
-454.313
425.613
-462.277
493.102
-465.283
558.92
-463.439
622.137
-457.315
682.07
-447.725
738.353
-435.781
791.116
-422.809
840.815
-410.007
888.059
-398.393
933.594
-388.821
978.261
-381.946
1022.95
-378.316
1068.57
-378.373
1115.94
-382.371
1165.82
-390.44
1218.84
-402.568
1275.49
-418.604
1336.12
-438.292
1400.96
-461.286
1470.15
-487.179
1543.72
-515.516
1621.64
-545.802
1703.78
-577.517
1789.93
-610.121
1879.82
-643.061
1973.09
-675.777
2069.35
-707.709
2168.15
-738.304
2269
-767.029
2371.39
-793.38
2474.81
-816.886
2578.73
-837.123
2682.65
-853.712
2786.03
-866.312
2888.37
-874.663
2989.2
-878.619
3088.05
-878.05
3184.5
-872.912
3278.15
-863.244
3368.61
-849.112
3455.54
-830.628
3538.6
-807.942
3617.5
-781.241
3691.96
-750.745
3761.72
-716.704
3826.55
-679.394
3886.26
-639.11
3940.67
-596.162
3989.61
-550.869
4032.94
-503.553
4070.53
-454.529
4102.3
-404.099
4128.12
-352.546
4147.92
-300.122
4161.62
-247.046
4169.14
-193.494
4170.41
-139.596
4165.35
-85.4365
4153.93
-31.062
4136.08
23.4996
4111.76
78.2425
4080.95
133.166
4043.61
188.252
3999.69
243.479
3949.19
298.819
3892.08
354.244
3828.36
409.723
3758.05
465.216
3681.16
520.679
3597.74
576.056
3507.82
631.276
3411.48
686.253
3308.79
740.875
3199.83
795.004
3084.73
848.468
2963.64
901.053
2836.74
952.498
2704.28
1002.49
2566.53
1050.65
2423.89
1096.53
2276.82
1139.62
2125.92
1179.29
1971.93
1214.78
1815.85
1245.12
1659.03
1269.07
1503.33
1284.69
1351.63
1289.7
1207.88
1279.17
1078.81
1252.08
1201.48
-50.8046
177.098
-86.553
220.262
-114.426
253.467
-137.121
275.949
-156.887
287.915
-175.11
290.48
-192.536
285.536
-209.461
274.959
-225.912
260.326
-241.808
242.995
-257.02
224.058
-271.42
204.381
-284.903
184.639
-297.392
165.348
-308.839
146.898
-319.23
129.575
-328.577
113.576
-336.919
99.0271
-344.314
85.9915
-350.834
74.484
-356.564
64.4781
-361.594
55.9145
-366.017
48.708
-369.925
42.7537
-373.408
37.9324
-376.549
34.1155
-379.425
31.1692
-382.102
28.9583
-384.639
27.3492
-387.086
26.2131
-389.48
25.4277
-391.851
24.8794
-394.22
24.4645
-396.598
24.0893
-398.987
23.6714
-401.384
23.143
-403.779
22.4485
-406.159
21.543
-408.506
20.3922
-410.797
18.9729
-413.009
17.2722
-415.118
15.2864
-417.097
13.0205
-418.921
10.4865
-420.565
7.70288
-422.003
4.69302
-423.212
1.48361
-424.169
-1.89683
-424.856
-5.41757
-425.254
-9.04537
-425.349
-12.7448
-425.129
-16.4784
-424.583
-20.2066
-423.706
-23.8895
-422.493
-27.4866
-420.946
-30.9575
-419.066
-34.2632
-416.86
-37.3659
-414.338
-40.2301
-411.512
-42.8232
-408.398
-45.1157
-405.014
-47.0819
-401.381
-48.7004
-397.522
-49.9544
-393.461
-50.8322
-389.225
-51.3272
-384.841
-51.4383
-380.34
-51.1682
-375.748
-50.5298
-371.1
-49.5349
-366.424
-48.2136
-361.747
-46.6004
-357.094
-44.7325
-352.488
-42.6545
-347.95
-40.418
-343.497
-38.0818
-339.137
-35.7126
-334.877
-33.3843
-330.714
-31.1786
-326.635
-29.1851
-322.619
-27.5019
-318.635
-26.2357
-314.636
-25.5024
-310.564
-25.4268
-306.34
-26.1429
-301.872
-27.7953
-297.041
-30.5399
-291.71
-34.5435
-285.717
-39.9824
-278.875
-47.0394
-270.97
-55.9008
-261.763
-66.7505
-250.99
-79.7631
-238.362
-95.0941
-223.577
-112.868
-206.317
-133.167
-186.265
-156.013
-163.113
-181.352
-136.575
-209.04
-106.404
-238.824
-72.4029
-270.336
-34.437
-303.081
7.5561
-336.436
53.5701
-369.668
103.515
-401.942
157.162
-432.345
214.085
-459.922
273.593
-483.656
334.71
-502.575
396.198
-515.801
456.619
-522.699
514.637
-523.301
568.963
-517.765
618.645
-506.998
663.517
-492.597
703.913
-476.176
740.411
-459.307
773.885
-443.482
805.435
-429.942
836.203
-419.588
867.253
-412.997
899.524
-410.586
933.808
-412.657
970.752
-419.314
1010.83
-430.519
1054.37
-446.105
1101.56
-465.798
1152.51
-489.241
1207.24
-516.013
1265.7
-545.646
1327.81
-577.626
1393.42
-611.406
1462.31
-646.411
1534.24
-682.048
1608.89
-717.712
1685.91
-752.795
1764.9
-786.703
1845.45
-818.85
1927.1
-848.684
2009.42
-875.695
2091.95
-899.417
2174.27
-919.448
2255.99
-935.428
2336.68
-947.002
2415.95
-953.931
2493.48
-956.148
2568.94
-953.51
2642.02
-945.997
2712.48
-933.701
2780.07
-916.707
2844.59
-895.141
2905.82
-869.174
2963.59
-839.01
3017.73
-804.888
3068.1
-767.075
3114.56
-725.859
3157
-681.547
3195.3
-634.46
3229.36
-584.924
3259.07
-533.266
3284.34
-479.804
3305.09
-424.844
3321.21
-368.67
3332.63
-311.536
3339.24
-253.659
3340.97
-195.22
3337.72
-136.351
3329.43
-77.1445
3316.02
-17.6528
3297.43
42.0929
3273.59
102.08
3244.45
162.299
3209.98
222.724
3170.14
283.323
3124.9
344.062
3074.24
404.9
3018.17
465.794
2956.69
526.696
2889.82
587.552
2817.58
648.297
2740
708.854
2657.13
769.125
2569.01
828.989
2475.72
888.292
2377.35
946.841
2274.01
1004.39
2165.86
1060.65
2053.1
1115.25
1936
1167.74
1814.93
1217.61
1690.35
1264.21
1562.86
1306.78
1433.26
1344.37
1302.63
1375.75
1172.37
1399.33
1044.35
1412.71
921.162
1412.88
806.118
1394.21
705.223
1352.97
1282.27
-42.853
219.951
-71.7743
249.183
-92.9047
274.598
-109
292.045
-122.205
301.121
-133.992
302.266
-145.158
296.703
-156.073
285.874
-166.839
271.092
-177.423
253.58
-187.729
234.364
-197.638
214.29
-207.041
194.042
-215.847
174.155
-223.993
155.044
-231.438
137.02
-238.169
120.307
-244.192
105.051
-249.536
91.3349
-254.241
79.1894
-258.362
68.5992
-261.961
59.5131
-265.104
51.8505
-267.858
45.5084
-270.293
40.3668
-272.472
36.2945
-274.455
33.153
-276.298
30.8014
-278.049
29.0996
-279.747
27.9116
-281.428
27.1079
-283.116
26.5675
-284.831
26.1798
-286.585
25.8431
-288.381
25.4678
-290.218
24.9802
-292.092
24.3218
-293.992
23.443
-295.905
22.3054
-297.815
20.8828
-299.703
19.1602
-301.549
17.1324
-303.332
14.8033
-305.03
12.1847
-306.622
9.29487
-308.086
6.15721
-309.402
2.79911
-310.549
-0.749597
-311.51
-4.45683
-312.267
-8.28792
-312.806
-12.2058
-313.114
-16.1709
-313.178
-20.1419
-312.991
-24.0766
-312.546
-27.9321
-311.838
-31.6657
-310.865
-35.2359
-309.629
-38.6023
-308.132
-41.7271
-306.38
-44.5752
-304.381
-47.1146
-302.145
-49.3174
-299.686
-51.16
-297.016
-52.6236
-294.154
-53.6949
-291.114
-54.3664
-287.919
-54.634
-284.587
-54.4999
-281.136
-53.9808
-277.596
-53.0755
-273.987
-51.8226
-270.328
-50.2589
-266.64
-48.4204
-262.942
-46.3527
-259.25
-44.1096
-255.579
-41.753
-251.938
-39.3534
-248.333
-36.9899
-244.761
-34.7501
-241.215
-32.7309
-237.679
-31.0388
-234.124
-29.7902
-230.514
-29.1122
-226.798
-29.1427
-222.91
-30.0312
-218.765
-31.9401
-214.26
-35.0451
-209.269
-39.5346
-203.643
-45.6086
-197.207
-53.4752
-189.76
-63.3476
-181.074
-75.437
-170.893
-89.9445
-158.937
-107.05
-144.909
-126.897
-128.498
-149.578
-109.393
-175.118
-87.2944
-203.451
-61.9337
-234.401
-33.0884
-267.669
-0.599031
-302.825
35.619
-339.299
75.5715
-376.388
119.179
-413.275
166.228
-448.992
216.305
-482.421
268.768
-512.385
322.591
-537.479
376.328
-556.312
428.289
-567.762
476.66
-571.069
519.852
-566.493
557.096
-555.008
588.306
-538.208
613.823
-518.114
634.632
-496.985
652.24
-476.915
668.239
-459.48
684.074
-445.777
700.947
-436.462
719.735
-431.784
741.022
-431.874
765.206
-436.841
792.529
-446.637
823.102
-461.093
856.943
-479.946
894.004
-502.859
934.19
-529.427
977.374
-559.197
1023.4
-591.672
1072.09
-626.311
1123.22
-662.537
1176.55
-699.745
1231.81
-737.311
1288.71
-774.605
1346.9
-810.989
1406.04
-845.848
1465.78
-878.585
1525.75
-908.649
1585.58
-935.534
1644.96
-958.794
1703.57
-978.061
1761.16
-993.015
1817.4
-1003.24
1872
-1008.54
1924.86
-1009
1975.74
-1004.39
2024.47
-994.725
2070.93
-980.163
2115.02
-960.8
2156.65
-936.765
2195.72
-908.243
2232.16
-875.453
2265.92
-838.645
2296.93
-798.092
2325.16
-754.086
2350.55
-706.935
2373.04
-656.957
2392.59
-604.474
2409.13
-549.806
2422.6
-493.265
2432.9
-435.15
2439.97
-375.736
2443.71
-315.274
2444.02
-253.976
2440.83
-192.022
2434.02
-129.547
2423.52
-66.6459
2409.25
-3.37928
2391.12
60.2216
2369.06
124.137
2343.02
188.343
2312.94
252.803
2278.79
317.475
2240.54
382.312
2198.17
447.265
2151.68
512.283
2101.07
577.311
2046.33
642.29
1987.47
707.155
1924.5
771.823
1857.44
836.193
1786.29
900.137
1711.09
963.489
1631.89
1026.04
1548.77
1087.51
1461.84
1147.58
1371.27
1205.82
1277.3
1261.71
1180.27
1314.64
1080.62
1363.85
979.008
1408.39
876.289
1447.09
773.624
1478.42
672.538
1500.42
574.97
1510.28
483.148
1504.7
398.868
1478.49
324.107
1427.73
1337.46
-32.122
252.073
-52.3491
269.41
-65.8508
288.099
-74.9892
301.183
-81.5267
307.658
-86.9189
307.658
-92.0102
301.794
-97.0815
290.945
-102.318
276.328
-107.722
258.983
-113.217
239.86
-118.699
219.772
-124.057
199.399
-129.192
179.29
-134.026
159.878
-138.5
141.494
-142.574
124.381
-146.231
108.708
-149.469
94.573
-152.302
82.0221
-154.754
71.0517
-156.861
61.6196
-158.662
53.6517
-160.202
47.0487
-161.528
41.6924
-162.685
37.4511
-163.717
34.1849
-164.665
31.7497
-165.567
30.0015
-166.455
28.7996
-167.356
28.0094
-168.294
27.5055
-169.287
27.1723
-170.346
26.9025
-171.477
26.5988
-172.679
26.1826
-173.953
25.5957
-175.294
24.7837
-176.693
23.7043
-178.138
22.3285
-179.618
20.6393
-181.115
18.63
-182.615
16.3034
-184.101
13.6704
-185.555
10.7488
-186.959
7.56167
-188.297
4.13663
-189.55
0.504129
-190.704
-3.30303
-191.743
-7.24954
-192.651
-11.2974
-193.416
-15.406
-194.025
-19.5327
-194.468
-23.6339
-194.735
-27.6651
-194.818
-31.5823
-194.712
-35.3419
-194.413
-38.9021
-193.916
-42.2234
-193.223
-45.2688
-192.333
-48.0046
-191.249
-50.4011
-189.976
-52.4327
-188.521
-54.0791
-186.89
-55.3255
-185.091
-56.1652
-183.14
-56.5859
-181.038
-56.6011
-178.799
-56.22
-176.451
-55.4237
-174.001
-54.2723
-171.461
-52.7993
-168.845
-51.036
-166.169
-49.0293
-163.444
-46.8339
-160.683
-44.5141
-157.894
-42.1429
-155.081
-39.8031
-152.244
-37.5867
-149.378
-35.5964
-146.472
-33.9454
-143.504
-32.7583
-140.444
-32.1717
-137.252
-32.3348
-133.872
-33.4115
-130.231
-35.5805
-126.24
-39.0362
-121.786
-43.9882
-116.735
-50.6597
-110.925
-59.2853
-104.167
-70.1058
-96.2421
-83.3617
-86.9035
-99.2831
-75.8774
-118.076
-62.8699
-139.904
-47.5748
-164.873
-29.6874
-193.005
-8.921
-224.217
14.9706
-258.293
42.1738
-294.873
72.7947
-333.446
106.832
-373.336
144.16
-413.716
184.526
-453.642
227.506
-491.971
272.349
-527.264
318.054
-558.091
363.014