/*--------------------------------*- C++ -*----------------------------------*\
| =========                 |                                                 |
| \\      /  F ield         | OpenFOAM: The Open Source CFD Toolbox           |
|  \\    /   O peration     | Version:  5.x                                   |
|   \\  /    A nd           | Web:      www.OpenFOAM.org                      |
|    \\/     M anipulation  |                                                 |
\*---------------------------------------------------------------------------*/
/*   Windows 32 and 64 bit porting by blueCAPE: http://www.bluecape.com.pt   *\
|  Based on Windows porting (2.0.x v4) by Symscape: http://www.symscape.com   |
\*---------------------------------------------------------------------------*/
FoamFile
{
    version     2.0;
    format      ascii;
    class       surfaceScalarField;
    location    "0";
    object      phi;
}
// * * * * * * * * * * * * * * * * * * * * * * * * * * * * * * * * * * * * * //

dimensions      [0 3 -1 0 0 0 0];

internalField   nonuniform List<scalar> 
1890
(
0.00010961
3.2106e-008
0.000109695
-8.45538e-008
0.000109764
-6.9175e-008
0.000109819
-5.54443e-008
0.000109863
-4.36556e-008
0.000109896
-3.38649e-008
0.000109922
-2.5953e-008
0.000109942
-1.96987e-008
0.000109957
-1.48405e-008
0.000109968
-1.11181e-008
0.000109976
-8.29621e-009
0.000109982
-6.17376e-009
0.000109987
-4.58553e-009
0.00010999
-3.3985e-009
0.000109993
-2.50748e-009
0.000109994
-1.83117e-009
0.000109996
-1.31123e-009
0.000109996
-9.12201e-010
0.000109997
-6.16249e-010
0.000109997
-4.01957e-010
0.000109997
-2.8649e-010
0.000109996
-2.45439e-010
0.000109996
-2.19421e-010
0.000109996
-1.96352e-010
0.000109996
-1.65536e-010
0.000109996
-1.42759e-010
0.000109996
-1.15301e-010
0.000109996
-9.93977e-011
0.000109996
-8.00362e-011
0.000109996
-7.25861e-011
0.000109996
-6.12521e-011
0.000109996
-6.0516e-011
0.000109996
-5.47462e-011
0.000109996
-5.79736e-011
0.000109996
-5.50868e-011
0.000109996
-6.00028e-011
0.000109996
-5.8134e-011
0.000109995
-6.34069e-011
0.000109995
-6.16455e-011
0.000109995
-6.67344e-011
0.000109995
-6.48162e-011
0.000109995
-6.9632e-011
0.000109995
-6.76085e-011
0.000109995
-7.22318e-011
0.000109995
-7.02252e-011
0.000109995
-7.47487e-011
0.000109995
-7.28576e-011
0.000109995
-7.73314e-011
0.000109995
-7.5595e-011
0.000109995
-8.00251e-011
0.000109995
-7.84485e-011
0.000109995
-8.28157e-011
0.000109996
-8.13785e-011
0.000109996
-8.5654e-011
0.000109996
-8.43372e-011
0.000109996
-8.84941e-011
0.000109996
-8.72764e-011
0.000109996
-9.12936e-011
0.000109996
-9.01667e-011
0.000109996
-9.4033e-011
0.000109996
-9.29937e-011
0.000109996
-9.67114e-011
0.000109996
-9.57788e-011
0.000109996
-9.93736e-011
0.000109997
-9.85911e-011
0.000109997
-1.02128e-010
0.000109997
-1.01595e-010
0.000109997
-1.0521e-010
0.000109997
-1.05116e-010
0.000109997
-1.0907e-010
0.000109997
-1.0977e-010
0.000109998
-1.14543e-010
0.000109998
-1.16682e-010
0.000109998
-1.23139e-010
0.000109998
-1.2787e-010
0.000109998
-1.37551e-010
0.000109999
-1.46913e-010
0.000109999
-1.62531e-010
0.000109999
-1.80109e-010
0.000109999
-2.06402e-010
0.00011
-2.38437e-010
0.00011
-2.83617e-010
0.000110001
-3.40851e-010
0.000110001
-4.18926e-010
0.000110002
-5.19482e-010
0.000110003
-6.5371e-010
0.000110004
-8.27062e-010
0.000110005
-1.0542e-009
0.000110006
-1.34511e-009
0.000110008
-1.71795e-009
0.000110011
-2.18576e-009
0.000110013
-2.7661e-009
0.000110017
-3.46681e-009
0.000110021
-4.29091e-009
0.000110027
-5.21987e-009
0.000110033
-6.21425e-009
0.000110041
-7.19839e-009
0.000110049
-8.06685e-009
0.000110058
-8.68585e-009
5.78563e-008
0.000109626
6.45665e-008
0.00010971
-1.68011e-007
0.000109777
-1.36702e-007
0.000109831
-1.08944e-007
0.000109872
-8.53091e-008
0.000109904
-6.58471e-008
0.000109929
-5.02461e-008
0.000109947
-3.80017e-008
0.00010996
-2.85481e-008
0.000109971
-2.13405e-008
0.000109978
-1.5898e-008
0.000109984
-1.1818e-008
0.000109988
-8.77557e-009
0.000109991
-6.51421e-009
0.000109993
-4.83435e-009
0.000109995
-3.58293e-009
0.000109996
-2.64635e-009
0.000109996
-1.94932e-009
0.000109997
-1.45298e-009
0.000109997
-1.09786e-009
0.000109996
-8.47712e-010
0.000109996
-6.60398e-010
0.000109996
-5.26232e-010
0.000109996
-4.20733e-010
0.000109996
-3.44256e-010
0.000109996
-2.83213e-010
0.000109996
-2.41962e-010
0.000109996
-2.09033e-010
0.000109996
-1.89623e-010
0.000109996
-1.73174e-010
0.000109996
-1.65778e-010
0.000109996
-1.57583e-010
0.000109996
-1.55729e-010
0.000109995
-1.50888e-010
0.000109995
-1.51097e-010
0.000109995
-1.47311e-010
0.000109995
-1.48164e-010
0.000109995
-1.44684e-010
0.000109995
-1.45827e-010
0.000109995
-1.42567e-010
0.000109995
-1.44009e-010
0.000109995
-1.41024e-010
0.000109995
-1.42784e-010
0.000109995
-1.40072e-010
0.000109995
-1.42096e-010
0.000109995
-1.39577e-010
0.000109995
-1.41751e-010
0.000109995
-1.39315e-010
0.000109995
-1.41518e-010
0.000109995
-1.39064e-010
0.000109995
-1.41196e-010
0.000109995
-1.38656e-010
0.000109995
-1.40648e-010
0.000109995
-1.37987e-010
0.000109995
-1.398e-010
0.000109995
-1.37006e-010
0.000109996
-1.38623e-010
0.000109996
-1.35706e-010
0.000109996
-1.37126e-010
0.000109996
-1.34116e-010
0.000109996
-1.35359e-010
0.000109996
-1.3231e-010
0.000109996
-1.3343e-010
0.000109996
-1.30437e-010
0.000109996
-1.31543e-010
0.000109996
-1.28779e-010
0.000109997
-1.30081e-010
0.000109997
-1.27849e-010
0.000109997
-1.29732e-010
0.000109997
-1.28572e-010
0.000109997
-1.31734e-010
0.000109997
-1.32598e-010
0.000109998
-1.38286e-010
0.000109998
-1.42856e-010
0.000109998
-1.53284e-010
0.000109998
-1.64521e-010
0.000109998
-1.83602e-010
0.000109999
-2.06709e-010
0.000109999
-2.41312e-010
0.000109999
-2.8539e-010
0.00011
-3.47505e-010
0.00011
-4.28351e-010
0.00011
-5.38692e-010
0.000110001
-6.83376e-010
0.000110001
-8.77087e-010
0.000110002
-1.13091e-009
0.000110003
-1.46575e-009
0.000110004
-1.90134e-009
0.000110006
-2.46681e-009
0.000110007
-3.19141e-009
0.00011001
-4.11088e-009
0.000110012
-5.2576e-009
0.000110016
-6.6596e-009
0.00011002
-8.3261e-009
0.000110025
-1.02349e-008
0.000110032
-1.23114e-008
0.000110039
-1.44097e-008
0.000110048
-1.63053e-008
0.000110057
-1.77122e-008
1.15194e-007
0.00010966
9.78072e-008
0.000109741
-2.49062e-007
0.000109805
-2.00656e-007
0.000109854
-1.58288e-007
0.000109892
-1.22749e-007
0.00010992
-9.39232e-008
0.000109941
-7.11362e-008
0.000109956
-5.34689e-008
0.000109967
-3.99675e-008
0.000109976
-2.97595e-008
0.000109982
-2.21024e-008
0.000109986
-1.6392e-008
0.00010999
-1.21516e-008
0.000109992
-9.01185e-009
0.000109994
-6.69093e-009
0.000109995
-4.97515e-009
0.000109996
-3.70469e-009
0.000109997
-2.7634e-009
0.000109997
-2.07235e-009
0.000109997
-1.57707e-009
0.000109996
-1.20543e-009
0.000109996
-9.42004e-010
0.000109996
-7.35692e-010
0.000109995
-5.96199e-010
0.000109995
-4.80035e-010
0.000109995
-4.09254e-010
0.000109995
-3.4471e-010
0.000109995
-3.13301e-010
0.000109995
-2.78059e-010
0.000109995
-2.67942e-010
0.000109995
-2.47588e-010
0.000109995
-2.47464e-010
0.000109995
-2.33443e-010
0.000109995
-2.37226e-010
0.000109995
-2.25388e-010
0.000109995
-2.305e-010
0.000109995
-2.19378e-010
0.000109995
-2.25085e-010
0.000109995
-2.14429e-010
0.000109995
-2.20665e-010
0.000109995
-2.10542e-010
0.000109995
-2.17303e-010
0.000109995
-2.07718e-010
0.000109995
-2.14888e-010
0.000109995
-2.05724e-010
0.000109995
-2.13097e-010
0.000109995
-2.04178e-010
0.000109995
-2.11534e-010
0.000109995
-2.02696e-010
0.000109995
-2.09851e-010
0.000109995
-2.00978e-010
0.000109995
-2.07808e-010
0.000109995
-1.98841e-010
0.000109995
-2.05268e-010
0.000109995
-1.96192e-010
0.000109995
-2.02176e-010
0.000109995
-1.93007e-010
0.000109995
-1.98535e-010
0.000109995
-1.89314e-010
0.000109995
-1.94397e-010
0.000109995
-1.85196e-010
0.000109995
-1.8988e-010
0.000109996
-1.80813e-010
0.000109996
-1.85204e-010
0.000109996
-1.76464e-010
0.000109996
-1.80772e-010
0.000109996
-1.72689e-010
0.000109996
-1.77306e-010
0.000109996
-1.70453e-010
0.000109996
-1.76098e-010
0.000109997
-1.71475e-010
0.000109997
-1.79436e-010
0.000109997
-1.788e-010
0.000109997
-1.91374e-010
0.000109997
-1.97816e-010
0.000109998
-2.19069e-010
0.000109998
-2.38026e-010
0.000109998
-2.75135e-010
0.000109998
-3.16147e-010
0.000109999
-3.81716e-010
0.000109999
-4.61476e-010
0.000109999
-5.77508e-010
0.00011
-7.25004e-010
0.00011
-9.2952e-010
0.000110001
-1.19444e-009
0.000110001
-1.55198e-009
0.000110002
-2.0175e-009
0.000110003
-2.63407e-009
0.000110004
-3.4333e-009
0.000110006
-4.47251e-009
0.000110008
-5.80039e-009
0.00011001
-7.48369e-009
0.000110013
-9.57276e-009
0.000110017
-1.21103e-008
0.000110023
-1.50867e-008
0.000110029
-1.84213e-008
0.000110037
-2.1905e-008
0.000110046
-2.51748e-008
0.000110056
-2.77124e-008
1.71364e-007
0.000109713
1.32409e-007
0.00010979
-3.25945e-007
0.000109847
-2.58533e-007
0.00010989
-2.00754e-007
0.00010992
-1.53419e-007
0.000109942
-1.15898e-007
0.000109958
-8.68448e-008
0.000109969
-6.47121e-008
0.000109977
-4.80411e-008
0.000109983
-3.55817e-008
0.000109987
-2.63203e-008
0.00010999
-1.9462e-008
0.000109992
-1.43967e-008
0.000109994
-1.06621e-008
0.000109995
-7.91148e-009
0.000109996
-5.88583e-009
0.000109996
-4.3928e-009
0.000109997
-3.29101e-009
0.000109997
-2.47971e-009
0.000109996
-1.88864e-009
0.000109996
-1.45022e-009
0.000109995
-1.13295e-009
0.000109995
-8.93264e-010
0.000109995
-7.23114e-010
0.000109995
-5.93136e-010
0.000109995
-5.05365e-010
0.000109995
-4.37278e-010
0.000109995
-3.95864e-010
0.000109995
-3.61976e-010
0.000109995
-3.45038e-010
0.000109995
-3.28015e-010
0.000109995
-3.22172e-010
0.000109994
-3.12059e-010
0.000109994
-3.10329e-010
0.000109994
-3.02502e-010
0.000109994
-3.02077e-010
0.000109994
-2.95014e-010
0.000109994
-2.95194e-010
0.000109994
-2.88691e-010
0.000109994
-2.89476e-010
0.000109994
-2.8362e-010
0.000109994
-2.85031e-010
0.000109994
-2.79791e-010
0.000109994
-2.81694e-010
0.000109994
-2.7689e-010
0.000109994
-2.79038e-010
0.000109994
-2.74426e-010
0.000109994
-2.76562e-010
0.000109994
-2.71922e-010
0.000109994
-2.7384e-010
0.000109994
-2.69017e-010
0.000109994
-2.7058e-010
0.000109994
-2.65488e-010
0.000109994
-2.66623e-010
0.000109994
-2.61229e-010
0.000109994
-2.61907e-010
0.000109994
-2.56216e-010
0.000109994
-2.56439e-010
0.000109995
-2.50485e-010
0.000109995
-2.50287e-010
0.000109995
-2.44139e-010
0.000109995
-2.43594e-010
0.000109995
-2.37375e-010
0.000109995
-2.36626e-010
0.000109995
-2.3055e-010
0.000109995
-2.29866e-010
0.000109995
-2.24309e-010
0.000109996
-2.24173e-010
0.000109996
-2.19798e-010
0.000109996
-2.21075e-010
0.000109996
-2.19051e-010
0.000109996
-2.23278e-010
0.000109996
-2.25666e-010
0.000109997
-2.35569e-010
0.000109997
-2.46004e-010
0.000109997
-2.664e-010
0.000109997
-2.91295e-010
0.000109997
-3.30685e-010
0.000109998
-3.81335e-010
0.000109998
-4.54691e-010
0.000109998
-5.50951e-010
0.000109998
-6.84554e-010
0.000109999
-8.61185e-010
0.000109999
-1.10091e-009
0.00011
-1.41833e-009
0.00011
-1.84344e-009
0.000110001
-2.40515e-009
0.000110002
-3.14994e-009
0.000110002
-4.12854e-009
0.000110004
-5.41188e-009
0.000110005
-7.07945e-009
0.000110007
-9.22943e-009
0.00011001
-1.19626e-008
0.000110013
-1.53755e-008
0.000110018
-1.95217e-008
0.000110024
-2.43613e-008
0.000110032
-2.967e-008
0.000110042
-3.49366e-008
0.000110054
-3.9294e-008
2.25458e-007
0.000109787
1.6923e-007
0.000109857
-3.95983e-007
0.000109905
-3.06711e-007
0.000109937
-2.32701e-007
0.000109958
-1.74192e-007
0.000109971
-1.29325e-007
0.00010998
-9.55562e-008
0.000109985
-7.0424e-008
0.000109989
-5.18411e-008
0.000109991
-3.8152e-008
0.000109993
-2.80888e-008
0.000109994
-2.06993e-008
0.000109995
-1.52761e-008
0.000109996
-1.12969e-008
0.000109996
-8.37695e-009
0.000109997
-6.23356e-009
0.000109997
-4.65903e-009
0.000109997
-3.50122e-009
0.000109996
-2.65034e-009
0.000109996
-2.02832e-009
0.000109995
-1.57146e-009
0.000109995
-1.23753e-009
0.000109994
-9.8908e-010
0.000109994
-8.06696e-010
0.000109994
-6.72738e-010
0.000109994
-5.77404e-010
0.000109994
-5.09612e-010
0.000109994
-4.63821e-010
0.000109994
-4.3255e-010
0.000109994
-4.12697e-010
0.000109994
-3.99113e-010
0.000109994
-3.9066e-010
0.000109994
-3.83997e-010
0.000109994
-3.79454e-010
0.000109993
-3.74835e-010
0.000109993
-3.71317e-010
0.000109993
-3.67244e-010
0.000109993
-3.64138e-010
0.000109993
-3.605e-010
0.000109993
-3.57907e-010
0.000109993
-3.54854e-010
0.000109993
-3.52859e-010
0.000109993
-3.50379e-010
0.000109993
-3.48867e-010
0.000109993
-3.46766e-010
0.000109993
-3.45484e-010
0.000109993
-3.43489e-010
0.000109993
-3.42166e-010
0.000109993
-3.40028e-010
0.000109993
-3.38445e-010
0.000109993
-3.35985e-010
0.000109993
-3.34001e-010
0.000109993
-3.31116e-010
0.000109993
-3.28657e-010
0.000109993
-3.25301e-010
0.000109993
-3.22344e-010
0.000109994
-3.18514e-010
0.000109994
-3.1507e-010
0.000109994
-3.10797e-010
0.000109994
-3.0691e-010
0.000109994
-3.02259e-010
0.000109994
-2.98019e-010
0.000109994
-2.93114e-010
0.000109994
-2.88683e-010
0.000109994
-2.83745e-010
0.000109994
-2.79417e-010
0.000109995
-2.74839e-010
0.000109995
-2.71136e-010
0.000109995
-2.67614e-010
0.000109995
-2.65459e-010
0.000109995
-2.64222e-010
0.000109995
-2.65249e-010
0.000109995
-2.68471e-010
0.000109996
-2.75566e-010
0.000109996
-2.87084e-010
0.000109996
-3.05345e-010
0.000109996
-3.31939e-010
0.000109996
-3.70377e-010
0.000109997
-4.24024e-010
0.000109997
-4.98559e-010
0.000109997
-6.00421e-010
0.000109997
-7.39184e-010
0.000109998
-9.26644e-010
0.000109998
-1.1793e-009
0.000109998
-1.51832e-009
0.000109999
-1.97241e-009
0.000109999
-2.57903e-009
0.000109999
-3.38807e-009
0.00011
-4.46477e-009
0.000110001
-5.89449e-009
0.000110002
-7.78703e-009
0.000110003
-1.02809e-008
0.000110005
-1.35444e-008
0.000110007
-1.77673e-008
0.000110011
-2.3133e-008
0.000110017
-2.97481e-008
0.000110025
-3.74998e-008
0.000110036
-4.5811e-008
0.00011005
-5.33375e-008
2.7598e-007
0.000109887
2.09475e-007
0.000109946
-4.54698e-007
0.000109979
-3.39516e-007
0.000109995
-2.49038e-007
0.000110002
-1.81222e-007
0.000110004
-1.31559e-007
0.000110004
-9.5548e-008
0.000110003
-6.95127e-008
0.000110002
-5.06831e-008
0.000110001
-3.70409e-008
0.00011
-2.71358e-008
0.000109999
-1.99289e-008
0.000109998
-1.46754e-008
0.000109998
-1.08398e-008
0.000109997
-8.03582e-009
0.000109997
-5.98398e-009
0.000109997
-4.48188e-009
0.000109996
-3.38254e-009
0.000109996
-2.5794e-009
0.000109995
-1.99547e-009
0.000109995
-1.57e-009
0.000109994
-1.25955e-009
0.000109993
-1.02696e-009
0.000109993
-8.49881e-010
0.000109993
-7.22016e-010
0.000109993
-6.27103e-010
0.000109993
-5.64114e-010
0.000109993
-5.18274e-010
0.000109993
-4.91755e-010
0.000109993
-4.71603e-010
0.000109993
-4.62482e-010
0.000109993
-4.53252e-010
0.000109992
-4.5055e-010
0.000109992
-4.44661e-010
0.000109992
-4.43478e-010
0.000109992
-4.38101e-010
0.000109992
-4.37029e-010
0.000109992
-4.31675e-010
0.000109992
-4.30721e-010
0.000109992
-4.25616e-010
0.000109992
-4.25026e-010
0.000109992
-4.20348e-010
0.000109992
-4.20173e-010
0.000109992
-4.15867e-010
0.000109992
-4.15942e-010
0.000109992
-4.11787e-010
0.000109992
-4.11847e-010
0.000109992
-4.07585e-010
0.000109992
-4.07375e-010
0.000109992
-4.02791e-010
0.000109992
-4.02122e-010
0.000109992
-3.97078e-010
0.000109992
-3.95836e-010
0.000109992
-3.90259e-010
0.000109992
-3.8839e-010
0.000109992
-3.82259e-010
0.000109992
-3.79752e-010
0.000109992
-3.73082e-010
0.000109993
-3.69959e-010
0.000109993
-3.62801e-010
0.000109993
-3.59122e-010
0.000109993
-3.51568e-010
0.000109993
-3.47447e-010
0.000109993
-3.39662e-010
0.000109993
-3.35309e-010
0.000109993
-3.27585e-010
0.000109993
-3.23374e-010
0.000109994
-3.16218e-010
0.000109994
-3.12816e-010
0.000109994
-3.07122e-010
0.000109994
-3.05703e-010
0.000109994
-3.03042e-010
0.000109994
-3.05684e-010
0.000109995
-3.08824e-010
0.000109995
-3.19194e-010
0.000109995
-3.33021e-010
0.000109995
-3.57611e-010
0.000109995
-3.90767e-010
0.000109996
-4.41073e-010
0.000109996
-5.0888e-010
0.000109996
-6.05318e-010
0.000109996
-7.35023e-010
0.000109996
-9.1398e-010
0.000109996
-1.15425e-009
0.000109997
-1.48093e-009
0.000109997
-1.91931e-009
0.000109997
-2.5115e-009
0.000109997
-3.30695e-009
0.000109997
-4.37989e-009
0.000109997
-5.82476e-009
0.000109998
-7.7765e-009
0.000109998
-1.04131e-008
0.000109999
-1.39796e-008
0.00011
-1.87935e-008
0.000110002
-2.52525e-008
0.000110007
-3.37828e-008
0.000110014
-4.46783e-008
0.000110026
-5.76639e-008
0.000110044
-7.10294e-008
3.2013e-007
0.000110022
2.54079e-007
0.000110061
-4.93708e-007
0.000110069
-3.47445e-007
0.000110062
-2.42577e-007
0.000110051
-1.69997e-007
0.000110039
-1.20058e-007
0.000110029
-8.5493e-008
0.000110021
-6.13358e-008
0.000110014
-4.42859e-008
0.000110009
-3.21482e-008
0.000110006
-2.3446e-008
0.000110003
-1.71715e-008
0.000110001
-1.26274e-008
0.000109999
-9.32525e-009
0.000109998
-6.91974e-009
0.000109997
-5.16524e-009
0.000109997
-3.88631e-009
0.000109996
-2.95717e-009
0.000109995
-2.28658e-009
0.000109994
-1.80621e-009
0.000109994
-1.46242e-009
0.000109993
-1.21231e-009
0.000109992
-1.02284e-009
0.000109992
-8.65424e-010
0.000109992
-7.52969e-010
0.000109992
-6.63285e-010
0.000109992
-6.08967e-010
0.000109991
-5.64768e-010
0.000109991
-5.45009e-010
0.000109991
-5.25019e-010
0.000109991
-5.21676e-010
0.000109991
-5.11734e-010
0.000109991
-5.14132e-010
0.000109991
-5.06876e-010
0.000109991
-5.1022e-010
0.000109991
-5.02904e-010
0.000109991
-5.05841e-010
0.000109991
-4.98043e-010
0.000109991
-5.00646e-010
0.000109991
-4.92686e-010
0.000109991
-4.95288e-010
0.000109991
-4.8745e-010
0.000109991
-4.90188e-010
0.000109991
-4.82511e-010
0.000109991
-4.85288e-010
0.000109991
-4.77626e-010
0.000109991
-4.80218e-010
0.000109991
-4.7236e-010
0.000109991
-4.7453e-010
0.000109991
-4.66285e-010
0.000109991
-4.67848e-010
0.000109991
-4.59086e-010
0.000109991
-4.59919e-010
0.000109991
-4.50575e-010
0.000109991
-4.50613e-010
0.000109991
-4.40667e-010
0.000109991
-4.39887e-010
0.000109991
-4.29358e-010
0.000109991
-4.27769e-010
0.000109991
-4.16707e-010
0.000109991
-4.14355e-010
0.000109992
-4.0285e-010
0.000109992
-3.99829e-010
0.000109992
-3.88036e-010
0.000109992
-3.84523e-010
0.000109992
-3.72706e-010
0.000109992
-3.69023e-010
0.000109992
-3.57631e-010
0.000109992
-3.54349e-010
0.000109993
-3.44165e-010
0.000109993
-3.42292e-010
0.000109993
-3.34674e-010
0.000109993
-3.35989e-010
0.000109993
-3.33322e-010
0.000109993
-3.40968e-010
0.000109994
-3.47447e-010
0.000109994
-3.66985e-010
0.000109994
-3.90032e-010
0.000109994
-4.31334e-010
0.000109994
-4.8414e-010
0.000109994
-5.64817e-010
0.000109995
-6.70975e-010
0.000109995
-8.22667e-010
0.000109995
-1.02476e-009
0.000109995
-1.30497e-009
0.000109995
-1.68102e-009
0.000109995
-2.19618e-009
0.000109995
-2.8925e-009
0.000109994
-3.84556e-009
0.000109994
-5.14666e-009
0.000109993
-6.94163e-009
0.000109992
-9.42934e-009
0.000109992
-1.2916e-008
0.000109991
-1.78462e-008
0.000109991
-2.48883e-008
0.000109992
-3.49899e-008
0.000109997
-4.93755e-008
0.000110009
-6.91261e-008
0.000110032
-9.35306e-008
3.51876e-007
0.000110205
2.98488e-007
0.000110206
-4.9431e-007
0.000110172
-3.13735e-007
0.000110133
-2.03714e-007
0.000110099
-1.36069e-007
0.000110072
-9.31463e-008
0.000110052
-6.50005e-008
0.000110036
-4.60249e-008
0.000110025
-3.29516e-008
0.000110017
-2.37962e-008
0.00011001
-1.73058e-008
0.000110006
-1.26624e-008
0.000110003
-9.31756e-009
0.00011
-6.89586e-009
0.000109998
-5.13689e-009
0.000109997
-3.85872e-009
0.000109996
-2.93433e-009
0.000109995
-2.27438e-009
0.000109994
-1.81332e-009
0.000109993
-1.49793e-009
0.000109992
-1.27771e-009
0.000109992
-1.11671e-009
0.000109991
-9.86007e-010
0.000109991
-8.70591e-010
0.00010999
-7.72027e-010
0.00010999
-7.00907e-010
0.00010999
-6.46669e-010
0.00010999
-6.1524e-010
0.00010999
-5.91318e-010
0.00010999
-5.8262e-010
0.00010999
-5.73594e-010
0.00010999
-5.7453e-010
0.00010999
-5.7055e-010
0.00010999
-5.73919e-010
0.00010999
-5.70302e-010
0.000109989
-5.73251e-010
0.000109989
-5.68568e-010
0.000109989
-5.70585e-010
0.000109989
-5.6489e-010
0.000109989
-5.66306e-010
0.000109989
-5.60012e-010
0.000109989
-5.61194e-010
0.000109989
-5.54581e-010
0.000109989
-5.5567e-010
0.000109989
-5.48783e-010
0.000109989
-5.49711e-010
0.000109989
-5.42442e-010
0.000109989
-5.43036e-010
0.000109989
-5.35224e-010
0.000109989
-5.353e-010
0.000109989
-5.26803e-010
0.000109989
-5.26217e-010
0.000109989
-5.16941e-010
0.000109989
-5.15596e-010
0.000109989
-5.05495e-010
0.000109989
-5.03339e-010
0.00010999
-4.92407e-010
0.00010999
-4.89423e-010
0.00010999
-4.77687e-010
0.00010999
-4.73888e-010
0.00010999
-4.61406e-010
0.00010999
-4.56839e-010
0.00010999
-4.43713e-010
0.00010999
-4.38475e-010
0.00010999
-4.2487e-010
0.00010999
-4.1914e-010
0.000109991
-4.05331e-010
0.000109991
-3.99427e-010
0.000109991
-3.85874e-010
0.000109991
-3.8036e-010
0.000109991
-3.67841e-010
0.000109991
-3.63704e-010
0.000109992
-3.53565e-010
0.000109992
-3.52538e-010
0.000109992
-3.47117e-010
0.000109992
-3.52263e-010
0.000109992
-3.55669e-010
0.000109992
-3.72414e-010
0.000109993
-3.9192e-010
0.000109993
-4.29939e-010
0.000109993
-4.78538e-010
0.000109993
-5.55231e-010
0.000109993
-6.56388e-010
0.000109993
-8.03443e-010
0.000109993
-1.00026e-009
0.000109993
-1.27661e-009
0.000109992
-1.65044e-009
0.000109992
-2.16953e-009
0.000109991
-2.88086e-009
0.00010999
-3.87368e-009
0.000109989
-5.26226e-009
0.000109987
-7.24155e-009
0.000109984
-1.01052e-008
0.000109981
-1.43553e-008
0.000109977
-2.0837e-008
0.000109973
-3.10529e-008
0.000109972
-4.76533e-008
0.000109978
-7.51079e-008
0.000110004
-1.19241e-007
3.56138e-007
0.000110477
3.00689e-007
0.000110385
-4.01894e-007
0.00011028
-2.09305e-007
0.000110199
-1.22536e-007
0.00011014
-7.7511e-008
0.000110099
-5.15311e-008
0.000110069
-3.53892e-008
0.000110048
-2.48448e-008
0.000110032
-1.77187e-008
0.000110021
-1.27889e-008
0.000110013
-9.3215e-009
0.000110008
-6.85333e-009
0.000110003
-5.08048e-009
0.00011
-3.79869e-009
0.000109998
-2.86908e-009
0.000109996
-2.19813e-009
0.000109995
-1.72478e-009
0.000109994
-1.41014e-009
0.000109993
-1.22465e-009
0.000109992
-1.12968e-009
0.000109991
-1.06526e-009
0.00010999
-9.92293e-010
0.000109989
-9.23286e-010
0.000109989
-8.47779e-010
0.000109989
-7.81652e-010
0.000109988
-7.24409e-010
0.000109988
-6.84865e-010
0.000109988
-6.56046e-010
0.000109988
-6.40989e-010
0.000109988
-6.31601e-010
0.000109988
-6.29996e-010
0.000109988
-6.29357e-010
0.000109988
-6.32355e-010
0.000109988
-6.33669e-010
0.000109988
-6.36569e-010
0.000109988
-6.36867e-010
0.000109988
-6.38071e-010
0.000109988
-6.36738e-010
0.000109988
-6.36246e-010
0.000109987
-6.3365e-010
0.000109987
-6.31959e-010
0.000109987
-6.28612e-010
0.000109987
-6.26142e-010
0.000109987
-6.22355e-010
0.000109987
-6.19289e-010
0.000109987
-6.15136e-010
0.000109987
-6.11461e-010
0.000109987
-6.06863e-010
0.000109987
-6.02466e-010
0.000109987
-5.9729e-010
0.000109988
-5.92041e-010
0.000109988
-5.86162e-010
0.000109988
-5.79958e-010
0.000109988
-5.73285e-010
0.000109988
-5.66061e-010
0.000109988
-5.58544e-010
0.000109988
-5.50273e-010
0.000109988
-5.41893e-010
0.000109988
-5.32581e-010
0.000109988
-5.23347e-010
0.000109988
-5.13026e-010
0.000109988
-5.02975e-010
0.000109988
-4.91706e-010
0.000109988
-4.80908e-010
0.000109989
-4.68798e-010
0.000109989
-4.5737e-010
0.000109989
-4.44585e-010
0.000109989
-4.32724e-010
0.000109989
-4.19536e-010
0.000109989
-4.07571e-010
0.000109989
-3.94423e-010
0.00010999
-3.8291e-010
0.00010999
-3.70547e-010
0.00010999
-3.60435e-010
0.00010999
-3.50128e-010
0.00010999
-3.43071e-010
0.00010999
-3.37027e-010
0.000109991
-3.3593e-010
0.000109991
-3.3804e-010
0.000109991
-3.48071e-010
0.000109991
-3.6528e-010
0.000109991
-3.95743e-010
0.000109991
-4.40628e-010
0.000109991
-5.08549e-010
0.000109991
-6.0436e-010
0.00010999
-7.41676e-010
0.00010999
-9.32806e-010
0.000109989
-1.20199e-009
0.000109988
-1.57794e-009
0.000109987
-2.11004e-009
0.000109985
-2.86823e-009
0.000109981
-3.97121e-009
0.000109977
-5.61372e-009
0.000109971
-8.15156e-009
0.000109963
-1.22663e-008
0.000109952
-1.93964e-008
0.000109937
-3.28598e-008
0.000109923
-6.11397e-008
0.000109933
-1.28177e-007
2.88784e-007
0.000110973
0.000110572
0.000110363
0.00011024
0.000110163
0.000110112
0.000110077
0.000110052
0.000110035
0.000110023
0.000110014
0.000110007
0.000110002
0.000109999
0.000109996
0.000109994
0.000109993
0.000109992
0.000109991
0.000109989
0.000109989
0.000109988
0.000109987
0.000109987
0.000109987
0.000109986
0.000109986
0.000109986
0.000109986
0.000109986
0.000109986
0.000109986
0.000109986
0.000109986
0.000109986
0.000109986
0.000109985
0.000109985
0.000109985
0.000109985
0.000109985
0.000109985
0.000109985
0.000109985
0.000109985
0.000109985
0.000109985
0.000109985
0.000109985
0.000109985
0.000109985
0.000109985
0.000109985
0.000109985
0.000109986
0.000109986
0.000109986
0.000109986
0.000109986
0.000109986
0.000109986
0.000109986
0.000109986
0.000109986
0.000109986
0.000109987
0.000109987
0.000109987
0.000109987
0.000109987
0.000109987
0.000109987
0.000109988
0.000109988
0.000109988
0.000109988
0.000109988
0.000109988
0.000109989
0.000109989
0.000109989
0.000109989
0.000109989
0.000109989
0.000109988
0.000109988
0.000109987
0.000109987
0.000109985
0.000109984
0.000109981
0.000109977
0.000109972
0.000109964
0.000109952
0.000109933
0.0001099
0.000109839
0.000109711
)
;

boundaryField
{
    walls
    {
        type            calculated;
        value           uniform 0;
    }
    inlet
    {
        type            calculated;
        value           nonuniform List<scalar> 10(-0.000109642 -0.000109659 -0.000109693 -0.000109747 -0.000109824 -0.000109928 -0.000110066 -0.00011025 -0.000110479 -0.000110672);
    }
    outlet
    {
        type            calculated;
        value           nonuniform List<scalar> 10(0.00011 0.00011 0.00011 0.00011 0.00011 0.00011 0.00011 0.00011 0.00011 0.00011);
    }
    frontAndBack
    {
        type            empty;
        value           nonuniform 0();
    }
}


// ************************************************************************* //
