/*--------------------------------*- C++ -*----------------------------------*\
| =========                 |                                                 |
| \\      /  F ield         | OpenFOAM: The Open Source CFD Toolbox           |
|  \\    /   O peration     | Version:  5.x                                   |
|   \\  /    A nd           | Web:      www.OpenFOAM.org                      |
|    \\/     M anipulation  |                                                 |
\*---------------------------------------------------------------------------*/
/*   Windows 32 and 64 bit porting by blueCAPE: http://www.bluecape.com.pt   *\
|  Based on Windows porting (2.0.x v4) by Symscape: http://www.symscape.com   |
\*---------------------------------------------------------------------------*/
FoamFile
{
    version     2.0;
    format      ascii;
    class       volVectorField;
    location    "0";
    object      U;
}
// * * * * * * * * * * * * * * * * * * * * * * * * * * * * * * * * * * * * * //

dimensions      [0 1 -1 0 0 0 0];

internalField   nonuniform List<vector> 
1000
(
(1.09571 0.000708386 0)
(1.09488 0.000124671 3.21015e-027)
(1.09455 0.000201402 0)
(1.09408 0.000269821 0)
(1.09349 0.000328466 0)
(1.09279 0.000377068 0)
(1.092 0.000416233 0)
(1.09114 0.000447076 2.13102e-027)
(1.09023 0.000470911 2.04914e-027)
(1.08928 0.000489047 0)
(1.08829 0.000502665 1.93768e-027)
(1.08729 0.000512775 0)
(1.08627 0.000520205 0)
(1.08523 0.000525624 0)
(1.08419 0.000529559 0)
(1.08315 0.000532417 0)
(1.08209 0.000534491 0)
(1.08104 0.00053596 0)
(1.07999 0.000536912 0)
(1.07893 0.000537454 0)
(1.07787 0.000537503 0)
(1.07681 0.000537179 0)
(1.07576 0.000536782 0)
(1.0747 0.00053637 0)
(1.07365 0.000536 0)
(1.07261 0.00053559 0)
(1.07156 0.000535205 0)
(1.07052 0.000534763 0)
(1.06948 0.000534339 0)
(1.06844 0.000533857 0)
(1.0674 0.000533395 0)
(1.06637 0.000532881 0)
(1.06533 0.000532393 0)
(1.0643 0.000531862 0)
(1.06327 0.000531361 0)
(1.06225 0.000530823 0)
(1.06122 0.00053032 0)
(1.0602 0.000529782 0)
(1.05918 0.00052928 0)
(1.05816 0.000528745 0)
(1.05714 0.000528245 0)
(1.05612 0.000527714 0)
(1.05511 0.000527217 0)
(1.0541 0.000526689 0)
(1.05309 0.000526194 0)
(1.05208 0.000525668 0)
(1.05108 0.000525175 0)
(1.05007 0.00052465 1.73848e-027)
(1.04907 0.000524159 0)
(1.04807 0.000523637 0)
(1.04708 0.000523146 0)
(1.04608 0.000522626 0)
(1.04509 0.000522137 0)
(1.0441 0.000521619 0)
(1.04311 0.000521131 1.72707e-027)
(1.04212 0.000520617 0)
(1.04113 0.00052013 1.72385e-027)
(1.04015 0.000519618 0)
(1.03917 0.000519132 0)
(1.03819 0.000518623 0)
(1.03721 0.000518139 0)
(1.03623 0.000517633 0)
(1.03526 0.00051715 0)
(1.03429 0.000516646 1.71273e-027)
(1.03332 0.000516164 0)
(1.03235 0.000515662 1.70956e-027)
(1.03138 0.000515182 0)
(1.03041 0.000514681 0)
(1.02945 0.0005142 0)
(1.02849 0.0005137 0)
(1.02753 0.000513217 0)
(1.02657 0.000512714 0)
(1.02562 0.000512226 1.69867e-027)
(1.02467 0.000511717 0)
(1.02371 0.000511217 1.69571e-027)
(1.02276 0.000510694 0)
(1.02182 0.000510173 0)
(1.02087 0.000509622 0)
(1.01993 0.000509062 0)
(1.01898 0.00050846 0)
(1.01804 0.000507829 0)
(1.01711 0.000507135 1.68735e-027)
(1.01617 0.000506381 0)
(1.01524 0.000505524 0)
(1.01431 0.000504556 0)
(1.01338 0.00050342 0)
(1.01245 0.000502091 0)
(1.01153 0.000500495 0)
(1.01062 0.000498582 1.69418e-027)
(1.0097 0.000496262 0)
(1.0088 0.00049347 1.70507e-027)
(1.0079 0.000490118 0)
(1.007 0.000486168 0)
(1.00612 0.000481605 0)
(1.00525 0.000476523 0)
(1.00438 0.00047112 0)
(1.00353 0.000465772 0)
(1.00269 0.000461008 1.79226e-027)
(1.00185 0.000457496 0)
(1.00072 0.00078964 6.98395e-028)
(1.09588 0.00212718 0)
(1.09504 0.000379735 1.43466e-026)
(1.0947 0.000612664 0)
(1.09421 0.000819375 0)
(1.09359 0.000995569 0)
(1.09287 0.00114075 0)
(1.09207 0.0012571 0)
(1.09119 0.00134829 4.66894e-027)
(1.09027 0.00141846 3.9571e-027)
(1.08931 0.00147167 0)
(1.08832 0.0015115 3.00124e-027)
(1.0873 0.001541 0)
(1.08628 0.00156261 0)
(1.08524 0.0015783 0)
(1.0842 0.00158959 0)
(1.08315 0.00159765 0)
(1.0821 0.00160336 0)
(1.08104 0.00160726 0)
(1.07999 0.00160963 0)
(1.07893 0.00161089 0)
(1.07787 0.00161113 0)
(1.07681 0.00161069 0)
(1.07576 0.0016099 0)
(1.0747 0.00160897 0)
(1.07365 0.00160793 0)
(1.07261 0.00160678 0)
(1.07156 0.00160555 0)
(1.07052 0.00160423 0)
(1.06948 0.00160287 0)
(1.06844 0.00160143 0)
(1.0674 0.00159997 0)
(1.06637 0.00159846 0)
(1.06533 0.00159695 0)
(1.0643 0.00159541 0)
(1.06327 0.00159388 0)
(1.06224 0.00159233 0)
(1.06122 0.0015908 0)
(1.0602 0.00158925 0)
(1.05917 0.00158772 0)
(1.05815 0.00158618 0)
(1.05714 0.00158466 0)
(1.05612 0.00158313 0)
(1.05511 0.00158161 0)
(1.0541 0.00158008 0)
(1.05309 0.00157857 0)
(1.05208 0.00157705 0)
(1.05108 0.00157554 0)
(1.05007 0.00157402 1.74795e-027)
(1.04907 0.00157252 0)
(1.04807 0.00157101 0)
(1.04707 0.00156951 0)
(1.04608 0.00156801 0)
(1.04509 0.00156652 0)
(1.04409 0.00156502 0)
(1.0431 0.00156353 1.73679e-027)
(1.04212 0.00156205 0)
(1.04113 0.00156057 1.73362e-027)
(1.04015 0.00155908 0)
(1.03916 0.00155761 0)
(1.03818 0.00155614 0)
(1.03721 0.00155467 0)
(1.03623 0.0015532 0)
(1.03526 0.00155174 0)
(1.03428 0.00155028 1.72248e-027)
(1.03331 0.00154882 0)
(1.03234 0.00154736 1.71933e-027)
(1.03138 0.00154591 0)
(1.03041 0.00154445 0)
(1.02945 0.001543 0)
(1.02849 0.00154154 0)
(1.02753 0.00154009 0)
(1.02657 0.00153862 0)
(1.02562 0.00153715 1.70939e-027)
(1.02466 0.00153566 0)
(1.02371 0.00153416 1.70754e-027)
(1.02276 0.00153263 0)
(1.02181 0.00153107 0)
(1.02087 0.00152945 0)
(1.01992 0.00152778 0)
(1.01898 0.00152601 0)
(1.01804 0.00152413 0)
(1.0171 0.00152209 1.71799e-027)
(1.01617 0.00151985 0)
(1.01523 0.00151734 0)
(1.0143 0.00151447 0)
(1.01337 0.00151114 0)
(1.01245 0.00150721 0)
(1.01153 0.00150251 0)
(1.01061 0.00149686 1.8611e-027)
(1.0097 0.00149 0)
(1.00879 0.0014817 1.98141e-027)
(1.00789 0.00147171 0)
(1.00699 0.00145986 0)
(1.00611 0.00144608 0)
(1.00523 0.00143058 0)
(1.00437 0.00141393 0)
(1.00352 0.00139723 0)
(1.00268 0.00138215 2.86839e-027)
(1.00184 0.00137077 0)
(1.00071 0.00236632 -6.93307e-027)
(1.09622 0.00355242 0)
(1.09536 0.000653042 4.50235e-026)
(1.09499 0.0010507 0)
(1.09447 0.0014 0)
(1.09381 0.00169423 0)
(1.09305 0.00193376 -1.78058e-026)
(1.0922 0.00212359 0)
(1.0913 0.00227089 -5.8429e-028)
(1.09035 0.00238329 -1.34066e-027)
(1.08937 0.00246791 0)
(1.08836 0.0025309 -2.34374e-027)
(1.08734 0.00257729 0)
(1.0863 0.00261112 8.57335e-027)
(1.08526 0.00263551 8.20903e-027)
(1.08421 0.00265289 0)
(1.08316 0.0026651 7.73403e-027)
(1.0821 0.0026735 7.581e-027)
(1.08104 0.00267905 0)
(1.07999 0.00268234 7.38001e-027)
(1.07893 0.00268394 7.31673e-027)
(1.07787 0.0026844 0)
(1.07681 0.00268401 7.23174e-027)
(1.07575 0.00268307 7.20222e-027)
(1.0747 0.00268166 0)
(1.07365 0.00268 7.15934e-027)
(1.0726 0.00267804 7.14368e-027)
(1.07156 0.00267596 0)
(1.07051 0.00267367 7.11861e-027)
(1.06947 0.00267134 -7.1081e-027)
(1.06843 0.00266888 7.09947e-027)
(1.0674 0.00266642 7.09077e-027)
(1.06636 0.00266388 0)
(1.06533 0.00266137 7.07548e-027)
(1.0643 0.0026588 7.06858e-027)
(1.06327 0.00265628 -7.061e-027)
(1.06224 0.00265371 7.05429e-027)
(1.06121 0.0026512 7.04683e-027)
(1.06019 0.00264863 0)
(1.05917 0.00264612 7.03281e-027)
(1.05815 0.00264356 7.02626e-027)
(1.05713 0.00264106 -7.01896e-027)
(1.05612 0.0026385 0)
(1.0551 0.00263601 0)
(1.05409 0.00263346 0)
(1.05308 0.00263097 0)
(1.05208 0.00262843 0)
(1.05107 0.00262595 -6.97828e-027)
(1.05007 0.00262342 -3.46276e-027)
(1.04907 0.00262095 0)
(1.04807 0.00261842 0)
(1.04707 0.00261596 0)
(1.04607 0.00261345 0)
(1.04508 0.002611 0)
(1.04409 0.00260851 0)
(1.0431 0.00260607 -3.4402e-027)
(1.04211 0.00260358 0)
(1.04113 0.00260116 -3.43381e-027)
(1.04014 0.00259868 0)
(1.03916 0.00259627 0)
(1.03818 0.00259381 0)
(1.0372 0.0025914 0)
(1.03623 0.00258895 0)
(1.03525 0.00258656 0)
(1.03428 0.00258412 -3.41169e-027)
(1.03331 0.00258173 0)
(1.03234 0.0025793 -3.40547e-027)
(1.03137 0.00257692 0)
(1.03041 0.0025745 0)
(1.02945 0.00257211 0)
(1.02848 0.00256969 0)
(1.02753 0.0025673 0)
(1.02657 0.00256486 0)
(1.02561 0.00256244 -3.38296e-027)
(1.02466 0.00255997 0)
(1.02371 0.00255751 -3.37553e-027)
(1.02276 0.00255497 0)
(1.02181 0.00255241 0)
(1.02086 0.00254975 0)
(1.01992 0.00254701 0)
(1.01898 0.0025441 0)
(1.01804 0.00254104 0)
(1.0171 0.00253771 -3.332e-027)
(1.01616 0.00253409 0)
(1.01523 0.00253 0)
(1.0143 0.00252538 0)
(1.01337 0.00252 0)
(1.01244 0.00251369 0)
(1.01152 0.00250612 0)
(1.0106 0.002497 -3.14856e-027)
(1.00968 0.00248589 0)
(1.00877 0.00247238 -3.00981e-027)
(1.00787 0.00245597 0)
(1.00697 0.00243627 0)
(1.00609 0.00241303 0)
(1.00521 0.00238641 0)
(1.00434 0.00235719 0)
(1.00349 0.00232715 0)
(1.00265 0.00229923 -1.94503e-027)
(1.00183 0.00227745 0)
(1.00071 0.00393456 -1.27925e-026)
(1.09675 0.00498971 0)
(1.09587 0.000960496 7.61012e-026)
(1.09545 0.00153812 0)
(1.09485 0.00203678 0)
(1.09413 0.0024486 0)
(1.0933 0.00277744 -6.64993e-027)
(1.0924 0.0030335 0)
(1.09145 0.00322917 1.50431e-026)
(1.09046 0.00337657 1.30399e-026)
(1.08945 0.00348637 0)
(1.08842 0.00356736 1.04068e-026)
(1.08738 0.00362656 0)
(1.08633 0.00366942 -5.43189e-027)
(1.08528 0.0037001 -5.87982e-027)
(1.08422 0.00372177 0)
(1.08316 0.00373677 -6.44902e-027)
(1.08211 0.00374688 -6.62489e-027)
(1.08105 0.00375339 0)
(1.07999 0.00375719 -6.84547e-027)
(1.07892 0.00375891 -6.91034e-027)
(1.07786 0.00375924 0)
(1.0768 0.00375844 -6.98834e-027)
(1.07575 0.00375697 -7.01086e-027)
(1.07469 0.00375483 0)
(1.07364 0.00375239 -7.03372e-027)
(1.0726 0.00374951 -7.03728e-027)
(1.07155 0.00374652 0)
(1.07051 0.00374323 -7.03705e-027)
(1.06947 0.00373993 7.03474e-027)
(1.06843 0.00373643 -7.02965e-027)
(1.06739 0.00373299 -7.02526e-027)
(1.06636 0.00372939 0)
(1.06532 0.0037259 -7.01357e-027)
(1.06429 0.00372228 -7.0066e-027)
(1.06326 0.00371877 7.00109e-027)
(1.06223 0.00371515 -6.99398e-027)
(1.06121 0.00371165 -6.9884e-027)
(1.06018 0.00370804 0)
(1.05916 0.00370455 -6.97562e-027)
(1.05814 0.00370095 -6.96841e-027)
(1.05713 0.00369747 6.96273e-027)
(1.05611 0.00369388 0)
(1.0551 0.00369041 0)
(1.05409 0.00368682 0)
(1.05308 0.00368336 0)
(1.05207 0.00367979 0)
(1.05107 0.00367633 6.92365e-027)
(1.05006 0.00367278 6.98098e-027)
(1.04906 0.00366934 0)
(1.04806 0.00366579 0)
(1.04706 0.00366237 0)
(1.04607 0.00365885 0)
(1.04507 0.00365544 0)
(1.04408 0.00365193 0)
(1.04309 0.00364854 6.93284e-027)
(1.04211 0.00364505 0)
(1.04112 0.00364167 6.91924e-027)
(1.04014 0.0036382 0)
(1.03915 0.00363484 0)
(1.03817 0.00363139 0)
(1.0372 0.00362804 0)
(1.03622 0.0036246 0)
(1.03525 0.00362127 0)
(1.03427 0.00361785 6.87212e-027)
(1.0333 0.00361452 0)
(1.03233 0.00361112 6.85854e-027)
(1.03137 0.0036078 0)
(1.0304 0.0036044 0)
(1.02944 0.00360109 0)
(1.02848 0.00359769 0)
(1.02752 0.00359436 0)
(1.02656 0.00359095 0)
(1.02561 0.0035876 6.81361e-027)
(1.02465 0.00358415 0)
(1.0237 0.00358073 6.80361e-027)
(1.02275 0.0035772 0)
(1.0218 0.00357366 0)
(1.02086 0.00356997 0)
(1.01991 0.0035662 0)
(1.01897 0.00356221 0)
(1.01803 0.00355804 0)
(1.01709 0.0035535 6.81401e-027)
(1.01615 0.00354861 0)
(1.01522 0.00354311 0)
(1.01429 0.00353694 0)
(1.01336 0.00352977 0)
(1.01243 0.00352139 0)
(1.0115 0.00351135 0)
(1.01058 0.00349923 7.18783e-027)
(1.00967 0.0034844 0)
(1.00875 0.00346623 7.52763e-027)
(1.00784 0.00344389 0)
(1.00694 0.00341662 0)
(1.00605 0.00338374 0)
(1.00517 0.00334504 0)
(1.0043 0.00330113 0)
(1.00345 0.00325419 0)
(1.00262 0.0032086 1.06125e-026)
(1.0018 0.00317128 0)
(1.0007 0.00548656 -1.96372e-026)
(1.0975 0.00644696 0)
(1.09657 0.00132494 4.05164e-026)
(1.09607 0.00210609 0)
(1.09538 0.00276191 0)
(1.09455 0.00328741 0)
(1.09363 0.00369521 0)
(1.09265 0.00400492 -3.86012e-026)
(1.09164 0.00423668 -3.06137e-026)
(1.0906 0.00440829 -2.82603e-026)
(1.08955 0.00453431 -2.41784e-026)
(1.08849 0.00462618 1.80043e-026)
(1.08743 0.00469264 -1.97071e-026)
(1.08637 0.00474029 -1.83049e-026)
(1.0853 0.00477407 -1.72699e-026)
(1.08424 0.00479763 0)
(1.08317 0.00481369 0)
(1.08211 0.00482424 -1.55195e-026)
(1.08105 0.00483075 0)
(1.07998 0.00483428 -1.49723e-026)
(1.07892 0.00483556 0)
(1.07786 0.00483526 0)
(1.0768 0.00483374 -1.45649e-026)
(1.07574 0.00483142 -1.44863e-026)
(1.07469 0.00482844 0)
(1.07364 0.00482503 0)
(1.07259 0.00482123 -1.43387e-026)
(1.07154 0.00481721 -1.43069e-026)
(1.0705 0.00481295 -1.42816e-026)
(1.06946 0.00480859 0)
(1.06842 0.0048041 0)
(1.06738 0.00479958 -1.42228e-026)
(1.06635 0.00479499 -1.42072e-026)
(1.06531 0.00479043 -1.41913e-026)
(1.06428 0.00478582 -1.41768e-026)
(1.06325 0.00478125 0)
(1.06222 0.00477664 -1.41474e-026)
(1.0612 0.00477209 -1.41324e-026)
(1.06018 0.00476749 -1.41184e-026)
(1.05915 0.00476295 -1.41036e-026)
(1.05814 0.00475837 0)
(1.05712 0.00475384 0)
(1.0561 0.00474927 -1.40617e-026)
(1.05509 0.00474475 -1.40473e-026)
(1.05408 0.0047402 -1.40339e-026)
(1.05307 0.00473569 0)
(1.05206 0.00473116 -1.40064e-026)
(1.05106 0.00472666 0)
(1.05005 0.00472215 -2.08867e-026)
(1.04905 0.00471767 0)
(1.04805 0.00471318 -1.39518e-026)
(1.04706 0.00470872 -1.39376e-026)
(1.04606 0.00470425 -1.39244e-026)
(1.04507 0.00469981 -1.39102e-026)
(1.04407 0.00469536 0)
(1.04309 0.00469095 -2.07463e-026)
(1.0421 0.00468652 -1.38692e-026)
(1.04111 0.00468213 -6.8514e-027)
(1.04013 0.00467772 -1.38415e-026)
(1.03915 0.00467335 0)
(1.03817 0.00466896 -1.38136e-026)
(1.03719 0.00466461 -1.37992e-026)
(1.03621 0.00466024 -1.37857e-026)
(1.03524 0.00465591 -1.37713e-026)
(1.03426 0.00465156 -6.80936e-027)
(1.03329 0.00464725 -1.37435e-026)
(1.03233 0.00464292 -2.05276e-026)
(1.03136 0.00463862 -1.37158e-026)
(1.03039 0.0046343 -1.37026e-026)
(1.02943 0.00463 1.36888e-026)
(1.02847 0.00462568 -1.36759e-026)
(1.02751 0.00462138 -1.36628e-026)
(1.02655 0.00461705 -1.36508e-026)
(1.0256 0.00461272 -2.0393e-026)
(1.02464 0.00460834 0)
(1.02369 0.00460395 -2.03577e-026)
(1.02274 0.00459948 -1.36114e-026)
(1.02179 0.00459496 -1.36057e-026)
(1.02085 0.00459031 -1.36035e-026)
(1.0199 0.00458554 0)
(1.01896 0.00458055 -1.36118e-026)
(1.01802 0.00457533 -1.36256e-026)
(1.01708 0.00456974 -6.63619e-027)
(1.01614 0.0045637 0)
(1.01521 0.00455703 -1.37378e-026)
(1.01427 0.00454955 -1.38123e-026)
(1.01334 0.00454096 -1.39164e-026)
(1.01241 0.00453094 -1.40587e-026)
(1.01149 0.004519 0)
(1.01056 0.00450456 -2.06305e-026)
(1.00964 0.00448685 -1.48587e-026)
(1.00872 0.00446492 -2.10091e-026)
(1.00781 0.00443759 -1.59202e-026)
(1.0069 0.00440352 0)
(1.006 0.00436129 0)
(1.00511 0.00430972 -1.89476e-026)
(1.00424 0.00424851 -2.04521e-026)
(1.00338 0.00417937 -2.21693e-026)
(1.00256 0.00410776 -1.29091e-027)
(1.00176 0.00404476 -2.55176e-026)
(1.00068 0.00701026 1.33161e-026)
(1.09852 0.00793541 0)
(1.09752 0.00178295 1.2711e-025)
(1.09688 0.00280171 0)
(1.09603 0.00361948 0)
(1.09506 0.00424574 0)
(1.09401 0.00471265 -4.9006e-026)
(1.09294 0.00505563 -1.08274e-026)
(1.09185 0.00530547 -4.06999e-027)
(1.09075 0.00548652 8.66984e-028)
(1.08966 0.00561717 4.46975e-027)
(1.08857 0.00571102 -7.09808e-027)
(1.08749 0.00577803 9.01551e-027)
(1.0864 0.00582547 2.87564e-026)
(1.08533 0.00585861 2.87279e-026)
(1.08425 0.00588133 0)
(1.08318 0.00589641 1.59525e-026)
(1.08211 0.00590592 2.86429e-026)
(1.08105 0.00591134 0)
(1.07998 0.00591375 2.85864e-026)
(1.07892 0.00591392 1.48117e-026)
(1.07785 0.00591248 0)
(1.07679 0.00590986 2.8502e-026)
(1.07573 0.00590645 2.8474e-026)
(1.07468 0.00590244 0)
(1.07363 0.00589797 1.43937e-026)
(1.07258 0.00589316 2.83905e-026)
(1.07153 0.00588806 1.40393e-026)
(1.07049 0.00588278 2.83352e-026)
(1.06945 0.00587734 -1.42761e-026)
(1.06841 0.00587182 1.42571e-026)
(1.06737 0.00586623 2.82527e-026)
(1.06634 0.00586063 1.40009e-026)
(1.0653 0.00585499 2.81979e-026)
(1.06427 0.00584937 2.81706e-026)
(1.06324 0.00584374 -1.418e-026)
(1.06221 0.00583813 2.81161e-026)
(1.06119 0.00583252 2.8089e-026)
(1.06017 0.00582693 1.39256e-026)
(1.05914 0.00582134 2.80349e-026)
(1.05812 0.00581577 1.41076e-026)
(1.05711 0.00581019 -1.40937e-026)
(1.05609 0.00580464 1.38747e-026)
(1.05508 0.00579908 1.38617e-026)
(1.05407 0.00579355 1.38491e-026)
(1.05306 0.00578801 0)
(1.05205 0.0057825 1.38234e-026)
(1.05105 0.00577698 -1.40102e-026)
(1.05004 0.00577149 1.37978e-026)
(1.04904 0.00576599 0)
(1.04804 0.00576053 1.37724e-026)
(1.04704 0.00575506 1.37596e-026)
(1.04605 0.00574962 1.37474e-026)
(1.04506 0.00574417 1.37348e-026)
(1.04406 0.00573876 0)
(1.04307 0.00573334 1.37103e-026)
(1.04209 0.00572795 1.36984e-026)
(1.0411 0.00572256 0)
(1.04012 0.0057172 1.36746e-026)
(1.03914 0.00571184 0)
(1.03816 0.00570651 1.3651e-026)
(1.03718 0.00570117 1.36392e-026)
(1.0362 0.00569586 1.36278e-026)
(1.03523 0.00569054 1.36161e-026)
(1.03425 0.00568526 0)
(1.03328 0.00567997 1.35933e-026)
(1.03232 0.0056747 1.3582e-026)
(1.03135 0.00566943 1.35704e-026)
(1.03038 0.00566417 1.35591e-026)
(1.02942 0.00565891 -1.35472e-026)
(1.02846 0.00565366 1.35356e-026)
(1.0275 0.0056484 1.35232e-026)
(1.02654 0.00564314 1.35108e-026)
(1.02559 0.00563786 1.34973e-026)
(1.02463 0.00563256 0)
(1.02368 0.00562722 1.34679e-026)
(1.02273 0.00562183 1.3451e-026)
(1.02178 0.00561636 1.34317e-026)
(1.02084 0.0056108 1.34097e-026)
(1.01989 0.00560508 0)
(1.01895 0.00559918 1.33521e-026)
(1.01801 0.00559301 1.33134e-026)
(1.01707 0.0055865 0)
(1.01613 0.00557951 0)
(1.01519 0.0055719 1.31269e-026)
(1.01426 0.00556343 1.30265e-026)
(1.01333 0.00555384 1.2896e-026)
(1.0124 0.00554273 1.2725e-026)
(1.01147 0.00552959 0)
(1.01054 0.00551374 1.22036e-026)
(1.00961 0.00549427 1.18109e-026)
(1.00869 0.00546997 1.12899e-026)
(1.00777 0.00543925 1.05987e-026)
(1.00685 0.00540005 0)
(1.00594 0.00534985 0)
(1.00504 0.00528576 6.89763e-027)
(1.00415 0.00520516 4.88144e-027)
(1.00329 0.00510718 2.40213e-027)
(1.00246 0.00499616 0)
(1.00168 0.00488743 -3.20263e-027)
(1.00065 0.00848415 9.21368e-026)
(1.09989 0.00946705 0)
(1.09876 0.00239993 -2.90826e-026)
(1.0979 0.00370155 0)
(1.09681 0.00467121 7.9579e-026)
(1.09563 0.00536552 6.09826e-026)
(1.09443 0.0058557 2.89685e-026)
(1.09323 0.00620082 3.84285e-026)
(1.09206 0.00644414 3.17702e-026)
(1.0909 0.00661602 2.70064e-026)
(1.08977 0.00673753 2.35795e-026)
(1.08864 0.00682328 2.11021e-026)
(1.08754 0.00688348 1.93032e-026)
(1.08644 0.00692533 7.22684e-027)
(1.08535 0.00695393 5.33754e-027)
(1.08426 0.00697294 0)
(1.08319 0.00698497 2.95111e-027)
(1.08211 0.0069919 2.215e-027)
(1.08104 0.00699508 0)
(1.07998 0.00699551 1.28799e-027)
(1.07891 0.00699389 1.00627e-027)
(1.07784 0.00699082 0)
(1.07678 0.00698671 6.54283e-028)
(1.07572 0.00698194 -1.39655e-026)
(1.07467 0.00697676 0)
(1.07361 0.00697112 3.90417e-028)
(1.07257 0.00696523 3.41556e-028)
(1.07152 0.00695902 1.43364e-026)
(1.07048 0.00695268 2.86673e-028)
(1.06944 0.00694614 1.40163e-026)
(1.0684 0.00693959 2.63798e-028)
(1.06736 0.00693291 2.60499e-028)
(1.06632 0.00692627 1.42401e-026)
(1.06529 0.00691956 2.55344e-028)
(1.06426 0.00691292 2.51864e-028)
(1.06323 0.00690622 1.39452e-026)
(1.0622 0.0068996 2.49077e-028)
(1.06118 0.00689293 2.4957e-028)
(1.06015 0.00688634 1.41538e-026)
(1.05913 0.0068797 2.46526e-028)
(1.05811 0.00687314 2.43067e-028)
(1.0571 0.00686651 1.38684e-026)
(1.05608 0.00685998 1.40969e-026)
(1.05507 0.00685338 1.40839e-026)
(1.05406 0.00684687 1.40689e-026)
(1.05305 0.00684029 1.40559e-026)
(1.05204 0.0068338 0)
(1.05103 0.00682726 1.3792e-026)
(1.05003 0.0068208 1.40132e-026)
(1.04903 0.00681428 1.40002e-026)
(1.04803 0.00680785 1.39853e-026)
(1.04703 0.00680136 1.39722e-026)
(1.04604 0.00679496 1.39572e-026)
(1.04504 0.0067885 1.3944e-026)
(1.04405 0.00678213 1.39289e-026)
(1.04306 0.00677571 1.39156e-026)
(1.04207 0.00676937 1.39004e-026)
(1.04109 0.00676298 0)
(1.04011 0.00675667 1.38716e-026)
(1.03912 0.00675031 1.3858e-026)
(1.03814 0.00674403 1.38426e-026)
(1.03717 0.0067377 1.38288e-026)
(1.03619 0.00673145 1.38134e-026)
(1.03521 0.00672516 1.37996e-026)
(1.03424 0.00671893 1.37841e-026)
(1.03327 0.00671267 1.37702e-026)
(1.0323 0.00670647 1.37548e-026)
(1.03134 0.00670022 1.3741e-026)
(1.03037 0.00669404 0)
(1.02941 0.00668782 0)
(1.02845 0.00668165 0)
(1.02749 0.00667543 1.36842e-026)
(1.02653 0.00666926 0)
(1.02558 0.00666303 1.3658e-026)
(1.02462 0.00665683 0)
(1.02367 0.00665055 1.36352e-026)
(1.02272 0.00664427 0)
(1.02177 0.00663789 1.36186e-026)
(1.02082 0.00663145 0)
(1.01988 0.00662485 1.36132e-026)
(1.01894 0.00661812 0)
(1.01799 0.00661111 1.36276e-026)
(1.01705 0.00660382 0)
(1.01612 0.00659607 1.36777e-026)
(1.01518 0.00658777 1.37239e-026)
(1.01424 0.00657865 1.37918e-026)
(1.01331 0.00656851 1.38872e-026)
(1.01238 0.00655691 1.40215e-026)
(1.01144 0.00654339 1.42065e-026)
(1.01051 0.00652721 1.44623e-026)
(1.00958 0.00650743 1.48134e-026)
(1.00865 0.00648264 0)
(1.00772 0.00645098 1.59629e-026)
(1.00679 0.00640967 1.6884e-026)
(1.00586 0.00635492 0)
(1.00494 0.00628141 0)
(1.00403 0.00618233 2.23897e-026)
(1.00314 0.00605016 0)
(1.00231 0.00588103 3.00452e-026)
(1.00155 0.00568727 0)
(1.0006 0.00986391 -7.56944e-026)
(1.10173 0.0110258 0)
(1.10041 0.00331295 2.91257e-026)
(1.09914 0.00493767 0)
(1.09769 0.00600118 4.45373e-026)
(1.09623 0.00669139 2.59984e-026)
(1.09484 0.00714525 1.37271e-026)
(1.09351 0.00744887 5.44506e-027)
(1.09225 0.00765506 2.84174e-026)
(1.09103 0.00779656 2.0444e-026)
(1.08985 0.00789419 -7.01969e-027)
(1.0887 0.00796152 1.07866e-026)
(1.08757 0.00800764 -1.04451e-026)
(1.08646 0.00803873 -1.14745e-026)
(1.08536 0.0080591 -1.22174e-026)
(1.08427 0.00807174 0)
(1.08319 0.00807878 -1.31412e-026)
(1.08211 0.00808172 -1.34185e-026)
(1.08104 0.00808161 0)
(1.07997 0.00807924 -1.37502e-026)
(1.0789 0.00807521 -1.38414e-026)
(1.07783 0.00807003 0)
(1.07677 0.00806411 -1.39423e-026)
(1.07571 0.00805777 0)
(1.07465 0.00805122 0)
(1.0736 0.00804438 -1.40068e-026)
(1.07255 0.00803732 -1.40142e-026)
(1.07151 0.00803001 -1.40147e-026)
(1.07046 0.00802256 -1.40109e-026)
(1.06942 0.00801497 0)
(1.06838 0.00800732 -1.39929e-026)
(1.06734 0.0079996 -1.39808e-026)
(1.06631 0.00799188 -1.39683e-026)
(1.06528 0.00798414 -1.39548e-026)
(1.06424 0.00797642 -1.39417e-026)
(1.06321 0.0079687 0)
(1.06219 0.00796102 -1.39151e-026)
(1.06116 0.00795334 -1.39018e-026)
(1.06014 0.00794569 -1.3889e-026)
(1.05912 0.00793805 -1.38759e-026)
(1.0581 0.00793043 -1.38633e-026)
(1.05708 0.00792282 0)
(1.05607 0.00791524 -1.38377e-026)
(1.05505 0.00790766 -1.38248e-026)
(1.05404 0.00790011 -1.38123e-026)
(1.05303 0.00789256 -1.37995e-026)
(1.05202 0.00788504 0)
(1.05102 0.00787753 0)
(1.05002 0.00787004 2.68765e-028)
(1.04901 0.00786256 -1.37496e-026)
(1.04802 0.0078551 -1.37374e-026)
(1.04702 0.00784766 -1.37251e-026)
(1.04602 0.00784024 -1.37132e-026)
(1.04503 0.00783283 -1.37012e-026)
(1.04404 0.00782545 -1.36895e-026)
(1.04305 0.00781808 2.53072e-028)
(1.04206 0.00781073 -1.36662e-026)
(1.04107 0.00780339 1.39015e-026)
(1.04009 0.00779608 -1.36435e-026)
(1.03911 0.00778879 -1.36323e-026)
(1.03813 0.00778151 -1.36213e-026)
(1.03715 0.00777425 -1.36103e-026)
(1.03617 0.00776701 -1.35995e-026)
(1.0352 0.00775978 -1.35887e-026)
(1.03423 0.00775258 2.18769e-028)
(1.03326 0.00774538 -1.35675e-026)
(1.03229 0.00773821 2.09594e-028)
(1.03132 0.00773104 -1.35466e-026)
(1.03036 0.00772389 0)
(1.02939 0.00771675 0)
(1.02843 0.00770962 0)
(1.02747 0.0077025 -1.35041e-026)
(1.02652 0.00769538 0)
(1.02556 0.00768826 1.82518e-028)
(1.02461 0.00768112 0)
(1.02366 0.00767397 1.8213e-028)
(1.0227 0.00766679 0)
(1.02176 0.00765956 -1.34268e-026)
(1.02081 0.00765226 0)
(1.01986 0.00764487 -1.33885e-026)
(1.01892 0.00763734 0)
(1.01798 0.00762963 -1.33344e-026)
(1.01704 0.00762166 1.36223e-026)
(1.0161 0.00761335 -1.32518e-026)
(1.01516 0.00760458 -1.31932e-026)
(1.01423 0.00759517 -1.31177e-026)
(1.01329 0.00758489 -1.3019e-026)
(1.01236 0.00757343 -1.2889e-026)
(1.01142 0.00756035 -1.27157e-026)
(1.01049 0.00754502 1.78042e-027)
(1.00955 0.00752653 -1.21671e-026)
(1.00861 0.00750358 1.49636e-026)
(1.00767 0.0074742 -1.11298e-026)
(1.00673 0.00743538 -1.02768e-026)
(1.00578 0.00738237 0)
(1.00483 0.00730762 0)
(1.00388 0.0071989 -4.5454e-027)
(1.00294 0.00703692 0)
(1.00205 0.00679421 3.81773e-026)
(1.00128 0.00644578 0)
(1.00047 0.0110436 -1.87404e-025)
(1.10423 0.0123818 0)
(1.10265 0.00489153 1.04015e-025)
(1.10057 0.00673965 0)
(1.09855 0.00770642 0)
(1.09676 0.00825455 -4.2781e-026)
(1.09517 0.00858556 0)
(1.09373 0.00879474 0)
(1.09239 0.00893096 -5.0779e-027)
(1.09113 0.00902121 -7.73444e-027)
(1.08991 0.00908135 0)
(1.08874 0.00912116 -1.08849e-026)
(1.0876 0.00914699 0)
(1.08647 0.00916302 -1.62843e-026)
(1.08536 0.00917212 0)
(1.08427 0.00917625 0)
(1.08318 0.00917675 0)
(1.0821 0.00917456 0)
(1.08102 0.00917028 0)
(1.07995 0.0091644 0)
(1.07888 0.00915736 0)
(1.07782 0.00914972 0)
(1.07675 0.00914185 0)
(1.07569 0.00913384 0)
(1.07464 0.00912582 0)
(1.07358 0.0091177 0)
(1.07254 0.00910942 -1.4383e-026)
(1.07149 0.009101 0)
(1.07045 0.00909243 0)
(1.0694 0.00908377 -1.4316e-026)
(1.06836 0.00907502 0)
(1.06733 0.00906626 0)
(1.06629 0.00905746 0)
(1.06526 0.00904868 0)
(1.06423 0.00903989 -1.42442e-026)
(1.0632 0.00903114 -1.42305e-026)
(1.06217 0.00902239 0)
(1.06114 0.00901369 0)
(1.06012 0.00900499 0)
(1.0591 0.00899634 0)
(1.05808 0.00898768 0)
(1.05706 0.00897908 -1.41474e-026)
(1.05605 0.00897046 -1.41336e-026)
(1.05504 0.00896189 0)
(1.05402 0.00895331 0)
(1.05301 0.00894478 0)
(1.05201 0.00893624 0)
(1.051 0.00892775 -1.40621e-026)
(1.05 0.00891924 -1.37439e-026)
(1.049 0.00891079 0)
(1.048 0.00890232 -1.40195e-026)
(1.047 0.00889391 0)
(1.04601 0.00888548 0)
(1.04501 0.00887712 0)
(1.04402 0.00886873 0)
(1.04303 0.00886041 -2.76078e-026)
(1.04204 0.00885206 0)
(1.04106 0.00884378 -2.75556e-026)
(1.04007 0.00883547 0)
(1.03909 0.00882723 0)
(1.03811 0.00881897 0)
(1.03713 0.00881077 0)
(1.03616 0.00880254 0)
(1.03518 0.00879438 -1.38238e-026)
(1.03421 0.0087862 -1.35655e-026)
(1.03324 0.00877808 0)
(1.03227 0.00876993 -1.35455e-026)
(1.03131 0.00876185 0)
(1.03034 0.00875374 0)
(1.02938 0.00874568 -1.37298e-026)
(1.02842 0.0087376 0)
(1.02746 0.00872958 -1.36987e-026)
(1.0265 0.00872152 0)
(1.02554 0.00871351 -1.34766e-026)
(1.02459 0.00870545 0)
(1.02364 0.00869744 -1.3455e-026)
(1.02269 0.00868937 0)
(1.02174 0.00868132 0)
(1.02079 0.0086732 0)
(1.01985 0.00866506 -1.35937e-026)
(1.0189 0.0086568 0)
(1.01796 0.00864846 0)
(1.01702 0.00863993 -1.33338e-026)
(1.01608 0.00863121 0)
(1.01514 0.00862217 0)
(1.01421 0.00861274 0)
(1.01327 0.00860271 0)
(1.01233 0.00859193 -1.37395e-026)
(1.0114 0.00858003 0)
(1.01046 0.00856662 -1.27828e-026)
(1.00952 0.00855101 0)
(1.00858 0.00853227 -1.22719e-026)
(1.00763 0.0085088 -1.48193e-026)
(1.00668 0.00847815 0)
(1.00571 0.00843599 -1.62886e-026)
(1.00472 0.00837464 0)
(1.00372 0.00827935 0)
(1.00268 0.00812024 0)
(1.00164 0.00783271 4.77551e-027)
(1.00071 0.00726894 0)
(1.00015 0.0117259 -2.64735e-026)
(1.10767 0.0120263 0)
(1.10606 0.00849812 0)
(1.10191 0.00942166 0)
(1.09917 0.0098294 0)
(1.09708 0.0100347 4.26095e-027)
(1.09535 0.0101482 0)
(1.09383 0.0102145 -3.83193e-026)
(1.09245 0.0102541 -3.54917e-026)
(1.09116 0.0102774 -3.35714e-026)
(1.08993 0.0102904 -3.2234e-026)
(1.08875 0.0102965 3.12849e-026)
(1.0876 0.0102979 -3.06011e-026)
(1.08647 0.010296 -1.63957e-026)
(1.08535 0.0102919 -2.97332e-026)
(1.08425 0.0102861 0)
(1.08317 0.0102791 0)
(1.08208 0.0102712 -2.90977e-026)
(1.08101 0.0102625 0)
(1.07993 0.0102532 -2.89084e-026)
(1.07886 0.0102435 0)
(1.0778 0.0102337 0)
(1.07673 0.010224 -2.87622e-026)
(1.07567 0.0102143 -2.87159e-026)
(1.07462 0.0102046 0)
(1.07356 0.0101949 0)
(1.07251 0.0101853 -1.44816e-026)
(1.07147 0.0101755 -2.85415e-026)
(1.07042 0.0101657 -2.85063e-026)
(1.06938 0.0101559 1.40677e-026)
(1.06834 0.0101461 0)
(1.06731 0.0101363 -2.84168e-026)
(1.06627 0.0101264 -2.83892e-026)
(1.06524 0.0101166 -2.83627e-026)
(1.06421 0.0101068 -1.43356e-026)
(1.06318 0.010097 1.39861e-026)
(1.06215 0.0100872 -2.82821e-026)
(1.06112 0.0100775 -2.82553e-026)
(1.0601 0.0100678 -2.82279e-026)
(1.05908 0.0100581 -2.82007e-026)
(1.05806 0.0100484 0)
(1.05704 0.0100387 1.39056e-026)
(1.05603 0.0100291 -1.42254e-026)
(1.05501 0.0100195 -2.80905e-026)
(1.054 0.0100099 -2.80627e-026)
(1.05299 0.0100003 0)
(1.05199 0.0099908 -2.80074e-026)
(1.05098 0.00998127 1.38281e-026)
(1.04998 0.00997176 -2.79521e-026)
(1.04898 0.00996227 0)
(1.04798 0.0099528 -1.41064e-026)
(1.04698 0.00994335 -2.78688e-026)
(1.04599 0.00993393 -2.78409e-026)
(1.04499 0.00992452 -2.7813e-026)
(1.044 0.00991513 0)
(1.04301 0.00990577 -1.40283e-026)
(1.04202 0.00989643 -2.77287e-026)
(1.04104 0.0098871 1.37046e-026)
(1.04005 0.0098778 -2.76722e-026)
(1.03907 0.00986852 0)
(1.03809 0.00985925 -2.76153e-026)
(1.03711 0.00985002 -2.75867e-026)
(1.03614 0.00984079 -2.75582e-026)
(1.03516 0.00983159 -1.38949e-026)
(1.03419 0.00982241 0)
(1.03322 0.00981325 -2.7472e-026)
(1.03225 0.00980411 -2.74433e-026)
(1.03129 0.00979499 -2.74143e-026)
(1.03032 0.00978588 -2.73857e-026)
(1.02936 0.0097768 4.0924e-026)
(1.0284 0.00976773 -2.73281e-026)
(1.02744 0.00975868 -1.3754e-026)
(1.02648 0.00974965 -2.72708e-026)
(1.02552 0.00974063 -2.72423e-026)
(1.02457 0.00973162 0)
(1.02362 0.00972263 -2.71864e-026)
(1.02267 0.00971363 -2.71594e-026)
(1.02172 0.00970465 -2.71327e-026)
(1.02077 0.00969566 -2.71073e-026)
(1.01983 0.00968667 1.3452e-026)
(1.01888 0.00967766 -2.70606e-026)
(1.01794 0.00966862 -2.70402e-026)
(1.017 0.00965953 0)
(1.01606 0.00965038 0)
(1.01512 0.00964113 -2.70035e-026)
(1.01419 0.00963174 -2.7004e-026)
(1.01325 0.00962216 -2.70156e-026)
(1.01231 0.0096123 -1.37676e-026)
(1.01137 0.00960205 0)
(1.01044 0.00959125 -2.71625e-026)
(1.00949 0.00957965 -2.72784e-026)
(1.00855 0.00956687 -2.7454e-026)
(1.0076 0.0095523 -1.49115e-026)
(1.00663 0.00953494 0)
(1.00565 0.00951293 1.22303e-026)
(1.00464 0.00948276 -2.98382e-026)
(1.00358 0.00943704 -3.16973e-026)
(1.00243 0.00935878 -3.52304e-026)
(1.00109 0.00920465 0)
(0.999319 0.00885264 -6.03772e-026)
(0.999142 0.0109358 1.01433e-025)
)
;

boundaryField
{
    walls
    {
        type            fixedValue;