# vtk DataFile Version 2.0
track0
ASCII
DATASET POLYDATA
POINTS 11965 float
-0.0205 0.001 1e-005
-0.0203844 0.00100536 1.50522e-005
-0.0202688 0.00101048 1.97158e-005
-0.0201532 0.00101537 2.4044e-005
-0.0200376 0.00102004 2.8032e-005
-0.0198609 0.00102682 3.35976e-005
-0.0196921 0.00103278 3.81313e-005
-0.0195233 0.00103813 4.16362e-005
-0.0193545 0.00104289 4.41209e-005
-0.0191857 0.00104704 4.55942e-005
-0.0190172 0.00105058 4.60642e-005
-0.0187132 0.00105622 4.60642e-005
-0.0184093 0.00106133 4.60642e-005
-0.0181054 0.00106599 4.60642e-005
-0.0178014 0.00107022 4.60642e-005
-0.0174976 0.001074 4.60642e-005
-0.0172058 0.00107734 4.60642e-005
-0.016914 0.00108061 4.60642e-005
-0.0166222 0.00108375 4.60642e-005
-0.0163305 0.00108679 4.60642e-005
-0.0160387 0.0010897 4.60642e-005
-0.0157586 0.00109232 4.60642e-005
-0.0154784 0.00109486 4.60642e-005
-0.0151983 0.00109728 4.60642e-005
-0.0149182 0.00109958 4.60642e-005
-0.0146381 0.00110177 4.60642e-005
-0.0143692 0.0011037 4.60642e-005
-0.0141002 0.00110554 4.60642e-005
-0.0138313 0.0011073 4.60642e-005
-0.0135624 0.00110898 4.60642e-005
-0.0132934 0.00111058 4.60642e-005
-0.0130353 0.00111201 4.60642e-005
-0.0127771 0.0011134 4.60642e-005
-0.0125189 0.00111475 4.60642e-005
-0.0122607 0.00111606 4.60642e-005
-0.0120025 0.00111733 4.60642e-005
-0.0117547 0.0011185 4.60642e-005
-0.0115068 0.00111965 4.60642e-005
-0.0112589 0.00112079 4.60642e-005
-0.0110111 0.00112191 4.60642e-005
-0.0107632 0.00112301 4.60642e-005
-0.0105252 0.00112403 4.60642e-005
-0.0102873 0.00112504 4.60642e-005
-0.0100493 0.00112605 4.60642e-005
-0.00981133 0.00112703 4.60642e-005
-0.00957337 0.00112801 4.60642e-005
-0.00934491 0.00112892 4.60642e-005
-0.00911645 0.00112983 4.60642e-005
-0.00888799 0.00113072 4.60642e-005
-0.00865954 0.00113161 4.60642e-005
-0.00843108 0.00113248 4.60642e-005
-0.00821175 0.00113331 4.60642e-005
-0.00799242 0.00113413 4.60642e-005
-0.00777309 0.00113494 4.60642e-005
-0.00755376 0.00113575 4.60642e-005
-0.00733443 0.00113655 4.60642e-005
-0.00712387 0.00113732 4.60642e-005
-0.0069133 0.00113807 4.60642e-005
-0.00670273 0.00113883 4.60642e-005
-0.00649216 0.00113958 4.60642e-005
-0.0062816 0.00114032 4.60642e-005
-0.00607944 0.00114104 4.60642e-005
-0.00587729 0.00114175 4.60642e-005
-0.00567514 0.00114246 4.60642e-005
-0.00547298 0.00114316 4.60642e-005
-0.00527083 0.00114387 4.60642e-005
-0.00507675 0.00114455 4.60642e-005
-0.00488267 0.00114522 4.60642e-005
-0.0046886 0.00114589 4.60642e-005
-0.00449452 0.00114656 4.60642e-005
-0.00430044 0.00114723 4.60642e-005
-0.00411412 0.00114788 4.60642e-005
-0.0039278 0.00114852 4.60642e-005
-0.00374147 0.00114916 4.60642e-005
-0.00355515 0.0011498 4.60642e-005
-0.00336883 0.00115045 4.60642e-005
-0.00318995 0.00115107 4.60642e-005
-0.00301107 0.00115169 4.60642e-005
-0.00283219 0.00115231 4.60642e-005
-0.00265331 0.00115292 4.60642e-005
-0.00247443 0.00115355 4.60642e-005
-0.0023027 0.00115415 4.60642e-005
-0.00213097 0.00115475 4.60642e-005
-0.00195924 0.00115535 4.60642e-005
-0.0017875 0.00115595 4.60642e-005
-0.00161577 0.00115656 4.60642e-005
-0.0014509 0.00115715 4.60642e-005
-0.00128603 0.00115773 4.60642e-005
-0.00112116 0.00115831 4.60642e-005
-0.000956289 0.0011589 4.60642e-005
-0.000791418 0.0011595 4.60642e-005
-0.000633135 0.00116008 4.60642e-005
-0.000474851 0.00116067 4.60642e-005
-0.000316567 0.00116125 4.60642e-005
-0.000158284 0.00116183 4.60642e-005
0 0.00116243 4.60642e-005
0.000105677 0.00116284 4.60642e-005
0.000211355 0.00116325 4.60642e-005
0.000317032 0.00116366 4.60642e-005
0.00042271 0.00116407 4.60642e-005
0.000528387 0.00116449 4.60642e-005
0.000634886 0.00116492 4.60642e-005
0.000741385 0.00116536 4.60642e-005
0.000847885 0.00116579 4.60642e-005
0.000954384 0.00116622 4.60642e-005
0.00106088 0.00116667 4.60642e-005
0.00116821 0.00116714 4.60642e-005
0.00127554 0.0011676 4.60642e-005
0.00138286 0.00116806 4.60642e-005
0.00149019 0.00116853 4.60642e-005
0.00159752 0.001169 4.60642e-005
0.00170568 0.0011695 4.60642e-005
0.00181384 0.00116999 4.60642e-005
0.001922 0.00117047 4.60642e-005
0.00203016 0.00117096 4.60642e-005
0.00213833 0.00117146 4.60642e-005
0.00224733 0.00117197 4.60642e-005
0.00235633 0.00117247 4.60642e-005
0.00246533 0.00117298 4.60642e-005
0.00257434 0.00117349 4.60642e-005
0.00268334 0.001174 4.60642e-005
0.00279319 0.00117452 4.60642e-005
0.00290304 0.00117504 4.60642e-005
0.00301289 0.00117557 4.60642e-005
0.00312274 0.0011761 4.60642e-005
0.00323259 0.00117662 4.60642e-005
0.00334329 0.00117715 4.60642e-005
0.003454 0.00117768 4.60642e-005
0.0035647 0.00117823 4.60642e-005
0.0036754 0.00117877 4.60642e-005
0.00378611 0.00117931 4.60642e-005
0.00389767 0.00117984 4.60642e-005
0.00400924 0.00118039 4.60642e-005
0.0041208 0.00118095 4.60642e-005
0.00423237 0.00118151 4.60642e-005
0.00434393 0.00118206 4.60642e-005
0.00445636 0.0011826 4.60642e-005
0.00456879 0.00118316 4.60642e-005
0.00468123 0.00118372 4.60642e-005
0.00479366 0.00118429 4.60642e-005
0.00490609 0.00118485 4.60642e-005
0.0050194 0.00118539 4.60642e-005
0.0051327 0.00118596 4.60642e-005
0.00524601 0.00118653 4.60642e-005
0.00535931 0.0011871 4.60642e-005
0.00547262 0.00118767 4.60642e-005
0.00558681 0.00118822 4.60642e-005
0.005701 0.00118879 4.60642e-005
0.00581518 0.00118936 4.60642e-005
0.00592937 0.00118994 4.60642e-005
0.00604356 0.00119051 4.60642e-005
0.00615863 0.00119106 4.60642e-005
0.00627371 0.00119164 4.60642e-005
0.00638878 0.00119221 4.60642e-005
0.00650386 0.00119279 4.60642e-005
0.00661893 0.00119336 4.60642e-005
0.0067349 0.00119392 4.60642e-005
0.00685087 0.0011945 4.60642e-005
0.00696684 0.00119507 4.60642e-005
0.00708281 0.00119564 4.60642e-005
0.00719878 0.00119622 4.60642e-005
0.00731565 0.00119678 4.60642e-005
0.00743252 0.00119735 4.60642e-005
0.00754939 0.00119792 4.60642e-005
0.00766626 0.00119849 4.60642e-005
0.00778313 0.00119906 4.60642e-005
0.00790091 0.00119962 4.60642e-005
0.00801869 0.00120019 4.60642e-005
0.00813647 0.00120075 4.60642e-005
0.00825425 0.00120132 4.60642e-005
0.00837203 0.00120188 4.60642e-005
0.00849073 0.00120244 4.60642e-005
0.00860942 0.001203 4.60642e-005
0.00872812 0.00120356 4.60642e-005
0.00884682 0.00120412 4.60642e-005
0.00896551 0.00120468 4.60642e-005
0.00908513 0.00120523 4.60642e-005
0.00920475 0.00120579 4.60642e-005
0.00932437 0.00120634 4.60642e-005
0.00944398 0.00120689 4.60642e-005
0.0095636 0.00120744 4.60642e-005
0.00968415 0.00120799 4.60642e-005
0.0098047 0.00120854 4.60642e-005
0.00992525 0.00120908 4.60642e-005
0.0100458 0.00120963 4.60642e-005
0.0101663 0.00121017 4.60642e-005
0.0102878 0.0012107 4.60642e-005
0.0104093 0.00121124 4.60642e-005
0.0105308 0.00121178 4.60642e-005
0.0106523 0.00121231 4.60642e-005
0.0107738 0.00121284 4.60642e-005
0.0108962 0.00121337 4.60642e-005
0.0110186 0.0012139 4.60642e-005
0.0111411 0.00121442 4.60642e-005
0.0112635 0.00121494 4.60642e-005
0.0113859 0.00121546 4.60642e-005
0.0115093 0.00121598 4.60642e-005
0.0116327 0.0012165 4.60642e-005
0.0117561 0.00121701 4.60642e-005
0.0118795 0.00121752 4.60642e-005
0.0120028 0.00121803 4.60642e-005
0.0121272 0.00121853 4.60642e-005
0.0122515 0.00121903 4.60642e-005
0.0123759 0.00121954 4.60642e-005
0.0125002 0.00122003 4.60642e-005
0.0126245 0.00122053 4.60642e-005
0.0127498 0.00122101 4.60642e-005
0.0128752 0.0012215 4.60642e-005
0.0130005 0.00122199 4.60642e-005
0.0131258 0.00122247 4.60642e-005
0.0132511 0.00122295 4.60642e-005
0.0133774 0.00122342 4.60642e-005
0.0135036 0.0012239 4.60642e-005
0.0136299 0.00122437 4.60642e-005
0.0137562 0.00122483 4.60642e-005
0.0138825 0.00122529 4.60642e-005
0.0140098 0.00122574 4.60642e-005
0.014137 0.0012262 4.60642e-005
0.0142643 0.00122665 4.60642e-005
0.0143915 0.00122709 4.60642e-005
0.0145188 0.00122753 4.60642e-005
0.0146471 0.00122796 4.60642e-005
0.0147753 0.0012284 4.60642e-005
0.0149036 0.00122883 4.60642e-005
0.0150318 0.00122925 4.60642e-005
0.0151601 0.00122967 4.60642e-005
0.0152893 0.00123007 4.60642e-005
0.0154186 0.00123048 4.60642e-005
0.0155478 0.00123089 4.60642e-005
0.0156771 0.00123129 4.60642e-005
0.0158063 0.00123168 4.60642e-005
0.0159366 0.00123206 4.60642e-005
0.0160668 0.00123244 4.60642e-005
0.0161971 0.00123282 4.60642e-005
0.0163274 0.00123319 4.60642e-005
0.0164576 0.00123355 4.60642e-005
0.0165889 0.0012339 4.60642e-005
0.0167201 0.00123426 4.60642e-005
0.0168514 0.0012346 4.60642e-005
0.0169827 0.00123494 4.60642e-005
0.0171139 0.00123528 4.60642e-005
0.0172462 0.0012356 4.60642e-005
0.0173785 0.00123592 4.60642e-005
0.0175108 0.00123623 4.60642e-005
0.0176431 0.00123654 4.60642e-005
0.0177754 0.00123683 4.60642e-005
0.0179087 0.00123712 4.60642e-005
0.018042 0.0012374 4.60642e-005
0.0181753 0.00123768 4.60642e-005
0.0183087 0.00123795 4.60642e-005
0.018442 0.0012382 4.60642e-005
0.0184445 0.00123821 4.60642e-005
0.0184471 0.00123821 4.60642e-005
0.0184497 0.00123822 4.60642e-005
0.0184522 0.00123822 4.60642e-005
0.0184548 0.00123823 4.60642e-005
0.0185866 0.00123847 4.60642e-005
0.0187184 0.00123871 4.60642e-005
0.0188502 0.00123894 4.60642e-005
0.018982 0.00123916 4.60642e-005
0.0191137 0.00123937 4.60642e-005
0.0192491 0.00123958 4.60642e-005
0.0193845 0.00123978 4.60642e-005
0.0195199 0.00123996 4.60642e-005
0.0196553 0.00124014 4.60642e-005
0.0197907 0.00124031 4.60642e-005
0.0199272 0.00124047 4.60642e-005
0.0200636 0.00124062 4.60642e-005
0.0202001 0.00124076 4.60642e-005
0.0203365 0.00124089 4.60642e-005
0.020473 0.00124101 4.60642e-005
0.0206105 0.00124112 4.60642e-005
0.020748 0.00124121 4.60642e-005
0.0208855 0.0012413 4.60642e-005
0.021023 0.00124138 4.60642e-005
0.0211606 0.00124144 4.60642e-005
0.0212991 0.0012415 4.60642e-005
0.0214377 0.00124154 4.60642e-005
0.0215763 0.00124157 4.60642e-005
0.0217149 0.00124159 4.60642e-005
0.0218535 0.0012416 4.60642e-005
0.0219931 0.0012416 4.60642e-005
0.0221328 0.00124159 4.60642e-005
0.0222724 0.00124156 4.60642e-005
0.0224121 0.00124152 4.60642e-005
0.0225517 0.00124147 4.60642e-005
0.0226925 0.00124142 4.60642e-005
[...]
POINT_DATA 11965
 FIELD attributes 1
U 3 11965 float
99.9242 	4.63733 	4.36822 99.7961 	4.41509 	4.02616 99.663 	4.21653 	3.73081 99.5302 	4.01639 	3.43236 99.3977 	3.81465 	3.13077 99.1958 	3.50396 	2.66517 99.0218 	3.14261 	2.05621 98.8468 	2.78318 	1.45481 98.6708 	2.42567 	0.860969 98.4937 	2.07012 	0.274719 98.298 	1.82451 	0 97.92 	1.64484 	0 97.5606 	1.49799 	0 97.2013 	1.35122 	0 96.8419 	1.20454 	0 96.5409 	1.10731 	0 96.2739 	1.07629 	0 96.0689 	1.03637 	0 95.8639 	0.996329 	0 95.6589 	0.95617 	0 95.5264 	0.892945 	0 95.3533 	0.862501 	0 95.2359 	0.822633 	0 95.1186 	0.78267 	0 95.0012 	0.742612 	0 94.942 	0.680792 	0 94.8135 	0.648925 	0 94.7197 	0.61995 	0 94.6259 	0.590935 	0 94.5338 	0.561511 	0 94.4777 	0.524324 	0 94.3607 	0.507091 	0 94.2689 	0.492602 	0 94.1793 	0.478361 	0 94.0946 	0.463427 	0 94.0406 	0.444111 	0 93.9449 	0.437403 	0 93.8661 	0.430467 	0 93.7909 	0.423479 	0 93.7218 	0.415365 	0 93.6759 	0.402987 	0 93.6066 	0.398448 	0 93.5453 	0.39353 	0 93.4867 	0.388488 	0 93.4332 	0.382408 	0 93.3935 	0.37357 	0 93.3464 	0.369305 	0 93.3 	0.36543 	0 93.2539 	0.361725 	0 93.2104 	0.357352 	0 93.1724 	0.351629 	0 93.1392 	0.347987 	0 93.103 	0.345196 	0 93.0652 	0.342884 	0 93.0279 	0.34027 	0 92.9914 	0.337171 	0 92.9683 	0.334215 	0 92.9405 	0.3323 	0 92.9096 	0.331112 	0 92.8772 	0.329917 	0 92.843 	0.328713 	0 92.8276 	0.325979 	0 92.8069 	0.324468 	0 92.7817 	0.323995 	0 92.7535 	0.323881 	0 92.722 	0.324158 	0 92.7127 	0.321354 	0 92.6978 	0.319968 	0 92.6774 	0.320022 	0 92.6526 	0.320886 	0 92.6236 	0.322494 	0 92.6187 	0.319514 	0 92.6084 	0.318092 	0 92.5916 	0.318548 	0 92.5692 	0.320318 	0 92.5425 	0.323111 	0 92.5407 	0.319823 	0 92.5338 	0.318264 	0 92.5198 	0.31917 	0 92.4994 	0.32205 	0 92.4747 	0.326237 	0 92.475 	0.322885 	0 92.4708 	0.321269 	0 92.4589 	0.32257 	0 92.4399 	0.326409 	0 92.4171 	0.331675 	0 92.4192 	0.328059 	0 92.4171 	0.326428 	0 92.4069 	0.32874 	0 92.3889 	0.334565 	0 92.3673 	0.342064 	0 92.3699 	0.339298 	0 92.3693 	0.338343 	2.73872e-020 92.3615 	0.341672 	1.1951e-019 92.3474 	0.349193 	9.2276e-020 92.3307 	0.35839 	1.72903e-020 92.336 	0.356369 	1.6617e-018 92.3378 	0.35617 	2.79083e-018 92.3306 	0.360368 	2.67536e-018 92.3163 	0.368078 	1.3779e-018 92.2988 	0.377379 	-4.55307e-019 92.3068 	0.373866 	-9.65167e-019 92.3102 	0.373455 	-1.32533e-018 92.305 	0.378789 	-1.40828e-018 92.2927 	0.388489 	-9.62415e-019 92.2763 	0.400757 	-2.0541e-019 92.2873 	0.397533 	-1.87269e-019 92.2928 	0.397145 	-1.37354e-019 92.2902 	0.400889 	-4.1111e-020 92.2807 	0.40881 	9.95753e-020 92.2661 	0.419846 	2.73416e-019 92.2814 	0.417568 	9.56961e-020 92.2894 	0.416851 	-1.3766e-019 92.2889 	0.417952 	-4.35916e-019 92.2808 	0.422097 	-8.33248e-019 92.2659 	0.429078 	-1.32287e-018 92.2853 	0.430422 	-2.36878e-018 92.2948 	0.431083 	-2.77343e-018 92.2949 	0.431102 	-2.57427e-018 92.2868 	0.431825 	-1.80608e-018 92.2693 	0.433362 	-3.79696e-019 92.2921 	0.440057 	1.25292e-018 92.302 	0.442986 	2.07694e-018 92.3021 	0.443048 	2.28515e-018 92.2936 	0.441242 	1.859e-018 92.273 	0.436751 	5.2167e-019 92.2987 	0.448653 	-1.95162e-018 92.3085 	0.453346 	-2.95196e-018 92.3083 	0.45361 	-3.04785e-018 92.2997 	0.450091 	-2.29125e-018 92.2759 	0.439785 	-5.77916e-021 92.3044 	0.45548 	2.26857e-018 92.3134 	0.460791 	2.93054e-018 92.3128 	0.461005 	2.80103e-018 92.304 	0.456546 	2.05964e-018 92.2768 	0.441494 	-6.84774e-020 92.3081 	0.459303 	-1.73679e-018 92.3156 	0.464431 	-2.46133e-018 92.3139 	0.46466 	-2.8214e-018 92.3047 	0.460267 	-2.75091e-018 92.2736 	0.442352 	-1.42088e-018 92.3076 	0.460878 	-2.76072e-018 92.313 	0.465416 	-2.91659e-018 92.3099 	0.465816 	-2.72224e-018 92.3002 	0.462279 	-2.25551e-018 92.2647 	0.443341 	-7.23208e-019 92.3023 	0.461215 	-7.62406e-019 92.3052 	0.464711 	-5.32502e-019 92.3006 	0.465091 	-2.44266e-019 92.2905 	0.462573 	2.57471e-020 92.2497 	0.443957 	1.94513e-019 92.2921 	0.459934 	2.2096e-020 92.2919 	0.462051 	0 92.2855 	0.46213 	0 92.2749 	0.460448 	0 92.2275 	0.443192 	0 92.2763 	0.456592 	0 92.2721 	0.45735 	-2.6512e-019 92.2634 	0.457037 	-5.52709e-019 92.2524 	0.455973 	-8.49645e-019 92.1963 	0.440776 	-1.32262e-018 92.2533 	0.451438 	-2.33699e-018 92.2437 	0.451078 	-2.37364e-018 92.2322 	0.450403 	-2.38221e-018 92.2208 	0.449727 	-2.39078e-018 92.1536 	0.436925 	-1.37601e-018 92.2194 	0.444866 	5.38812e-019 92.2047 	0.443819 	9.94395e-019 92.19 	0.442772 	1.44995e-018 92.1752 	0.441725 	1.90549e-018 92.0975 	0.431626 	7.18652e-019 92.1713 	0.437111 	1.89666e-018 92.1529 	0.435632 	1.90165e-018 92.1345 	0.434152 	1.90661e-018 92.1161 	0.432673 	1.91155e-018 92.026 	0.424588 	7.72826e-019 92.1088 	0.428333 	5.76345e-019 92.0863 	0.426413 	3.93822e-019 92.0639 	0.424493 	2.11304e-019 92.0414 	0.422572 	2.87911e-020 91.9372 	0.415747 	0 92.0293 	0.418547 	-3.23257e-020 92.0024 	0.416276 	-2.15249e-019 91.9754 	0.414005 	-3.98178e-019 91.9485 	0.411734 	-5.81114e-019 91.8291 	0.405481 	-7.78222e-019 91.9306 	0.408091 	-1.77376e-018 91.8988 	0.405552 	-1.87556e-018 91.8671 	0.403013 	-1.97732e-018 91.8354 	0.400473 	-2.07904e-018 91.7001 	0.394125 	-1.12991e-018 91.8102 	0.397041 	4.5188e-020 91.7735 	0.39425 	2.10276e-019 91.7367 	0.391458 	3.7529e-019 91.6999 	0.388667 	5.40227e-019 91.5487 	0.381713 	-4.59508e-019 91.6663 	0.385244 	-3.63775e-019 91.6244 	0.382187 	-2.56007e-019 91.5824 	0.379128 	-1.48243e-019 91.5404 	0.37607 	-4.04839e-020 91.374 	0.368147 	-1.0239e-019 91.4968 	0.372402 	0 91.4495 	0.369066 	0 91.4022 	0.365729 	0 91.3548 	0.362391 	0 91.1749 	0.353345 	0 91.2999 	0.358289 	4.80933e-020 91.2473 	0.354682 	1.55881e-019 91.1946 	0.351075 	2.63675e-019 91.1418 	0.347465 	3.71475e-019 90.9509 	0.337329 	3.89053e-019 91.0743 	0.342781 	-2.74472e-019 91.0163 	0.338913 	-2.57879e-019 90.9583 	0.335043 	-2.41193e-019 90.9002 	0.331172 	-2.24412e-019 90.7018 	0.320127 	3.99111e-019 90.8191 	0.325761 	3.81524e-019 90.7558 	0.321636 	2.88954e-019 90.6926 	0.317509 	1.96392e-019 90.6293 	0.31338 	1.03837e-019 90.428 	0.301747 	-1.42361e-019 90.5337 	0.307153 	-4.89134e-019 90.4654 	0.302776 	-4.84951e-019 90.3971 	0.298397 	-4.80674e-019 90.3287 	0.294015 	-4.76303e-019 90.1299 	0.282205 	-1.12102e-019 90.2182 	0.28691 	3.60508e-019 90.145 	0.282285 	2.3073e-019 90.0718 	0.277656 	1.00845e-019 89.9986 	0.273024 	-2.91472e-020 89.808 	0.261503 	-4.40182e-019 89.8727 	0.265012 	-1.45679e-019 89.795 	0.260129 	-1.54527e-019 89.7172 	0.255241 	-1.63496e-019 89.6393 	0.25035 	-1.72587e-019 89.4635 	0.239587 	-4.52358e-019 89.4983 	0.241363 	-3.8746e-019 89.4163 	0.236189 	-2.87102e-019 89.3342 	0.231011 	-1.86751e-019 89.252 	0.225829 	-8.64093e-020 89.0977 	0.21628 	-4.39478e-020 89.0961 	0.21584 	0 89.0101 	0.21037 	0 88.924 	0.204894 	0 88.8378 	0.199414 	0 88.712 	0.191531 	-2.2706e-020 88.6679 	0.188476 	0 88.5783 	0.182721 	0 88.4885 	0.17696 	0 88.3986 	0.171193 	0 88.3077 	0.165371 	0 88.3069 	0.165309 	1.77388e-021 88.3051 	0.165194 	3.67946e-021 88.3033 	0.165078 	5.58505e-021 88.3016 	0.164963 	7.49065e-021 88.2998 	0.164848 	9.39419e-021 88.2076 	0.158877 	1.04514e-019 88.1153 	0.152898 	1.99624e-019 88.0228 	0.146912 	2.94724e-019 87.9302 	0.14092 	3.89814e-019 87.8037 	0.134067 	4.97479e-019 87.7351 	0.128313 	6.61942e-019 87.6378 	0.121929 	6.90355e-019 87.5403 	0.115536 	7.18981e-019 87.4427 	0.109135 	7.47821e-019 87.2859 	0.101631 	4.96085e-019 87.2354 	0.0956967 	3.71663e-019 87.1352 	0.0890563 	2.73178e-019 87.0348 	0.0824068 	1.74683e-019 86.9343 	0.0757481 	7.61756e-020 86.758 	0.06838 	1.05915e-020 86.7185 	0.0617383 	5.98425e-020 86.6157 	0.0548797 	1.37904e-019 86.5127 	0.0480113 	2.15956e-019 86.4094 	0.041133 	2.93998e-019 86.2222 	0.0345553 	3.31313e-019 86.1872 	0.0267019 	1.23823e-019 86.082 	0.0196654 	1.18512e-019 85.9765 	0.0126185 	1.13091e-019 85.8709 	0.00556093 	1.07562e-019 85.68 	0.000396587 	3.35763e-019 85.6443 	-0.00912592 	9.90853e-019 85.5369 	-0.0162963 	1.09274e-018 85.4293 	-0.0234777 	1.19477e-018 85.3215 	-0.0306703 	1.29695e-018 85.1332 	-0.033855 	7.67037e-019 85.0926 	-0.0454508 	6.79033e-019 84.9834 	-0.0527187 	6.67259e-019 84.8739 	-0.0599981 	6.5544e-019 84.7641 	-0.0672891 	6.43575e-019 84.5834 	-0.0680116 	6.79831e-019 84.5349 	-0.0820115 	3.60734e-019 84.424 	-0.0893477 	-2.96381e-019 84.3129 	-0.0966959 	-9.53449e-019 84.2015 	-0.104056 	-1.61047e-018 84.0323 	-0.101939 	-2.32419e-018 83.9738 	-0.118597 	-3.65392e-018 83.8615 	-0.125973 	-3.68332e-018 83.749 	-0.133361 	-3.71295e-018 83.6362 	-0.140761 	-3.74283e-018 83.4812 	-0.135513 	-2.08686e-018 83.4117 	-0.154983 	-5.42365e-019 83.2983 	-0.162373 	-1.1611e-020 83.1847 	-0.169775 	5.19403e-019 83.0707 	-0.177189 	1.05068e-018 82.9316 	-0.168635 	-1.88891e-021 82.8508 	-0.190988 	-1.1712e-018 82.7366 	-0.198368 	-1.20248e-018 82.6221 	-0.20576 	-1.23396e-018 82.5073 	-0.213164 	-1.26563e-018 82.3849 	-0.201221 	-1.75718e-019 82.2931 	-0.226415 	-9.09904e-021 82.1783 	-0.233769 	3.02394e-019 82.0633 	-0.241134 	6.13841e-019 81.9484 	-0.247314 	9.25088e-019 81.8424 	-0.233231 	1.2337e-018 81.7392 	-0.259287 	9.13263e-019 81.6253 	-0.268486 	8.70247e-019 81.51 	-0.275811 	8.58162e-019 81.3981 	-0.279542 	8.84726e-019 81.3054 	-0.264628 	1.11159e-018 81.1937 	-0.291006 	8.68839e-019 81.0793 	-0.302346 	4.45989e-019 80.9639 	-0.309623 	-2.56038e-020 80.8573 	-0.310774 	-4.5593e-019 80.7752 	-0.295414 	-7.75171e-019 80.6572 	-0.321836 	8.1295e-019 80.5412 	-0.335368 	1.46234e-018 80.4262 	-0.342597 	1.6526e-018 80.3266 	-0.341138 	1.25036e-018 80.2527 	-0.325632 	-1.08613e-019 80.1306 	-0.351877 	1.23133e-018 80.0125 	-0.367576 	1.93049e-018 79.898 	-0.374739 	2.11149e-018 79.8066 	-0.370678 	1.65178e-018 79.7391 	-0.355224 	5.42612e-019 79.6143 	-0.381044 	3.84411e-019 79.4941 	-0.398803 	3.51641e-019 79.3804 	-0.405911 	4.84384e-019 79.2979 	-0.399391 	7.17146e-019 79.2353 	-0.384267 	1.01304e-018 79.1092 	-0.40958 	7.03727e-019 78.9869 	-0.429316 	4.84936e-019 78.8743 	-0.436393 	4.71196e-019 78.8009 	-0.427552 	6.85933e-019 78.7421 	-0.412886 	9.84191e-019 78.6156 	-0.437461 	6.71992e-019 78.4913 	-0.458918 	3.59427e-019 78.3801 	-0.46596 	4.57628e-020 78.3158 	-0.45507 	0 78.2599 	-0.441106 	0 78.1337 	-0.464749 	0 78.0076 	-0.487612 	-1.38387e-020 77.8979 	-0.494632 	-3.00448e-019 77.8426 	-0.482064 	-5.88179e-019 77.789 	-0.469045 	-8.76014e-019 77.6635 	-0.491663 	-5.73925e-019 77.5372 	-0.514304 	-2.71693e-019 77.4334 	-0.520669 	-5.24302e-019 77.3813 	-0.508754 	-1.09945e-018 77.3296 	-0.496828 	-1.67475e-018 77.205 	-0.518364 	-1.07016e-018 77.0796 	-0.539922 	-4.65287e-019 76.982 	-0.546028 	-4.42326e-019 76.9317 	-0.535314 	-1.01203e-018 76.8818 	-0.524591 	-1.58187e-018 76.7581 	-0.545091 	-9.82206e-019 76.6337 	-0.56561 	-3.82282e-019 76.5421 	-0.57149 	-5.79627e-020 76.4935 	-0.561985 	-2.12364e-019 76.4452 	-0.552471 	-3.6674e-019 76.3224 	-0.571989 	-1.37773e-018 76.199 	-0.591526 	-2.38878e-018 76.1132 	-0.597209 	-2.25364e-018 76.0662 	-0.588885 	-9.60959e-019 76.0195 	-0.580554 	3.31817e-019 75.8976 	-0.599173 	1.75e-019 75.7751 	-0.617808 	1.80017e-020 75.695 	-0.623326 	-9.70764e-020 75.6495 	-0.61613 	-3.71151e-019 75.6042 	-0.608929 	-6.45272e-019 75.4832 	-0.626744 	-3.55597e-019 75.3615 	-0.644574 	-6.5809e-020 75.2869 	-0.649962 	-5.73275e-020 75.2428 	-0.643819 	-1.35414e-019 75.1989 	-0.637672 	-2.13493e-019 75.0787 	-0.654787 	-1.39415e-019 74.9577 	-0.671917 	-6.53628e-020 74.8883 	-0.677215 	-3.09991e-019 74.8455 	-0.672045 	-3.95066e-019 74.8029 	-0.666872 	-4.80078e-019 74.6834 	-0.683404 	-2.65213e-018 74.5664 	-0.699276 	-4.68662e-018 74.5011 	-0.70432 	-4.50344e-018 74.4572 	-0.700922 	-2.54568e-018 74.4158 	-0.696642 	-4.02895e-019 74.2969 	-0.712706 	7.57139e-019 74.1887 	-0.726565 	1.72915e-018 74.124 	-0.731837 	1.97272e-018 74.0774 	-0.730551 	1.16314e-018 74.0369 	-0.727074 	2.2297e-021 73.9187 	-0.742773 	7.27158e-020 73.8194 	-0.754866 	9.45001e-020 73.7551 	-0.760374 	2.74378e-020 73.7053 	-0.760997 	-1.56735e-019 73.6656 	-0.758236 	-4.22025e-019 73.548 	-0.773666 	-1.3952e-019 73.4576 	-0.784196 	0 73.3938 	-0.789942 	0 73.3404 	-0.792317 	-1.10266e-019 73.3012 	-0.790191 	-3.67675e-019 73.1844 	-0.805438 	-9.30998e-020 73.1028 	-0.814565 	-1.77881e-019 73.0394 	-0.820554 	-4.47028e-019 72.9822 	-0.824563 	-7.84456e-019 72.9433 	-0.822999 	-1.3138e-018 72.8271 	-0.838139 	-2.88511e-018 72.7544 	-0.845983 	-2.85805e-018 72.6911 	-0.852213 	-2.47666e-018 72.6299 	-0.85777 	-1.92954e-018 72.5911 	-0.856699 	2.39315e-019 72.4756 	-0.871784 	2.25511e-018 72.4116 	-0.878428 	2.5028e-018 72.3484 	-0.884898 	2.71293e-018 72.285 	-0.891371 	2.92279e-018 72.244 	-0.89133 	1.33483e-018 72.1367 	-0.905182 	1.02459e-018 72.0738 	-0.911887 	7.10029e-019 72.0106 	-0.918595 	3.95527e-019 71.9471 	-0.925307 	8.10798e-020 71.9015 	-0.926919 	-9.16136e-020 71.8032 	-0.939421 	-6.91779e-019 71.7401 	-0.946366 	-6.57799e-019 71.6767 	-0.953314 	-6.23639e-019 71.6131 	-0.960265 	-5.89297e-019 71.5628 	-0.963488 	-7.30506e-020 71.4733 	-0.974716 	-3.56468e-021 71.4099 	-0.981904 	-3.06755e-021 71.3463 	-0.989096 	-2.57067e-021 71.2824 	-0.996291 	-2.07405e-021 71.2272 	-1.00108 	-4.67235e-020 71.1464 	-1.01112 	-3.22829e-019 71.0827 	-1.01856 	-2.87712e-019 71.0187 	-1.026 	-2.52403e-019 70.9544 	-1.03345 	-2.16902e-019 70.8942 	-1.03975 	-2.80799e-020 70.8255 	-1.04825 	-5.04319e-021 70.7649 	-1.05551 	-3.87254e-021 70.7041 	-1.06278 	-2.70213e-021 70.6431 	-1.07005 	-1.53195e-021 70.585 	-1.07693 	-4.24817e-022 70.5806 	-1.07744 	-3.36512e-022 70.5762 	-1.07795 	-2.48205e-022 70.5718 	-1.07846 	-1.59897e-022 70.5674 	-1.07897 	-7.15887e-023 70.5637 	-1.07939 	0 70.4973 	-1.08743 	0 70.431 	-1.09539 	0 70.3644 	-1.10336 	0 70.2975 	-1.11133 	0 70.2425 	-1.11787 	0 70.1685 	-1.12741 	1.75326e-019 70.1017 	-1.13563 	4.00145e-019 70.0345 	-1.14386 	6.24911e-019 69.967 	-1.1521 	8.49622e-019 69.9227 	-1.15761 	1.07471e-018 69.8412 	-1.16862 	8.64424e-019 69.7737 	-1.17711 	6.7912e-019 69.7059 	-1.18561 	4.93746e-019 69.6377 	-1.19412 	3.08302e-019 69.6039 	-1.19864 	3.408e-019 69.5149 	-1.21108 	1.0034e-018 69.4467 	-1.21985 	6.6373e-019 69.3781 	-1.22862 	3.24469e-019 69.3092 	-1.23739 	-1.43787e-020 69.2857 	-1.24098 	-1.26758e-018 69.189 	-1.25483 	1.0386e-019 69.12 	-1.26388 	5.77825e-019 69.0507 	-1.27293 	1.05221e-018 68.9815 	-1.28193 	1.50989e-018 68.9674 	-1.28468 	3.16353e-019 68.8664 	-1.29939 	1.55495e-019 68.7932 	-1.30927 	4.76092e-019 68.723 	-1.31861 	8.50991e-019 68.6646 	-1.32658 	1.26314e-018 68.6487 	-1.32976 	1.80584e-018 68.5472 	-1.34463 	2.11179e-018 68.4659 	-1.35601 	2.03701e-018 68.3946 	-1.36563 	1.76921e-018 68.3468 	-1.3726 	1.35345e-018 68.329 	-1.37621 	7.48688e-019 68.2271 	-1.39124 	3.6723e-020 68.1375 	-1.4041 	-4.79539e-019 68.0651 	-1.41399 	-7.27959e-019 68.0276 	-1.42 	-5.6046e-019 68.0079 	-1.42401 	-1.79182e-019 67.9054 	-1.43919 	-1.21334e-019 67.8075 	-1.45351 	-6.35968e-020 67.734 	-1.46367 	-6.46916e-021 67.7066 	-1.46872 	0 67.6849 	-1.47312 	0 67.5816 	-1.48846 	0 67.4778 	-1.50381 	0 67.4067 	-1.51396 	1.60343e-019 67.3832 	-1.51873 	1.48376e-019 67.3594 	-1.52351 	1.36351e-019 67.2554 	-1.53901 	-1.53649e-018 67.1507 	-1.55451 	-3.20952e-018 67.0826 	-1.56488 	-3.03613e-018 67.057 	-1.57002 	-9.96492e-019 67.0312 	-1.57516 	1.04318e-018 66.9262 	-1.59081 	2.22466e-018 66.8207 	-1.60648 	3.40593e-018 66.7555 	-1.61707 	3.36549e-018 66.7276 	-1.62256 	1.959e-018 66.6996 	-1.62805 	5.52459e-019 66.5937 	-1.64387 	3.61355e-019 66.4872 	-1.65969 	1.7035e-019 66.4247 	-1.67052 	-9.24276e-021 66.3946 	-1.67635 	-1.07192e-019 66.3643 	-1.68218 	-2.05127e-019 66.2573 	-1.69816 	6.87298e-019 66.1546 	-1.71363 	1.4871e-018 66.0947 	-1.72441 	1.44971e-018 66.0576 	-1.73136 	7.95726e-019 66.025 	-1.73753 	1.56893e-020 65.9169 	-1.75367 	7.80329e-019 65.8253 	-1.76797 	1.25538e-018 65.7636 	-1.779 	1.21489e-018 65.7163 	-1.78758 	7.80781e-019 65.6812 	-1.79407 	1.02093e-020 65.572 	-1.81037 	7.65973e-019 65.4914 	-1.82352 	1.0216e-018 65.4278 	-1.83479 	9.77747e-019 65.3703 	-1.84499 	7.85473e-019 65.3327 	-1.85179 	1.21845e-019 65.2222 	-1.86825 	1.88556e-020 65.1524 	-1.88026 	5.78246e-021 65.0869 	-1.89176 	2.98787e-021 65.021 	-1.90326 	1.94357e-022 64.9791 	-1.91067 	0 64.8751 	-1.92643 	0 64.808 	-1.93816 	0 64.7405 	-1.94989 	0 64.6726 	-1.96163 	0 64.62 	-1.9707 	1.04246e-019 64.5272 	-1.98527 	8.53502e-020 64.458 	-1.99723 	2.71212e-019 64.3885 	-2.00919 	4.5714e-019 64.3184 	-2.02116 	6.43133e-019 64.2551 	-2.0319 	9.47469e-019 64.1837 	-2.0435 	1.24527e-018 64.1229 	-2.0539 	1.15418e-018 64.0618 	-2.06431 	1.06259e-018 64.0004 	-2.07471 	9.70504e-019 63.942 	-2.08454 	8.83059e-019 63.9304 	-2.08645 	8.72858e-019 63.9188 	-2.08835 	8.62647e-019 63.9072 	-2.09025 	8.52425e-019 63.8956 	-2.09215 	8.42193e-019 63.8865 	-2.09386 	8.73172e-019 63.8101 	-2.10647 	5.38482e-019 63.735 	-2.11889 	1.93049e-019 63.6594 	-2.13131 	-1.52384e-019 63.5834 	-2.14374 	-4.97819e-019 63.5265 	-2.15475 	-7.45111e-019 63.4356 	-2.16885 	-4.01538e-019 63.3582 	-2.18151 	-3.36141e-019 63.2804 	-2.19416 	-2.7032e-019 63.202 	-2.20681 	-2.04074e-019 63.16 	-2.21683 	-6.39185e-019 63.0545 	-2.23244 	-5.7678e-019 62.9747 	-2.24533 	-5.41719e-019 62.8944 	-2.25821 	-5.06511e-019 62.8139 	-2.27108 	-4.71612e-019 62.7867 	-2.28012 	-5.36651e-019 62.6715 	-2.2967 	-4.39556e-019 62.584 	-2.31036 	-2.82943e-019 62.5013 	-2.32347 	-1.15289e-019 62.4362 	-2.3353 	-1.76125e-020 62.4064 	-2.34459 	-5.76355e-020 62.2889 	-2.36138 	-6.16625e-019 62.1859 	-2.37659 	-8.7467e-019 62.1006 	-2.38993 	-7.71335e-019 62.0511 	-2.40071 	-2.89185e-019 62.0186 	-2.41026 	3.73915e-019 61.8988 	-2.42723 	2.72341e-019 61.78 	-2.44403 	1.67019e-019 61.6934 	-2.45751 	0 61.6585 	-2.46731 	0 61.6232 	-2.4771 	0 61.501 	-2.49427 	0 61.3781 	-2.51145 	0 61.2957 	-2.52504 	0 61.2579 	-2.53509 	0 61.2198 	-2.54513 	0 61.0951 	-2.56249 	0 60.9697 	-2.57985 	0 60.8898 	-2.59376 	0 60.8492 	-2.60405 	0 60.8081 	-2.61434 	0 60.6809 	-2.63189 	0 60.559 	-2.64902 	0 60.4829 	-2.66291 	0 60.4319 	-2.6742 	0 60.3879 	-2.68475 	0 60.258 	-2.70248 	0 60.1534 	-2.71841 	-1.68238e-020 60.0747 	-2.73251 	-5.07628e-020 60.006 	-2.74554 	-8.47619e-020 59.9589 	-2.75634 	-1.18873e-019 59.8264 	-2.77425 	-9.02674e-020 59.7393 	-2.78898 	-9.17998e-020 59.6578 	-2.80328 	-9.72896e-020 59.5757 	-2.81759 	-1.02814e-019 59.5209 	-2.8291 	-1.33079e-019 59.4003 	-2.84619 	-1.22561e-019 59.3164 	-2.8607 	-1.58367e-019 59.232 	-2.87521 	-1.94224e-019 59.147 	-2.88972 	-2.30132e-019 59.0736 	-2.90302 	-3.1876e-019 58.9915 	-2.91538 	-3.95698e-019 58.9252 	-2.92663 	-3.71294e-019 58.8587 	-2.93787 	-3.46768e-019 58.7918 	-2.94912 	-3.22118e-019 58.728 	-2.95979 	-2.98623e-019 58.7049 	-2.96336 	-2.95832e-019 58.6818 	-2.96694 	-2.93037e-019 58.6586 	-2.97052 	-2.90237e-019 58.6354 	-2.9741 	-2.87432e-019 58.6162 	-2.97737 	-2.98143e-019 58.5177 	-2.9926 	-2.26073e-019 58.4213 	-3.00749 	-1.60244e-019 58.3242 	-3.02238 	-9.43769e-020 58.2265 	-3.03727 	-2.84705e-020 58.1488 	-3.05061 	-6.84758e-020 58.0356 	-3.0674 	-1.46966e-020 57.9357 	-3.08247 	-6.31035e-020 57.8352 	-3.09754 	-1.11472e-019 57.7354 	-3.1125 	-1.5994e-019 57.6699 	-3.12486 	-2.11928e-019 57.5471 	-3.14254 	-5.8011e-019 57.4381 	-3.15846 	-7.42688e-019 57.334 	-3.17369 	-8.24975e-019 57.2481 	-3.18753 	-6.92574e-019 57.1793 	-3.20007 	-3.60025e-019 57.0529 	-3.21787 	-2.38873e-019 56.928 	-3.2354 	-1.23102e-019 56.8206 	-3.25076 	-5.11686e-020 56.7488 	-3.26347 	7.94259e-021 56.6764 	-3.27617 	6.71535e-020 56.5464 	-3.29409 	4.1198e-020 56.4155 	-3.312 	1.53762e-020 56.3124 	-3.3274 	1.06216e-019 56.237 	-3.34025 	3.1363e-019 56.1611 	-3.35311 	5.21206e-019 56.0272 	-3.37112 	-3.33304e-020 55.8937 	-3.38905 	-5.71342e-019 55.7949 	-3.40441 	-5.90102e-019 55.7123 	-3.41779 	-1.86093e-019 55.6327 	-3.43076 	3.06335e-019 55.495 	-3.44885 	2.26726e-019 55.377 	-3.46545 	1.47153e-019 55.2746 	-3.48088 	6.7619e-020 55.1744 	-3.49596 	0 55.0909 	-3.50901 	0 54.953 	-3.52687 	-9.84761e