/*--------------------------------*- C++ -*----------------------------------*\
| =========                 |                                                 |
| \\      /  F ield         | OpenFOAM: The Open Source CFD Toolbox           |
|  \\    /   O peration     | Version:  5.x                                   |
|   \\  /    A nd           | Web:      www.OpenFOAM.org                      |
|    \\/     M anipulation  |                                                 |
\*---------------------------------------------------------------------------*/
/*   Windows 32 and 64 bit porting by blueCAPE: http://www.bluecape.com.pt   *\
|  Based on Windows porting (2.0.x v4) by Symscape: http://www.symscape.com   |
\*---------------------------------------------------------------------------*/
FoamFile
{
    version     2.0;
    format      ascii;
    class       surfaceScalarField;
    location    "0";
    object      phi;
}
// * * * * * * * * * * * * * * * * * * * * * * * * * * * * * * * * * * * * * //

dimensions      [0 3 -1 0 0 0 0];

internalField   nonuniform List<scalar> 
1890
(
0.000109616
-3.43524e-008
0.000109701
-8.41772e-008
0.000109769
-6.86156e-008
0.000109824
-5.47975e-008
0.000109867
-4.30021e-008
0.0001099
-3.32587e-008
0.000109926
-2.54223e-008
0.000109945
-1.92522e-008
0.000109959
-1.44747e-008
0.00010997
-1.08231e-008
0.000109978
-8.05997e-009
0.000109984
-5.98452e-009
0.000109989
-4.43339e-009
0.000109992
-3.27644e-009
0.000109994
-2.41178e-009
0.000109996
-1.76122e-009
0.000109997
-1.2677e-009
0.000109998
-8.93621e-010
0.000109999
-6.16204e-010
0.000109999
-4.13682e-010
0.000109999
-2.90492e-010
0.000109999
-2.25986e-010
0.000109999
-1.8079e-010
0.000109999
-1.44661e-010
0.000109999
-1.09402e-010
0.000109999
-8.32916e-011
0.000109999
-5.72618e-011
0.000109999
-4.06708e-011
0.000109999
-2.34812e-011
0.000109999
-1.49679e-011
0.000109999
-4.8615e-012
0.000109999
-2.10722e-012
0.000109999
3.33665e-012
0.000109999
2.69971e-012
0.000109999
5.63839e-012
0.000109999
3.39709e-012
0.000109999
5.27368e-012
0.000109998
2.47241e-012
0.000109998
4.01644e-012
0.000109998
1.11473e-012
0.000109998
2.5817e-012
0.000109998
-2.96187e-013
0.000109998
1.11185e-012
0.000109998
-1.75386e-012
0.000109998
-4.52349e-013
0.000109998
-3.34116e-012
0.000109998
-2.19088e-012
0.000109998
-5.12069e-012
0.000109998
-4.13628e-012
0.000109998
-7.10353e-012
0.000109998
-6.28334e-012
0.000109998
-9.2728e-012
0.000109999
-8.60263e-012
0.000109999
-1.15961e-011
0.000109999
-1.10651e-011
0.000109999
-1.40477e-011
0.000109999
-1.36453e-011
0.000109999
-1.66077e-011
0.000109999
-1.63338e-011
0.000109999
-1.92754e-011
0.000109999
-1.91362e-011
0.000109999
-2.20689e-011
0.000109999
-2.20902e-011
0.000109999
-2.50482e-011
0.000109999
-2.52809e-011
0.000109999
-2.83366e-011
0.000109999
-2.88858e-011
0.000109999
-3.21808e-011
0.00011
-3.32397e-011
0.00011
-3.70381e-011
0.00011
-3.8965e-011
0.00011
-4.37479e-011
0.00011
-4.71861e-011
0.00011
-5.3817e-011
0.00011
-5.99184e-011
0.00011
-6.99326e-011
0.000110001
-8.07344e-011
0.000110001
-9.68405e-011
0.000110001
-1.15929e-010
0.000110001
-1.4287e-010
0.000110001
-1.76495e-010
0.000110002
-2.22497e-010
0.000110002
-2.81426e-010
0.000110003
-3.60521e-010
0.000110003
-4.62905e-010
0.000110004
-5.98375e-010
0.000110005
-7.73702e-010
0.000110006
-1.00229e-009
0.000110007
-1.29529e-009
0.000110009
-1.66972e-009
0.000110011
-2.13962e-009
0.000110014
-2.72154e-009
0.000110018
-3.42421e-009
0.000110022
-4.24976e-009
0.000110027
-5.18049e-009
0.000110034
-6.17627e-009
0.000110041
-7.16233e-009
0.000110049
-8.03313e-009
0.000110058
-8.65731e-009
5.78704e-008
0.000109633
-6.83178e-008
0.000109716
-1.67175e-007
0.000109783
-1.35488e-007
0.000109836
-1.0757e-007
0.000109877
-8.39473e-008
0.000109908
-6.46053e-008
0.000109932
-4.91744e-008
0.00010995
-3.71103e-008
0.000109963
-2.78242e-008
0.000109973
-2.0761e-008
0.00010998
-1.54366e-008
0.000109986
-1.14501e-008
0.00010999
-8.47984e-009
0.000109993
-6.27364e-009
0.000109995
-4.6366e-009
0.000109996
-3.41998e-009
0.000109997
-2.513e-009
0.000109998
-1.83889e-009
0.000109999
-1.35105e-009
0.000109999
-9.96112e-010
0.000109999
-7.3974e-010
0.000109999
-5.48068e-010
0.000109998
-4.08425e-010
0.000109998
-3.01283e-010
0.000109998
-2.22923e-010
0.000109998
-1.61956e-010
0.000109998
-1.19106e-010
0.000109998
-8.5593e-011
0.000109999
-6.36746e-011
0.000109998
-4.58543e-011
0.000109999
-3.54635e-011
0.000109998
-2.58207e-011
0.000109998
-2.11773e-011
0.000109998
-1.53689e-011
0.000109998
-1.33493e-011
0.000109998
-9.23371e-012
0.000109998
-8.42591e-012
0.000109998
-5.14269e-012
0.000109998
-5.03182e-012
0.000109998
-2.3076e-012
0.000109998
-2.73252e-012
0.000109998
-4.75224e-013
0.000109998
-1.35234e-012
0.000109998
5.14788e-013
0.000109998
-7.20865e-013
0.000109998
8.51856e-013
0.000109998
-6.358e-013
0.000109998
7.38477e-013
0.000109998
-9.04997e-013
0.000109998
3.48096e-013
0.000109998
-1.37836e-012
0.000109998
-1.97899e-013
0.000109998
-1.96223e-012
0.000109998
-8.3118e-013
0.000109998
-2.6099e-012
0.000109998
-1.52606e-012
0.000109998
-3.31365e-012
0.000109998
-2.29018e-012
0.000109999
-4.09554e-012
0.000109999
-3.16294e-012
0.000109999
-5.01482e-012
0.000109999
-4.22701e-012
0.000109999
-6.18446e-012
0.000109999
-5.6371e-012
0.000109999
-7.81451e-012
0.000109999
-7.67569e-012
0.000109999
-1.02844e-011
0.000109999
-1.0853e-011
0.000109999
-1.42789e-011
0.000109999
-1.60848e-011
0.000109999
-2.10217e-011
0.00011
-2.50055e-011
0.00011
-3.26941e-011
0.00011
-4.05216e-011
0.00011
-5.31661e-011
0.00011
-6.77817e-011
0.00011
-8.9281e-011
0.00011
-1.1587e-010
0.000110001
-1.53084e-010
0.000110001
-2.00735e-010
0.000110001
-2.65652e-010
0.000110001
-3.50159e-010
0.000110002
-4.63497e-010
0.000110002
-6.11937e-010
0.000110003
-8.08854e-010
0.000110003
-1.06653e-009
0.000110004
-1.40479e-009
0.000110005
-1.84431e-009
0.000110007
-2.41335e-009
0.000110008
-3.14188e-009
0.00011001
-4.06494e-009
0.000110013
-5.21541e-009
0.000110016
-6.62085e-009
0.000110021
-8.29072e-009
0.000110026
-1.02026e-008
0.000110032
-1.22821e-008
0.00011004
-1.43834e-008
0.000110048
-1.62817e-008
0.000110057
-1.7691e-008
1.15215e-007
0.000109668
-1.01418e-007
0.000109748
-2.47566e-007
0.000109811
-1.98566e-007
0.000109859
-1.56012e-007
0.000109896
-1.20571e-007
0.000109923
-9.19952e-008
0.000109944
-6.95131e-008
0.000109959
-5.21456e-008
0.00010997
-3.89098e-008
0.000109978
-2.89228e-008
0.000109984
-2.14423e-008
0.000109988
-1.58692e-008
0.000109991
-1.17331e-008
0.000109994
-8.67156e-009
0.000109996
-6.40855e-009
0.000109997
-4.73567e-009
0.000109998
-3.49716e-009
0.000109998
-2.57896e-009
0.000109998
-1.90125e-009
0.000109998
-1.40731e-009
0.000109998
-1.03699e-009
0.000109998
-7.68462e-010
0.000109998
-5.62263e-010
0.000109998
-4.17458e-010
0.000109998
-3.0201e-010
0.000109998
-2.25848e-010
0.000109998
-1.61494e-010
0.000109998
-1.23824e-010
0.000109998
-8.79955e-011
0.000109998
-7.12145e-011
0.000109998
-5.03172e-011
0.000109998
-4.40087e-011
0.000109998
-3.0245e-011
0.000109998
-2.88012e-011
0.000109998
-1.82498e-011
0.000109998
-1.90779e-011
0.000109998
-1.00976e-011
0.000109998
-1.21997e-011
0.000109998
-4.23449e-012
0.000109998
-7.2664e-012
0.000109998
-1.31875e-013
0.000109998
-3.91741e-012
0.000109998
2.51728e-012
0.000109998
-1.84378e-012
0.000109998
4.04546e-012
0.000109998
-6.97754e-013
0.000109998
4.80582e-012
0.000109998
-1.4334e-013
0.000109998
5.10499e-012
0.000109998
8.43379e-014
0.000109998
5.163e-012
0.000109998
1.58269e-013
0.000109998
5.10813e-012
0.000109998
1.67621e-013
0.000109998
4.99581e-012
0.000109998
1.39409e-013
0.000109998
4.82757e-012
0.000109998
5.36844e-014
0.000109998
4.56253e-012
0.000109998
-1.52809e-013
0.000109998
4.11036e-012
0.000109998
-6.03256e-013
0.000109998
3.30559e-012
0.000109998
-1.51993e-012
0.000109998
1.85023e-012
0.000109999
-3.30176e-012
0.000109999
-7.88321e-013
0.000109999
-6.66126e-012
0.000109999
-5.56183e-012
0.000109999
-1.28697e-011
0.000109999
-1.41655e-011
0.000109999
-2.41888e-011
0.000109999
-2.96132e-011
0.000109999
-4.46343e-011
0.00011
-5.72501e-011
0.00011
-8.13187e-011
0.00011
-1.06532e-010
0.00011
-1.46805e-010
0.00011
-1.94131e-010
0.00011
-2.63197e-010
0.000110001
-3.49308e-010
0.000110001
-4.69164e-010
0.000110001
-6.2304e-010
0.000110002
-8.31709e-010
0.000110002
-1.10304e-009
0.000110003
-1.46506e-009
0.000110003
-1.937e-009
0.000110004
-2.55834e-009
0.000110005
-3.36394e-009
0.000110007
-4.40809e-009
0.000110009
-5.7421e-009
0.000110011
-7.43028e-009
0.000110014
-9.52498e-009
0.000110018
-1.2067e-008
0.000110023
-1.50482e-008
0.000110029
-1.83867e-008
0.000110037
-2.1874e-008
0.000110046
-2.51465e-008
0.000110056
-2.76856e-008
1.71392e-007
0.000109721
-1.32959e-007
0.000109797
-3.2337e-007
0.000109853
-2.55159e-007
0.000109895
-1.97289e-007
0.000109924
-1.50269e-007
0.000109946
-1.13229e-007
0.000109961
-8.46755e-008
0.000109972
-6.29919e-008
0.000109979
-4.66948e-008
0.000109985
-3.4533e-008
0.000109989
-2.55019e-008
0.000109992
-1.88183e-008
0.000109994
-1.38833e-008
0.000109995
-1.02449e-008
0.000109997
-7.56411e-009
0.000109997
-5.5885e-009
0.000109998
-4.13059e-009
0.000109998
-3.05242e-009
0.000109998
-2.25465e-009
0.000109998
-1.66723e-009
0.000109998
-1.22869e-009
0.000109998
-9.06984e-010
0.000109998
-6.6416e-010
0.000109998
-4.88711e-010
0.000109997
-3.55947e-010
0.000109997
-2.62626e-010
0.000109997
-1.91197e-010
0.000109997
-1.43546e-010
0.000109997
-1.05815e-010
0.000109997
-8.25941e-011
0.000109997
-6.21756e-011
0.000109997
-5.09566e-011
0.000109997
-3.86564e-011
0.000109997
-3.28951e-011
0.000109997
-2.42289e-011
0.000109997
-2.1001e-011
0.000109997
-1.41598e-011
0.000109997
-1.23937e-011
0.000109997
-6.7831e-012
0.000109997
-6.12772e-012
0.000109997
-1.53641e-012
0.000109997
-1.80231e-012
0.000109997
1.94485e-012
0.000109997
9.66245e-013
0.000109997
4.07898e-012
0.000109997
2.61735e-012
0.000109997
5.30757e-012
0.000109997
3.56969e-012
0.000109997
6.00893e-012
0.000109997
4.14816e-012
0.000109997
6.44983e-012
0.000109997
4.56079e-012
0.000109997
6.78321e-012
0.000109997
4.91212e-012
0.000109997
7.07226e-012
0.000109997
5.23072e-012
0.000109997
7.31555e-012
0.000109997
5.48907e-012
0.000109997
7.4606e-012
0.000109997
5.60812e-012
0.000109998
7.39693e-012
0.000109998
5.43846e-012
0.000109998
6.92494e-012
0.000109998
4.71374e-012
0.000109998
5.68937e-012
0.000109998
2.95993e-012
0.000109998
3.05826e-012
0.000109998
-6.66352e-013
0.000109998
-2.09348e-012
0.000109998
-7.66609e-012
0.000109998
-1.17668e-011
0.000109998
-2.07069e-011
0.000109999
-2.95162e-011
0.000109999
-4.45242e-011
0.000109999
-6.1647e-011
0.000109999
-8.75112e-011
0.000109999
-1.19325e-010
0.000109999
-1.64517e-010
0.000109999
-2.22284e-010
0.00011
-3.01747e-010
0.00011
-4.05296e-010
0.00011
-5.45293e-010
0.00011
-7.29369e-010
0.000110001
-9.75767e-010
0.000110001
-1.30077e-009
0.000110001
-1.73281e-009
0.000110002
-2.30221e-009
0.000110003
-3.05412e-009
0.000110003
-4.04041e-009
0.000110004
-5.3309e-009
0.000110006
-7.00595e-009
0.000110008
-9.16283e-009
0.00011001
-1.19029e-008
0.000110014
-1.53221e-008
0.000110018
-1.94743e-008
0.000110024
-2.43192e-008
0.000110032
-2.96325e-008
0.000110042
-3.49025e-008
0.000110054
-3.92616e-008
2.25491e-007
0.000109797
-1.61787e-007
0.000109865
-3.91459e-007
0.000109911
-3.01342e-007
0.000109941
-2.27635e-007
0.000109961
-1.69904e-007
0.000109974
-1.25894e-007
0.000109982
-9.28915e-008
0.000109987
-6.83825e-008
0.000109991
-5.02832e-008
0.000109993
-3.69598e-008
0.000109995
-2.71689e-008
0.000109996
-1.99801e-008
0.000109997
-1.47038e-008
0.000109997
-1.0831e-008
0.000109998
-7.98733e-009
0.000109998
-5.89742e-009
0.000109998
-4.3589e-009
0.000109998
-3.22339e-009
0.000109998
-2.38375e-009
0.000109998
-1.76289e-009
0.000109997
-1.30233e-009
0.000109997
-9.60587e-010
0.000109997
-7.05216e-010
0.000109997
-5.15811e-010
0.000109997
-3.75922e-010
0.000109997
-2.74325e-010
0.000109997
-2.00566e-010
0.000109997
-1.48262e-010
0.000109997
-1.10809e-010
0.000109997
-8.46763e-011
0.000109997
-6.56212e-011
0.000109997
-5.20793e-011
0.000109996
-4.14263e-011
0.000109996
-3.34155e-011
0.000109996
-2.63954e-011
0.000109996
-2.08615e-011
0.000109996
-1.56332e-011
0.000109996
-1.15328e-011
0.000109996
-7.54369e-012
0.000109996
-4.58099e-012
0.000109996
-1.6531e-012
0.000109996
3.28211e-013
0.000109996
2.36434e-012
0.000109996
3.56639e-012
0.000109996
4.93569e-012
0.000109996
5.5973e-012
0.000109996
6.53459e-012
0.000109996
6.87551e-012
0.000109996
7.57415e-012
0.000109996
7.75747e-012
0.000109996
8.34716e-012
0.000109996
8.47161e-012
0.000109996
9.02147e-012
0.000109996
9.13213e-012
0.000109996
9.66533e-012
0.000109996
9.76885e-012
0.000109996
1.02758e-011
0.000109996
1.03502e-011
0.000109997
1.07943e-011
0.000109997
1.07891e-011
0.000109997
1.11004e-011
0.000109997
1.09239e-011
0.000109997
1.09793e-011
0.000109997
1.04697e-011
0.000109997
1.00528e-011
0.000109997
8.9231e-012
0.000109997
7.65063e-012
0.000109997
5.39166e-012
0.000109997
2.5836e-012
0.000109997
-1.70971e-012
0.000109997
-7.26062e-012
0.000109998
-1.51959e-011
0.000109998
-2.56326e-011
0.000109998
-4.00635e-011
0.000109998
-5.91877e-011
0.000109998
-8.51756e-011
0.000109998
-1.19727e-010
0.000109998
-1.66241e-010
0.000109998
-2.28157e-010
0.000109999
-3.11082e-010
0.000109999
-4.2149e-010
0.000109999
-5.68921e-010
0.000109999
-7.65177e-010
0.000109999
-1.02675e-009
0.00011
-1.37478e-009
0.00011
-1.838e-009
0.00011
-2.45378e-009
0.000110001
-3.27205e-009
0.000110001
-4.35792e-009
0.000110002
-5.79676e-009
0.000110002
-7.6982e-009
0.000110004
-1.02008e-008
0.000110005
-1.34726e-008
0.000110008
-1.77033e-008
0.000110012
-2.30763e-008
0.000110017
-2.9698e-008
0.000110025
-3.74554e-008
0.000110036
-4.57712e-008
0.00011005
-5.33007e-008
2.76017e-007
0.0001099
-1.85762e-007
0.000109955
-4.46376e-007
0.000109984
-3.30999e-007
0.000109999
-2.41898e-007
0.000110004
-1.75716e-007
0.000110006
-1.27459e-007
0.000110006
-9.25297e-008
0.000110005
-6.72886e-008
0.000110003
-4.90307e-008
0.000110002
-3.57975e-008
0.000110001
-2.61846e-008
0.00011
-1.91868e-008
0.00011
-1.4083e-008
0.000109999
-1.03542e-008
0.000109999
-7.6257e-009
0.000109999
-5.62571e-009
0.000109998
-4.15693e-009
0.000109998
-3.07578e-009
0.000109998
-2.27802e-009
0.000109997
-1.68934e-009
0.000109997
-1.25231e-009
0.000109996
-9.28393e-010
0.000109996
-6.83635e-010
0.000109996
-4.98015e-010
0.000109996
-3.62185e-010
0.000109996
-2.60989e-010
0.000109996
-1.90505e-010
0.000109996
-1.38366e-010
0.000109996
-1.04154e-010
0.000109995
-7.79823e-011
0.000109995
-6.18826e-011
0.000109995
-4.78845e-011
0.000109995
-3.97448e-011
0.000109995
-3.08115e-011
0.000109995
-2.58862e-011
0.000109995
-1.90494e-011
0.000109995
-1.561e-011
0.000109995
-9.95604e-012
0.000109995
-7.56958e-012
0.000109995
-2.91756e-012
0.000109995
-1.49457e-012
0.000109995
2.2327e-012
0.000109995
2.81079e-012
0.000109995
5.77062e-012
0.000109995
5.70702e-012
0.000109995
8.11751e-012
0.000109995
7.64298e-012
0.000109995
9.71633e-012
0.000109995
9.02835e-012
0.000109995
1.09255e-011
0.000109995
1.01601e-011
0.000109995
1.19783e-011
0.000109995
1.12103e-011
0.000109995
1.29924e-011
0.000109995
1.22495e-011
0.000109995
1.39984e-011
0.000109995
1.32745e-011
0.000109995
1.49642e-011
0.000109995
1.42261e-011
0.000109995
1.58021e-011
0.000109996
1.49844e-011
0.000109996
1.63529e-011
0.000109996
1.53392e-011
0.000109996
1.63395e-011
0.000109996
1.49243e-011
0.000109996
1.52766e-011
0.000109996
1.30957e-011
0.000109996
1.23084e-011
0.000109996
8.71419e-012
0.000109996
5.91875e-012
0.000109996
-2.38927e-013
0.000109996
-6.58102e-012
0.000109997
-1.73457e-011
0.000109997
-2.99625e-011
0.000109997
-4.89632e-011
0.000109997
-7.26952e-011
0.000109997
-1.06377e-010
0.000109997
-1.49818e-010
0.000109997
-2.09631e-010
0.000109997
-2.88054e-010
0.000109998
-3.94372e-010
0.000109998
-5.34978e-010
0.000109998
-7.24142e-010
0.000109998
-9.75551e-010
0.000109998
-1.31271e-009
0.000109998
-1.76237e-009
0.000109998
-2.36521e-009
0.000109998
-3.17197e-009
0.000109998
-4.25552e-009
0.000109998
-5.71144e-009
0.000109998
-7.67345e-009
0.000109999
-1.03205e-008
0.000109999
-1.38965e-008
0.00011
-1.87198e-008
0.000110003
-2.51873e-008
0.000110007
-3.37257e-008
0.000110014
-4.46282e-008
0.000110026
-5.76201e-008
0.000110044
-7.09904e-008
3.20166e-007
0.000110038
-2.00494e-007
0.00011007
-4.77645e-007
0.000110073
-3.34209e-007
0.000110064
-2.33111e-007
0.000110052
-1.635e-007
0.00011004
-1.15611e-007
0.00011003
-8.24051e-008
0.000110022
-5.91463e-008
0.000110015
-4.26958e-008
0.000110011
-3.09637e-008
0.000110007
-2.25399e-008
0.000110004
-1.6459e-008
0.000110002
-1.20506e-008
0.000110001
-8.84399e-009
0.00011
-6.50495e-009
0.000109999
-4.79483e-009
0.000109998
-3.54211e-009
0.000109997
-2.62312e-009
0.000109997
-1.94884e-009
0.000109996
-1.45305e-009
0.000109996
-1.08829e-009
0.000109995
-8.16117e-010
0.000109995
-6.09772e-010
0.000109995
-4.43436e-010
0.000109994
-3.22654e-010
0.000109994
-2.28618e-010
0.000109994
-1.66772e-010
0.000109994
-1.18069e-010
0.000109994
-9.00871e-011
0.000109994
-6.54634e-011
0.000109994
-5.41498e-011
0.000109994
-4.04753e-011
0.000109994
-3.61346e-011
0.000109994
-2.66732e-011
0.000109994
-2.4846e-011
0.000109994
-1.68757e-011
0.000109994
-1.60366e-011
0.000109994
-8.8267e-012
0.000109994
-8.69661e-012
0.000109994
-2.21005e-012
0.000109994
-2.8161e-012
0.000109994
2.91375e-012
0.000109994
1.60694e-012
0.000109994
6.65788e-012
0.000109994
4.80006e-012
0.000109994
9.33825e-012
0.000109994
7.13073e-012
0.000109994
1.13377e-011
0.000109994
8.96531e-012
0.000109994
1.29854e-011
0.000109994
1.05818e-011
0.000109994
1.45036e-011
0.000109994
1.21464e-011
0.000109994
1.60075e-011
0.000109994
1.37293e-011
0.000109994
1.75289e-011
0.000109994
1.53295e-011
0.000109994
1.90392e-011
0.000109994
1.68931e-011
0.000109994
2.04582e-011
0.000109994
1.8311e-011
0.000109994
2.16426e-011
0.000109994
1.93963e-011
0.000109994
2.2348e-011
0.000109995
1.98279e-011
0.000109995
2.21521e-011
0.000109995
1.90482e-011
0.000109995
2.03167e-011
0.000109995
1.60773e-011
0.000109995
1.55407e-011
0.000109995
9.1849e-012
0.000109995
5.52272e-012
0.000109995
-4.69306e-012
0.000109995
-1.3817e-011
0.000109995
-3.09918e-011
0.000109996
-4.97208e-011
0.000109996
-7.93669e-011
0.000109996
-1.15066e-010
0.000109996
-1.67005e-010
0.000109996
-2.32806e-010
0.000109996
-3.24595e-010
0.000109996
-4.44028e-010
0.000109996
-6.07244e-010
0.000109996
-8.2282e-010
0.000109996
-1.11488e-009
0.000109996
-1.5045e-009
0.000109996
-2.0317e-009
0.000109996
-2.74149e-009
0.000109995
-3.70652e-009
0.000109995
-5.02069e-009
0.000109994
-6.82722e-009
0.000109993
-9.32719e-009
0.000109992
-1.28246e-008
0.000109991
-1.77658e-008
0.000109991
-2.48175e-008
0.000109993
-3.49287e-008
0.000109997
-4.93227e-008
0.000110009
-6.90817e-008
0.000110032
-9.34939e-008
3.51904e-007
0.000110227
-1.96133e-007
0.000110212
-4.63112e-007
0.000110173
-2.94883e-007
0.000110132
-1.92745e-007
0.000110098
-1.29512e-007
0.000110072
-8.90396e-008
0.000110052
-6.22977e-008
0.000110037
-4.41599e-008
0.000110026
-3.16069e-008
0.000110018
-2.27863e-008
0.000110011
-1.65177e-008
0.000110007
-1.20248e-008
0.000110004
-8.7839e-009
0.000110001
-6.43455e-009
0.00011
-4.72518e-009
0.000109998
-3.47847e-009
0.000109997
-2.56895e-009
0.000109997
-1.90729e-009
0.000109996
-1.42846e-009
0.000109995
-1.0834e-009
0.000109994
-8.28841e-010
0.000109994
-6.38392e-010
0.000109994
-4.87775e-010
0.000109993
-3.63275e-010
0.000109993
-2.6192e-010
0.000109993
-1.88003e-010
0.000109993
-1.3216e-010
0.000109993
-9.63686e-011
0.000109993
-6.92e-011
0.000109993
-5.45263e-011
0.000109993
-4.15388e-011
0.000109993
-3.62883e-011
0.000109993
-2.88791e-011
0.000109992
-2.69171e-011
0.000109992
-2.10999e-011
0.000109992
-1.99862e-011
0.000109992
-1.44644e-011
0.000109992
-1.36363e-011
0.000109992
-8.28711e-012
0.000109992
-7.84051e-012
0.000109992
-2.83273e-012
0.000109992
-2.91455e-012
0.000109992
1.65808e-012
0.000109992
1.03729e-012
0.000109992
5.21795e-012
0.000109992
4.16674e-012
0.000109992
8.07923e-012
0.000109992
6.75033e-012
0.000109992
1.05283e-011
0.000109992
9.05958e-012
0.000109992
1.28048e-011
0.000109992
1.12923e-011
0.000109992
1.50615e-011
0.000109992
1.35578e-011
0.000109992
1.73682e-011
0.000109992
1.58913e-011
0.000109992
1.97297e-011
0.000109993
1.82725e-011
0.000109993
2.21026e-011
0.000109993
2.06363e-011
0.000109993
2.43979e-011
0.000109993
2.28674e-011
0.000109993
2.64667e-011
0.000109993
2.47748e-011
0.000109993
2.80613e-011
0.000109993
2.60369e-011
0.000109993
2.87612e-011
0.000109993
2.61016e-011
0.000109993
2.78381e-011
0.000109993
2.40066e-011
0.000109994
2.40176e-011
0.000109994
1.80611e-011
0.000109994
1.50533e-011
0.000109994
5.27835e-012
0.000109994
-3.02961e-012
0.000109994
-1.96367e-011
0.000109994
-3.72901e-011
0.000109994
-6.61029e-011
0.000109994
-1.00308e-010
0.000109994
-1.50945e-010
0.000109994
-2.1462e-010
0.000109994
-3.04411e-010
0.000109994
-4.20931e-010
0.000109994
-5.81471e-010
0.000109994
-7.93812e-010
0.000109994
-1.08389e-009
0.000109993
-1.47321e-009
0.000109993
-2.00605e-009
0.000109992
-2.73256e-009
0.000109991
-3.73883e-009
0.000109989
-5.1419e-009
0.000109987
-7.13395e-009
0.000109985
-1.0011e-008
0.000109981
-1.42728e-008
0.000109977
-2.07666e-008
0.000109974
-3.09929e-008
0.000109972
-4.76041e-008
0.000109978
-7.50687e-008
0.000110004
-1.19213e-007
3.56152e-007
0.000110491
-1.48956e-007
0.000110378
-3.50548e-007
0.000110273
-1.89441e-007
0.000110193
-1.13583e-007
0.000110137
-7.28668e-008
0.000110097
-4.88147e-008
0.000110068
-3.36355e-008
0.000110047
-2.36169e-008
0.000110033
-1.67991e-008
0.000110022
-1.20601e-008
0.000110014
-8.71615e-009
0.000110009
-6.33058e-009
0.000110004
-4.61471e-009
0.000110001
-3.37284e-009
0.000109999
-2.47027e-009
0.000109998
-1.81402e-009
0.000109996
-1.34054e-009
0.000109995
-1.00693e-009
0.000109994
-7.82947e-010
0.000109994
-6.35859e-010
0.000109993
-5.25148e-010
0.000109992
-4.2154e-010
0.000109992
-3.33786e-010
0.000109992
-2.52672e-010
0.000109991
-1.86166e-010
0.000109991
-1.31856e-010
0.000109991
-9.37178e-011
0.000109991
-6.58527e-011
0.000109991
-4.91058e-011
0.000109991
-3.74912e-011
0.000109991
-3.18202e-011
0.000109991
-2.73873e-011
0.000109991
-2.57229e-011
0.000109991
-2.33203e-011
0.000109991
-2.22572e-011
0.000109991
-1.98409e-011
0.000109991
-1.83423e-011
0.000109991
-1.55603e-011
0.000109991
-1.36709e-011
0.000109991
-1.07852e-011
0.000109991
-8.82127e-012
0.00010999
-6.13201e-012
0.00010999
-4.31599e-012
0.00010999
-1.96468e-012
0.00010999
-3.5476e-013
0.00010999
1.6681e-012
0.00010999
3.13013e-012
0.00010999
4.91277e-012
0.000109991
6.32451e-012
0.00010999
7.9676e-012
0.000109991
9.41863e-012
0.000109991
1.09997e-011
0.000109991
1.25465e-011
0.000109991
1.41094e-011
0.000109991
1.57771e-011
0.000109991
1.73361e-011
0.000109991
1.91219e-011
0.000109991
2.06693e-011
0.000109991
2.25522e-011
0.000109991
2.40641e-011
0.000109991
2.60047e-011
0.000109991
2.74402e-011
0.000109991
2.93808e-011
0.000109991
3.0676e-011
0.000109991
3.25262e-011
0.000109991
3.35776e-011
0.000109991
3.51957e-011
0.000109991
3.5831e-011
0.000109992
3.69806e-011
0.000109992
3.69044e-011
0.000109992
3.71858e-011
0.000109992
3.58845e-011
0.000109992
3.46045e-011
0.000109992
3.11751e-011
0.000109992
2.71208e-011
0.000109992
1.99651e-011
0.000109992
1.09915e-011
0.000109992
-2.73618e-012
0.000109992
-2.04483e-011
0.000109992
-4.58469e-011
0.000109992
-7.91585e-011
0.000109992
-1.25445e-010
0.000109992
-1.86824e-010
0.000109992
-2.709e-010
0.000109992
-3.83436e-010
0.000109992
-5.37058e-010
0.000109991
-7.44922e-010
0.00010999
-1.03031e-009
0.000109989
-1.42273e-009
0.000109987
-1.97064e-009
0.000109985
-2.74472e-009
0.000109982
-3.86284e-009
0.000109978
-5.52042e-009
0.000109972
-8.07256e-009
0.000109963
-1.22015e-008
0.000109952
-1.93449e-008
0.000109937
-3.28217e-008
0.000109923
-6.1115e-008
0.000109933
-1.28167e-007
2.88778e-007
0.000110884
0.000110534
0.000110344
0.000110231
0.000110158
0.000110109
0.000110075
0.000110052
0.000110035
0.000110023
0.000110014
0.000110008
0.000110003
0.00011
0.000109998
0.000109996
0.000109995
0.000109993
0.000109992
0.000109992
0.000109991
0.00010999
0.00010999
0.000109989
0.000109989
0.000109989
0.000109989
0.000109989
0.000109989
0.000109989
0.000109989
0.000109989
0.000109989
0.000109989
0.000109989
0.000109988
0.000109988
0.000109988
0.000109988
0.000109988
0.000109988
0.000109988
0.000109988
0.000109988
0.000109988
0.000109988
0.000109988
0.000109988
0.000109988
0.000109988
0.000109988
0.000109988
0.000109988
0.000109988
0.000109988
0.000109989
0.000109989
0.000109989
0.000109989
0.000109989
0.000109989
0.000109989
0.000109989
0.000109989
0.000109989
0.000109989
0.000109989
0.000109989
0.000109989
0.000109989
0.00010999
0.00010999
0.00010999
0.00010999
0.00010999
0.00010999
0.00010999
0.00010999
0.00010999
0.00010999
0.00010999
0.00010999
0.00010999
0.00010999
0.00010999
0.000109989
0.000109989
0.000109988
0.000109986
0.000109984
0.000109982
0.000109978
0.000109972
0.000109964
0.000109952
0.000109933
0.0001099
0.000109839
0.000109711
)
;

boundaryField
{
    walls
    {
        type            calculated;
        value           uniform 0;
    }
    inlet
    {
        type            calculated;
        value           nonuniform List<scalar> 10(-0.000109582 -0.000109599 -0.000109634 -0.00010969 -0.000109768 -0.000109876 -0.000110024 -0.000110231 -0.000110538 -0.000111033);
    }
    outlet
    {
        type            calculated;
        value           nonuniform List<scalar> 10(0.00011 0.00011 0.00011 0.00011 0.00011 0.00011 0.00011 0.00011 0.00011 0.00011);
    }
    frontAndBack
    {
        type            empty;
        value           nonuniform 0();
    }
}


// ************************************************************************* //
