/*--------------------------------*- C++ -*----------------------------------*\
| =========                 |                                                 |
| \\      /  F ield         | OpenFOAM: The Open Source CFD Toolbox           |
|  \\    /   O peration     | Version:  5.x                                   |
|   \\  /    A nd           | Web:      www.OpenFOAM.org                      |
|    \\/     M anipulation  |                                                 |
\*---------------------------------------------------------------------------*/
/*   Windows 32 and 64 bit porting by blueCAPE: http://www.bluecape.com.pt   *\
|  Based on Windows porting (2.0.x v4) by Symscape: http://www.symscape.com   |
\*---------------------------------------------------------------------------*/
FoamFile
{
    version     2.0;
    format      ascii;
    class       volVectorField;
    location    "0";
    object      U;
}
// * * * * * * * * * * * * * * * * * * * * * * * * * * * * * * * * * * * * * //

dimensions      [0 1 -1 0 0 0 0];

internalField   nonuniform List<vector> 
1000
(
(1.09545 0.00037596 0)
(1.09494 0.000126586 3.20402e-027)
(1.09461 0.000204229 0)
(1.09414 0.000273081 0)
(1.09353 0.000331757 0)
(1.09283 0.00038012 0)
(1.09203 0.000418904 0)
(1.09117 0.000449324 2.12369e-027)
(1.09025 0.000472754 2.04314e-027)
(1.0893 0.000490534 0)
(1.08831 0.000503857 1.93381e-027)
(1.08731 0.000513731 0)
(1.08629 0.000520975 0)
(1.08525 0.000526243 0)
(1.08421 0.000530046 0)
(1.08316 0.000532775 0)
(1.08211 0.000534717 0)
(1.08106 0.000536061 0)
(1.08 0.00053692 0)
(1.07895 0.000537405 0)
(1.07789 0.000537493 0)
(1.07684 0.000537288 0)
(1.07578 0.000536987 0)
(1.07473 0.000536642 0)
(1.07368 0.000536293 0)
(1.07263 0.0005359 0)
(1.07159 0.000535508 0)
(1.07055 0.00053507 0)
(1.06951 0.000534635 0)
(1.06847 0.000534159 0)
(1.06743 0.000533691 0)
(1.0664 0.000533187 0)
(1.06536 0.000532698 0)
(1.06433 0.000532179 0)
(1.0633 0.000531679 0)
(1.06227 0.000531154 0)
(1.06125 0.000530651 0)
(1.06023 0.000530125 0)
(1.0592 0.000529622 0)
(1.05819 0.000529098 0)
(1.05717 0.000528597 0)
(1.05615 0.000528075 0)
(1.05514 0.000527576 0)
(1.05413 0.000527056 0)
(1.05312 0.000526557 0)
(1.05211 0.000526039 0)
(1.05111 0.000525542 0)
(1.0501 0.000525026 1.73734e-027)
(1.0491 0.00052453 0)
(1.0481 0.000524016 0)
(1.04711 0.000523521 0)
(1.04611 0.000523008 0)
(1.04512 0.000522515 0)
(1.04412 0.000522004 0)
(1.04313 0.000521512 1.7259e-027)
(1.04215 0.000521003 0)
(1.04116 0.000520512 1.72268e-027)
(1.04018 0.000520005 0)
(1.03919 0.000519515 0)
(1.03821 0.00051901 0)
(1.03724 0.000518522 0)
(1.03626 0.000518019 0)
(1.03528 0.000517531 0)
(1.03431 0.00051703 1.71154e-027)
(1.03334 0.000516544 0)
(1.03237 0.000516044 1.70838e-027)
(1.0314 0.000515557 0)
(1.03044 0.000515058 0)
(1.02948 0.000514571 0)
(1.02851 0.000514071 0)
(1.02755 0.000513582 0)
(1.0266 0.000513079 0)
(1.02564 0.000512584 1.69756e-027)
(1.02469 0.000512074 0)
(1.02373 0.000511567 1.69462e-027)
(1.02278 0.000511042 0)
(1.02183 0.000510513 0)
(1.02089 0.000509959 0)
(1.01994 0.000509391 0)
(1.019 0.000508785 0)
(1.01806 0.000508147 0)
(1.01712 0.000507448 1.68637e-027)
(1.01618 0.000506685 0)
(1.01525 0.000505822 0)
(1.01432 0.000504845 0)
(1.01339 0.000503703 0)
(1.01246 0.000502364 0)
(1.01154 0.00050076 0)
(1.01063 0.000498836 1.69337e-027)
(1.00971 0.000496507 0)
(1.0088 0.000493704 1.70432e-027)
(1.0079 0.000490344 0)
(1.00701 0.000486384 0)
(1.00613 0.000481814 0)
(1.00525 0.000476723 0)
(1.00439 0.000471311 0)
(1.00353 0.000465954 0)
(1.00269 0.000461178 1.7917e-027)
(1.00185 0.000457639 0)
(1.00072 0.00078971 6.98163e-028)
(1.09561 0.00113007 0)
(1.0951 0.000385895 1.42865e-026)
(1.09476 0.000621623 0)
(1.09426 0.000829561 0)
(1.09364 0.00100571 0)
(1.09291 0.00115005 0)
(1.0921 0.00126517 0)
(1.09122 0.00135502 4.60259e-027)
(1.09029 0.00142395 3.90307e-027)
(1.08933 0.00147607 0)
(1.08834 0.00151502 2.96665e-027)
(1.08732 0.00154381 0)
(1.0863 0.00156488 0)
(1.08526 0.00158014 0)
(1.08421 0.00159108 0)
(1.08317 0.00159884 0)
(1.08211 0.00160427 0)
(1.08106 0.00160793 0)
(1.08 0.00161017 0)
(1.07895 0.00161137 0)
(1.07789 0.00161168 0)
(1.07683 0.00161138 0)
(1.07578 0.00161072 0)
(1.07473 0.00160986 0)
(1.07368 0.00160886 0)
(1.07263 0.00160772 0)
(1.07159 0.0016065 0)
(1.07054 0.00160519 0)
(1.0695 0.00160382 0)
(1.06847 0.00160239 0)
(1.06743 0.00160094 0)
(1.06639 0.00159945 0)
(1.06536 0.00159795 0)
(1.06433 0.00159643 0)
(1.0633 0.00159491 0)
(1.06227 0.00159338 0)
(1.06125 0.00159185 0)
(1.06022 0.00159032 0)
(1.0592 0.0015888 0)
(1.05818 0.00158727 0)
(1.05717 0.00158575 0)
(1.05615 0.00158422 0)
(1.05514 0.00158271 0)
(1.05413 0.00158118 0)
(1.05312 0.00157967 0)
(1.05211 0.00157815 0)
(1.0511 0.00157664 0)
(1.0501 0.00157513 1.73746e-027)
(1.0491 0.00157362 0)
(1.0481 0.00157212 0)
(1.0471 0.00157062 0)
(1.04611 0.00156911 0)
(1.04511 0.00156762 0)
(1.04412 0.00156612 0)
(1.04313 0.00156463 1.72639e-027)
(1.04214 0.00156314 0)
(1.04116 0.00156165 1.72329e-027)
(1.04017 0.00156017 0)
(1.03919 0.00155869 0)
(1.03821 0.0015572 0)
(1.03723 0.00155573 0)
(1.03626 0.00155425 0)
(1.03528 0.00155278 0)
(1.03431 0.00155131 1.71264e-027)
(1.03334 0.00154984 0)
(1.03237 0.00154837 1.7097e-027)
(1.0314 0.00154691 0)
(1.03044 0.00154544 0)
(1.02947 0.00154397 0)
(1.02851 0.0015425 0)
(1.02755 0.00154103 0)
(1.02659 0.00153955 0)
(1.02564 0.00153806 1.70074e-027)
(1.02468 0.00153655 0)
(1.02373 0.00153503 1.69923e-027)
(1.02278 0.00153348 0)
(1.02183 0.0015319 0)
(1.02088 0.00153026 0)
(1.01994 0.00152856 0)
(1.019 0.00152678 0)
(1.01806 0.00152487 0)
(1.01712 0.00152281 1.7111e-027)
(1.01618 0.00152055 0)
(1.01525 0.00151801 0)
(1.01432 0.00151511 0)
(1.01339 0.00151175 0)
(1.01246 0.0015078 0)
(1.01154 0.00150307 0)
(1.01062 0.00149739 1.85599e-027)
(1.00971 0.0014905 0)
(1.0088 0.00148217 1.97685e-027)
(1.00789 0.00147216 0)
(1.007 0.00146027 0)
(1.00611 0.00144647 0)
(1.00524 0.00143094 0)
(1.00437 0.00141427 0)
(1.00352 0.00139755 0)
(1.00268 0.00138244 2.86555e-027)
(1.00184 0.00137102 0)
(1.00071 0.0023665 -6.93482e-027)
(1.09596 0.00189123 0)
(1.09543 0.000664879 4.47922e-026)
(1.09506 0.00106737 0)
(1.09452 0.00141839 0)
(1.09385 0.00171204 0)
(1.09308 0.00194971 -1.75963e-026)
(1.09224 0.00213715 0)
(1.09133 0.00228204 -6.57659e-028)
(1.09037 0.00239226 -1.39969e-027)
(1.08939 0.00247505 0)
(1.08838 0.00253655 -2.38092e-027)
(1.08735 0.00258179 0)
(1.08632 0.00261473 8.52621e-027)
(1.08527 0.00263846 8.17071e-027)
(1.08422 0.00265534 0)
(1.08317 0.00266715 7.7075e-027)
(1.08212 0.00267524 7.55854e-027)
(1.08106 0.00268056 0)
(1.08 0.00268375 7.36206e-027)
(1.07895 0.00268535 7.29888e-027)
(1.07789 0.00268583 0)
(1.07683 0.00268549 7.21297e-027)
(1.07578 0.00268459 7.1831e-027)
(1.07472 0.00268322 0)
(1.07368 0.00268156 7.1397e-027)
(1.07263 0.00267963 7.1237e-027)
(1.07158 0.00267756 0)
(1.07054 0.0026753 7.09808e-027)
(1.0695 0.00267299 -7.08737e-027)
(1.06846 0.00267057 7.07821e-027)
(1.06742 0.00266813 7.06927e-027)
(1.06639 0.00266562 0)
(1.06536 0.00266313 7.05331e-027)
(1.06432 0.00266059 7.04601e-027)
(1.0633 0.00265808 -7.03837e-027)
(1.06227 0.00265553 7.03135e-027)
(1.06124 0.00265301 7.02392e-027)
(1.06022 0.00265046 0)
(1.0592 0.00264795 7.00978e-027)
(1.05818 0.0026454 7.00305e-027)
(1.05716 0.00264289 -6.99588e-027)
(1.05615 0.00264034 0)
(1.05513 0.00263784 0)
(1.05412 0.0026353 0)
(1.05311 0.0026328 0)
(1.05211 0.00263027 0)
(1.0511 0.00262777 -6.9553e-027)
(1.0501 0.00262525 -3.47449e-027)
(1.0491 0.00262276 0)
(1.0481 0.00262024 0)
(1.0471 0.00261777 0)
(1.0461 0.00261526 0)
(1.04511 0.00261279 0)
(1.04412 0.00261029 0)
(1.04313 0.00260783 -3.45149e-027)
(1.04214 0.00260534 0)
(1.04115 0.00260289 -3.44493e-027)
(1.04017 0.00260041 0)
(1.03919 0.00259797 0)
(1.03821 0.0025955 0)
(1.03723 0.00259307 0)
(1.03625 0.00259061 0)
(1.03528 0.00258818 0)
(1.0343 0.00258573 -3.42198e-027)
(1.03333 0.0025833 0)
(1.03236 0.00258086 -3.41543e-027)
(1.0314 0.00257844 0)
(1.03043 0.00257599 0)
(1.02947 0.00257357 0)
(1.02851 0.00257112 0)
(1.02755 0.00256869 0)
(1.02659 0.00256623 0)
(1.02563 0.00256377 -3.39146e-027)
(1.02468 0.00256127 0)
(1.02373 0.00255876 -3.38356e-027)
(1.02278 0.00255619 0)
(1.02183 0.00255359 0)
(1.02088 0.00255089 0)
(1.01994 0.0025481 0)
(1.01899 0.00254516 0)
(1.01805 0.00254205 0)
(1.01711 0.00253868 -3.33822e-027)
(1.01618 0.00253501 0)
(1.01524 0.00253088 0)
(1.01431 0.00252621 0)
(1.01338 0.00252079 0)
(1.01245 0.00251442 0)
(1.01153 0.00250681 0)
(1.01061 0.00249763 -3.15266e-027)
(1.00969 0.00248648 0)
(1.00878 0.00247292 -3.01328e-027)
(1.00788 0.00245646 0)
(1.00698 0.00243672 0)
(1.00609 0.00241344 0)
(1.00521 0.00238678 0)
(1.00435 0.00235752 0)
(1.00349 0.00232745 0)
(1.00266 0.0022995 -1.94676e-027)
(1.00183 0.00227769 0)
(1.00071 0.00393481 -1.27941e-026)
(1.0965 0.00266588 0)
(1.09595 0.000981131 7.55622e-026)
(1.09551 0.00156566 0)
(1.09491 0.00206568 0)
(1.09417 0.0024754 0)
(1.09334 0.00280056 -6.34548e-027)
(1.09243 0.00305256 0)
(1.09147 0.00324447 1.48418e-026)
(1.09048 0.00338867 1.2881e-026)
(1.08947 0.00349587 0)
(1.08844 0.00357482 1.03091e-026)
(1.0874 0.00363245 0)
(1.08635 0.00367414 -5.49366e-027)
(1.08529 0.00370395 -5.93006e-027)
(1.08424 0.00372497 0)
(1.08318 0.00373951 -6.48465e-027)
(1.08212 0.00374929 -6.65607e-027)
(1.08106 0.00375556 0)
(1.08 0.00375923 -6.8718e-027)
(1.07894 0.00376093 -6.93635e-027)
(1.07788 0.00376127 0)
(1.07683 0.00376052 -7.01493e-027)
(1.07577 0.00375907 -7.03766e-027)
(1.07472 0.00375699 0)
(1.07367 0.00375455 -7.06137e-027)
(1.07262 0.00375174 -7.06565e-027)
(1.07158 0.00374876 0)
(1.07053 0.00374553 -7.06647e-027)
(1.06949 0.00374226 7.06445e-027)
(1.06845 0.00373882 -7.06022e-027)
(1.06742 0.0037354 -7.05609e-027)
(1.06638 0.00373186 0)
(1.06535 0.00372838 -7.04529e-027)
(1.06432 0.0037248 -7.03894e-027)
(1.06329 0.0037213 7.0334e-027)
(1.06226 0.00371771 -7.02676e-027)
(1.06124 0.00371421 -7.02103e-027)
(1.06021 0.00371062 0)
(1.05919 0.00370712 -7.00837e-027)
(1.05817 0.00370354 -7.00147e-027)
(1.05716 0.00370004 6.99552e-027)
(1.05614 0.00369646 0)
(1.05513 0.00369297 0)
(1.05412 0.0036894 0)
(1.05311 0.00368591 0)
(1.0521 0.00368236 0)
(1.05109 0.00367888 6.95619e-027)
(1.05009 0.00367533 6.94865e-027)
(1.04909 0.00367187 0)
(1.04809 0.00366834 0)
(1.04709 0.00366488 0)
(1.0461 0.00366136 0)
(1.0451 0.00365792 0)
(1.04411 0.00365442 0)
(1.04312 0.00365099 6.90196e-027)
(1.04213 0.00364749 0)
(1.04115 0.00364408 6.88889e-027)
(1.04016 0.0036406 0)
(1.03918 0.00363719 0)
(1.0382 0.00363373 0)
(1.03722 0.00363034 0)
(1.03625 0.00362688 0)
(1.03527 0.0036235 0)
(1.0343 0.00362006 6.84416e-027)
(1.03333 0.00361668 0)
(1.03236 0.00361325 6.83156e-027)
(1.03139 0.00360988 0)
(1.03043 0.00360645 0)
(1.02946 0.00360308 0)
(1.0285 0.00359965 0)
(1.02754 0.00359626 0)
(1.02658 0.00359282 0)
(1.02563 0.0035894 6.7909e-027)
(1.02467 0.00358591 0)
(1.02372 0.00358243 6.78224e-027)
(1.02277 0.00357885 0)
(1.02182 0.00357524 0)
(1.02087 0.0035715 0)
(1.01993 0.00356767 0)
(1.01899 0.00356362 0)
(1.01804 0.00355938 0)
(1.01711 0.00355479 6.79773e-027)
(1.01617 0.00354982 0)
(1.01523 0.00354428 0)
(1.0143 0.00353803 0)
(1.01337 0.0035308 0)
(1.01244 0.00352234 0)
(1.01151 0.00351224 0)
(1.01059 0.00350005 7.17747e-027)
(1.00967 0.00348516 0)
(1.00876 0.00346692 7.51895e-027)
(1.00785 0.00344451 0)
(1.00695 0.00341718 0)
(1.00605 0.00338424 0)
(1.00517 0.00334549 0)
(1.0043 0.00330153 0)
(1.00345 0.00325454 0)
(1.00262 0.00320892 1.06084e-026)
(1.0018 0.00317158 0)
(1.0007 0.00548686 -1.96413e-026)
(1.09728 0.00346401 0)
(1.09666 0.00136084 4.0046e-026)
(1.09614 0.00215012 0)
(1.09543 0.00280481 0)
(1.09459 0.00332477 0)
(1.09366 0.00372585 0)
(1.09268 0.0040292 -3.79618e-026)
(1.09166 0.00425559 -3.03652e-026)
(1.09062 0.0044229 -2.80685e-026)
(1.08957 0.00454559 -2.38821e-026)
(1.08851 0.00463494 1.76594e-026)
(1.08745 0.00469952 -1.9527e-026)
(1.08638 0.00474579 -1.81614e-026)
(1.08532 0.00477855 -1.71533e-026)
(1.08425 0.00480138 0)
(1.08319 0.00481692 0)
(1.08213 0.00482712 -1.54452e-026)
(1.08106 0.0048334 0)
(1.08 0.00483681 -1.49074e-026)
(1.07894 0.00483808 0)
(1.07788 0.0048378 0)
(1.07682 0.00483636 -1.44986e-026)
(1.07577 0.0048341 -1.44187e-026)
(1.07471 0.00483118 0)
(1.07366 0.00482782 0)
(1.07261 0.00482408 -1.42669e-026)
(1.07157 0.0048201 -1.42338e-026)
(1.07053 0.00481591 -1.42068e-026)
(1.06949 0.0048116 0)
(1.06845 0.00480717 0)
(1.06741 0.0048027 -1.41438e-026)
(1.06637 0.00479817 -1.41268e-026)
(1.06534 0.00479363 -1.41101e-026)
(1.06431 0.00478906 -1.40947e-026)
(1.06328 0.00478451 0)
(1.06225 0.00477993 -1.40642e-026)
(1.06123 0.00477538 -1.4049e-026)
(1.0602 0.0047708 -1.40347e-026)
(1.05918 0.00476625 -1.40199e-026)
(1.05816 0.00476169 0)
(1.05715 0.00475715 0)
(1.05613 0.00475259 -1.39778e-026)
(1.05512 0.00474806 -1.39637e-026)
(1.05411 0.00474351 -1.39503e-026)
(1.0531 0.00473899 0)
(1.05209 0.00473445 -1.39231e-026)
(1.05109 0.00472995 0)
(1.05008 0.00472542 -2.08457e-026)
(1.04908 0.00472093 0)
(1.04808 0.00471643 -1.38695e-026)
(1.04708 0.00471195 -1.38559e-026)
(1.04609 0.00470746 -1.3843e-026)
(1.0451 0.00470301 -1.38295e-026)
(1.0441 0.00469853 0)
(1.04311 0.00469409 -2.07069e-026)
(1.04213 0.00468964 -1.37903e-026)
(1.04114 0.00468521 -6.89078e-027)
(1.04016 0.00468078 -1.37641e-026)
(1.03917 0.00467637 0)
(1.03819 0.00467195 -1.37381e-026)
(1.03721 0.00466756 -1.37248e-026)
(1.03624 0.00466315 -1.37122e-026)
(1.03526 0.00465877 -1.36991e-026)
(1.03429 0.00465438 -6.84529e-027)
(1.03332 0.00465002 -1.36736e-026)
(1.03235 0.00464564 -2.04936e-026)
(1.03138 0.00464128 -1.36487e-026)
(1.03042 0.0046369 -1.36367e-026)
(1.02945 0.00463255 1.36245e-026)
(1.02849 0.00462817 -1.36131e-026)
(1.02753 0.0046238 -1.36017e-026)
(1.02657 0.00461941 -1.35912e-026)
(1.02562 0.00461501 -2.03644e-026)
(1.02466 0.00461057 0)
(1.02371 0.0046061 -2.03309e-026)
(1.02276 0.00460156 -1.35588e-026)
(1.02181 0.00459696 -1.35551e-026)
(1.02087 0.00459224 -1.35547e-026)
(1.01992 0.00458739 0)
(1.01898 0.00458233 -1.3567e-026)
(1.01803 0.00457702 -1.35829e-026)
(1.0171 0.00457136 -6.65677e-027)
(1.01616 0.00456523 0)
(1.01522 0.00455848 -1.37012e-026)
(1.01429 0.00455091 -1.37779e-026)
(1.01335 0.00454224 -1.38841e-026)
(1.01242 0.00453213 -1.40286e-026)
(1.0115 0.0045201 0)
(1.01057 0.00450558 -2.06177e-026)
(1.00965 0.00448778 -1.48352e-026)
(1.00873 0.00446576 -2.09985e-026)
(1.00782 0.00443835 -1.59009e-026)
(1.00691 0.0044042 0)
(1.00601 0.00436189 0)
(1.00511 0.00431026 -1.89339e-026)
(1.00424 0.00424899 -2.04399e-026)
(1.00339 0.00417979 -2.21585e-026)
(1.00256 0.00410814 -1.29581e-027)
(1.00176 0.00404511 -2.55084e-026)
(1.00068 0.00701061 1.33207e-026)
(1.09833 0.00430306 0)
(1.09763 0.00184777 1.25411e-025)
(1.09695 0.00287154 0)
(1.09608 0.00368077 0)
(1.09509 0.00429488 0)
(1.09404 0.00475042 -4.80097e-026)
(1.09295 0.00508414 -1.00751e-026)
(1.09186 0.00532688 -3.50524e-027)
(1.09077 0.00550265 1.29204e-027)
(1.08967 0.00562942 4.79228e-027)
(1.08859 0.00572045 -7.3459e-027)
(1.0875 0.00578541 9.20909e-027)
(1.08642 0.00583137 2.87568e-026)
(1.08534 0.00586345 2.87283e-026)
(1.08427 0.00588541 0)
(1.0832 0.00589997 1.58608e-026)
(1.08213 0.00590913 2.86433e-026)
(1.08106 0.00591435 0)
(1.08 0.00591668 2.85869e-026)
(1.07893 0.00591688 1.47362e-026)
(1.07787 0.00591553 0)
(1.07681 0.00591303 2.85026e-026)
(1.07576 0.00590972 2.84746e-026)
(1.0747 0.0059058 0)
(1.07365 0.0059014 1.43071e-026)
(1.07261 0.00589665 2.83912e-026)
(1.07156 0.00589162 1.413e-026)
(1.07052 0.00588641 2.83359e-026)
(1.06948 0.00588104 -1.41826e-026)
(1.06844 0.00587558 1.41619e-026)
(1.0674 0.00587005 2.82534e-026)
(1.06636 0.0058645 1.40998e-026)
(1.06533 0.00585891 2.81986e-026)
(1.0643 0.00585332 2.81713e-026)
(1.06327 0.00584772 -1.4079e-026)
(1.06224 0.00584213 2.81169e-026)
(1.06122 0.00583654 2.80898e-026)
(1.06019 0.00583096 1.40285e-026)
(1.05917 0.00582538 2.80357e-026)
(1.05815 0.00581981 1.40053e-026)
(1.05714 0.00581424 -1.39913e-026)
(1.05612 0.00580868 1.39778e-026)
(1.05511 0.00580312 1.39647e-026)
(1.0541 0.00579758 1.39519e-026)
(1.05309 0.00579204 0)
(1.05208 0.00578651 1.39258e-026)
(1.05108 0.00578098 -1.39088e-026)
(1.05007 0.00577548 1.38996e-026)
(1.04907 0.00576997 0)
(1.04807 0.00576448 1.38734e-026)
(1.04707 0.005759 1.38601e-026)
(1.04608 0.00575353 1.38472e-026)
(1.04508 0.00574806 1.3834e-026)
(1.04409 0.00574262 0)
(1.0431 0.00573717 1.3808e-026)
(1.04212 0.00573175 1.37952e-026)
(1.04113 0.00572633 0)
(1.04014 0.00572092 1.37693e-026)
(1.03916 0.00571552 0)
(1.03818 0.00571014 1.37435e-026)
(1.0372 0.00570475 1.37305e-026)
(1.03623 0.00569939 1.37178e-026)
(1.03525 0.00569402 1.37047e-026)
(1.03428 0.00568867 0)
(1.03331 0.00568332 1.36788e-026)
(1.03234 0.00567799 1.36659e-026)
(1.03137 0.00567265 1.36526e-026)
(1.03041 0.00566733 1.36395e-026)
(1.02944 0.005662 -1.36259e-026)
(1.02848 0.00565667 1.36122e-026)
(1.02752 0.00565134 1.35979e-026)
(1.02656 0.00564599 1.35834e-026)
(1.02561 0.00564063 1.35679e-026)
(1.02465 0.00563525 0)
(1.0237 0.00562982 1.35341e-026)
(1.02275 0.00562434 1.35149e-026)
(1.0218 0.00561878 1.34933e-026)
(1.02085 0.00561312 1.34689e-026)
(1.01991 0.00560731 0)
(1.01897 0.00560131 1.34064e-026)
(1.01802 0.00559505 1.33652e-026)
(1.01708 0.00558844 0)
(1.01614 0.00558135 0)
(1.01521 0.00557363 1.3171e-026)
(1.01427 0.00556506 1.30679e-026)
(1.01334 0.00555536 1.29347e-026)
(1.01241 0.00554414 1.27611e-026)
(1.01148 0.0055309 0)
(1.01055 0.00551495 1.22343e-026)
(1.00962 0.00549537 1.18389e-026)
(1.0087 0.00547097 1.13154e-026)
(1.00777 0.00544015 1.06216e-026)
(1.00686 0.00540086 0)
(1.00594 0.00535057 0)
(1.00504 0.0052864 6.91384e-027)
(1.00415 0.00520571 4.89568e-027)
(1.00329 0.00510767 2.41468e-027)
(1.00246 0.00499658 0)
(1.00169 0.00488781 -3.19258e-027)
(1.00065 0.00848451 9.21464e-026)
(1.09976 0.00521716 0)
(1.09889 0.00252269 -2.9086e-026)
(1.09797 0.00381075 0)
(1.09685 0.00475445 7.73817e-026)
(1.09565 0.00542563 5.93943e-026)
(1.09444 0.00589851 2.89688e-026)
(1.09324 0.0062314 3.76205e-026)
(1.09207 0.00646626 3.11862e-026)
(1.09091 0.0066323 2.65774e-026)
(1.08978 0.00674974 2.32583e-026)
(1.08866 0.00683264 2.08564e-026)
(1.08755 0.00689083 1.91108e-026)
(1.08645 0.00693126 6.91738e-027)
(1.08536 0.00695885 5.08162e-027)
(1.08428 0.00697716 0)
(1.0832 0.0069887 2.75824e-027)
(1.08213 0.00699534 2.03787e-027)
(1.08106 0.00699839 0)
(1.07999 0.00699881 1.11882e-027)
(1.07893 0.00699731 8.31765e-028)
(1.07786 0.00699441 0)
(1.0768 0.0069905 4.61758e-028)
(1.07575 0.00698588 -1.40659e-026)
(1.07469 0.00698079 0)
(1.07364 0.00697524 1.81272e-028)
(1.07259 0.0069694 1.29595e-028)
(1.07155 0.00696327 1.42288e-026)
(1.0705 0.00695699 6.78761e-029)
(1.06946 0.00695053 1.41282e-026)
(1.06842 0.00694403 3.7969e-029)
(1.06739 0.00693743 3.07129e-029)
(1.06635 0.00693084 1.41244e-026)
(1.06532 0.00692418 2.00847e-029)
(1.06429 0.00691757 1.52158e-029)
(1.06326 0.00691092 1.40651e-026)
(1.06223 0.00690431 9.50908e-030)
(1.0612 0.00689767 8.3766e-030)
(1.06018 0.00689109 1.40336e-026)
(1.05916 0.00688446 4.30553e-030)
(1.05814 0.00687789 1.35724e-030)
(1.05712 0.00687128 1.39901e-026)
(1.05611 0.00686473 1.39765e-026)
(1.0551 0.00685814 1.39632e-026)
(1.05408 0.00685161 1.39488e-026)
(1.05308 0.00684504 1.39357e-026)
(1.05207 0.00683853 0)
(1.05106 0.00683198 1.39124e-026)
(1.05006 0.00682549 1.38943e-026)
(1.04906 0.00681897 1.38815e-026)
(1.04806 0.0068125 1.38675e-026)
(1.04706 0.006806 1.38547e-026)
(1.04607 0.00679956 1.38408e-026)
(1.04507 0.00679308 1.3828e-026)
(1.04408 0.00678667 1.38142e-026)
(1.04309 0.00678022 1.38015e-026)
(1.0421 0.00677382 1.37876e-026)
(1.04112 0.0067674 0)
(1.04013 0.00676103 1.37612e-026)
(1.03915 0.00675463 1.37486e-026)
(1.03817 0.00674828 1.3735e-026)
(1.03719 0.00674191 1.37224e-026)
(1.03622 0.00673559 1.37089e-026)
(1.03524 0.00672924 1.36964e-026)
(1.03427 0.00672293 1.3683e-026)
(1.0333 0.0067166 1.36707e-026)
(1.03233 0.00671032 1.36575e-026)
(1.03136 0.006704 1.36454e-026)
(1.0304 0.00669773 0)
(1.02943 0.00669143 0)
(1.02847 0.00668516 0)
(1.02751 0.00667886 1.35975e-026)
(1.02655 0.00667258 0)
(1.0256 0.00666626 1.35763e-026)
(1.02464 0.00665995 0)
(1.02369 0.00665358 1.35587e-026)
(1.02274 0.00664718 0)
(1.02179 0.0066407 1.35476e-026)
(1.02084 0.00663415 0)
(1.0199 0.00662744 1.35478e-026)
(1.01895 0.00662058 0)
(1.01801 0.00661347 1.35681e-026)
(1.01707 0.00660605 0)
(1.01613 0.00659819 1.36243e-026)
(1.01519 0.00658976 1.36737e-026)
(1.01426 0.00658053 1.37446e-026)
(1.01332 0.00657025 1.38433e-026)
(1.01239 0.00655853 1.39805e-026)
(1.01145 0.00654488 1.41688e-026)
(1.01052 0.00652858 1.44276e-026)
(1.00959 0.00650867 1.47819e-026)
(1.00866 0.00648378 0)
(1.00773 0.00645199 1.59372e-026)
(1.0068 0.00641058 1.6861e-026)
(1.00587 0.00635572 0)
(1.00495 0.00628212 0)
(1.00403 0.00618294 2.23741e-026)
(1.00315 0.00605069 0)
(1.00231 0.00588148 3.00336e-026)
(1.00155 0.00568766 0)
(1.0006 0.00986424 -7.5703e-026)
(1.10174 0.00627989 0)
(1.10054 0.00355028 2.91293e-026)
(1.09918 0.00509836 0)
(1.09768 0.00610334 4.18329e-026)
(1.09622 0.00675659 2.4271e-026)
(1.09483 0.00718796 1.25951e-026)
(1.09351 0.00747781 4.67873e-027)
(1.09225 0.00767534 2.73441e-026)
(1.09104 0.00781127 1.96672e-026)
(1.08986 0.00790521 -7.31021e-027)
(1.08871 0.00797006 1.03382e-026)
(1.08759 0.00801447 -1.0624e-026)
(1.08647 0.00804438 -1.16216e-026)
(1.08537 0.00806391 -1.23423e-026)
(1.08428 0.00807597 0)
(1.0832 0.00808264 -1.32407e-026)
(1.08212 0.00808537 -1.35126e-026)
(1.08105 0.00808523 0)
(1.07998 0.00808298 -1.38461e-026)
(1.07892 0.00807918 -1.39432e-026)
(1.07785 0.0080743 0)
(1.07679 0.00806866 -1.40583e-026)
(1.07573 0.00806251 0)
(1.07468 0.00805605 0)
(1.07363 0.00804928 -1.41316e-026)
(1.07258 0.00804226 -1.41399e-026)
(1.07153 0.008035 -1.41417e-026)
(1.07049 0.0080276 -1.4139e-026)
(1.06945 0.00802006 0)
(1.06841 0.00801246 -1.4124e-026)
(1.06737 0.00800481 -1.41135e-026)
(1.06634 0.00799714 -1.41023e-026)
(1.0653 0.00798945 -1.40902e-026)
(1.06427 0.00798177 -1.4078e-026)
(1.06324 0.00797409 0)
(1.06222 0.00796643 -1.4053e-026)
(1.06119 0.00795877 -1.40403e-026)
(1.06017 0.00795114 -1.40278e-026)
(1.05915 0.00794351 -1.4015e-026)
(1.05813 0.0079359 -1.40025e-026)
(1.05711 0.00792829 0)
(1.05609 0.00792071 -1.39769e-026)
(1.05508 0.00791312 -1.39639e-026)
(1.05407 0.00790556 -1.39511e-026)
(1.05306 0.007898 -1.39381e-026)
(1.05205 0.00789047 0)
(1.05105 0.00788294 0)
(1.05004 0.00787543 -4.78772e-030)
(1.04904 0.00786792 -1.38862e-026)
(1.04804 0.00786044 -1.38733e-026)
(1.04705 0.00785296 -1.38603e-026)
(1.04605 0.00784551 -1.38474e-026)
(1.04506 0.00783806 -1.38344e-026)
(1.04407 0.00783064 -1.38216e-026)
(1.04308 0.00782322 -8.23119e-030)
(1.04209 0.00781583 -1.3796e-026)
(1.0411 0.00780844 1.37738e-026)
(1.04012 0.00780107 -1.37704e-026)
(1.03914 0.00779371 -1.37576e-026)
(1.03816 0.00778637 -1.37449e-026)
(1.03718 0.00777904 -1.37322e-026)
(1.0362 0.00777173 -1.37195e-026)
(1.03523 0.00776442 -1.37068e-026)
(1.03425 0.00775713 -1.24729e-029)
(1.03328 0.00774986 -1.36813e-026)
(1.03231 0.00774259 -1.27552e-029)
(1.03135 0.00773533 -1.36557e-026)
(1.03038 0.00772809 0)
(1.02942 0.00772085 0)
(1.02846 0.00771361 0)
(1.0275 0.00770638 -1.36028e-026)
(1.02654 0.00769915 0)
(1.02558 0.00769191 -2.74224e-030)
(1.02463 0.00768466 0)
(1.02367 0.00767739 9.00516e-030)
(1.02272 0.00767008 0)
(1.02177 0.00766272 -1.35073e-026)
(1.02083 0.00765529 0)
(1.01988 0.00764777 -1.34623e-026)
(1.01894 0.00764011 0)
(1.01799 0.00763226 -1.34013e-026)
(1.01705 0.00762416 1.35593e-026)
(1.01611 0.00761571 -1.33117e-026)
(1.01518 0.00760679 -1.32495e-026)
(1.01424 0.00759724 -1.31703e-026)
(1.0133 0.00758682 -1.3068e-026)
(1.01237 0.00757522 -1.29343e-026)
(1.01143 0.00756199 -1.27575e-026)
(1.0105 0.00754652 1.70436e-027)
(1.00956 0.00752789 -1.22017e-026)
(1.00862 0.00750481 1.49327e-026)
(1.00768 0.0074753 -1.11576e-026)
(1.00674 0.00743635 -1.03015e-026)
(1.00579 0.00738322 0)
(1.00484 0.00730836 0)
(1.00388 0.00719953 -4.56149e-027)
(1.00294 0.00703745 0)
(1.00205 0.00679464 3.81552e-026)
(1.00129 0.0064461 0)
(1.00047 0.0110438 -1.87416e-025)
(1.10459 0.00766356 0)
(1.10269 0.00530455 9.30903e-026)
(1.1005 0.00693264 0)
(1.09849 0.00780548 0)
(1.09672 0.00831019 -4.12979e-026)
(1.09514 0.00861945 0)
(1.09371 0.0088169 0)
(1.09238 0.00894638 -5.48716e-027)
(1.09113 0.00903254 -8.03412e-027)
(1.08992 0.00909008 0)
(1.08875 0.0091282 -1.10694e-026)
(1.08761 0.00915287 0)
(1.08648 0.00916812 -1.61522e-026)
(1.08538 0.00917666 0)
(1.08428 0.00918041 0)
(1.08319 0.00918069 0)
(1.08211 0.00917843 0)
(1.08104 0.00917427 0)
(1.07997 0.00916868 0)
(1.0789 0.00916206 0)
(1.07784 0.00915484 0)
(1.07678 0.00914729 0)
(1.07572 0.00913949 0)
(1.07466 0.00913155 0)
(1.07361 0.00912345 0)
(1.07256 0.00911518 -1.42371e-026)
(1.07152 0.00910676 0)
(1.07047 0.0090982 0)
(1.06943 0.00908957 -1.41689e-026)
(1.06839 0.00908087 0)
(1.06735 0.00907214 0)
(1.06632 0.00906339 0)
(1.06529 0.00905466 0)
(1.06425 0.00904591 -1.40914e-026)
(1.06323 0.0090372 -1.40769e-026)
(1.0622 0.00902848 0)
(1.06117 0.00901981 0)
(1.06015 0.00901113 0)
(1.05913 0.00900248 0)
(1.05811 0.00899384 0)
(1.05709 0.00898523 -1.39915e-026)
(1.05608 0.00897661 -1.39778e-026)
(1.05506 0.00896803 0)
(1.05405 0.00895944 0)
(1.05304 0.0089509 0)
(1.05204 0.00894234 0)
(1.05103 0.00893382 -1.39083e-026)
(1.05003 0.0089253 -1.3898e-026)
(1.04903 0.00891681 0)
(1.04803 0.00890832 -1.38678e-026)
(1.04703 0.00889986 0)
(1.04603 0.0088914 0)
(1.04504 0.00888298 0)
(1.04405 0.00887455 0)
(1.04306 0.00886617 -2.76085e-026)
(1.04207 0.00885777 0)
(1.04109 0.00884942 -2.75563e-026)
(1.0401 0.00884105 0)
(1.03912 0.00883273 0)
(1.03814 0.0088244 0)
(1.03716 0.00881611 0)
(1.03618 0.00880781 0)
(1.03521 0.00879956 -1.3693e-026)
(1.03424 0.00879129 -1.36949e-026)
(1.03327 0.00878306 0)
(1.0323 0.00877482 -1.36697e-026)
(1.03133 0.00876662 0)
(1.03036 0.0087584 0)
(1.0294 0.00875023 -1.36149e-026)
(1.02844 0.00874204 0)
(1.02748 0.00873388 -1.359e-026)
(1.02652 0.0087257 0)
(1.02557 0.00871755 -1.35793e-026)
(1.02461 0.00870937 0)
(1.02366 0.00870121 -1.35507e-026)
(1.02271 0.00869301 0)
(1.02176 0.00868481 0)
(1.02081 0.00867654 0)
(1.01986 0.00866824 -1.35133e-026)
(1.01892 0.00865984 0)
(1.01798 0.00865134 0)
(1.01704 0.00864266 -1.3403e-026)
(1.0161 0.00863378 0)
(1.01516 0.00862457 0)
(1.01422 0.00861498 0)
(1.01328 0.00860479 0)
(1.01234 0.00859384 -1.36913e-026)
(1.01141 0.00858178 0)
(1.01047 0.00856821 -1.2823e-026)
(1.00953 0.00855245 0)
(1.00859 0.00853355 -1.23043e-026)
(1.00764 0.00850993 -1.47908e-026)
(1.00668 0.00847913 0)
(1.00571 0.00843683 -1.62673e-026)
(1.00473 0.00837535 0)
(1.00372 0.00827993 0)
(1.00269 0.0081207 0)
(1.00164 0.00783304 4.76703e-027)
(1.00071 0.00726913 0)
(1.00015 0.0117259 -2.64735e-026)
(1.10903 0.00979102 0)
(1.10543 0.00874884 0)
(1.10164 0.00951832 0)
(1.09903 0.00987285 0)
(1.09701 0.0100572 4.87461e-027)
(1.09531 0.0101614 0)
(1.09381 0.010223 -3.78545e-026)
(1.09244 0.0102601 -3.51665e-026)
(1.09116 0.010282 -3.33279e-026)
(1.08994 0.0102941 -3.20412e-026)
(1.08875 0.0102996 3.11248e-026)
(1.0876 0.0103006 -3.0463e-026)
(1.08648 0.0102985 -1.62109e-026)
(1.08537 0.0102941 -2.96208e-026)
(1.08427 0.0102882 0)
(1.08318 0.0102811 0)
(1.0821 0.0102732 -2.89964e-026)
(1.08102 0.0102647 0)
(1.07995 0.0102556 -2.8792e-026)
(1.07888 0.0102462 0)
(1.07782 0.0102366 0)
(1.07675 0.0102271 -2.86118e-026)
(1.0757 0.0102174 -2.85605e-026)
(1.07464 0.0102078 0)
(1.07359 0.0101982 0)
(1.07254 0.0101885 -1.42467e-026)
(1.0715 0.0101787 -2.83858e-026)
(1.07045 0.010169 -2.83508e-026)
(1.06941 0.0101591 1.41464e-026)
(1.06837 0.0101493 0)
(1.06733 0.0101395 -2.82592e-026)
(1.0663 0.0101297 -2.82307e-026)
(1.06527 0.0101199 -2.82029e-026)
(1.06423 0.0101101 -1.40936e-026)
(1.0632 0.0101003 1.40678e-026)
(1.06218 0.0100906 -2.81196e-026)
(1.06115 0.0100809 -2.80921e-026)
(1.06013 0.0100711 -2.80642e-026)
(1.05911 0.0100615 -2.80367e-026)
(1.05809 0.0100518 0)
(1.05707 0.0100421 1.39884e-026)
(1.05606 0.0100325 -1.39786e-026)
(1.05504 0.0100229 -2.79267e-026)
(1.05403 0.0100133 -2.78993e-026)
(1.05302 0.0100037 0)
(1.05202 0.00999416 -2.78449e-026)
(1.05101 0.00998462 1.39098e-026)
(1.05001 0.00997509 -2.77909e-026)
(1.04901 0.00996559 0)
(1.04801 0.0099561 -1.38665e-026)
(1.04701 0.00994663 -2.77104e-026)
(1.04601 0.00993718 -2.76836e-026)
(1.04502 0.00992775 -2.76569e-026)
(1.04403 0.00991834 0)
(1.04304 0.00990895 -1.37976e-026)
(1.04205 0.00989957 -2.7577e-026)
(1.04107 0.00989021 1.37803e-026)
(1.04008 0.00988087 -2.7524e-026)
(1.0391 0.00987155 0)
(1.03812 0.00986224 -2.74712e-026)
(1.03714 0.00985296 -2.74447e-026)
(1.03616 0.00984369 -2.74185e-026)
(1.03519 0.00983444 -1.36883e-026)
(1.03422 0.00982521 0)
(1.03325 0.00981599 -2.73399e-026)
(1.03228 0.00980679 -2.7314e-026)
(1.03131 0.00979761 -2.7288e-026)
(1.03034 0.00978845 -2.72623e-026)
(1.02938 0.0097793 4.08645e-026)
(1.02842 0.00977016 -2.7211e-026)
(1.02746 0.00976105 -1.35829e-026)
(1.0265 0.00975194 -2.71605e-026)
(1.02554 0.00974285 -2.71356e-026)
(1.02459 0.00973376 0)
(1.02364 0.00972469 -2.70871e-026)
(1.02269 0.00971562 -2.70638e-026)
(1.02174 0.00970656 -2.7041e-026)
(1.02079 0.00969749 -2.70196e-026)
(1.01984 0.00968842 1.34942e-026)
(1.0189 0.00967932 -2.6981e-026)
(1.01796 0.00967019 -2.69648e-026)
(1.01702 0.00966102 0)
(1.01608 0.00965178 0)
(1.01514 0.00964244 -2.69409e-026)
(1.0142 0.00963296 -2.69459e-026)
(1.01326 0.00962328 -2.69617e-026)
(1.01232 0.00961334 -1.36931e-026)
(1.01138 0.00960299 0)
(1.01044 0.00959211 -2.71216e-026)
(1.0095 0.00958042 -2.72417e-026)
(1.00856 0.00956755 -2.74215e-026)
(1.0076 0.0095529 -1.48686e-026)
(1.00664 0.00953545 0)
(1.00566 0.00951336 1.22408e-026)
(1.00464 0.00948312 -2.98211e-026)
(1.00358 0.00943733 -3.16838e-026)
(1.00243 0.00935899 -3.52204e-026)
(1.00109 0.00920479 0)
(0.999319 0.00885269 -6.03746e-026)
(0.999142 0.0109357 1.01431e-025)
)
;

boundaryField
{
    walls
    {
        type            fixedValue;