/*--------------------------------*- C++ -*----------------------------------*\
| =========                 |                                                 |
| \\      /  F ield         | OpenFOAM: The Open Source CFD Toolbox           |
|  \\    /   O peration     | Version:  5.x                                   |
|   \\  /    A nd           | Web:      www.OpenFOAM.org                      |
|    \\/     M anipulation  |                                                 |
\*---------------------------------------------------------------------------*/
/*   Windows 32 and 64 bit porting by blueCAPE: http://www.bluecape.com.pt   *\
|  Based on Windows porting (2.0.x v4) by Symscape: http://www.symscape.com   |
\*---------------------------------------------------------------------------*/
FoamFile
{
    version     2.0;
    format      ascii;
    class       volScalarField;
    location    "0.11";
    object      p;
}
// * * * * * * * * * * * * * * * * * * * * * * * * * * * * * * * * * * * * * //

dimensions      [0 2 -2 0 0 0 0];

internalField   nonuniform List<scalar> 
750
(
0.37291511
0.37304525
0.37276965
0.37256794
0.37225487
0.37191029
0.37152882
0.37112129
0.37069541
0.37025743
0.36980699
0.36934755
0.36888267
0.36840218
0.3679063
0.36739238
0.36682049
0.36620873
0.36546667
0.36448301
0.36347413
0.36081847
0.35966541
0.35052923
0.34634707
0.3729215
0.37304798
0.37277611
0.37257101
0.37225785
0.37191248
0.37153034
0.37112245
0.37069623
0.37025796
0.36980744
0.36934818
0.36888319
0.36840296
0.36790776
0.36739381
0.36682442
0.36621359
0.36547404
0.36450653
0.36347572
0.36091134
0.35962358
0.35073553
0.34646856
0.37293159
0.37305799
0.37278567
0.37257802
0.37226364
0.37191681
0.37153351
0.3711248
0.37069794
0.37025922
0.36980854
0.36934944
0.36888454
0.36840494
0.36791094
0.36739838
0.3668327
0.36622618
0.36549528
0.3645447
0.36352566
0.36103808
0.35973181
0.35097201
0.34705669
0.37294661
0.37307351
0.37279973
0.37258853
0.37227244
0.37192322
0.37153832
0.37112828
0.37070053
0.37026116
0.36981024
0.36935117
0.36888659
0.36840801
0.36791555
0.36740573
0.36684472
0.36624542
0.36552866
0.3645968
0.36361069
0.36118801
0.35995495
0.35126759
0.34788327
0.37296701
0.37309388
0.37281876
0.37260242
0.3722842
0.3719317
0.37154472
0.37113289
0.37070395
0.37026373
0.36981244
0.36935339
0.36888933
0.36841203
0.36792145
0.36741543
0.36686021
0.3662704
0.36557255
0.36466261
0.36373019
0.36136894
0.36025612
0.35167588
0.34889221
0.37299278
0.37311929
0.37284276
0.37261976
0.37229884
0.37194225
0.37155264
0.3711386
0.37070817
0.37026686
0.36981512
0.36935614
0.36889271
0.36841691
0.36792854
0.36742714
0.366879
0.3663005
0.36562513
0.36474541
0.36387727
0.36160144
0.36064775
0.35215289
0.35043696
0.37302382
0.37315017
0.37287164
0.37264057
0.37231635
0.37195484
0.37156204
0.37114536
0.37071316
0.37027056
0.36981827
0.36935936
0.36889663
0.36842256
0.3679368
0.36744064
0.3669009
0.3663357
0.36568526
0.36484512
0.36405182
0.36188108
0.36121233
0.35272319
0.35286846
0.37305991
0.37318699
0.3729053
0.37266486
0.37233665
0.37196943
0.37157289
0.37115316
0.37071891
0.37027479
0.36982184
0.36936304
0.36890108
0.36842901
0.36794636
0.36745592
0.36692577
0.36637535
0.36575275
0.36495921
0.36426799
0.36220835
0.36198898
0.35367855
0.35671009
0.37310146
0.37322909
0.37294414
0.37269264
0.37235953
0.37198604
0.37158509
0.37116196
0.37072538
0.37027946
0.36982578
0.36936721
0.36890606
0.36843612
0.36795718
0.36747287
0.36695323
0.36641877
0.3658283
0.36508282
0.36451915
0.36261968
0.36290055
0.35503662
0.36149058
0.3731512
0.37327279
0.3729901
0.37272385
0.37238476
0.37200464
0.37159848
0.37117166
0.37073238
0.37028447
0.36983006
0.36937169
0.36891123
0.36844346
0.36796857
0.36749051
0.36698284
0.36646463
0.36590765
0.36521571
0.36473753
0.36314725
0.36368728
0.3568692
0.3663787
0.3242823
0.3137233
0.29848468
0.28581093
0.2720899
0.25885284
0.24550118
0.23223984
0.21895956
0.20569222
0.1924213
0.17915091
0.16588044
0.15261002
0.13933958
0.12606914
0.1127987
0.099528269
0.086257834
0.072987395
0.059716958
0.046446525
0.033176092
0.01990565
0.0066352217
0.32406097
0.31359854
0.29832711
0.28576416
0.27204894
0.2588221
0.24549961
0.23223787
0.21896045
0.2056922
0.1924213
0.17915088
0.16588044
0.15261002
0.13933958
0.12606914
0.1127987
0.099528269
0.086257833
0.072987395
0.059716959
0.046446525
0.033176091
0.019905649
0.006635219
0.32349767
0.3136477
0.29796355
0.28563372
0.27202401
0.25880225
0.24549653
0.23223623
0.21896129
0.20569219
0.19242129
0.17915088
0.16588044
0.15261002
0.13933958
0.12606914
0.1127987
0.099528268
0.086257831
0.072987396
0.059716961
0.046446524
0.033176089
0.019905651
0.0066352172
0.32280327
0.31364802
0.29769497
0.28544373
0.27198205
0.25878932
0.24549301
0.23223517
0.21896225
0.20569225
0.19242128
0.17915088
0.16588044
0.15261002
0.13933958
0.12606915
0.11279871
0.099528267
0.086257831
0.072987397
0.059716961
0.046446523
0.033176088
0.019905652
0.0066352155
0.32227964
0.31347169
0.29759498
0.28526657
0.27191758
0.25877526
0.24548968
0.23223428
0.21896302
0.20569233
0.19242129
0.17915088
0.16588045
0.15261002
0.13933958
0.12606915
0.11279871
0.099528268
0.086257832
0.072987397
0.05971696
0.046446522
0.033176086
0.019905653
0.0066352135
0.32162766
0.31344552
0.29741549
0.28512701
0.27185536
0.25876166
0.24548695
0.23223416
0.21896342
0.20569241
0.1924213
0.17915089
0.16588045
0.15261003
0.13933958
0.12606915
0.11279871
0.099528268
0.086257832
0.072987396
0.059716959
0.046446523
0.033176084
0.019905652
0.0066352131
0.3205106
0.31353017
0.29711121
0.28503073
0.27180667
0.25875271
0.24548524
0.23223526
0.21896352
0.20569249
0.19242132
0.1791509
0.16588045
0.15261003
0.13933958
0.12606915
0.11279871
0.099528269
0.086257832
0.072987396
0.059716959
0.046446523
0.033176084
0.01990565
0.0066352144
0.31941798
0.31335894
0.29681279
0.28498128
0.2717736
0.25875002
0.24548533
0.23223715
0.21896356
0.20569253
0.19242133
0.17915092
0.16588046
0.15261003
0.13933958
0.12606915
0.11279871
0.099528269
0.086257832
0.072987396
0.059716959
0.046446523
0.033176084
0.019905648
0.0066352156
0.31785565
0.31309406
0.29663034
0.28495633
0.27175529
0.25875339
0.24548725
0.23223906
0.21896359
0.20569255
0.19242133
0.17915094
0.16588046
0.15261003
0.13933958
0.12606915
0.11279871
0.099528269
0.086257832
0.072987396
0.05971696
0.046446523
0.033176083
0.019905646
0.0066352164
0.3131902
0.31349495
0.29655295
0.28502595
0.27172645
0.25875982
0.24548582
0.23224019
0.21896325
0.20569261
0.19242131
0.17915095
0.16588046
0.15261003
0.13933958
0.12606915
0.11279871
0.099528269
0.086257832
0.072987396
0.059716959
0.046446523
0.033176085
0.019905651
0.0066352207
0.37327042
0.37336184
0.37309757
0.37279354
0.37243966
0.37204537
0.37162734
0.37119247
0.37074709
0.37029499
0.36983894
0.36938057
0.36892133
0.36845806
0.3679912
0.36752536
0.36704486
0.36655921
0.36606466
0.36550502
0.36507055
0.36429118
0.36488543
0.36187683
0.37917035
0.37348739
0.37358267
0.37328592
0.37293255
0.37254468
0.37212175
0.37168146
0.37123079
0.37077387
0.37031471
0.36985554
0.36939562
0.36893855
0.36848394
0.36802933
0.3675835
0.36714172
0.36670409
0.36629343
0.36586731
0.36554853
0.36515903
0.3652904
0.3634402
0.36911144
0.37376801
0.37388073
0.37351649
0.37310136
0.372668
0.37220896
0.37174183
0.37127234
0.3708024
0.37033555
0.36987192
0.36941017
0.36895408
0.36850694
0.36806602
0.36763722
0.36722835
0.3668366
0.36649576
0.36618173
0.36600029
0.36587769
0.36608144
0.36580273
0.36832237
0.37413304
0.37426347
0.37379261
0.37329527
0.37280322
0.37230153
0.37180403
0.37131363
0.37083041
0.37035466
0.36988532
0.36942208
0.36896693
0.36852353
0.36809438
0.36768024
0.36729594
0.366943
0.36665317
0.36642068
0.36631697
0.36632902
0.36658557
0.36701815
0.36780037
0.37462723
0.3747281
0.37410807
0.37350434
0.37294106
0.37239214
0.37186295
0.37135087
0.37085442
0.37036936
0.36989468
0.36942914
0.36897458
0.36853334
0.36810993
0.36770737
0.36733873
0.36701282
0.36675645
0.36657954
0.36652114
0.36660275
0.3669171
0.36760242
0.36773422
0.37534703
0.37524158
0.37444498
0.37371353
0.37306875
0.37247176
0.37191232
0.37138008
0.37087141
0.37037807
0.36989792
0.36942993
0.36897434
0.36853381
0.3681114
0.36771434
0.36735305
0.36703968
0.36679712
0.36664396
0.36660593
0.36671512
0.36701732
0.36776494
0.36765498
0.37646014
0.37575767
0.37477553
0.37390142
0.37317235
0.37253004
0.37194554
0.37139816
0.37087895
0.37037887
0.36989358
0.36942237
0.36896373
0.36852013
0.36809519
0.36769576
0.36733179
0.36701638
0.36676899
0.36661019
0.36656264
0.36666001
0.36691757
0.3676399
0.36747651
0.37837482
0.37612681
0.37502326
0.37401618
0.37322943
0.37255785
0.37195646
0.37140077
0.37087473
0.37036999
0.36988072
0.36940473
0.3689409
0.36849042
0.36805734
0.36764725
0.36726909
0.36693593
0.36666464
0.36647545
0.3663919
0.36644798
0.36665102
0.36731332
0.36718527
0.38217061
0.37607832
0.37521353
0.37404785
0.37322875
0.37254701
0.37193946
0.37138174
0.37085427
0.37034697
0.36985365
0.36937108
0.36889795
0.36843456
0.36798391
0.36755084
0.36714293
0.36677135
0.36645233
0.36620567
0.36605582
0.36604447
0.36619249
0.36679134
0.36674109
0.38362372
0.37494168
0.37559735
0.37410961
0.373286
0.37257546
0.37195627
0.37139121
0.37085964
0.37034994
0.36985525
0.36937186
0.36889831
0.36843456
0.36798343
0.36754937
0.36713973
0.36676524
0.36644193
0.36618731
0.36602535
0.36600018
0.36609221
0.36664398
0.3666089
)
;

boundaryField
{
    inlet
    {
        type            zeroGradient;
    }
    walls
    {
        type            zeroGradient;
    }
    outlet
    {
        type            fixedValue;
        value           uniform 0;
    }
    centreline
    {
        type            symmetryPlane;
    }
    frontAndBack
    {
        type            empty;
    }
}


// ************************************************************************* //
