/*--------------------------------*- C++ -*----------------------------------*\
| =========                 |                                                 |
| \\      /  F ield         | OpenFOAM: The Open Source CFD Toolbox           |
|  \\    /   O peration     | Version:  5.x                                   |
|   \\  /    A nd           | Web:      www.OpenFOAM.org                      |
|    \\/     M anipulation  |                                                 |
\*---------------------------------------------------------------------------*/
/*   Windows 32 and 64 bit porting by blueCAPE: http://www.bluecape.com.pt   *\
|  Based on Windows porting (2.0.x v4) by Symscape: http://www.symscape.com   |
\*---------------------------------------------------------------------------*/
FoamFile
{
    version     2.0;
    format      ascii;
    class       surfaceScalarField;
    location    "0.11";
    object      phi;
}
// * * * * * * * * * * * * * * * * * * * * * * * * * * * * * * * * * * * * * //

dimensions      [0 3 -1 0 0 0 0];

internalField   nonuniform List<scalar> 
1430
(
5.1006904e-006
-9.9410089e-008
5.2224587e-006
-1.2176826e-007
5.3375746e-006
-1.1511593e-007
5.4328025e-006
-9.5227849e-008
5.5119336e-006
-7.9131172e-008
5.5766645e-006
-6.4730804e-008
5.6304652e-006
-5.3800744e-008
5.6766359e-006
-4.6170705e-008
5.7186565e-006
-4.2020563e-008
5.7603925e-006
-4.1736036e-008
5.8060642e-006
-4.5671673e-008
5.8611723e-006
-5.5108119e-008
5.9323155e-006
-7.1143239e-008
6.0285585e-006
-9.6242959e-008
6.1631115e-006
-1.3455306e-007
6.354633e-006
-1.9152143e-007
6.6323755e-006
-2.7774256e-007
7.0402077e-006
-4.078322e-007
7.648986e-006
-6.0877828e-007
8.5979288e-006
-9.4894274e-007
1.0093048e-005
-1.4951192e-006
1.2530577e-005
-2.4375287e-006
1.6141292e-005
-3.6107155e-006
2.0915357e-005
-4.7740649e-006
-5.3436791e-006
2.6259036e-005
5.0999115e-006
-1.980413e-007
5.2238176e-006
-2.4567436e-007
5.3379936e-006
-2.2929191e-007
5.4337991e-006
-1.9103332e-007
5.5127148e-006
-1.5804681e-007
5.5773331e-006
-1.2934916e-007
5.6309311e-006
-1.0739872e-007
5.676879e-006
-9.2118644e-008
5.7186416e-006
-8.3783124e-008
5.7600945e-006
-8.3188967e-008
5.805422e-006
-9.0999186e-008
5.8600776e-006
-1.0976369e-007
5.9306344e-006
-1.4170004e-007
6.0260173e-006
-1.9162582e-007
6.159245e-006
-2.6778076e-007
6.3489165e-006
-3.8119292e-007
6.6234223e-006
-5.5224843e-007
7.0262402e-006
-8.1065003e-007
7.6276049e-006
-1.210143e-006
8.5610399e-006
-1.8823777e-006
1.0041296e-005
-2.9753752e-006
1.2415553e-005
-4.8117861e-006
1.5975692e-005
-7.1708544e-006
2.0584063e-005
-9.3824355e-006
-1.0652794e-005
2.5893177e-005
5.100373e-006
-2.9713399e-007
5.2247977e-006
-3.7009908e-007
5.3395497e-006
-3.4404385e-007
5.4355384e-006
-2.8702203e-007
5.5143343e-006
-2.3684271e-007
5.578675e-006
-1.9368985e-007
5.6318799e-006
-1.6060364e-007
5.6773897e-006
-1.3762843e-007
5.7186644e-006
-1.2505781e-007
5.7595462e-006
-1.2407081e-007
5.8041881e-006
-1.3564111e-007
5.8579808e-006
-1.6355635e-007
5.9273357e-006
-2.1105501e-007
6.0210069e-006
-2.8529701e-007
6.1517254e-006
-3.984992e-007
6.3375056e-006
-5.6697317e-007
6.6059101e-006
-8.2065293e-007
6.9988649e-006
-1.2036049e-006
7.5843013e-006
-1.7955794e-006
8.4921975e-006
-2.7902739e-006
9.9262482e-006
-4.4094259e-006
1.2218365e-005
-7.1039027e-006
1.5614002e-005
-1.0566492e-005
2.0015774e-005
-1.3784207e-005
-1.5717823e-005
2.5080803e-005
5.1011196e-006
-3.9697323e-007
5.2263935e-006
-4.9537297e-007
5.341959e-006
-4.5960943e-007
5.4381928e-006
-3.8325577e-007
5.5168089e-006
-3.1545885e-007
5.5807184e-006
-2.5759932e-007
5.6333373e-006
-2.132226e-007
5.678184e-006
-1.8247505e-007
5.7187294e-006
-1.6560325e-007
5.7587699e-006
-1.6411135e-007
5.802392e-006
-1.7926318e-007
5.8548836e-006
-2.1604797e-007
5.9224621e-006
-2.7863345e-007
6.0135894e-006
-3.7642432e-007
6.1405706e-006
-5.2548045e-007
6.3206279e-006
-7.470305e-007
6.5799838e-006
-1.0800088e-006
6.9584911e-006
-1.5821122e-006
7.5202591e-006
-2.3573474e-006
8.3894107e-006
-3.6594255e-006
9.7577435e-006
-5.7777587e-006
1.1928515e-005
-9.2746743e-006
1.5096125e-005
-1.3734102e-005
1.9197561e-005
-1.7885643e-005
-2.0412542e-005
2.3892279e-005
5.1022581e-006
-4.9795098e-007
5.2286621e-006
-6.2177698e-007
5.345285e-006
-5.7623236e-007
5.4417838e-006
-4.7975453e-007
5.5201384e-006
-3.9381352e-007
5.5834558e-006
-3.2091673e-007
5.6352891e-006
-2.6505585e-007
5.6792476e-006
-2.2643355e-007
5.7188215e-006
-2.0517711e-007
5.7577537e-006
-2.0304359e-007
5.8000349e-006
-2.2154443e-007
5.8508039e-006
-2.668169e-007
5.9160522e-006
-3.4388177e-007
6.0038423e-006
-4.6421448e-007
6.1259188e-006
-6.4755689e-007
6.2985262e-006
-9.1963792e-007
6.546114e-006
-1.3275966e-006
6.9058809e-006
-1.9418791e-006
7.4367835e-006
-2.88825e-006
8.2554027e-006
-4.4780447e-006
9.5329291e-006
-7.055285e-006
1.1544355e-005
-1.12861e-005
1.4426096e-005
-1.6615843e-005
1.8148851e-005
-2.1608398e-005
-2.4632155e-005
2.2368464e-005
5.1038711e-006
-6.0054176e-007
5.2316678e-006
-7.495737e-007
5.349571e-006
-6.9413558e-007
5.4463384e-006
-5.7652188e-007
5.5243249e-006
-4.7180001e-007
5.5868831e-006
-3.8347499e-007
5.6377244e-006
-3.1589709e-007
5.6805711e-006
-2.6928022e-007
5.7189345e-006
-2.4354061e-007
5.7564949e-006
-2.4060394e-007
5.7971236e-006
-2.621731e-007
5.8457653e-006
-3.1545867e-007
5.9081485e-006
-4.0626491e-007
5.9918487e-006
-5.4791476e-007
6.1079164e-006
-7.6362458e-007
6.2714549e-006
-1.0831764e-006
6.5047627e-006
-1.5609044e-006
6.8418798e-006
-2.2789962e-006
7.3351476e-006
-3.3815179e-006
8.0905321e-006
-5.2334292e-006
9.2522118e-006
-8.2169646e-006
1.1065895e-005
-1.3099783e-005
1.3600733e-005
-1.915068e-005
1.6881069e-005
-2.4888734e-005
-2.8331079e-005
2.0579993e-005
5.1059928e-006
-7.0525428e-007
5.2354465e-006
-8.7902739e-007
5.3548371e-006
-8.1352616e-007
5.4518729e-006
-6.7355762e-007
5.5293611e-006
-5.4928822e-007
5.5909792e-006
-4.4509314e-007
5.6406151e-006
-3.6553298e-007
5.6821259e-006
-3.1079107e-007
5.7190418e-006
-2.804565e-007
5.7549754e-006
-2.765375e-007
5.7936539e-006
-3.0085159e-007
5.8397801e-006
-3.6158492e-007
5.8987842e-006
-4.6526901e-007
5.9776857e-006
-6.2681623e-007
6.0867279e-006
-8.7266682e-007
6.2396909e-006
-1.2361393e-006
6.4564811e-006
-1.7776946e-006
6.767319e-006
-2.5898341e-006
7.2168669e-006
-3.8310658e-006
7.8973575e-006
-5.9139198e-006
8.9223309e-006
-9.241938e-006
1.04999e-005
-1.4677352e-005
1.2620064e-005
-2.1270844e-005
1.5433598e-005
-2.7702269e-005
-3.1377878e-005
1.8480397e-005
5.1086509e-006
-8.1262484e-007
5.240016e-006
-1.0103925e-006
5.3610855e-006
-9.3459566e-007
5.4583924e-006
-7.7086456e-007
5.5352273e-006
-6.2612303e-007
5.5957102e-006
-5.0557604e-007
5.6439179e-006
-4.1374076e-007
5.6838666e-006
-3.5073972e-007
5.7190921e-006
-3.1568196e-007
5.753152e-006
-3.1059744e-007
5.7896152e-006
-3.3731477e-007
5.8328667e-006
-4.0483645e-007
5.8880007e-006
-5.2040304e-007
5.9614524e-006
-7.0026791e-007
6.0625124e-006
-9.7372682e-007
6.2035728e-006
-1.3771998e-006
6.4019994e-006
-1.9761212e-006
6.6834207e-006
-2.8712554e-006
7.0844499e-006
-4.232095e-006
7.6795722e-006
-6.509042e-006
8.5484802e-006
-1.0110846e-005
9.8540559e-006
-1.5982928e-005
1.1516178e-005
-2.2932966e-005
1.3847672e-005
-3.0033762e-005
-3.3454872e-005
1.5924666e-005
5.1119107e-006
-9.232552e-007
5.2453711e-006
-1.1438529e-006
5.368328e-006
-1.0575525e-006
5.465905e-006
-8.6844155e-007
5.5418935e-006
-7.0211156e-007
5.6010353e-006
-5.6471781e-007
5.6475819e-006
-4.6028739e-007
5.6857449e-006
-3.8890272e-007
5.7190397e-006
-3.489767e-007
5.7509851e-006
-3.425429e-007
5.7849932e-006
-3.7132288e-007
5.8250489e-006
-4.4489207e-007
5.8758562e-006
-5.712104e-007
5.9432809e-006
-7.6769262e-007
6.0355435e-006
-1.0659894e-006
6.1635723e-006
-1.5052285e-006
6.3420568e-006
-2.1546058e-006
6.5915159e-006
-3.1207144e-006
6.9399763e-006
-4.5805555e-006
7.443012e-006
-7.0120776e-006
8.1406028e-006
-1.0808437e-005
9.1469437e-006
-1.6989269e-005
1.0314993e-005
-2.4101016e-005
1.2124825e-005
-3.1843594e-005
-3.4184368e-005
1.2854321e-005
5.115246e-006
-1.0372209e-006
5.2519932e-006
-1.2806001e-006
5.3765371e-006
-1.1820965e-006
5.4745003e-006
-9.6640469e-007
5.5493898e-006
-7.7700106e-007
5.6069519e-006
-6.2227994e-007
5.6516006e-006
-5.0493607e-007
5.6877501e-006
-4.2505222e-007
5.7189086e-006
-3.8013522e-007
5.7485078e-006
-3.7214204e-007
5.7797905e-006
-4.0260562e-007
5.8163562e-006
-4.8145778e-007
5.8624658e-006
-6.1731995e-007
5.9233683e-006
-8.2859518e-007
6.0061644e-006
-1.1487855e-006
6.1201584e-006
-1.6192225e-006
6.2771083e-006
-2.3115557e-006
6.4931482e-006
-3.3367544e-006
6.7864857e-006
-4.8738929e-006
7.1922012e-006
-7.4177931e-006
7.7182733e-006
-1.1334509e-005
8.3943435e-006
-1.7665339e-005
9.0230582e-006
-2.4729731e-005
9.9574793e-006
-3.2778015e-005
8.718074e-006
-3.2944963e-005
2.917642e-005
-2.9173843e-006
3.01895e-005
-1.0130799e-006
3.042305e-005
-2.335501e-007
3.0527522e-005
-1.0447201e-007
3.0596319e-005
-6.8797901e-008
3.0611854e-005
-1.5535043e-008
3.0602814e-005
9.0404145e-009
3.0593349e-005
9.4648798e-009
3.0589997e-005
3.352034e-009
3.0589625e-005
3.7180798e-010
3.0589929e-005
-3.0373907e-010
3.0590062e-005
-1.3325674e-010
3.0590066e-005
-3.2569042e-012
3.0590054e-005
1.1666062e-011
3.0590052e-005
1.6158021e-012
3.0590055e-005
-2.1848176e-012
3.0590056e-005
-1.6776656e-012
3.0590057e-005
-3.5211208e-013
3.0590056e-005
3.5936514e-013
3.0590057e-005
-2.5572416e-013
3.0590057e-005
-1.5261899e-013
3.0590056e-005
9.8642464e-013
3.0590055e-005
4.0127763e-013
3.059006e-005
-4.7603432e-012
-4.8911503e-012
2.8529586e-005
-5.5537933e-006
2.9500676e-005
-1.9841712e-006
2.9708018e-005
-4.4089221e-007
2.9786528e-005
-1.8298207e-007
2.9823789e-005
-1.060595e-007
2.9832547e-005
-2.4292707e-008
2.9823758e-005
1.782979e-008
2.9816295e-005
1.6927444e-008
2.9813672e-005
5.9749265e-009
2.9813498e-005
5.4594413e-010
2.9813753e-005
-5.5840475e-010
2.9813855e-005
-2.3504831e-010
2.9813855e-005
-3.0295104e-012
2.9813845e-005
2.0998979e-011
2.9813844e-005
2.8160644e-012
2.9813846e-005
-3.9078216e-012
2.9813847e-005
-2.9738266e-012
2.9813847e-005
-6.328564e-013
2.9813847e-005
5.2082851e-013
2.9813847e-005
-3.7089986e-013
2.9813847e-005
-2.7240066e-013
2.9813847e-005
1.6322313e-012
2.9813846e-005
8.973136e-013
2.981385e-005
-8.3358596e-012
-8.9026968e-012
2.7343466e-005
-7.816456e-006
2.8159797e-005
-2.8005023e-006
2.8322787e-005
-6.0388261e-007
2.8342706e-005
-2.0290086e-007
2.8344971e-005
-1.0832399e-007
2.8342747e-005
-2.2069216e-008
2.8335024e-005
2.5552959e-008
2.833047e-005
2.1481471e-008
2.8329212e-005
7.2331585e-009
2.832929e-005
4.6785807e-010
2.8329465e-005
-7.3360318e-010
2.8329514e-005
-2.8390855e-010
2.8329509e-005
1.8719523e-012
2.8329504e-005
2.6303028e-011
2.8329504e-005
3.0964147e-012
2.8329504e-005
-4.7196155e-012
2.8329505e-005
-3.5246703e-012
2.8329505e-005
-8.8360888e-013
2.8329505e-005
2.9439024e-013
2.8329505e-005
-3.363167e-013
2.8329505e-005
-1.8513058e-013
2.8329505e-005
1.7522348e-012
2.8329504e-005
1.56584e-012
2.8329505e-005
-8.8190447e-012
-1.0102091e-011
2.5676887e-005
-9.6010639e-006
2.6245728e-005
-3.3693437e-006
2.6299765e-005
-6.5791927e-007
2.6278278e-005
-1.8141412e-007
2.6255389e-005
-8.5434653e-008
2.6243097e-005
-9.7773183e-009
2.623746e-005
3.1190101e-008
2.6236356e-005
2.2585482e-008
2.6236523e-005
7.0663376e-009
2.6236798e-005
1.9246216e-010
2.6236864e-005
-7.9977562e-010
2.6236858e-005
-2.7692747e-010
2.623685e-005
9.4030168e-012
2.623685e-005
2.659791e-011
2.623685e-005
2.346325e-012
2.623685e-005
-4.6756136e-012
2.623685e-005
-3.3140381e-012
2.623685e-005
-1.0607288e-012
2.6236851e-005
2.1757823e-014
2.623685e-005
-1.5917917e-013
2.623685e-005
-1.0823459e-013
2.6236851e-005
1.3164617e-012
2.623685e-005
2.3193213e-012
2.6236846e-005
-5.2969131e-012
-7.5256173e-012
2.3557423e-005
-1.0790023e-005
2.3767654e-005
-3.5795742e-006
2.370245e-005
-5.9271585e-007
2.3668789e-005
-1.4775251e-007
2.3632953e-005
-4.9598715e-008
2.3616214e-005
6.9610825e-009
2.3614343e-005
3.3061059e-008
2.3616578e-005
2.0351094e-008
2.3617832e-005
5.8125694e-009
2.3618164e-005
-1.3941439e-010
2.3618115e-005
-7.5153524e-010
2.3618066e-005
-2.278799e-010
2.361806e-005
1.5486592e-011
2.3618064e-005
2.252589e-011
2.3618066e-005
1.0630493e-012
2.3618065e-005
-4.0357089e-012
2.3618064e-005
-2.6367307e-012
2.3618064e-005
-9.8871197e-013
2.3618064e-005
-9.4768522e-014
2.3618064e-005
-2.5907235e-014
2.3618064e-005
-2.2302006e-013
2.3618065e-005
5.4540033e-013
2.3618064e-005
2.9836066e-012
2.3618058e-005
9.179418e-013
-2.1328281e-012
2.0948049e-005
-1.115808e-005
2.0708372e-005
-3.3398967e-006
2.0585437e-005
-4.6978124e-007
2.0548989e-005
-1.1130413e-007
2.0511845e-005
-1.2454908e-008
2.0498698e-005
2.0107794e-008
2.0501789e-005
2.9970578e-008
2.0506494e-005
1.5645998e-008
2.0508283e-005
4.0236509e-009
2.0508526e-005
-3.8275841e-010
2.0508384e-005
-6.0991316e-010
2.0508316e-005
-1.5938648e-010
2.0508314e-005
1.7186804e-011
2.0508321e-005
1.5939442e-011
2.0508322e-005
-1.0202747e-013
2.0508321e-005
-3.0076672e-012
2.050832e-005
-1.769474e-012
2.050832e-005
-7.679296e-013
2.050832e-005
-1.6883308e-013
2.050832e-005
-8.2423941e-015
2.050832e-005
-3.4430128e-013
2.0508321e-005
-1.5627627e-013
2.0508321e-005
3.1779461e-012
2.0508314e-005
7.2368793e-012
3.9488905e-012
1.7761267e-005
-1.043895e-005
1.7098503e-005
-2.6771319e-006
1.6958215e-005
-3.2949389e-007
1.6919721e-005
-7.2810263e-008
1.6892924e-005
1.4342578e-008
1.688901e-005
2.4021273e-008
1.6896587e-005
2.2393607e-008
1.6902359e-005
9.8746883e-009
1.6904142e-005
2.2399262e-009
1.6904213e-005
-4.5345563e-010
1.6904018e-005
-4.1482922e-010
1.6903951e-005
-9.2368355e-011
1.6903954e-005
1.4148173e-011
1.6903961e-005
9.0144813e-012
1.6903962e-005
-7.2953145e-013
1.6903961e-005
-1.8846498e-012
1.690396e-005
-9.860835e-013
1.690396e-005
-5.2148458e-013
1.690396e-005
-1.7025241e-013
1.690396e-005
-7.4056834e-016
1.690396e-005
-3.8942537e-013
1.690396e-005
-6.2115479e-013
1.690396e-005
2.676495e-012
1.6903957e-005
1.0679907e-011
7.844374e-012
1.3899938e-005
-8.4142223e-006
1.2967846e-005
-1.7450398e-006
1.2821307e-005
-1.8295524e-007
1.2781627e-005
-3.3129989e-008
1.2773038e-005
2.2931113e-008
1.2778903e-005
1.8156419e-008
1.2788691e-005
1.2605533e-008
1.2793982e-005
4.5836154e-009
1.2795347e-005
8.7534178e-010
1.2795245e-005
-3.5106097e-010
1.2795046e-005
-2.1609053e-010
1.2794994e-005
-4.0699186e-011
1.2795e-005
8.2249027e-012
1.2795006e-005
3.5762584e-012
1.2795006e-005
-7.2099172e-013
1.2795005e-005
-9.0445336e-013
1.2795004e-005
-4.3096668e-013
1.2795004e-005
-2.9419979e-013
1.2795004e-005
-9.0003856e-014
1.2795004e-005
1.5143625e-014
1.2795004e-005
-3.4597923e-013
1.2795004e-005
-7.3026028e-013
1.2795005e-005
1.5928161e-012
1.2795006e-005
9.3164289e-012
7.5110667e-012
9.3366015e-006
-4.896503e-006
8.3086065e-006
-7.1704478e-007
8.1763704e-006
-5.0719219e-008
8.150522e-006
-7.2816261e-009
8.1590628e-006
1.4390308e-008
8.1701884e-006
7.0308938e-009
8.1787237e-006
4.070236e-009
8.1822691e-006
1.0382947e-009
8.1829949e-006
1.4953316e-010
8.1827966e-006
-1.5275209e-010
8.1826429e-006
-6.2432167e-011
8.1826128e-006
-1.0495045e-011
8.1826184e-006
2.5673676e-012
8.1826214e-006
5.6066482e-013
8.182621e-006
-3.2445948e-013
8.1826204e-006
-2.437438e-013
8.1826201e-006
-1.0843344e-013
8.1826199e-006
-9.9112258e-014
8.1826198e-006
-1.5757225e-014
8.1826198e-006
1.2531344e-014
8.1826196e-006
-1.758054e-013
8.1826193e-006
-4.341757e-013
8.1826205e-006
3.8480359e-013
8.1826257e-006
4.0778907e-012
3.5194894e-012
3.821571e-006
3.1045262e-006
3.0538069e-006
3.0465253e-006
3.0609156e-006
3.0679465e-006
3.0720168e-006
3.0730551e-006
3.0732046e-006
3.0730519e-006
3.0729895e-006
3.072979e-006
3.0729815e-006
3.0729821e-006
3.0729818e-006
3.0729815e-006
3.0729814e-006
3.0729813e-006
3.0729813e-006
3.0729813e-006
3.0729811e-006
3.0729807e-006
3.0729811e-006
3.0729851e-006
1.5356737e-005
-1.3901173e-006
1.5811739e-005
-1.7356017e-006
1.6187596e-005
-1.5579531e-006
1.6482528e-005
-1.2613364e-006
1.6700051e-005
-9.9452481e-007
1.6860974e-005
-7.8320241e-007
1.6982064e-005
-6.2602644e-007
1.7076884e-005
-5.1987159e-007
1.7156315e-005
-4.5956704e-007
1.7229725e-005
-4.455521e-007
1.7305704e-005
-4.7858378e-007
1.7392722e-005
-5.6847623e-007
1.7500949e-005
-7.2554664e-007
1.7641992e-005
-9.6963893e-007
1.782946e-005
-1.3362531e-006
1.808275e-005
-1.8725124e-006
1.8418353e-005
-2.6471591e-006
1.8859135e-005
-3.7775355e-006
1.9414482e-005
-5.4292404e-006
2.0044195e-005
-8.0475062e-006
2.0703882e-005
-1.1994196e-005
2.0774048e-005
-1.7735505e-005
1.9496667e-005
-2.3452349e-005
1.4561441e-005
-2.784279e-005
-1.8383522e-005
1.5412035e-005
-1.7983115e-006
1.5922547e-005
-2.2461134e-006
1.6325496e-005
-1.9609018e-006
1.6615686e-005
-1.5515273e-006
1.6814042e-005
-1.1928805e-006
1.6949432e-005
-9.1859179e-007
1.7043568e-005
-7.2016299e-007
1.7111901e-005
-5.8820487e-007
1.7164824e-005
-5.1249009e-007
1.7210234e-005
-4.9096178e-007
1.7254296e-005
-5.2264558e-007
1.73018e-005
-6.1598078e-007
1.7357913e-005
-7.8165945e-007
1.7427778e-005
-1.0395038e-006
1.7515231e-005
-1.4237056e-006
1.7624193e-005
-1.9814748e-006
1.7751737e-005
-2.7747034e-006
1.7885992e-005
-3.91179e-006
1.7987083e-005
-5.530332e-006
1.7922995e-005
-7.9834183e-006
1.7470239e-005
-1.154144e-005
1.6020061e-005
-1.6285327e-005
1.2977074e-005
-2.0409363e-005
6.8160019e-006
-2.1681718e-005
-1.156752e-005
1.5519749e-005
-2.3142199e-006
1.6122638e-005
-2.8490022e-006
1.6557484e-005
-2.395748e-006
1.6832986e-005
-1.8270286e-006
1.6997816e-005
-1.3577112e-006
1.709552e-005
-1.0162958e-006
1.7153958e-005
-7.7860085e-007
1.7189458e-005
-6.237045e-007
1.7211255e-005
-5.3428763e-007
1.7224879e-005
-5.0458545e-007
1.7233576e-005
-5.3134272e-007
1.7238357e-005
-6.2076168e-007
1.7239697e-005
-7.8299895e-007
1.7235989e-005
-1.0357961e-006
1.7221869e-005
-1.4095857e-006
1.7188483e-005
-1.9480886e-006
1.711828e-005
-2.7045003e-006
1.6973718e-005
-3.7672285e-006
1.6687916e-005
-5.2445296e-006
1.6083119e-005
-7.3786208e-006
1.4886111e-005
-1.0344432e-005
1.2589266e-005
-1.3988481e-005
8.9144937e-006
-1.6734591e-005
3.5330364e-006
-1.6300261e-005
-8.0344834e-006
1.573944e-005
-3.049819e-006
1.6477895e-005
-3.5874574e-006
1.6935226e-005
-2.8530788e-006
1.717237e-005
-2.0641725e-006
1.7280846e-005
-1.4661878e-006
1.7324875e-005
-1.0603246e-006
1.7337604e-005
-7.9132977e-007
1.7334073e-005
-6.2017288e-007
1.7320967e-005
-5.2118195e-007
1.730054e-005
-4.8415818e-007
1.7272812e-005
-5.0361541e-007
1.7234483e-005
-5.8243242e-007
1.7181515e-005
-7.3003132e-007
1.7106083e-005
-9.6036375e-007
1.6995461e-005
-1.2989637e-006
1.6829902e-005
-1.7825294e-006
1.6580758e-005
-2.4553567e-006
1.6196033e-005
-3.3825031e-006
1.5596806e-005
-4.6453024e-006
1.4613745e-005
-6.3955602e-006
1.2995352e-005
-8.7260394e-006
1.0382583e-005
-1.1375712e-005
6.7156553e-006
-1.3067663e-005
2.3044999e-006
-1.1889105e-005
-5.7299835e-006
1.6111434e-005
-4.1574121e-006
1.6973876e-005
-4.4498995e-006
1.7399221e-005
-3.2784237e-006
1.7551355e-005
-2.2163065e-006
1.7572099e-005
-1.4869312e-006
1.7544142e-005
-1.032368e-006
1.7501438e-005
-7.4862563e-007
1.7454136e-005
-5.728705e-007
1.7404351e-005
-4.7139689e-007
1.7349857e-005
-4.2966506e-007
1.7286772e-005
-4.405295e-007
1.7207975e-005
-5.0363557e-007
1.7104633e-005
-6.2668984e-007
1.6963716e-005
-8.194464e-007
1.6767337e-005
-1.1025852e-006
1.648819e-005
-1.5033821e-006
1.6088792e-005
-2.0559585e-006
1.5511021e-005
-2.8047325e-006
1.4672201e-005
-3.8064824e-006
1.3427127e-005
-5.1504854e-006
1.1572406e-005
-6.8713189e-006
8.8816462e-006
-8.6849526e-006
5.4148711e-006
-9.6008879e-006
1.795521e-006
-8.2697553e-006
-3.9344626e-006
1.6541208e-005
-5.694779e-006
1.7348207e-005
-5.2568988e-006
1.7598257e-005
-3.5284734e-006
1.7588087e-005
-2.2061362e-006
1.7486221e-005
-1.3850655e-006
1.7371034e-005
-9.1718127e-007
1.7267172e-005
-6.4476332e-007
1.7175464e-005
-4.8116291e-007
1.7090902e-005
-3.8683442e-007
1.7006041e-005
-3.4480418e-007
1.6912635e-005
-3.4712348e-007
1.6800552e-005
-3.9155227e-007
1.6656394e-005
-4.8253238e-007
1.646441e-005
-6.2746226e-007
1.6202193e-005
-8.403686e-007
1.5838488e-005
-1.1396763e-006
1.5331335e-005
-1.548806e-006
1.4622615e-005
-2.0960121e-006
1.3633264e-005
-2.8171321e-006
1.2243419e-005
-3.7606396e-006
1.0298723e-005
-4.926623e-006
7.681402e-006
-6.067632e-006
4.5401574e-006
-6.4596434e-006
1.5152393e-006
-5.2448372e-006
-2.4192233e-006
1.6702968e-005
-7.3939057e-006
1.7014025e-005
-5.5679564e-006
1.6848705e-005
-3.3631534e-006
1.65801e-005
-1.9375311e-006
1.632999e-005
-1.1349551e-006
1.6126179e-005
-7.1337032e-007
1.5965963e-005
-4.8454714e-007
1.5836929e-005
-3.521287e-007
1.5726042e-005
-2.7594783e-007
1.562076e-005
-2.3952201e-007
1.5509037e-005
-2.3540037e-007
1.5378502e-005
-2.6101791e-007
1.5213664e-005
-3.1769399e-007
1.4997162e-005
-4.1095997e-007
1.4704803e-005
-5.4800983e-007
1.4305176e-005
-7.4004901e-007
1.3757169e-005
-1.0007991e-006
1.3007005e-005
-1.3458483e-006
1.198469e-005
-1.7948175e-006
1.0595734e-005
-2.3716834e-006
8.7327465e-006
-3.0636354e-006
6.3544932e-006
-3.6893787e-006
3.6611429e-006
-3.7662931e-006
1.2287561e-006
-2.8124506e-006
-1.1904673e-006
1.60219e-005
-8.4119651e-006
1.5195171e-005
-4.7412273e-006
1.441853e-005
-2.5865124e-006
1.3849002e-005
-1.368003e-006
1.3461962e-005
-7.4791484e-007
1.3193459e-005
-4.4486746e-007
1.2999641e-005
-2.9072918e-007
1.2852728e-005
-2.0521522e-007
1.273307e-005
-1.5628974e-007
1.2625003e-005
-1.3145489e-007
1.2514916e-005
-1.2531415e-007
1.2389555e-005
-1.3565619e-007
1.2234365e-005
-1.625046e-007
1.2032147e-005
-2.0874173e-007
1.1761445e-005
-2.7730762e-007
1.1395086e-005
-3.7368981e-007
1.0897868e-005
-5.0358148e-007
1.0225449e-005
-6.7342961e-007
9.3222141e-006
-8.9158244e-007
8.1189195e-006
-1.1683889e-006
6.5476242e-006
-1.4923401e-006
4.6173051e-006
-1.7590597e-006
2.5536343e-006
-1.7026224e-006
8.3720807e-007
-1.0960245e-006
-3.5325925e-007
1.3700732e-005
-7.1088558e-006
1.1449355e-005
-2.4898507e-006
1.0058213e-005
-1.1953702e-006
9.2732134e-006
-5.8300359e-007
8.8275125e-006
-3.0221396e-007
8.5535349e-006
-1.7088986e-007
8.370236e-006
-1.0743024e-007
8.2387965e-006
-7.3775778e-008
8.1370726e-006
-5.4565788e-008
8.0499033e-006
-4.4285635e-008
7.9653119e-006
-4.0722702e-008
7.8724195e-006
-4.2763757e-008
7.7601233e-006
-5.0208394e-008
7.6152832e-006
-6.3901662e-008
7.4223795e-006
-8.4403911e-008
7.1620214e-006
-1.1333172e-007
6.8101698e-006
-1.5172989e-007
6.3377792e-006
-2.0103895e-007
5.7091486e-006
-2.6295184e-007
4.8807502e-006
-3.3999047e-007
3.8149192e-006
-4.2650916e-007
2.540557e-006
-4.8469755e-007
1.2682095e-006
-4.3027491e-007
3.5962088e-007
-1.8743603e-007
6.3615768e-009
7.8949852e-006
5.4051345e-006
4.2097644e-006
3.6267608e-006
3.3245468e-006
3.153657e-006
3.0462267e-006
2.972451e-006
2.9178852e-006
2.8735995e-006
2.8328768e-006
2.7901131e-006
2.7399047e-006
2.676003e-006
2.5915991e-006
2.4782674e-006
2.3265375e-006
2.1254986e-006
1.8625467e-006
1.5225562e-006
1.0960471e-006
6.1134947e-007
1.8107451e-007
-6.3615763e-009
)
;

boundaryField
{
    inlet
    {
        type            calculated;
        value           nonuniform List<scalar> 
20
(
-5.0012803e-006
-5.0012803e-006
-5.0012803e-006
-5.0012803e-006
-5.0012803e-006
-5.0012803e-006
-5.0012803e-006
-5.0012803e-006
-5.0012803e-006
-5.0012803e-006
-1.5003841e-005
-1.5003841e-005
-1.5003841e-005
-1.5003841e-005
-1.5003841e-005
-1.5003841e-005
-1.5003841e-005
-1.5003841e-005
-1.5003841e-005
-1.5003841e-005
)
;
    }
    walls
    {
        type            calculated;
        value           uniform 0;
    }
    outlet
    {
        type            calculated;
        value           nonuniform List<scalar> 10(3.0590065e-005 2.9813854e-005 2.8329506e-005 2.6236844e-005 2.3618053e-005 2.0508308e-005 1.6903953e-005 1.2795006e-005 8.1826297e-006 3.0729886e-006);
    }
    centreline
    {
        type            symmetryPlane;
        value           uniform 0;
    }
    frontAndBack
    {
        type            empty;
        value           nonuniform 0();
    }
}


// ************************************************************************* //
