/*--------------------------------*- C++ -*----------------------------------*\
| =========                 |                                                 |
| \\      /  F ield         | OpenFOAM: The Open Source CFD Toolbox           |
|  \\    /   O peration     | Version:  5.x                                   |
|   \\  /    A nd           | Web:      www.OpenFOAM.org                      |
|    \\/     M anipulation  |                                                 |
\*---------------------------------------------------------------------------*/
/*   Windows 32 and 64 bit porting by blueCAPE: http://www.bluecape.com.pt   *\
|  Based on Windows porting (2.0.x v4) by Symscape: http://www.symscape.com   |
\*---------------------------------------------------------------------------*/
FoamFile
{
    version     2.0;
    format      ascii;
    class       surfaceScalarField;
    location    "0.11";
    object      phi_0;
}
// * * * * * * * * * * * * * * * * * * * * * * * * * * * * * * * * * * * * * //

dimensions      [0 3 -1 0 0 0 0];

internalField   nonuniform List<scalar> 
1430
(
5.100569e-006
-9.9288665e-008
5.2221564e-006
-1.215874e-007
5.3370765e-006
-1.1492005e-007
5.4321297e-006
-9.5053198e-008
5.5111212e-006
-7.899158e-008
5.575751e-006
-6.4629752e-008
5.6294773e-006
-5.3726323e-008
5.6755955e-006
-4.6118131e-008
5.7175788e-006
-4.1983302e-008
5.7592896e-006
-4.1710792e-008
5.8049444e-006
-4.5654871e-008
5.8600406e-006
-5.5096195e-008
5.9311737e-006
-7.1133124e-008
6.0274046e-006
-9.6230847e-008
6.1619386e-006
-1.3453405e-007
6.3534274e-006
-1.9148874e-007
6.6311172e-006
-2.7768979e-007
7.0388576e-006
-4.0774045e-007
7.647441e-006
-6.0858341e-007
8.5959506e-006
-9.4850959e-007
1.0090321e-005
-1.4943708e-006
1.252718e-005
-2.4368587e-006
1.6138101e-005
-3.610921e-006
2.0914166e-005
-4.7760652e-006
-5.3475331e-006
2.6261699e-005
5.0997897e-006
-1.9779808e-007
5.2235113e-006
-2.4530894e-007
5.3374937e-006
-2.2890242e-007
5.4331236e-006
-1.9068309e-007
5.5119006e-006
-1.5776862e-007
5.5764177e-006
-1.2914684e-007
5.6299418e-006
-1.0725043e-007
5.6758373e-006
-9.201361e-008
5.717563e-006
-8.3708951e-008
5.7589908e-006
-8.3138613e-008
5.8043018e-006
-9.0965867e-008
5.8589457e-006
-1.0974015e-007
5.9294925e-006
-1.4167986e-007
6.0248637e-006
-1.9160204e-007
6.1580727e-006
-2.6774314e-007
6.3477125e-006
-3.8112852e-007
6.6221665e-006
-5.5214376e-007
7.0248933e-006
-8.1046724e-007
7.626065e-006
-1.2097552e-006
8.5590767e-006
-1.8815212e-006
1.0038625e-005
-2.9739188e-006
1.2412284e-005
-4.8105184e-006
1.597268e-005
-7.171317e-006
2.0582793e-005
-9.3861777e-006
-1.0659785e-005
2.5895044e-005
5.1002472e-006
-2.96765e-007
5.2244868e-006
-3.695485e-007
5.3390446e-006
-3.4346021e-007
5.4348586e-006
-2.8649706e-007
5.5135161e-006
-2.3642619e-007
5.5777561e-006
-1.9338686e-007
5.6308877e-006
-1.60382e-007
5.6763456e-006
-1.3747154e-007
5.7175839e-006
-1.2494721e-007
5.7584411e-006
-1.2399579e-007
5.803067e-006
-1.3559178e-007
5.8568485e-006
-1.6352165e-007
5.9261938e-006
-2.1102518e-007
6.0198539e-006
-2.8526214e-007
6.1505548e-006
-3.9844407e-007
6.336305e-006
-5.6687875e-007
6.6046596e-006
-8.2049838e-007
6.9975256e-006
-1.2033331e-006
7.5827715e-006
-1.7950011e-006
8.4902593e-006
-2.789009e-006
9.9236781e-006
-4.4073375e-006
1.2215323e-005
-7.1021629e-006
1.5611254e-005
-1.0567248e-005
2.0014379e-005
-1.3789303e-005
-1.5726809e-005
2.5081403e-005
5.1009888e-006
-3.9647349e-007
5.2260759e-006
-4.9463558e-007
5.3414469e-006
-4.5883121e-007
5.4375065e-006
-3.825567e-007
5.5159849e-006
-3.1490455e-007
5.5797945e-006
-2.5719646e-007
5.632341e-006
-2.1292851e-007
5.6771366e-006
-1.8226718e-007
5.7176464e-006
-1.65457e-007
5.757663e-006
-1.6401235e-007
5.8012697e-006
-1.7919849e-007
5.8537508e-006
-2.1600274e-007
5.9213203e-006
-2.7859469e-007
6.0124374e-006
-3.7637931e-007
6.1394026e-006
-5.2540927e-007
6.3194325e-006
-7.4690858e-007
6.5787416e-006
-1.0798075e-006
6.957164e-006
-1.5817556e-006
7.5187483e-006
-2.3565854e-006
8.3875264e-006
-3.657787e-006
9.7553195e-006
-5.7751305e-006
1.1925759e-005
-9.2726023e-006
1.5093719e-005
-1.3735208e-005
1.9196103e-005
-1.7891687e-005
-2.0422388e-005
2.3891682e-005
5.1021218e-006
-4.97315e-007
5.2283365e-006
-6.2085028e-007
5.344764e-006
-5.7525872e-007
5.4410892e-006
-4.7888189e-007
5.5193069e-006
-3.9312225e-007
5.5825255e-006
-3.2041507e-007
5.6342876e-006
-2.6469053e-007
5.6781963e-006
-2.2617586e-007
5.7177355e-006
-2.0499627e-007
5.7566447e-006
-2.0292156e-007
5.7989114e-006
-2.2146519e-007
5.8496706e-006
-2.6676193e-007
5.9149109e-006
-3.4383501e-007
6.0026922e-006
-4.6416061e-007
6.1247545e-006
-6.4747151e-007
6.2973377e-006
-9.1949181e-007
6.5448834e-006
-1.3273532e-006
6.9045719e-006
-1.9414441e-006
7.4353047e-006
-2.8873182e-006
8.2535898e-006
-4.4760722e-006
9.5306809e-006
-7.0522216e-006
1.1541937e-005
-1.1283858e-005
1.4424093e-005
-1.6617364e-005
1.8147478e-005
-2.1615072e-005
-2.464187e-005
2.236696e-005
5.1037292e-006
-5.9976388e-007
5.2313336e-006
-7.4845466e-007
5.3490398e-006
-6.9296497e-007
5.445634e-006
-5.7547608e-007
5.5234845e-006
-4.7097277e-007
5.5859454e-006
-3.8287595e-007
5.636717e-006
-3.1546212e-007
5.6795153e-006
-2.6897419e-007
5.7178456e-006
-2.4332652e-007
5.7553841e-006
-2.4046005e-007
5.7959991e-006
-2.6208029e-007
5.8446321e-006
-3.1539491e-007
5.9070084e-006
-4.062113e-007
5.9907015e-006
-5.4785367e-007
6.1067573e-006
-7.6352732e-007
6.2702755e-006
-1.08301e-006
6.5035469e-006
-1.5606247e-006
6.8405938e-006
-2.2784909e-006
7.3337078e-006
-3.3804322e-006
8.0887998e-006
-5.2311641e-006
9.2501458e-006
-8.2135677e-006
1.1063803e-005
-1.3097515e-005
1.3599089e-005
-1.9152651e-005
1.687989e-005
-2.4895873e-005
-2.8340162e-005
2.0578181e-005
5.1058453e-006
-7.043289e-007
5.2351033e-006
-8.7771259e-007
5.3542945e-006
-8.1215621e-007
5.4511573e-006
-6.7233885e-007
5.5285107e-006
-5.4832619e-007
5.5900333e-006
-4.4439855e-007
5.6396015e-006
-3.6503026e-007
5.6810657e-006
-3.1043843e-007
5.71795e-006
-2.8021085e-007
5.7538631e-006
-2.763731e-007
5.792529e-006
-3.0074626e-007
5.8386477e-006
-3.6151355e-007
5.8976463e-006
-4.6520994e-007
5.9765425e-006
-6.2674987e-007
6.0855755e-006
-8.725603e-007
6.2385224e-006
-1.235957e-006
6.4552828e-006
-1.777385e-006
6.7660607e-006
-2.5892689e-006
7.2154747e-006
-3.8298463e-006
7.8957183e-006
-5.9114076e-006
8.9204362e-006
-9.2382856e-006
1.0498069e-005
-1.4675148e-005
1.261872e-005
-2.1273302e-005
1.5432766e-005
-2.7709918e-005
-3.138651e-005
1.8479114e-005
5.1084979e-006
-8.1154647e-007
5.2396625e-006
-1.0088772e-006
5.3605301e-006
-9.3302378e-007
5.4576643e-006
-7.6947307e-007
5.5343657e-006
-6.2502761e-007
5.5947553e-006
-5.0478817e-007
5.6428977e-006
-4.131726e-007
5.6828018e-006
-3.5034256e-007
5.7179976e-006
-3.1540667e-007
5.7520387e-006
-3.1041414e-007
5.7884905e-006
-3.3719812e-007
5.8317357e-006
-4.0475876e-007
5.8868659e-006
-5.2034007e-007
5.9603143e-006
-7.0019832e-007
6.0613681e-006
-9.7361406e-007
6.2024169e-006
-1.3770058e-006
6.4008204e-006
-1.9757885e-006
6.6821941e-006
-2.8706426e-006
7.0831104e-006
-4.2307625e-006
7.6780277e-006
-6.506325e-006
8.5467512e-006
-1.0107009e-005
9.8524257e-006
-1.5980822e-005
1.1515056e-005
-2.2935932e-005
1.3847237e-005
-3.0042099e-005
-3.3463456e-005
1.5924183e-005
5.1117516e-006
-9.2201772e-007
5.2450051e-006
-1.1421308e-006
5.3677575e-006
-1.0557761e-006
5.4651624e-006
-8.6687794e-007
5.5410191e-006
-7.0088437e-007
5.6000704e-006
-5.6383943e-007
5.6465542e-006
-4.596564e-007
5.6846751e-006
-3.8846348e-007
5.7179424e-006
-3.4867395e-007
5.7498708e-006
-3.4234253e-007
5.7838689e-006
-3.7119625e-007
5.8239196e-006
-4.4480939e-007
5.8747247e-006
-5.7114522e-007
5.9421483e-006
-7.6762196e-007
6.0344081e-006
-1.0658738e-006
6.16243e-006
-1.5050278e-006
6.3408993e-006
-2.1542578e-006
6.5903235e-006
-3.1200668e-006
6.9386944e-006
-4.5791334e-006
7.4415731e-006
-7.0092037e-006
8.1390345e-006
-1.080447e-005
9.1454683e-006
-1.6987256e-005
1.031404e-005
-2.4104503e-005
1.212475e-005
-3.185281e-005
-3.4193181e-005
1.2854476e-005
5.1150809e-006
-1.0358183e-006
5.2516144e-006
-1.2786642e-006
5.3759485e-006
-1.1801103e-006
5.4737397e-006
-9.646691e-007
5.5484999e-006
-7.7564459e-007
5.6059747e-006
-6.2131421e-007
5.6505637e-006
-5.0424538e-007
5.6866738e-006
-4.2457357e-007
5.7178073e-006
-3.7980743e-007
5.7473913e-006
-3.7192654e-007
5.7786656e-006
-4.0247056e-007
5.8152279e-006
-4.8137168e-007
5.8613371e-006
-6.172544e-007
5.9222409e-006
-8.2852573e-007
6.0050373e-006
-1.1486703e-006
6.1190302e-006
-1.6190206e-006
6.2759729e-006
-2.3112005e-006
6.49199e-006
-3.3360839e-006
6.7852656e-006
-4.872409e-006
7.1908733e-006
-7.4148114e-006
7.7168641e-006
-1.1330461e-005
8.3930489e-006
-1.7663441e-005
9.0223071e-006
-2.4733761e-005
9.9575882e-006
-3.2788091e-005
8.7184687e-006
-3.2954062e-005
2.9184068e-005
-2.922369e-006
3.0202768e-005
-1.0187006e-006
3.0441136e-005
-2.3836751e-007
3.0548316e-005
-1.0718073e-007
3.0617664e-005
-6.9348057e-008
3.0632844e-005
-1.5180142e-008
3.0623489e-005
9.3555952e-009
3.0613953e-005
9.53547e-009
3.0610623e-005
3.3308542e-009
3.061027e-005
3.5304223e-010
3.0610576e-005
-3.0605828e-010
3.0610707e-005
-1.3123672e-010
3.0610709e-005
-2.3674803e-012
3.0610698e-005
1.1680285e-011
3.0610696e-005
1.5242112e-012
3.0610698e-005
-2.2103679e-012
3.06107e-005
-1.6774626e-012
3.06107e-005
-3.4518613e-013
3.06107e-005
3.6768763e-013
3.06107e-005
-2.6367916e-013
3.06107e-005
-1.6134828e-013
3.0610699e-005
9.8693238e-013
3.0610699e-005
4.0579328e-013
3.0610704e-005
-4.6135405e-012
-4.7410296e-012
2.8535065e-005
-5.56239e-006
2.9510138e-005
-1.9937739e-006
2.9720988e-005
-4.4921792e-007
2.9801521e-005
-1.87714e-007
2.9839227e-005
-1.0705401e-007
2.984771e-005
-2.3663168e-008
2.9838692e-005
1.8372945e-008
2.9831184e-005
1.7043703e-008
2.982858e-005
5.9353964e-009
2.9828419e-005
5.1390226e-010
2.9828675e-005
-5.6178393e-010
2.9828775e-005
-2.3136138e-010
2.9828774e-005
-1.49641e-012
2.9828764e-005
2.1004604e-011
2.9828763e-005
2.6562834e-012
2.9828765e-005
-3.9496467e-012
2.9828766e-005
-2.9718248e-012
2.9828767e-005
-6.2100058e-013
2.9828766e-005
5.3114106e-013
2.9828767e-005
-3.8262531e-013
2.9828767e-005
-2.8410932e-013
2.9828766e-005
1.6343148e-012
2.9828766e-005
9.0486615e-013
2.9828769e-005
-8.1178942e-012
-8.6753354e-012
2.7345506e-005
-7.8264929e-006
2.8163222e-005
-2.81149e-006
2.8327705e-005
-6.1370117e-007
2.8348531e-005
-2.0854046e-007
2.8350975e-005
-1.0949726e-007
2.8348609e-005
-2.1296988e-008
2.8340798e-005
2.6183448e-008
2.8336239e-005
2.1603216e-008
2.8334994e-005
7.1803704e-009
2.8335077e-005
4.3089497e-010
2.8335251e-005
-7.3623843e-010
2.8335299e-005
-2.7916925e-010
2.8335294e-005
3.6589135e-012
2.8335289e-005
2.6264503e-011
2.8335288e-005
2.9048261e-012
2.8335289e-005
-4.7608614e-012
2.833529e-005
-3.5181969e-012
2.833529e-005
-8.7320635e-013
2.833529e-005
2.9795514e-013
2.833529e-005
-3.447351e-013
2.833529e-005
-1.9047658e-013
2.833529e-005
1.7533448e-012
2.8335289e-005
1.5685718e-012
2.833529e-005
-8.6314235e-012
-9.8998263e-012
2.5675491e-005
-9.6103022e-006
2.6243277e-005
-3.3792763e-006
2.6296851e-005
-6.6727478e-007
2.6275045e-005
-1.8673481e-007
2.6252003e-005
-8.6454518e-008
2.6239721e-005
-9.0152992e-009
2.6234137e-005
3.1767123e-008
2.6233062e-005
2.2678406e-008
2.6233235e-005
7.0074492e-009
2.6233507e-005
1.5859743e-010
2.6233572e-005
-8.0040516e-010
2.6233564e-005
-2.7191529e-010
2.6233557e-005
1.1055806e-011
2.6233557e-005
2.6499704e-011
2.6233557e-005
2.1594964e-012
2.6233557e-005
-4.7029933e-012
2.6233557e-005
-3.3026511e-012
2.6233557e-005
-1.0570639e-012
2.6233558e-005
1.8868504e-014
2.6233558e-005
-1.5954597e-013
2.6233557e-005
-1.0573154e-013
2.6233558e-005
1.3133619e-012
2.6233557e-005
2.3076561e-012
2.6233554e-005
-5.2154569e-012
-7.4225055e-012
2.3553831e-005
-1.0797173e-005
2.3761647e-005
-3.5870923e-006
2.3694419e-005
-6.0004728e-007
2.3659507e-005
-1.5182247e-007
2.3623312e-005
-5.025916e-008
2.3606698e-005
7.5987331e-009
2.3604971e-005
3.3493822e-008
2.3607249e-005
2.0400043e-008
2.36085e-005
5.7563648e-009
2.3608824e-005
-1.6499001e-010
2.3608774e-005
-7.5001919e-010
2.3608725e-005
-2.2336108e-010
2.3608719e-005
1.6751452e-011
2.3608724e-005
2.2383658e-011
2.3608725e-005
9.0910792e-013
2.3608724e-005
-4.0461242e-012
2.3608723e-005
-2.6224193e-012
2.3608723e-005
-9.9042736e-013
2.3608724e-005
-9.9278984e-014
2.3608723e-005
-2.0666982e-014
2.3608723e-005
-2.1819201e-013
2.3608724e-005
5.3747357e-013
2.3608724e-005
2.9539618e-012
2.3608717e-005
8.7474789e-013
-2.1459677e-012
2.0943995e-005
-1.1162987e-005
2.0701584e-005
-3.3446815e-006
2.0575909e-005
-4.7437213e-007
2.0537875e-005
-1.1378849e-007
2.0500364e-005
-1.2747997e-008
2.0487399e-005
2.0563289e-008
2.0490658e-005
3.0235723e-008
2.0495401e-005
1.5656587e-008
2.0497179e-005
3.9784207e-009
2.0497413e-005
-3.9853797e-010
2.049727e-005
-6.0712289e-010
2.0497202e-005
-1.5591496e-010
2.0497201e-005
1.7987031e-011
2.0497208e-005
1.5790372e-011
2.0497209e-005
-2.0884761e-013
2.0497208e-005
-3.005017e-012
2.0497207e-005
-1.7555978e-012
2.0497207e-005
-7.7227652e-013
2.0497207e-005
-1.7285076e-013
2.0497207e-005
-1.3567028e-015
2.0497207e-005
-3.4064384e-013
2.0497207e-005
-1.683124e-013
2.0497207e-005
3.1345485e-012
2.0497201e-005
7.1107337e-012
3.8578632e-012
1.7758025e-005
-1.0441899e-005
1.709285e-005
-2.6795059e-006
1.6950196e-005
-3.3171869e-007
1.6910353e-005
-7.3945246e-008
1.6883306e-005
1.4299104e-008
1.6879577e-005
2.429248e-008
1.6887293e-005
2.2519829e-008
1.6893085e-005
9.8646456e-009
1.6894852e-005
2.2104901e-009
1.6894915e-005
-4.6090297e-010
1.689472e-005
-4.120159e-010
1.6894654e-005
-9.016574e-011
1.6894657e-005
1.4548348e-011
1.6894664e-005
8.8967775e-012
1.6894665e-005
-7.8984217e-013
1.6894664e-005
-1.8764474e-012
1.6894663e-005
-9.7574672e-013
1.6894663e-005
-5.2644822e-013
1.6894663e-005
-1.7313877e-013
1.6894663e-005
5.6086836e-015
1.6894663e-005
-3.8758312e-013
1.6894663e-005
-6.3513286e-013
1.6894664e-005
2.6296599e-012
1.689466e-005
1.0539436e-011
7.7377393e-012
1.3898011e-005
-8.4157275e-006
1.2964321e-005
-1.7458159e-006
1.2816269e-005
-1.8366688e-007
1.2775768e-005
-3.344355e-008
1.2767086e-005
2.2980729e-008
1.2773099e-005
1.8279162e-008
1.2782974e-005
1.2645631e-008
1.2788267e-005
4.5710946e-009
1.2789616e-005
8.6134022e-010
1.2789509e-005
-3.5322966e-010
1.2789311e-005
-2.1420531e-010
1.278926e-005
-3.9647225e-011
1.2789267e-005
8.3619403e-012
1.2789272e-005
3.5097534e-012
1.2789272e-005
-7.4595325e-013
1.2789271e-005
-8.9735421e-013
1.278927e-005
-4.2558906e-013
1.278927e-005
-2.9805935e-013
1.278927e-005
-9.1453172e-014
1.278927e-005
1.9425394e-014
1.278927e-005
-3.4538375e-013
1.278927e-005
-7.4190594e-013
1.2789271e-005
1.5560374e-012
1.2789272e-005
9.2169412e-012
7.4367806e-012
9.3357907e-006
-4.8970426e-006
8.3070926e-006
-7.1711776e-007
8.1742181e-006
-5.0792464e-008
8.1480624e-006
-7.2878367e-009
8.1566201e-006
1.4422988e-008
8.1678395e-006
7.0597742e-009
8.1764106e-006
4.0745554e-009
8.1799488e-006
1.0329472e-009
8.180664e-006
1.4616835e-010
8.1804636e-006
-1.527883e-010
8.1803111e-006
-6.1760057e-011
8.1802817e-006
-1.0222421e-011
8.1802875e-006
2.5849368e-012
8.1802905e-006
5.4036419e-013
8.1802901e-006
-3.2969597e-013
8.1802894e-006
-2.4083977e-013
8.1802891e-006
-1.0695927e-013
8.1802889e-006
-1.0075488e-013
8.1802888e-006
-1.6206336e-014
8.1802888e-006
1.419736e-014
8.1802886e-006
-1.7575895e-013
8.1802883e-006
-4.3946472e-013
8.1802895e-006
3.6819457e-013
8.1802946e-006
4.0390829e-012
3.491973e-012
3.8214261e-006
3.1043083e-006
3.0535158e-006
3.046228e-006
3.060651e-006
3.0677108e-006
3.0717853e-006
3.0728183e-006
3.0729645e-006
3.0728117e-006
3.0727499e-006
3.0727397e-006
3.0727423e-006
3.0727428e-006
3.0727425e-006
3.0727423e-006
3.0727422e-006
3.0727421e-006
3.0727421e-006
3.0727421e-006
3.0727419e-006
3.0727414e-006
3.0727418e-006
3.0727458e-006
1.5356214e-005
-1.3881911e-006
1.5810492e-005
-1.7329424e-006
1.6185689e-005
-1.5553076e-006
1.6480102e-005
-1.2590822e-006
1.6697263e-005
-9.9280505e-007
1.6857942e-005
-7.8199297e-007
1.6978877e-005
-6.2518041e-007
1.7073595e-005
-5.1929226e-007
1.7152968e-005
-4.5918002e-007
1.7226345e-005
-4.453035e-007
1.7302309e-005
-4.7843459e-007
1.7389328e-005
-5.6839072e-007
1.7497565e-005
-7.2549075e-007
1.7638627e-005
-9.6958798e-007
1.7826118e-005
-1.3361618e-006
1.8079434e-005
-1.8723362e-006
1.8415068e-005
-2.6468346e-006
1.8855859e-005
-3.7768747e-006
1.9411209e-005
-5.4277593e-006
2.0040882e-005
-8.0444843e-006
2.0700611e-005
-1.199019e-005
2.0771243e-005
-1.7734073e-005
1.9495321e-005
-2.3457839e-005
1.4561838e-005
-2.7854608e-005
-1.8392224e-005
1.5411309e-005
-1.7956589e-006
1.5920935e-005
-2.2425683e-006
1.632314e-005
-1.9575127e-006
1.6612825e-005
-1.5487678e-006
1.6810864e-005
-1.1908433e-006
1.6946063e-005
-9.1719226e-007
1.7040092e-005
-7.1920929e-007
1.7108364e-005
-5.8756476e-007
1.7161259e-005
-5.120747e-007
1.720666e-005
-4.907047e-007
1.7250728e-005
-5.2250214e-007
1.7298251e-005
-6.1591359e-007
1.7354394e-005
-7.8163419e-007
1.7424301e-005
-1.0394953e-006
1.7511813e-005
-1.4236736e-006
1.762085e-005
-1.9813733e-006
1.7748502e-005
-2.7744866e-006
1.7882913e-005
-3.9112853e-006
1.7984281e-005
-5.5291269e-006
1.7920638e-005
-7.9808417e-006
1.746845e-005
-1.1538002e-005
1.6018853e-005
-1.6284476e-005
1.2976479e-005
-2.0415466e-005
6.8157323e-006
-2.1693861e-005
-1.1576492e-005
1.5518606e-005
-2.3104243e-006
1.612034e-005
-2.844302e-006
1.6554364e-005
-2.391537e-006
1.6829385e-005
-1.8237885e-006
1.6993981e-005
-1.3554388e-006
1.7091577e-005
-1.0147883e-006
1.7149975e-005
-7.7760728e-007
1.7185466e-005
-6.2305563e-007
1.7207272e-005
-5.3388165e-007
1.7220918e-005
-5.0434978e-007
1.7229644e-005
-5.3122906e-007
1.7234464e-005
-6.2073269e-007
1.7235855e-005
-7.8302563e-007
1.7232216e-005
-1.0358565e-006
1.7218192e-005
-1.4096496e-006
1.7184933e-005
-1.948114e-006
1.7114907e-005
-2.7044612e-006
1.6970615e-005
-3.7669928e-006
1.668527e-005
-5.2437816e-006
1.6081274e-005
-7.3768464e-006
1.4885335e-005
-1.0342063e-005
1.2589383e-005
-1.3988524e-005
8.9148566e-006
-1.6740939e-005
3.5328962e-006
-1.6311901e-005
-8.0435956e-006
1.573773e-005
-3.0443134e-006
1.6474872e-005
-3.5814435e-006
1.6931406e-005
-2.8480714e-006
1.7168158e-005
-2.0605401e-006
1.7276523e-005
-1.4638043e-006
1.7320559e-005
-1.0588245e-006
1.7333335e-005
-7.9038281e-007
1.7329857e-005
-6.195775e-007
1.7316805e-005
-5.2082956e-007
1.729643e-005
-4.8397508e-007
1.7268755e-005
-5.0355386e-007
1.7230485e-005
-5.8246269e-007
1.7177589e-005
-7.301304e-007
1.7102248e-005
-9.6051496e-007
1.6991749e-005
-1.2991504e-006
1.6826363e-005
-1.7827281e-006
1.6577456e-005
-2.4555547e-006
1.6193085e-005
-3.3826218e-006
1.5594427e-005
-4.6451237e-006
1.4612333e-005
-6.3947519e-006
1.2995281e-005
-8.7250105e-006
1.0383642e-005
-1.1376886e-005
6.7167609e-006
-1.3074058e-005
2.3046516e-006
-1.1899792e-005
-5.738944e-006
1.6109533e-005
-4.1500057e-006
1.6971075e-005
-4.4429847e-006
1.7395959e-005
-3.272956e-006
1.7547934e-005
-2.212515e-006
1.7568733e-005
-1.4846036e-006
1.7540919e-005
-1.0310097e-006
1.7498357e-005
-7.4782109e-007
1.7451172e-005
-5.7239301e-007
1.740148e-005
-4.7113749e-007
1.7347063e-005
-4.2955755e-007
1.7284046e-005
-4.4053674e-007
1.7205319e-005
-5.0373637e-007
1.7102055e-005
-6.268661e-007
1.6961234e-005
-8.1969351e-007
1.6764984e-005
-1.1029007e-006
1.6486018e-005
-1.503762e-006
1.6086869e-005
-2.056406e-006
1.5509462e-005
-2.8052145e-006
1.4671198e-005
-3.8068596e-006
1.3427043e-005
-5.1505971e-006
1.1573613e-005
-6.8715804e-006
8.8839413e-006
-8.6872142e-006
5.417121e-006
-9.6072378e-006
1.796517e-006
-8.2791879e-006
-3.9424271e-006
1.6540287e-005
-5.6864522e-006
1.7347614e-005
-5.2503114e-006
1.7597995e-005
-3.5233372e-006
1.7588088e-005
-2.2026074e-006
1.7486481e-005
-1.3829973e-006
1.7371563e-005
-9.160918e-007
1.7267926e-005
-6.4418363e-007
1.7176384e-005
-4.8085063e-007
1.7091936e-005
-3.8668968e-007
1.7007158e-005
-3.4477927e-007
1.6913815e-005
-3.4719392e-007
1.6801783e-005
-3.9170452e-007
1.6657676e-005
-4.8275913e-007
1.6465753e-005
-6.2777014e-007
1.6203616e-005
-8.4076413e-007
1.584002e-005
-1.1401656e-006
1.5333026e-005
-1.5494121e-006
1.4624545e-005
-2.0967336e-006
1.3635559e-005
-2.817874e-006
1.2246315e-005
-3.7613526e-006
1.0302449e-005
-4.927715e-006
7.6856779e-006
-6.0704428e-006
4.543858e-006
-6.4654179e-006
1.5171359e-006
-5.2524659e-006
-2.4252913e-006
1.670413e-005
-7.386741e-006
1.7017115e-005
-5.5632964e-006
1.6853057e-005
-3.3592795e-006
1.6585232e-005
-1.9347824e-006
1.6335616e-005
-1.1333806e-006
1.6132159e-005
-7.1263478e-007
1.5972198e-005
-4.8422333e-007
1.5843337e-005
-3.519898e-007
1.5732558e-005
-2.7591071e-007
1.5627339e-005
-2.3955938e-007
1.5515644e-005
-2.3549931e-007
1.5385115e-005
-2.6117513e-007
1.5220267e-005
-3.1791171e-007
1.5003745e-005
-4.1124771e-007
1.4711357e-005
-5.4837687e-007
1.4311698e-005
-7.4050631e-007
1.376366e-005
-1.0013741e-006
1.3013476e-005
-1.3465491e-006
1.1991188e-005
-1.7955863e-006
1.0602349e-005
-2.3725138e-006
8.7394837e-006
-3.0648496e-006
6.3608807e-006
-3.6918398e-006
3.6660568e-006
-3.7705941e-006
1.231156e-006
-2.8175652e-006
-1.1941353e-006
1.6024797e-005
-8.4076968e-006
1.5200716e-005
-4.7392153e-006
1.4425793e-005
-2.5843569e-006
1.3857381e-005
-1.3663699e-006
1.347099e-005
-7.4699027e-007
1.3202849e-005
-4.4449312e-007
1.3009243e-005
-2.9061729e-007
1.2862455e-005
-2.0520252e-007
1.2742863e-005
-1.5631797e-007
1.2634816e-005
-1.3151317e-007
1.2524716e-005
-1.2539915e-007
1.2399311e-005
-1.357699e-007
1.2244053e-005
-1.6265326e-007
1.2041737e-005
-2.0893193e-007
1.1770908e-005
-2.7754809e-007
1.1404395e-005
-3.739934e-007
1.0906979e-005
-5.0395761e-007
1.0234305e-005
-6.7387545e-007
9.3308067e-006
-8.9208806e-007
8.1272409e-006
-1.1689479e-006
6.5555189e-006
-1.4931276e-006
4.6241878e-006
-1.7605088e-006
2.558479e-006
-1.7048854e-006
8.393469e-007
-1.0984331e-006
-3.5478849e-007
1.3703562e-005
-7.1074178e-006
1.1453854e-005
-2.4895073e-006
1.0064122e-005
-1.1946249e-006
9.2801563e-006
-5.8240431e-007
8.8350421e-006
-3.0187607e-007
8.561324e-006
-1.7077504e-007
8.3781302e-006
-1.0742343e-007
8.2467279e-006
-7.3800239e-008
8.1450079e-006
-5.4597935e-008
8.0578176e-006
-4.4322866e-008
7.9731839e-006
-4.0765478e-008
7.8802284e-006
-4.2814425e-008
7.7678466e-006
-5.0271397e-008
7.6228942e-006
-6.3979553e-008
7.4298478e-006
-8.4501719e-008
7.1693103e-006
-1.1345586e-007
6.8172333e-006
-1.5188058e-007
6.3445706e-006
-2.0121279e-007
5.7156368e-006
-2.631542e-007
4.8869018e-006
-3.4021304e-007
3.8205755e-006
-4.2680138e-007
2.5452503e-006
-4.8518364e-007
1.2712727e-006
-4.3090791e-007
3.6083064e-007
-1.8799111e-007
6.0420971e-009
7.8964232e-006
5.4069159e-006
4.212291e-006
3.6298867e-006
3.3280107e-006
3.1572356e-006
3.0498122e-006
2.976012e-006
2.921414e-006
2.8770912e-006
2.8363257e-006
2.7935113e-006
2.7432399e-006
2.6792603e-006
2.5947586e-006
2.4813028e-006
2.3294222e-006
2.1282094e-006
1.8650552e-006
1.5248421e-006
1.0980407e-006
6.1285704e-007
1.8194907e-007
-6.0420966e-009
)
;

boundaryField
{
    inlet
    {
        type            calculated;
        value           nonuniform List<scalar> 
20
(
-5.0012803e-006
-5.0012803e-006
-5.0012803e-006
-5.0012803e-006
-5.0012803e-006
-5.0012803e-006
-5.0012803e-006
-5.0012803e-006
-5.0012803e-006
-5.0012803e-006
-1.5003841e-005
-1.5003841e-005
-1.5003841e-005
-1.5003841e-005
-1.5003841e-005
-1.5003841e-005
-1.5003841e-005
-1.5003841e-005
-1.5003841e-005
-1.5003841e-005
)
;
    }
    walls
    {
        type            calculated;
        value           uniform 0;
    }
    outlet
    {
        type            calculated;
        value           nonuniform List<scalar> 10(3.0610708e-005 2.9828773e-005 2.8335291e-005 2.6233551e-005 2.3608712e-005 2.0497195e-005 1.6894656e-005 1.2789273e-005 8.1802986e-006 3.0727493e-006);
    }
    centreline
    {
        type            symmetryPlane;
        value           uniform 0;
    }
    frontAndBack
    {
        type            empty;
        value           nonuniform 0();
    }
}


// ************************************************************************* //
