/*--------------------------------*- C++ -*----------------------------------*\
| =========                 |                                                 |
| \\      /  F ield         | OpenFOAM: The Open Source CFD Toolbox           |
|  \\    /   O peration     | Version:  5.x                                   |
|   \\  /    A nd           | Web:      www.OpenFOAM.org                      |
|    \\/     M anipulation  |                                                 |
\*---------------------------------------------------------------------------*/
/*   Windows 32 and 64 bit porting by blueCAPE: http://www.bluecape.com.pt   *\
|  Based on Windows porting (2.0.x v4) by Symscape: http://www.symscape.com   |
\*---------------------------------------------------------------------------*/
FoamFile
{
    version     2.0;
    format      ascii;
    class       volSymmTensorField;
    location    "0.11";
    object      sigma;
}
// * * * * * * * * * * * * * * * * * * * * * * * * * * * * * * * * * * * * * //

dimensions      [0 2 -2 0 0 0 0];

internalField   nonuniform List<symmTensor> 
750
(
(-0.0002147185 1.4976733e-005 0 0.00021567104 0 0)
(-0.00027632446 1.1330073e-006 0 0.00027229794 0 0)
(-0.0002498111 -3.0722821e-006 0 0.00024977488 0 0)
(-0.00021528351 -4.0713756e-006 0 0.00021223822 0 0)
(-0.00017568909 -3.8059785e-006 0 0.00017639791 0 0)
(-0.00015123704 -3.1226005e-006 0 0.00014977068 0 0)
(-0.00012691888 -2.3931982e-006 0 0.00012705052 0 0)
(-0.0001136989 -1.3511715e-006 0 0.00011313332 0 0)
(-0.00010694239 -2.7837397e-007 0 0.00010675021 0 0)
(-0.0001101121 1.0095444e-006 0 0.0001098 0 0)
(-0.00012623245 2.7203495e-006 0 0.00012584699 0 0)
(-0.00015223602 4.5254348e-006 0 0.00015156154 0 0)
(-0.0002011335 7.3192997e-006 0 0.00020012232 0 0)
(-0.00027192815 1.1115582e-005 0 0.00027006552 0 0)
(-0.00037645436 1.6352961e-005 0 0.0003724666 0 0)
(-0.00053845485 2.4775715e-005 0 0.00053138143 0 0)
(-0.00077265688 3.7095186e-005 0 0.00075675544 0 0)
(-0.0011273141 5.6223768e-005 0 0.0010945135 0 0)
(-0.0016887486 9.0949063e-005 0 0.0016210684 0 0)
(-0.0025554744 0.00014033255 0 0.0023827882 0 0)
(-0.0040756675 0.0002417537 0 0.0037279952 0 0)
(-0.0066483831 0.00036791286 0 0.0056168743 0 0)
(-0.010611027 0.00053802361 0 0.0085089492 0 0)
(-0.015413799 0.0008137598 0 0.010857105 0 0)
(-0.020033824 0.00057983911 0 0.013274339 0 0)
(-0.00021492944 4.4966129e-005 0 0.00021516701 0 0)
(-0.00027694906 3.3792074e-006 0 0.00027427491 0 0)
(-0.00025040647 -9.3231461e-006 0 0.000249673 0 0)
(-0.00021555522 -1.2064797e-005 0 0.00021254415 0 0)
(-0.00017563419 -1.1299718e-005 0 0.00017646809 0 0)
(-0.00015094986 -9.2204072e-006 0 0.00014929305 0 0)
(-0.00012647242 -6.9710253e-006 0 0.00012664947 0 0)
(-0.00011317631 -3.852568e-006 0 0.00011250591 0 0)
(-0.00010633433 -5.9404632e-007 0 0.00010610032 0 0)
(-0.00010943993 3.247536e-006 0 0.00010905136 0 0)
(-0.00012535888 8.3621661e-006 0 0.00012490544 0 0)
(-0.000150944 1.3760356e-005 0 0.00015018418 0 0)
(-0.00019949496 2.2131449e-005 0 0.00019837538 0 0)
(-0.00026965009 3.3399786e-005 0 0.00026759855 0 0)
(-0.00037288372 4.905646e-005 0 0.00036859416 0 0)
(-0.0005336846 7.4134048e-005 0 0.00052624613 0 0)
(-0.00076405103 0.00011036127 0 0.00074737159 0 0)
(-0.0011143708 0.00016753444 0 0.0010806523 0 0)
(-0.0016687043 0.0002690715 0 0.0015996243 0 0)
(-0.0025155331 0.00041072479 0 0.0023383472 0 0)
(-0.0040327532 0.00073361008 0 0.0036842453 0 0)
(-0.0065295844 0.0010674877 0 0.0054749664 0 0)
(-0.010474968 0.0016113439 0 0.0083969975 0 0)
(-0.01513349 0.0024270681 0 0.010502216 0 0)
(-0.019489169 0.0017340363 0 0.013019081 0 0)
(-0.0002153555 7.5049897e-005 0 0.00021546332 0 0)
(-0.00027830909 5.4726374e-006 0 0.00027574007 0 0)
(-0.00025157888 -1.5859981e-005 0 0.00025073956 0 0)
(-0.00021610793 -2.0145839e-005 0 0.0002129351 0 0)
(-0.00017543938 -1.8880977e-005 0 0.00017639106 0 0)
(-0.00015031511 -1.5357457e-005 0 0.00014858804 0 0)
(-0.00012558923 -1.1542672e-005 0 0.00012583355 0 0)
(-0.00011210611 -6.3585754e-006 0 0.00011144382 0 0)
(-0.00010511461 -9.0170424e-007 0 0.00010492408 0 0)
(-0.00010806898 5.4907859e-006 0 0.00010771398 0 0)
(-0.00012354977 1.3915039e-005 0 0.00012315901 0 0)
(-0.00014849516 2.2886313e-005 0 0.00014780697 0 0)
(-0.00019631225 3.6808087e-005 0 0.00019527588 0 0)
(-0.00026515463 5.5352146e-005 0 0.00026322021 0 0)
(-0.00036601921 8.1270085e-005 0 0.00036189832 0 0)
(-0.00052368276 0.00012260314 0 0.00051655277 0 0)
(-0.00074788132 0.00018216841 0 0.00073163137 0 0)
(-0.0010885726 0.00027639601 0 0.0010556694 0 0)
(-0.0016271636 0.00044194358 0 0.001559612 0 0)
(-0.0024451891 0.00068544919 0 0.0022695361 0 0)
(-0.0039295822 0.001181871 0 0.003586132 0 0)
(-0.0063346832 0.0017885303 0 0.0052808781 0 0)
(-0.010128795 0.0026505265 0 0.00810196 0 0)
(-0.01473281 0.0040596557 0 0.010001108 0 0)
(-0.018250425 0.0028583423 0 0.012413401 0 0)
(-0.00021609152 0.0001048736 0 0.00021635375 0 0)
(-0.0002804255 7.2894867e-006 0 0.00027739107 0 0)
(-0.00025333413 -2.2723172e-005 0 0.00025277807 0 0)
(-0.00021690183 -2.860538e-005 0 0.00021353588 0 0)
(-0.00017511197 -2.673921e-005 0 0.00017614177 0 0)
(-0.00014935629 -2.1740234e-005 0 0.00014761031 0 0)
(-0.00012425423 -1.6336596e-005 0 0.00012450783 0 0)
(-0.00011049759 -9.0806484e-006 0 0.00010984619 0 0)
(-0.00010329641 -1.4331534e-006 0 0.00010311265 0 0)
(-0.00010586983 7.4320573e-006 0 0.00010553538 0 0)
(-0.00012084382 1.914758e-005 0 0.00012045903 0 0)
(-0.00014508573 3.166659e-005 0 0.00014439343 0 0)
(-0.00019151978 5.0999592e-005 0 0.0001904857 0 0)
(-0.00025831769 7.6622043e-005 0 0.00025640957 0 0)
(-0.00035600931 0.00011259669 0 0.00035190408 0 0)
(-0.00050830803 0.00016959402 0 0.00050121801 0 0)
(-0.00072415965 0.0002518591 0 0.00070803418 0 0)
(-0.0010501845 0.00038192546 0 0.0010174682 0 0)
(-0.0015638636 0.0006087677 0 0.0014970353 0 0)
(-0.0023489669 0.00094241598 0 0.0021741244 0 0)
(-0.0037564646 0.0016393398 0 0.0034106703 0 0)
(-0.0060393053 0.0025359328 0 0.0049817676 0 0)
(-0.0095618419 0.0037358702 0 0.0075886728 0 0)
(-0.014266982 0.0055814383 0 0.0093599192 0 0)
(-0.016620766 0.0039091784 0 0.011526967 0 0)
(-0.0002173072 0.00013472953 0 0.00021750191 0 0)
(-0.00028326507 8.8073623e-006 0 0.00027997785 0 0)
(-0.00025559472 -2.9905033e-005 0 0.00025517116 0 0)
(-0.0002178837 -3.7435188e-005 0 0.00021440927 0 0)
(-0.00017464075 -3.4835389e-005 0 0.00017568095 0 0)
(-0.00014804966 -2.8242987e-005 0 0.0001463146 0 0)
(-0.00012246724 -2.1189691e-005 0 0.0001227089 0 0)
(-0.00010834971 -1.1827307e-005 0 0.00010772039 0 0)
(-0.00010088168 -2.0099428e-006 0 0.0001007049 0 0)
(-0.0001029972 9.2901589e-006 0 0.00010268378 0 0)
(-0.00011725298 2.4222262e-005 0 0.00011687557 0 0)
(-0.00014060831 4.0222716e-005 0 0.00013992479 0 0)
(-0.00018515922 6.4726682e-005 0 0.00018414265 0 0)
(-0.00024931026 9.7172398e-005 0 0.00024744852 0 0)
(-0.00034292311 0.00014275275 0 0.00033886376 0 0)
(-0.00048808619 0.00021459332 0 0.00048106422 0 0)
(-0.00069333169 0.00031818181 0 0.00067744441 0 0)
(-0.0010003669 0.0004811341 0 0.00096785391 0 0)
(-0.0014810964 0.00076589063 0 0.0014152657 0 0)
(-0.002217784 0.0011934517 0 0.0020430262 0 0)
(-0.0035165015 0.0020685601 0 0.0031718187 0 0)
(-0.0057235789 0.0031096867 0 0.0046595501 0 0)
(-0.0087962959 0.0047877244 0 0.0068847098 0 0)
(-0.013569072 0.0070182452 0 0.0085307382 0 0)
(-0.015304732 0.0048020677 0 0.010852561 0 0)
(-0.00021919001 0.00016460218 0 0.0002191277 0 0)
(-0.00028684165 1.0001847e-005 0 0.00028346155 0 0)
(-0.00025833875 -3.752843e-005 0 0.00025794877 0 0)
(-0.00021901595 -4.6709349e-005 0 0.00021547012 0 0)
(-0.00017398077 -4.322207e-005 0 0.00017499836 0 0)
(-0.00014637438 -3.4888992e-005 0 0.00014466428 0 0)
(-0.00012021983 -2.6127911e-005 0 0.00012044139 0 0)
(-0.00010565984 -1.4621776e-005 0 0.00010505973 0 0)
(-9.7883156e-005 -2.6471298e-006 0 9.771665e-005 0 0)
(-9.9501711e-005 1.1075917e-005 0 9.9194346e-005 0 0)
(-0.00011283692 2.910033e-005 0 0.00011248226 0 0)
(-0.00013499481 4.8403134e-005 0 0.00013435198 0 0)
(-0.00017730466 7.7800606e-005 0 0.00017631963 0 0)
(-0.00023826401 0.00011678014 0 0.00023644401 0 0)
(-0.00032707855 0.0001713969 0 0.00032308521 0 0)
(-0.00046347132 0.00025692656 0 0.00045653435 0 0)
(-0.00065573589 0.00038072 0 0.00064014691 0 0)
(-0.00094038321 0.00057272569 0 0.00090806362 0 0)
(-0.0013789299 0.00091263974 0 0.0013144397 0 0)
(-0.0020598697 0.0014135014 0 0.0018874987 0 0)
(-0.0032218997 0.0024541942 0 0.002883039 0 0)
(-0.0052117868 0.0037902057 0 0.0041536489 0 0)
(-0.0078709381 0.0057603379 0 0.0060214036 0 0)
(-0.012617454 0.0084576973 0 0.0074681417 0 0)
(-0.012994287 0.005387417 0 0.0096098517 0 0)
(-0.00022189269 0.00019435191 0 0.0002216122 0 0)
(-0.00029114731 1.0870901e-005 0 0.00028747714 0 0)
(-0.0002615432 -4.556746e-005 0 0.00026125996 0 0)
(-0.00022025655 -5.6434452e-005 0 0.00021660235 0 0)
(-0.00017307575 -5.1867537e-005 0 0.00017407128 0 0)
(-0.0001442989 -4.166417e-005 0 0.00014261709 0 0)
(-0.00011748939 -3.112486e-005 0 0.00011768788 0 0)
(-0.00010242756 -1.7420641e-005 0 0.00010186109 0 0)
(-9.4295266e-005 -3.318644e-006 0 9.4135135e-005 0 0)
(-9.5325661e-005 1.2802208e-005 0 9.5035941e-005 0 0)
(-0.00010762371 3.3755795e-005 0 0.00010729707 0 0)
(-0.00012840448 5.6177279e-005 0 0.00012779076 0 0)
(-0.00016806371 9.0223149e-005 0 0.00016709046 0 0)
(-0.00022534745 0.00013540812 0 0.00022354116 0 0)
(-0.00030846794 0.00019827594 0 0.00030448115 0 0)
(-0.00043481832 0.00029678036 0 0.00042793183 0 0)
(-0.00061245186 0.00043797805 0 0.00059710902 0 0)
(-0.00087053479 0.00065608601 0 0.00083864376 0 0)
(-0.001264689 0.0010414983 0 0.0012017557 0 0)
(-0.0018636294 0.0016187858 0 0.0016937695 0 0)
(-0.0028624834 0.0028014762 0 0.0025248037 0 0)
(-0.0046722751 0.0042930059 0 0.0036240979 0 0)
(-0.006676804 0.0067220683 0 0.0048825508 0 0)
(-0.011775016 0.0093322979 0 0.0065327951 0 0)
(-0.0092780433 0.0065679851 0 0.0067965326 0 0)
(-0.0002256319 0.00022433197 0 0.00022548732 0 0)
(-0.00029611614 1.1576393e-005 0 0.00029154337 0 0)
(-0.00026518302 -5.3938138e-005 0 0.0002653715 0 0)
(-0.00022160572 -6.6675193e-005 0 0.00021767451 0 0)
(-0.00017183922 -6.0794946e-005 0 0.00017286347 0 0)
(-0.0001418024 -4.8473389e-005 0 0.00014012664 0 0)
(-0.00011427306 -3.6071787e-005 0 0.00011444624 0 0)
(-9.8652669e-005 -2.0148487e-005 0 9.8108901e-005 0 0)
(-9.0131877e-005 -3.9724208e-006 0 8.9967021e-005 0 0)
(-9.0477293e-005 1.4450603e-005 0 9.0220169e-005 0 0)
(-0.00010163948 3.8213389e-005 0 0.00010131444 0 0)
(-0.00012090452 6.3672038e-005 0 0.00012026922 0 0)
(-0.00015761032 0.00010199106 0 0.00015660822 0 0)
(-0.00021064542 0.00015294654 0 0.00020883842 0 0)
(-0.00028730047 0.0002234129 0 0.00028328553 0 0)
(-0.00040288645 0.00033238072 0 0.00039586791 0 0)
(-0.00056347756 0.00049092992 0 0.00054836385 0 0)
(-0.00079203602 0.00073084428 0 0.00076068034 0 0)
(-0.0011317348 0.0011569887 0 0.0010696423 0 0)
(-0.0016530279 0.0017868352 0 0.0014873307 0 0)
(-0.0024345191 0.0030909273 0 0.0021002878 0 0)
(-0.003962839 0.004747216 0 0.0029214242 0 0)
(-0.0052773151 0.0075220553 0 0.0035524955 0 0)
(-0.010161389 0.010419342 0 0.0049613727 0 0)
(-0.0066828581 0.007368909 0 0.0046354748 0 0)
(-0.00023053479 0.00025423133 0 0.00023032736 0 0)
(-0.00030166741 1.2004901e-005 0 0.0002967646 0 0)
(-0.00026918623 -6.2551538e-005 0 0.00026954567 0 0)
(-0.00022300787 -7.7548663e-005 0 0.00021870211 0 0)
(-0.00017025575 -7.0022635e-005 0 0.00017140085 0 0)
(-0.00013882998 -5.5396821e-005 0 0.00013712506 0 0)
(-0.00011051586 -4.1025138e-005 0 0.00011069558 0 0)
(-9.4337301e-005 -2.280986e-005 0 9.3810941e-005 0 0)
(-8.5382201e-005 -4.5527126e-006 0 8.5246992e-005 0 0)
(-8.5067358e-005 1.6035025e-005 0 8.4815743e-005 0 0)
(-9.4952128e-005 4.2512587e-005 0 9.4629361e-005 0 0)
(-0.00011240261 7.0769336e-005 0 0.00011181074 0 0)
(-0.00014583835 0.00011302829 0 0.00014491412 0 0)
(-0.00019402006 0.00016910165 0 0.00019230582 0 0)
(-0.00026358301 0.00024657062 0 0.00025974079 0 0)
(-0.00036681359 0.00036569323 0 0.00036002697 0 0)
(-0.00050883384 0.00053790438 0 0.00049403121 0 0)
(-0.00070861209 0.00079373877 0 0.00067786469 0 0)
(-0.00099122488 0.0012515433 0 0.00093171731 0 0)
(-0.0014135087 0.0019077941 0 0.0012502313 0 0)
(-0.001934635 0.0033287096 0 0.0016373828 0 0)
(-0.0032177117 0.0049596881 0 0.0021950067 0 0)
(-0.0033675764 0.0081354553 0 0.00188568 0 0)
(-0.0073273934 0.011041794 0 0.0026263558 0 0)
(-0.00028455475 0.010166203 0 -0.0019384229 0 0)
(-0.00023640942 0.00028691612 0 0.00023433929 0 0)
(-0.00030815975 1.0627438e-005 0 0.00030594201 0 0)
(-0.00027364795 -7.2050904e-005 0 0.00027300393 0 0)
(-0.00022448512 -8.9122865e-005 0 0.0002194076 0 0)
(-0.00016829474 -7.9814323e-005 0 0.00017007436 0 0)
(-0.00013535041 -6.2618547e-005 0 0.00013345517 0 0)
(-0.00010620454 -4.6058573e-005 0 0.00010657082 0 0)
(-8.9436121e-005 -2.5547235e-005 0 8.8977166e-005 0 0)
(-8.0049412e-005 -5.2266775e-006 0 8.0021188e-005 0 0)
(-7.9255879e-005 1.8071669e-005 0 7.9104872e-005 0 0)
(-8.7508318e-005 4.6261005e-005 0 8.7387092e-005 0 0)
(-0.00010277791 7.6934664e-005 0 0.00010241098 0 0)
(-0.00013282208 0.00012300788 0 0.00013212711 0 0)
(-0.00017619919 0.00018412514 0 0.0001747856 0 0)
(-0.00023733741 0.00026710455 0 0.00023384801 0 0)
(-0.00032784537 0.0003952723 0 0.00032170769 0 0)
(-0.00045162729 0.0005777002 0 0.00043721853 0 0)
(-0.00061863418 0.00084350191 0 0.00058726365 0 0)
(-0.00083391933 0.0013330596 0 0.00077851011 0 0)
(-0.0011793939 0.0019692956 0 0.0010092404 0 0)
(-0.0013920724 0.0034555756 0 0.0011411724 0 0)
(-0.0022257526 0.0050286042 0 0.0012309935 0 0)
(-0.0012615985 0.0079252982 0 0.00015896949 0 0)
(-0.0032433844 0.0099760829 0 -0.00061575903 0 0)
(0.0038439852 0.010427679 0 -0.0075027866 0 0)
(-0.015793545 0.00064829896 0 0.010576907 0 0)
(-0.0093955036 0.0012982403 0 0.0071252578 0 0)
(-0.0039217481 0.0020017673 0 0.003154709 0 0)
(-0.0013406082 0.0024647522 0 0.0011163167 0 0)
(-0.00047812269 0.0026457493 0 0.00029301474 0 0)
(-0.00014444993 0.0026934952 0 -2.2685903e-005 0 0)
(-0.00011662135 0.0026909496 0 -5.2846913e-005 0 0)
(-0.00013162159 0.0026851958 0 -3.5471842e-005 0 0)
(-0.00015947544 0.002680193 0 -7.2290273e-006 0 0)
(-0.0001659965 0.0026790224 0 -2.5038172e-007 0 0)
(-0.00016661504 0.0026789143 0 3.2950867e-007 0 0)
(-0.00016629408 0.0026789267 0 2.4881653e-008 0 0)
(-0.00016621658 0.0026789208 0 -5.4457435e-008 0 0)
(-0.00016623556 0.0026789143 0 -3.2879845e-008 0 0)
(-0.00016626666 0.0026789108 0 -1.8747692e-009 0 0)
(-0.00016627129 0.0026789107 0 3.1095415e-009 0 0)
(-0.00016627134 0.0026789103 0 2.9995742e-009 0 0)
(-0.000166269 0.0026789121 0 3.9805647e-010 0 0)
(-0.00016626725 0.0026789119 0 -1.3389743e-009 0 0)
(-0.00016626904 0.0026789094 0 6.9908577e-010 0 0)
(-0.00016626955 0.0026789102 0 1.2426262e-009 0 0)
(-0.00016626569 0.0026789104 0 -2.0719148e-009 0 0)
(-0.0001662645 0.0026789088 0 -6.5329077e-009 0 0)
(-0.00016623646 0.0026789088 0 -2.7809634e-008 0 0)
(-0.0001662232 0.0026788944 0 -3.0260904e-008 0 0)
(-0.015036134 0.0019497302 0 0.01000451 0 0)
(-0.0088348057 0.0038631424 0 0.0065154253 0 0)
(-0.0042965371 0.0058810956 0 0.0028143243 0 0)
(-0.0022066446 0.007220742 0 0.00089989306 0 0)
(-0.0016968118 0.0076408822 0 0.00028244958 0 0)
(-0.0014162514 0.007787627 0 -4.1518826e-006 0 0)
(-0.0013784184 0.0077858326 0 -4.1896068e-005 0 0)
(-0.0013873866 0.0077706095 0 -2.6800954e-005 0 0)
(-0.0014059017 0.0077596158 0 -5.7857637e-006 0 0)
(-0.001410541 0.007756882 0 -1.3750431e-007 0 0)
(-0.0014109106 0.0077566566 0 2.3192552e-007 0 0)
(-0.0014106839 0.0077566904 0 2.8460626e-008 0 0)
(-0.0014105955 0.0077566789 0 -4.8541425e-008 0 0)
(-0.0014106156 0.0077566579 0 -1.992679e-008 0 0)
(-0.0014106333 0.0077566523 0 -9.8540394e-010 0 0)
(-0.0014106351 0.0077566491 0 2.423049e-009 0 0)
(-0.0014106352 0.0077566507 0 1.8818458e-009 0 0)
(-0.0014106316 0.0077566477 0 5.1030966e-010 0 0)
(-0.0014106317 0.0077566492 0 -7.2490332e-011 0 0)
(-0.0014106339 0.0077566515 0 3.8491595e-010 0 0)
(-0.0014106324 0.0077566492 0 1.0074576e-010 0 0)
(-0.0014106307 0.0077566509 0 -1.6973038e-009 0 0)
(-0.0014106296 0.0077566471 0 -4.8501862e-009 0 0)
(-0.0014106065 0.0077566439 0 -1.8924412e-008 0 0)
(-0.0014105842 0.0077566012 0 -2.0572636e-008 0 0)
(-0.013760139 0.0031766481 0 0.0091658757 0 0)
(-0.0076703354 0.0064669509 0 0.0052976315 0 0)
(-0.0050449523 0.0093629762 0 0.0023061591 0 0)
(-0.0038674878 0.011268646 0 0.00073903839 0 0)
(-0.003659395 0.011973633 0 0.00017231699 0 0)
(-0.0035373886 0.012143059 0 -5.6931778e-007 0 0)
(-0.0035135044 0.012143285 0 -2.6034799e-005 0 0)
(-0.003511734 0.01212424 0 -1.6791858e-005 0 0)
(-0.0035180106 0.012109499 0 -3.9547097e-006 0 0)
(-0.0035197014 0.012105747 0 -2.0662153e-007 0 0)
(-0.0035199011 0.012105348 0 1.321702e-007 0 0)
(-0.003519734 0.012105382 0 3.6458341e-009 0 0)
(-0.0035196839 0.012105367 0 -2.8992114e-008 0 0)
(-0.0035196865 0.012105345 0 -1.1451323e-008 0 0)
(-0.0035196925 0.012105335 0 -6.4037505e-010 0 0)
(-0.0035196941 0.012105335 0 1.0127642e-009 0 0)
(-0.00351969 0.012105331 0 8.8796935e-010 0 0)
(-0.0035196915 0.012105333 0 8.5771913e-010 0 0)
(-0.0035196947 0.012105336 0 1.3587713e-009 0 0)
(-0.0035196931 0.012105337 0 -7.1744399e-010 0 0)
(-0.0035196882 0.012105333 0 -1.1575534e-009 0 0)
(-0.0035196894 0.012105333 0 -8.9843431e-010 0 0)
(-0.003519689 0.012105327 0 -1.6128915e-009 0 0)
(-0.0035196795 0.012105323 0 -4.7602055e-009 0 0)
(-0.0035196461 0.012105262 0 -5.6050123e-009 0 0)
(-0.011914278 0.0043242339 0 0.0078333357 0 0)
(-0.0064365468 0.0095220514 0 0.0034735951 0 0)
(-0.0058706308 0.012189258 0 0.0016808305 0 0)
(-0.0057736196 0.014650685 0 0.00041573486 0 0)
(-0.0060259506 0.015422648 0 7.6030795e-005 0 0)
(-0.0060459464 0.015581643 0 6.1705809e-006 0 0)
(-0.0060363806 0.015581162 0 -7.1846121e-006 0 0)
(-0.0060250314 0.015564765 0 -5.7376434e-006 0 0)
(-0.0060199313 0.015550572 0 -1.94468e-006 0 0)
(-0.0060188227 0.015546641 0 -2.688302e-007 0 0)
(-0.0060187923 0.015546111 0 4.1273633e-009 0 0)
(-0.0060187403 0.015546119 0 7.1839721e-009 0 0)
(-0.0060187128 0.015546114 0 -4.8234191e-009 0 0)
(-0.0060186969 0.015546098 0 -2.8182083e-009 0 0)
(-0.0060186935 0.015546089 0 -6.3746001e-010 0 0)
(-0.006018692 0.015546089 0 -6.5630155e-010 0 0)
(-0.0060186921 0.015546088 0 -3.7200302e-010 0 0)
(-0.0060186938 0.015546088 0 1.1898825e-009 0 0)
(-0.0060186944 0.015546089 0 1.1876077e-009 0 0)
(-0.0060186872 0.015546086 0 -8.2973258e-010 0 0)
(-0.0060186884 0.015546087 0 -1.426926e-009 0 0)
(-0.0060186933 0.015546088 0 5.1234649e-010 0 0)
(-0.006018689 0.015546083 0 6.0277554e-010 0 0)
(-0.0060186984 0.015546075 0 1.0338754e-008 0 0)
(-0.006018669 0.015546032 0 9.7205547e-009 0 0)
(-0.0090829964 0.0059393615 0 0.0056530079 0 0)
(-0.0062398757 0.011772504 0 0.0021477923 0 0)
(-0.0068415024 0.015228181 0 0.00065055127 0 0)
(-0.0079356662 0.017466089 0 9.3868696e-005 0 0)
(-0.00855259 0.018103967 0 1.3527985e-005 0 0)
(-0.0086661796 0.01823278 0 1.6455783e-005 0 0)
(-0.0086665551 0.018232743 0 9.0412001e-006 0 0)
(-0.0086499007 0.018221977 0 3.619586e-006 0 0)
(-0.0086364754 0.018210941 0 -2.3663033e-007 0 0)
(-0.008633285 0.018207519 0 -3.022395e-007 0 0)
(-0.0086330758 0.018206936 0 -8.5047148e-008 0 0)
(-0.0086331202 0.018206925 0 1.4060527e-008 0 0)
(-0.0086331159 0.018206934 0 1.4728218e-008 0 0)
(-0.0086330909 0.018206929 0 3.7300151e-009 0 0)
(-0.0086330795 0.018206922 0 -7.7937933e-010 0 0)
(-0.0086330774 0.018206922 0 -1.635743e-009 0 0)
(-0.0086330754 0.01820692 0 -1.1158764e-009 0 0)
(-0.0086330784 0.018206921 0 7.0732161e-010 0 0)
(-0.0086330758 0.01820692 0 6.8330121e-010 0 0)
(-0.0086330762 0.018206922 0 -8.5704241e-010 0 0)
(-0.0086330781 0.018206921 0 -4.6882017e-010 0 0)
(-0.0086330812 0.01820692 0 1.9311219e-009 0 0)
(-0.0086330758 0.018206914 0 4.0523053e-009 0 0)
(-0.0086330956 0.01820691 0 1.802477e-008 0 0)
(-0.0086330879 0.018206892 0 1.8482055e-008 0 0)
(-0.0062648805 0.0087585233 0 0.0027686157 0 0)
(-0.0059225128 0.014464078 0 0.00043716318 0 0)
(-0.0086960434 0.018204549 0 -0.00020683792 0 0)
(-0.010547607 0.019980062 0 -0.00012427451 0 0)
(-0.011280551 0.020366527 0 -1.4631118e-005 0 0)
(-0.011419748 0.020447461 0 2.8109664e-005 0 0)
(-0.011424861 0.020450612 0 2.072683e-005 0 0)
(-0.011405089 0.020446505 0 9.4704689e-006 0 0)
(-0.011388189 0.020440145 0 8.7470276e-007 0 0)
(-0.011384024 0.020437726 0 -3.1556173e-007 0 0)
(-0.01138377 0.020437182 0 -1.2547952e-007 0 0)
(-0.011383882 0.020437168 0 2.1480436e-008 0 0)
(-0.011383898 0.020437192 0 2.5218951e-008 0 0)
(-0.011383874 0.020437199 0 7.577134e-009 0 0)
(-0.011383861 0.020437197 0 -1.1770937e-009 0 0)
(-0.011383859 0.020437196 0 -1.7433639e-009 0 0)
(-0.011383858 0.020437195 0 -1.3224665e-009 0 0)
(-0.011383859 0.020437194 0 -1.1053844e-010 0 0)
(-0.011383859 0.020437195 0 -9.4908038e-011 0 0)
(-0.01138386 0.020437195 0 -3.0843664e-011 0 0)
(-0.011383859 0.020437194 0 6.8461335e-010 0 0)
(-0.011383862 0.020437193 0 2.3031559e-009 0 0)
(-0.01138386 0.020437191 0 4.8827532e-009 0 0)
(-0.011383884 0.02043719 0 1.8958607e-008 0 0)
(-0.011383903 0.020437197 0 1.9523714e-008 0 0)
(-0.0051035623 0.010909532 0 0.00059823588 0 0)
(-0.0073113459 0.018668372 0 -0.0013173334 0 0)
(-0.012051763 0.021502899 0 -0.00071293449 0 0)
(-0.013768729 0.022469198 0 -0.00021835208 0 0)
(-0.014435336 0.022602365 0 -9.7713118e-006 0 0)
(-0.014544182 0.02264041 0 3.8640707e-005 0 0)
(-0.014551237 0.022649887 0 2.7018229e-005 0 0)
(-0.014529684 0.022653513 0 1.0828277e-005 0 0)
(-0.014514462 0.02265147 0 1.2095703e-006 0 0)
(-0.014510576 0.022650207 0 -3.292762e-007 0 0)
(-0.014510439 0.022649773 0 -1.326146e-007 0 0)
(-0.014510601 0.022649767 0 2.6065339e-008 0 0)
(-0.014510636 0.022649804 0 2.8792615e-008 0 0)
(-0.014510616 0.02264982 0 6.7837828e-009 0 0)
(-0.014510604 0.022649819 0 -1.4327366e-009 0 0)
(-0.014510603 0.022649819 0 -1.5256956e-009 0 0)
(-0.014510602 0.022649817 0 -1.1085997e-009 0 0)
(-0.014510602 0.022649818 0 -8.4179377e-010 0 0)
(-0.014510604 0.022649817 0 -1.3594043e-010 0 0)
(-0.014510603 0.022649817 0 5.1959978e-010 0 0)
(-0.014510604 0.022649816 0 7.8600486e-010 0 0)
(-0.014510606 0.022649817 0 1.6149959e-009 0 0)
(-0.014510609 0.022649818 0 4.1001813e-009 0 0)
(-0.014510628 0.022649819 0 1.3780134e-008 0 0)
(-0.014510666 0.022649845 0 1.3430325e-008 0 0)
(-0.0049119151 0.015263493 0 -0.0025244398 0 0)
(-0.011053958 0.023400406 0 -0.0025925209 0 0)
(-0.016776091 0.024904765 0 -0.00079597326 0 0)
(-0.017775792 0.025160765 0 -0.00019551918 0 0)
(-0.018282443 0.025128229 0 1.4188771e-005 0 0)
(-0.018340618 0.025148533 0 4.4325523e-005 0 0)
(-0.018354445 0.025169769 0 2.6730395e-005 0 0)
(-0.018335944 0.025181107 0 8.8807319e-006 0 0)
(-0.01832596 0.025182035 0 9.9593692e-007 0 0)
(-0.018322986 0.025181621 0 -3.4558148e-007 0 0)
(-0.018323059 0.025181288 0 -1.1448193e-007 0 0)
(-0.018323228 0.025181298 0 1.9817059e-008 0 0)
(-0.018323286 0.025181342 0 2.3038534e-008 0 0)
(-0.018323273 0.025181361 0 3.7873863e-009 0 0)
(-0.018323266 0.02518136 0 -1.6521443e-009 0 0)
(-0.018323266 0.02518136 0 -1.1185662e-009 0 0)
(-0.018323265 0.025181358 0 -8.3622887e-010 0 0)
(-0.018323264 0.025181358 0 -9.8032512e-010 0 0)
(-0.018323265 0.025181358 0 -9.3449235e-011 0 0)
(-0.018323266 0.025181358 0 5.5007331e-010 0 0)
(-0.018323267 0.025181358 0 4.1407501e-010 0 0)
(-0.018323268 0.025181359 0 8.4975684e-010 0 0)
(-0.018323271 0.025181362 0 2.3824275e-009 0 0)
(-0.018323281 0.025181365 0 5.3888957e-009 0 0)
(-0.01832332 0.025181393 0 4.3397008e-009 0 0)
(-0.009732455 0.023854263 0 -0.0057004366 0 0)
(-0.017871605 0.028740307 0 -0.0033693105 0 0)
(-0.022556243 0.028401404 0 -0.00061724414 0 0)
(-0.0225395 0.028104128 0 -0.00014233485 0 0)
(-0.022857128 0.028014004 0 4.3667295e-005 0 0)
(-0.022897202 0.028056879 0 3.845201e-005 0 0)
(-0.022932343 0.028092028 0 2.1890823e-005 0 0)
(-0.022922345 0.028108494 0 5.3508843e-006 0 0)
(-0.022919058 0.028110883 0 5.9147647e-007 0 0)
(-0.022917179 0.028110781 0 -3.1538576e-007 0 0)
(-0.022917324 0.028110475 0 -7.4776724e-008 0 0)
(-0.022917459 0.028110491 0 9.479122e-009 0 0)
(-0.022917534 0.028110533 0 1.4982458e-008 0 0)
(-0.022917525 0.028110548 0 6.6296751e-010 0 0)
(-0.022917522 0.028110547 0 -1.5207361e-009 0 0)
(-0.022917521 0.028110545 0 -7.6084729e-010 0 0)
(-0.022917521 0.028110544 0 -4.5522033e-010 0 0)
(-0.02291752 0.028110544 0 -7.3948837e-010 0 0)
(-0.02291752 0.028110543 0 -1.4528164e-010 0 0)
(-0.022917521 0.028110543 0 3.8479752e-010 0 0)
(-0.022917522 0.028110544 0 1.537596e-010 0 0)
(-0.022917522 0.028110544 0 3.7124635e-011 0 0)
(-0.022917524 0.028110547 0 2.7473783e-010 0 0)
(-0.022917523 0.028110552 0 -2.638969e-009 0 0)
(-0.022917544 0.02811057 0 -3.1180176e-009 0 0)
(-0.031019173 0.040353468 0 -0.0098929574 0 0)
(-0.027450119 0.033122299 0 -0.0020532955 0 0)
(-0.033138508 0.033772543 0 -0.00027983733 0 0)
(-0.03106606 0.032620596 0 -3.1425344e-005 0 0)
(-0.031887386 0.03289639 0 3.6329783e-005 0 0)
(-0.031793747 0.032900621 0 1.952737e-005 0 0)
(-0.031920532 0.032977348 0 8.668881e-006 0 0)
(-0.031909382 0.032984766 0 1.4829846e-006 0 0)
(-0.031917453 0.032990013 0 1.5303291e-007 0 0)
(-0.031914218 0.032988656 0 -1.9434156e-007 0 0)
(-0.031914827 0.032988608 0 -3.7896014e-008 0 0)
(-0.031914726 0.032988517 0 -7.5112632e-010 0 0)
(-0.031914838 0.032988572 0 3.8854909e-009 0 0)
(-0.03191482 0.03298857 0 -7.8441828e-010 0 0)
(-0.031914821 0.032988569 0 -7.5726768e-010 0 0)
(-0.031914817 0.032988567 0 -2.8430092e-010 0 0)
(-0.031914817 0.032988566 0 -1.3630765e-010 0 0)
(-0.031914815 0.032988565 0 -3.6968164e-010 0 0)
(-0.031914814 0.032988564 0 -5.2852183e-011 0 0)
(-0.031914816 0.032988565 0 2.0452665e-010 0 0)
(-0.031914817 0.032988566 0 -2.6563622e-011 0 0)
(-0.031914816 0.032988566 0 -3.5194411e-010 0 0)
(-0.031914812 0.032988566 0 -1.8049808e-010 0 0)
(-0.031914792 0.032988562 0 -5.1898879e-009 0 0)
(-0.031914764 0.032988557 0 -5.3456238e-009 0 0)
(-0.00025127854 0.00035118976 0 0.00024554444 0 0)
(-0.00032212692 9.9686975e-006 0 0.00032806823 0 0)
(-0.00028349716 -9.7012428e-005 0 0.00028182966 0 0)
(-0.00022705254 -0.0001147837 0 0.00021890316 0 0)
(-0.00016326737 -0.00010141358 0 0.0001659182 0 0)
(-0.0001273855 -7.8451609e-005 0 0.00012413586 0 0)
(-9.6598448e-005 -5.6872372e-005 0 9.6416479e-005 0 0)
(-7.8637715e-005 -3.1747991e-005 0 7.7590489e-005 0 0)
(-6.8566813e-005 -7.3484647e-006 0 6.8016748e-005 0 0)
(-6.6158323e-005 1.9680111e-005 0 6.548124e-005 0 0)
(-7.1621887e-005 5.2396317e-005 0 7.0966707e-005 0 0)
(-8.2881574e-005 8.7176351e-005 0 8.1828477e-005 0 0)
(-0.00010599749 0.00013989104 0 0.00010456119 0 0)
(-0.00013839852 0.00020744417 0 0.0001360478 0 0)
(-0.00018408745 0.00029923722 0 0.00017905502 0 0)
(-0.00024913544 0.00043894515 0 0.0002415134 0 0)
(-0.00033178848 0.00063798165 0 0.00031679827 0 0)
(-0.0004354479 0.00091117535 0 0.00040308134 0 0)
(-0.0005551456 0.0014170727 0 0.0005073946 0 0)
(-0.00069292387 0.0020504651 0 0.00054254913 0 0)
(-0.00065596946 0.0034317215 0 0.00044895206 0 0)
(-0.00069653024 0.0048512469 0 -0.00012703947 0 0)
(0.00095571795 0.0071158313 0 -0.0016016003 0 0)
(0.0016339846 0.0075055318 0 -0.0039375446 0 0)
(0.0098790696 0.0057421723 0 -0.012287697 0 0)
(-0.00028506442 0.00045409207 0 0.00027462275 0 0)
(-0.00035740985 -1.9253073e-006 0 0.00036708845 0 0)
(-0.00030375411 -0.00015064319 0 0.00029984137 0 0)
(-0.00022711557 -0.00016597802 0 0.00021625835 0 0)
(-0.00015045138 -0.00014309016 0 0.00015385458 0 0)
(-0.00010887621 -0.00010951533 0 0.00010561119 0 0)
(-7.6561487e-005 -7.8507132e-005 0 7.6598278e-005 0 0)
(-5.7464958e-005 -4.6203362e-005 0 5.7007739e-005 0 0)
(-4.6772429e-005 -1.5744973e-005 0 4.6601573e-005 0 0)
(-4.2437623e-005 1.7130158e-005 0 4.2116027e-005 0 0)
(-4.2907705e-005 5.2530894e-005 0 4.2961596e-005 0 0)
(-4.7717426e-005 9.2736471e-005 0 4.7235685e-005 0 0)
(-5.8549623e-005 0.00015074273 0 5.7804353e-005 0 0)
(-7.4145791e-005 0.00022771813 0 7.3188821e-005 0 0)
(-9.3539877e-005 0.0003246117 0 9.0132808e-005 0 0)
(-0.00011877994 0.0004691699 0 0.00011252704 0 0)
(-0.00014306362 0.00067756409 0 0.00013196655 0 0)
(-0.00016494968 0.00094671219 0 0.00013679104 0 0)
(-0.00014045111 0.0014092185 0 9.6524254e-005 0 0)
(-7.1904402e-005 0.0019833539 0 -5.452442e-005 0 0)
(0.00029884788 0.0030080483 0 -0.00050610123 0 0)
(0.00086074315 0.0038356523 0 -0.001518464 0 0)
(0.0028499493 0.0045317488 0 -0.0035366809 0 0)
(0.0050826674 0.0019293081 0 -0.0071378682 0 0)
(0.0063560182 -0.0023732967 0 -0.0094913801 0 0)
(-0.00034915346 0.00055920132 0 0.00033493946 0 0)
(-0.00041380865 -4.2474591e-005 0 0.00042526954 0 0)
(-0.00032925435 -0.00023897039 0 0.00032215018 0 0)
(-0.00021949381 -0.0002465034 0 0.00020685666 0 0)
(-0.0001282406 -0.00020626242 0 0.00013081103 0 0)
(-8.1945003e-005 -0.00015678727 0 7.8695536e-005 0 0)
(-5.020766e-005 -0.0001148704 0 4.9751887e-005 0 0)
(-3.154812e-005 -7.4767882e-005 0 3.1298109e-005 0 0)
(-2.1159759e-005 -3.8152066e-005 0 2.0880051e-005 0 0)
(-1.5249128e-005 -3.6232062e-006 0 1.5042004e-005 0 0)
(-1.1646769e-005 3.4977109e-005 0 1.1836167e-005 0 0)
(-9.713076e-006 8.0147888e-005 0 9.594618e-006 0 0)
(-8.6628539e-006 0.00013538973 0 7.8514096e-006 0 0)
(-6.1207163e-006 0.00021581553 0 5.1491695e-006 0 0)
(-3.4183329e-007 0.0003149084 0 -1.8753759e-006 0 0)
(1.0643955e-005 0.00044984616 0 -1.6475324e-005 0 0)
(4.0368139e-005 0.00065190131 0 -4.9737777e-005 0 0)
(8.7388907e-005 0.00089831816 0 -0.00011135195 0 0)
(0.00020736853 0.001296251 0 -0.00024411489 0 0)
(0.00040470152 0.0017751725 0 -0.00050015162 0 0)
(0.00091707935 0.0025156437 0 -0.0010689265 0 0)
(0.0017084258 0.0030277265 0 -0.0020963588 0 0)
(0.003268953 0.0030458133 0 -0.0036270723 0 0)
(0.0046881993 0.00072251673 0 -0.0054129543 0 0)
(0.0036710376 -0.0042091592 0 -0.0042009942 0 0)
(-0.00048558549 0.00066707142 0 0.00046440649 0 0)
(-0.00050212699 -0.00013135813 0 0.00051825636 0 0)
(-0.00035777782 -0.00037285767 0 0.0003429243 0 0)