/*--------------------------------*- C++ -*----------------------------------*\
| =========                 |                                                 |
| \\      /  F ield         | OpenFOAM: The Open Source CFD Toolbox           |
|  \\    /   O peration     | Version:  5.x                                   |
|   \\  /    A nd           | Web:      www.OpenFOAM.org                      |
|    \\/     M anipulation  |                                                 |
\*---------------------------------------------------------------------------*/
/*   Windows 32 and 64 bit porting by blueCAPE: http://www.bluecape.com.pt   *\
|  Based on Windows porting (2.0.x v4) by Symscape: http://www.symscape.com   |
\*---------------------------------------------------------------------------*/
FoamFile
{
    version     2.0;
    format      ascii;
    class       volSymmTensorField;
    location    "0.11";
    object      sigma_0;
}
// * * * * * * * * * * * * * * * * * * * * * * * * * * * * * * * * * * * * * //

dimensions      [0 2 -2 0 0 0 0];

internalField   nonuniform List<symmTensor> 
750
(
(-0.00021425124 1.4951248e-005 0 0.00021525576 0 0)
(-0.00027578633 1.1247411e-006 0 0.00027168889 0 0)
(-0.00024906799 -3.0664734e-006 0 0.00024909119 0 0)
(-0.00021476584 -4.057627e-006 0 0.00021169469 0 0)
(-0.00017520465 -3.7940362e-006 0 0.00017593416 0 0)
(-0.0001509075 -3.1106814e-006 0 0.00014943494 0 0)
(-0.00012664696 -2.3842295e-006 0 0.00012678461 0 0)
(-0.00011350634 -1.3436613e-006 0 0.00011293978 0 0)
(-0.00010679494 -2.7275119e-007 0 0.00010660464 0 0)
(-0.00011000629 1.0138174e-006 0 0.00010969432 0 0)
(-0.00012615243 2.7226084e-006 0 0.00012576758 0 0)
(-0.00015216626 4.5261605e-006 0 0.00015149274 0 0)
(-0.00020106236 7.3181978e-006 0 0.00020005188 0 0)
(-0.00027184703 1.1112461e-005 0 0.00026998644 0 0)
(-0.00037634248 1.634693e-005 0 0.00037235801 0 0)
(-0.00053826025 2.4763555e-005 0 0.00053119349 0 0)
(-0.00077237813 3.7077241e-005 0 0.00075649375 0 0)
(-0.0011268148 5.6188429e-005 0 0.0010940475 0 0)
(-0.0016879575 9.0888296e-005 0 0.0016203656 0 0)
(-0.0025538839 0.00014021643 0 0.0023814134 0 0)
(-0.004072727 0.00024158824 0 0.0037256762 0 0)
(-0.0066436386 0.00036757782 0 0.0056135575 0 0)
(-0.010605862 0.00053773817 0 0.0085064437 0 0)
(-0.015411061 0.0008132292 0 0.010856783 0 0)
(-0.020034893 0.00057904301 0 0.013278083 0 0)
(-0.00021446003 4.4886651e-005 0 0.00021475831 0 0)
(-0.00027640849 3.355669e-006 0 0.00027364874 0 0)
(-0.00024966509 -9.3034225e-006 0 0.00024900147 0 0)
(-0.00021503497 -1.2024451e-005 0 0.00021199207 0 0)
(-0.00017514965 -1.1263018e-005 0 0.00017600809 0 0)
(-0.00015062023 -9.1847992e-006 0 0.00014895544 0 0)
(-0.0001262015 -6.943699e-006 0 0.00012638567 0 0)
(-0.00011298437 -3.8299369e-006 0 0.00011231252 0 0)
(-0.00010618775 -5.7699905e-007 0 0.00010595595 0 0)
(-0.00010933564 3.2607111e-006 0 0.00010894709 0 0)
(-0.00012527904 8.3691361e-006 0 0.00012482642 0 0)
(-0.00015087447 1.3762714e-005 0 0.00015011571 0 0)
(-0.00019942468 2.2128355e-005 0 0.0001983056 0 0)
(-0.00026957167 3.339097e-005 0 0.00026752225 0 0)
(-0.00037277313 4.9038495e-005 0 0.00036848697 0 0)
(-0.00053349377 7.4098561e-005 0 0.00052606228 0 0)
(-0.00076377814 0.00011030813 0 0.00074711576 0 0)
(-0.0011138787 0.00016743086 0 0.0010801951 0 0)
(-0.0016679282 0.00026889779 0 0.0015989365 0 0)
(-0.0025139531 0.00041039082 0 0.0023369797 0 0)
(-0.0040299317 0.00073312602 0 0.0036820431 0 0)
(-0.0065250689 0.0010667038 0 0.0054718395 0 0)
(-0.010470359 0.0016103896 0 0.0083948974 0 0)
(-0.015131104 0.0024255292 0 0.010502103 0 0)
(-0.019490495 0.0017317422 0 0.013022569 0 0)
(-0.00021488073 7.4914122e-005 0 0.00021505486 0 0)
(-0.00027776643 5.4362927e-006 0 0.00027510333 0 0)
(-0.00025083459 -1.582441e-005 0 0.00025007082 0 0)
(-0.00021558607 -2.0078824e-005 0 0.00021237839 0 0)
(-0.00017495529 -1.8818596e-005 0 0.00017593306 0 0)
(-0.00014998653 -1.5298114e-005 0 0.00014825063 0 0)
(-0.00012532018 -1.149665e-005 0 0.00012557195 0 0)
(-0.00011191589 -6.3208242e-006 0 0.0001112519 0 0)
(-0.00010496972 -8.731193e-007 0 0.00010478144 0 0)
(-0.00010796652 5.5128078e-006 0 0.00010761147 0 0)
(-0.00012347069 1.3926782e-005 0 0.00012308077 0 0)
(-0.00014842752 2.2890721e-005 0 0.00014774021 0 0)
(-0.00019624456 3.6803416e-005 0 0.00019520854 0 0)
(-0.00026507921 5.5337899e-005 0 0.00026314688 0 0)
(-0.00036591259 8.1240521e-005 0 0.00036179491 0 0)
(-0.00052349858 0.00012254589 0 0.00051637538 0 0)
(-0.00074761994 0.0001820811 0 0.00073138662 0 0)
(-0.001088097 0.00027622626 0 0.0010552279 0 0)
(-0.0016264138 0.00044166012 0 0.0015589508 0 0)
(-0.0024436666 0.00068486972 0 0.0022682296 0 0)
(-0.0039269726 0.0011809821 0 0.0035841288 0 0)
(-0.0063305632 0.0017874799 0 0.0052780437 0 0)
(-0.0101251 0.0026490564 0 0.0081004842 0 0)
(-0.014730822 0.0040573846 0 0.010001504 0 0)
(-0.018252489 0.0028549764 0 0.01241652 0 0)
(-0.00021560579 0.0001046845 0 0.00021593691 0 0)
(-0.00027988255 7.240956e-006 0 0.00027675097 0 0)
(-0.00025258317 -2.2671325e-005 0 0.00025210441 0 0)
(-0.00021637927 -2.8510854e-005 0 0.000212978 0 0)
(-0.00017462883 -2.6650908e-005 0 0.00017568478 0 0)
(-0.00014902942 -2.1657427e-005 0 0.00014727473 0 0)
(-0.00012398801 -1.6272127e-005 0 0.00012424893 0 0)
(-0.00011030999 -9.0280846e-006 0 0.00010965696 0 0)
(-0.00010315413 -1.3932576e-006 0 0.00010297255 0 0)
(-0.00010576965 7.4623897e-006 0 0.00010543511 0 0)
(-0.00012076764 1.9164206e-005 0 0.00012038353 0 0)
(-0.0001450208 3.1673084e-005 0 0.00014432936 0 0)
(-0.00019145483 5.0993069e-005 0 0.00019042117 0 0)
(-0.0002582459 7.6602302e-005 0 0.00025633985 0 0)
(-0.0003559095 0.00011255603 0 0.00035180736 0 0)
(-0.00050813389 0.0001695145 0 0.00050105039 0 0)
(-0.00072391498 0.00025173844 0 0.00070780616 0 0)
(-0.0010497363 0.00038169288 0 0.0010170534 0 0)
(-0.001563156 0.00060837376 0 0.0014964168 0 0)
(-0.0023474995 0.0009416894 0 0.0021728698 0 0)
(-0.0037539079 0.0016385673 0 0.0034087221 0 0)
(-0.0060358324 0.0025344212 0 0.0049794975 0 0)
(-0.0095591492 0.0037342841 0 0.0075878252 0 0)
(-0.014265223 0.0055798716 0 0.009360478 0 0)
(-0.016622165 0.0039054968 0 0.011529103 0 0)
(-0.00021680769 0.000134484 0 0.00021707248 0 0)
(-0.00028271893 8.7500133e-006 0 0.00027933418 0 0)
(-0.00025483673 -2.9836337e-005 0 0.00025449057 0 0)
(-0.00021736026 -3.7312477e-005 0 0.00021385122 0 0)
(-0.00017415902 -3.472129e-005 0 0.00017522486 0 0)
(-0.00014772531 -2.813659e-005 0 0.00014598197 0 0)
(-0.00012220482 -2.1107016e-005 0 0.00012245352 0 0)
(-0.00010816569 -1.1760457e-005 0 0.00010753487 0 0)
(-0.00010074292 -1.9592008e-006 0 0.00010056818 0 0)
(-0.0001028998 9.3280926e-006 0 0.00010258626 0 0)
(-0.0001171805 2.4243569e-005 0 0.00011680365 0 0)
(-0.00014054691 4.0230873e-005 0 0.00013986431 0 0)
(-0.00018509799 6.4717901e-005 0 0.00018408185 0 0)
(-0.00024924339 9.7147182e-005 0 0.00024738358 0 0)
(-0.00034283226 0.00014270125 0 0.00033877608 0 0)
(-0.00048792484 0.00021449324 0 0.00048090899 0 0)
(-0.00069310706 0.00031803127 0 0.00067723664 0 0)
(-0.00099995153 0.00048085152 0 0.0009674709 0 0)
(-0.0014804385 0.00076540021 0 0.0014146944 0 0)
(-0.0022164232 0.0011925482 0 0.0020418846 0 0)
(-0.0035143986 0.0020671777 0 0.0031702794 0 0)
(-0.0057205206 0.0031082442 0 0.0046576253 0 0)
(-0.0087943657 0.0047862867 0 0.0068842996 0 0)
(-0.013568908 0.0070166925 0 0.0085319946 0 0)
(-0.015303876 0.0047986564 0 0.010852966 0 0)
(-0.00021867414 0.00016429446 0 0.00021868279 0 0)
(-0.00028628926 9.9413904e-006 0 0.00028281236 0 0)
(-0.00025757266 -3.7442902e-005 0 0.00025725954 0 0)
(-0.00021849167 -4.6557957e-005 0 0.00021491242 0 0)
(-0.00017350112 -4.3082063e-005 0 0.00017454363 0 0)
(-0.00014605335 -3.4759494e-005 0 0.00014433554 0 0)
(-0.00011996219 -2.6027879e-005 0 0.00012019044 0 0)
(-0.00010548035 -1.4541557e-005 0 0.00010487889 0 0)
(-9.774883e-005 -2.5866021e-006 0 9.7584203e-005 0 0)
(-9.9408218e-005 1.1120935e-005 0 9.9100786e-005 0 0)
(-0.00011276793 2.9124792e-005 0 0.00011241389 0 0)
(-0.00013493732 4.8412087e-005 0 0.00013429532 0 0)
(-0.00017724913 7.7789877e-005 0 0.00017626442 0 0)
(-0.00023820356 0.00011674877 0 0.00023638533 0 0)
(-0.00032699647 0.00017133721 0 0.00032300647 0 0)
(-0.00046332528 0.0002568069 0 0.00045639405 0 0)
(-0.00065553268 0.00038054383 0 0.00063996086 0 0)
(-0.0009400151 0.00057238914 0 0.00090772814 0 0)
(-0.001378334 0.00091205184 0 0.0013139301 0 0)
(-0.0020586522 0.0014124207 0 0.0018865056 0 0)
(-0.003219841 0.0024529247 0 0.0028815388 0 0)
(-0.0052095422 0.0037883495 0 0.0041524379 0 0)
(-0.0078699122 0.0057589535 0 0.0060217357 0 0)
(-0.01261881 0.0084562264 0 0.0074702012 0 0)
(-0.012995703 0.0053834185 0 0.0096120939 0 0)
(-0.00022135687 0.00019397737 0 0.00022114805 0 0)
(-0.00029058732 1.0810874e-005 0 0.00028682125 0 0)
(-0.00026076723 -4.5466416e-005 0 0.00026056035 0 0)
(-0.00021973184 -5.6254061e-005 0 0.00021604545 0 0)
(-0.00017259894 -5.1702861e-005 0 0.00017361865 0 0)
(-0.00014398198 -4.1512767e-005 0 0.00014229308 0 0)
(-0.0001172377 -3.1008478e-005 0 0.0001174425 0 0)
(-0.00010225348 -1.7328343e-005 0 0.00010168586 0 0)
(-9.4166116e-005 -3.2495719e-006 0 9.4007735e-005 0 0)
(-9.5236644e-005 1.2852491e-005 0 9.4946912e-005 0 0)
(-0.00010755877 3.3782379e-005 0 0.0001072327 0 0)
(-0.00012835191 5.6186457e-005 0 0.00012773888 0 0)
(-0.00016801459 9.020959e-005 0 0.00016704157 0 0)
(-0.00022529366 0.00013537105 0 0.00022348912 0 0)
(-0.00030839829 0.00019820533 0 0.00030441508 0 0)
(-0.00043468942 0.00029664166 0 0.0004278087 0 0)
(-0.00061227774 0.00043777441 0 0.00059695222 0 0)
(-0.00087021235 0.00065570684 0 0.00083835206 0 0)
(-0.0012641544 0.0010408396 0 0.0012013097 0 0)
(-0.0018625657 0.0016175759 0 0.0016929249 0 0)
(-0.002861012 0.0027997725 0 0.0025238782 0 0)
(-0.0046702705 0.0042914206 0 0.0036230563 0 0)
(-0.0066768182 0.0067209659 0 0.0048835154 0 0)
(-0.01177615 0.0093323122 0 0.0065340891 0 0)
(-0.0092774028 0.0065640918 0 0.0067976685 0 0)
(-0.000225067 0.00022390597 0 0.00022499706 0 0)
(-0.00029555422 1.1502335e-005 0 0.0002908824 0 0)
(-0.00026439548 -5.3823676e-005 0 0.00026466212 0 0)
(-0.00022108093 -6.6465426e-005 0 0.0002171178 0 0)
(-0.00017136659 -6.0605142e-005 0 0.00017241435 0 0)
(-0.00014149074 -4.8300325e-005 0 0.00013980858 0 0)
(-0.00011402834 -3.5940457e-005 0 0.00011420747 0 0)
(-9.8484938e-005 -2.0045287e-005 0 9.7940241e-005 0 0)
(-9.0009152e-005 -3.8955204e-006 0 8.9845934e-005 0 0)
(-9.0392734e-005 1.4503008e-005 0 9.0135514e-005 0 0)
(-0.00010158074 3.8242432e-005 0 0.00010125599 0 0)
(-0.00012085775 6.3680717e-005 0 0.00012022313 0 0)
(-0.0001575678 0.00010197408 0 0.00015656609 0 0)
(-0.0002105998 0.00015290093 0 0.00020879435 0 0)
(-0.00028724334 0.00022333385 0 0.00028323199 0 0)
(-0.00040277864 0.00033222409 0 0.0003957653 0 0)
(-0.00056332888 0.0004907067 0 0.0005482319 0 0)
(-0.00079177579 0.00073041794 0 0.00076045041 0 0)
(-0.0011312899 0.001156258 0 0.0010692867 0 0)
(-0.0016521282 0.0017855457 0 0.0014866504 0 0)
(-0.0024333509 0.0030891764 0 0.0020995974 0 0)
(-0.003961395 0.0047456419 0 0.0029208707 0 0)
(-0.0052784499 0.007521256 0 0.0035540787 0 0)
(-0.010165371 0.010418151 0 0.0049647622 0 0)
(-0.0066824583 0.0073651305 0 0.0046369472 0 0)
(-0.00022993949 0.00025373941 0 0.00022981574 0 0)
(-0.00030109968 1.1924814e-005 0 0.00029608667 0 0)
(-0.00026838652 -6.2421668e-005 0 0.00026882939 0 0)
(-0.00022248215 -7.7308493e-005 0 0.00021814336 0 0)
(-0.0001697879 -6.9807072e-005 0 0.00017095645 0 0)
(-0.00013852449 -5.5202084e-005 0 0.00013681352 0 0)
(-0.00011027972 -4.0878617e-005 0 0.00011046509 0 0)
(-9.417709e-005 -2.2696134e-005 0 9.3649867e-005 0 0)
(-8.526686e-005 -4.469012e-006 0 8.5132966e-005 0 0)
(-8.4989163e-005 1.6092322e-005 0 8.4737372e-005 0 0)
(-9.4898611e-005 4.2542899e-005 0 9.4576249e-005 0 0)
(-0.0001123614 7.0776271e-005 0 0.00011177021 0 0)
(-0.00014580305 0.00011300739 0 0.00014487903 0 0)
(-0.00019398435 0.00016905039 0 0.00019227128 0 0)
(-0.00026353908 0.00024648385 0 0.00025970014 0 0)
(-0.00036672904 0.0003655209 0 0.00035994692 0 0)
(-0.00050872023 0.00053765982 0 0.00049393402 0 0)
(-0.00070838247 0.00079329779 0 0.00067766458 0 0)
(-0.00099088 0.0012507542 0 0.00093145521 0 0)
(-0.0014127964 0.0019064631 0 0.0012497324 0 0)
(-0.0019337556 0.0033268998 0 0.0016369315 0 0)
(-0.0032167936 0.0049582949 0 0.002194879 0 0)
(-0.0033683974 0.0081355811 0 0.0018868136 0 0)
(-0.0073288887 0.011042109 0 0.0026277086 0 0)
(-0.00028463571 0.010162675 0 -0.0019363152 0 0)
(-0.00023580655 0.00028625905 0 0.00023384556 0 0)
(-0.00030756065 1.0648776e-005 0 0.00030520045 0 0)
(-0.00027283795 -7.1904406e-005 0 0.00027229496 0 0)
(-0.0002239551 -8.88489e-005 0 0.00021883899 0 0)
(-0.00016783169 -7.9569145e-005 0 0.00016963804 0 0)
(-0.00013505204 -6.2398335e-005 0 0.00013314899 0 0)
(-0.0001059785 -4.589417e-005 0 0.00010635055 0 0)
(-8.9284214e-005 -2.5420295e-005 0 8.882381e-005 0 0)
(-7.9942284e-005 -5.133833e-006 0 7.99149e-005 0 0)
(-7.9184447e-005 1.813439e-005 0 7.9032926e-005 0 0)
(-8.7459185e-005 4.629331e-005 0 8.7338239e-005 0 0)
(-0.0001027437 7.6944657e-005 0 0.00010237686 0 0)
(-0.00013279584 0.00012298824 0 0.00013210043 0 0)
(-0.00017617306 0.0001840714 0 0.0001747603 0 0)
(-0.00023730844 0.000267015 0 0.00023382196 0 0)
(-0.00032778035 0.00039508816 0 0.00032164587 0 0)
(-0.00045153808 0.00057745128 0 0.00043714729 0 0)
(-0.00061850174 0.00084302205 0 0.00058715581 0 0)
(-0.00083366652 0.0013322308 0 0.00077833307 0 0)
(-0.0011788461 0.0019679577 0 0.001008893 0 0)
(-0.0013913638 0.0034537418 0 0.0011408941 0 0)
(-0.0022252101 0.0050272208 0 0.0012310883 0 0)
(-0.0012623847 0.0079255687 0 0.00016020125 0 0)
(-0.0032447138 0.0099763826 0 -0.0006137624 0 0)
(0.0038443006 0.010423559 0 -0.0075002366 0 0)
(-0.015798134 0.00064823043 0 0.010583117 0 0)
(-0.0094007669 0.0012995643 0 0.0071324985 0 0)
(-0.0039240063 0.0020048851 0 0.00315815 0 0)
(-0.0013395987 0.0024679734 0 0.0011158448 0 0)
(-0.00047570682 0.0026483815 0 0.00029082806 0 0)
(-0.00014317612 0.0026956664 0 -2.3828656e-005 0 0)
(-0.00011620501 0.0026929311 0 -5.3092859e-005 0 0)
(-0.00013156259 0.0026871418 0 -3.5358655e-005 0 0)
(-0.00015939541 0.0026821607 0 -7.1355393e-006 0 0)
(-0.00016585115 0.0026810051 0 -2.2581394e-007 0 0)
(-0.00016644236 0.0026809006 0 3.2660991e-007 0 0)
(-0.00016612054 0.0026809129 0 2.1062075e-008 0 0)
(-0.00016604619 0.0026809067 0 -5.5095281e-008 0 0)
(-0.000166066 0.0026809 0 -3.2687599e-008 0 0)
(-0.000166097 0.0026808966 0 -1.7814081e-009 0 0)
(-0.00016610154 0.0026808964 0 3.1101775e-009 0 0)
(-0.00016610157 0.0026808961 0 2.9802234e-009 0 0)
(-0.00016609923 0.0026808978 0 3.8232721e-010 0 0)
(-0.00016609749 0.0026808977 0 -1.3439631e-009 0 0)
(-0.00016609929 0.0026808952 0 7.1009336e-010 0 0)
(-0.00016609981 0.002680896 0 1.2510317e-009 0 0)
(-0.00016609595 0.0026808962 0 -2.0660859e-009 0 0)
(-0.00016609474 0.0026808946 0 -6.5242944e-009 0 0)
(-0.00016606657 0.0026808945 0 -2.7910233e-008 0 0)
(-0.00016605337 0.0026808802 0 -3.0320404e-008 0 0)
(-0.015039407 0.0019493668 0 0.010009329 0 0)
(-0.0088384759 0.0038671252 0 0.0065208651 0 0)
(-0.0042984267 0.0058893703 0 0.0028166207 0 0)
(-0.002206365 0.0072288108 0 0.00090011678 0 0)
(-0.0016939547 0.0076484672 0 0.00028052096 0 0)
(-0.0014140497 0.0077936797 0 -5.0601622e-006 0 0)
(-0.0013768324 0.0077913796 0 -4.2095575e-005 0 0)
(-0.0013860962 0.0077760536 0 -2.669677e-005 0 0)
(-0.0014046028 0.0077651233 0 -5.7148636e-006 0 0)
(-0.0014091974 0.0077624246 0 -1.224522e-007 0 0)
(-0.0014095501 0.0077622058 0 2.2929419e-007 0 0)
(-0.0014093227 0.007762239 0 2.5363477e-008 0 0)
(-0.0014092368 0.0077622265 0 -4.8980454e-008 0 0)
(-0.0014092576 0.0077622053 0 -1.9757586e-008 0 0)
(-0.0014092752 0.0077621998 0 -9.1748751e-010 0 0)
(-0.0014092769 0.0077621966 0 2.4161049e-009 0 0)
(-0.001409277 0.0077621981 0 1.867433e-009 0 0)
(-0.0014092734 0.0077621951 0 4.9876322e-010 0 0)
(-0.0014092735 0.0077621966 0 -7.3023653e-011 0 0)
(-0.0014092758 0.007762199 0 3.8767591e-010 0 0)
(-0.0014092742 0.0077621966 0 9.8182411e-011 0 0)
(-0.0014092725 0.0077621984 0 -1.6901581e-009 0 0)
(-0.0014092714 0.0077621945 0 -4.8368203e-009 0 0)
(-0.0014092482 0.0077621912 0 -1.8965571e-008 0 0)
(-0.001409226 0.0077621485 0 -2.0602187e-008 0 0)
(-0.013761328 0.0031757851 0 0.0091688108 0 0)
(-0.0076720966 0.0064724347 0 0.0053005325 0 0)
(-0.0050452145 0.0093736992 0 0.0023068632 0 0)
(-0.0038663735 0.011280294 0 0.0007385347 0 0)
(-0.0036566976 0.011983269 0 0.00017170905 0 0)
(-0.0035340801 0.012151325 0 -9.7230663e-007 0 0)
(-0.0035103105 0.012151057 0 -2.6126149e-005 0 0)
(-0.0035086507 0.012131864 0 -1.6727455e-005 0 0)
(-0.003514954 0.0121172 0 -3.9133678e-006 0 0)
(-0.0035166334 0.012113492 0 -1.9872434e-007 0 0)
(-0.0035168267 0.012113101 0 1.3023727e-007 0 0)
(-0.0035166598 0.012113135 0 2.0425249e-009 0 0)
(-0.0035166108 0.012113118 0 -2.9238412e-008 0 0)
(-0.0035166136 0.012113096 0 -1.1355754e-008 0 0)
(-0.0035166196 0.012113086 0 -6.0318752e-010 0 0)
(-0.0035166211 0.012113086 0 1.0085947e-009 0 0)
(-0.003516617 0.012113082 0 8.7978949e-010 0 0)
(-0.0035166186 0.012113085 0 8.5645527e-010 0 0)
(-0.0035166218 0.012113087 0 1.361609e-009 0 0)
(-0.0035166201 0.012113088 0 -7.2396943e-010 0 0)
(-0.0035166152 0.012113084 0 -1.1650374e-009 0 0)
(-0.0035166165 0.012113084 0 -8.9896273e-010 0 0)
(-0.0035166161 0.012113078 0 -1.5920093e-009 0 0)
(-0.0035166065 0.012113074 0 -4.7382278e-009 0 0)
(-0.0035165731 0.012113013 0 -5.6074482e-009 0 0)
(-0.011912812 0.0043237234 0 0.0078334884 0 0)
(-0.0064347719 0.0095252654 0 0.0034741696 0 0)
(-0.0058701471 0.012198983 0 0.0016801229 0 0)
(-0.0057719295 0.014661691 0 0.00041540409 0 0)
(-0.0060225064 0.015431662 0 7.6154386e-005 0 0)
(-0.0060414969 0.015589661 0 6.2213012e-006 0 0)
(-0.00603166 0.01558882 0 -7.1679403e-006 0 0)
(-0.0060202527 0.015572317 0 -5.7272443e-006 0 0)
(-0.0060152047 0.01555818 0 -1.9373178e-006 0 0)
(-0.0060141152 0.015554285 0 -2.6801092e-007 0 0)
(-0.0060140885 0.015553763 0 3.7201209e-009 0 0)
(-0.0060140365 0.01555377 0 6.8612451e-009 0 0)
(-0.0060140089 0.015553764 0 -4.9075553e-009 0 0)
(-0.006013993 0.015553748 0 -2.8241546e-009 0 0)
(-0.0060139895 0.015553739 0 -6.3406116e-010 0 0)
(-0.0060139881 0.015553739 0 -6.5677401e-010 0 0)
(-0.0060139882 0.015553739 0 -3.7245398e-010 0 0)
(-0.0060139899 0.015553738 0 1.1996977e-009 0 0)
(-0.0060139904 0.015553739 0 1.1898918e-009 0 0)
(-0.0060139833 0.015553736 0 -8.4119447e-010 0 0)
(-0.0060139844 0.015553737 0 -1.4352238e-009 0 0)
(-0.0060139894 0.015553738 0 5.1063425e-010 0 0)
(-0.0060139852 0.015553733 0 6.3566611e-010 0 0)
(-0.0060139946 0.015553725 0 1.042401e-008 0 0)
(-0.0060139651 0.015553682 0 9.7681696e-009 0 0)
(-0.0090815462 0.0059341031 0 0.0056531502 0 0)
(-0.0062332843 0.011778422 0 0.0021428016 0 0)
(-0.0068377073 0.015233624 0 0.00064856761 0 0)
(-0.0079319924 0.017472139 0 9.377839e-005 0 0)
(-0.0085478616 0.018109252 0 1.4144341e-005 0 0)
(-0.0086605069 0.018237695 0 1.6819799e-005 0 0)
(-0.0086604053 0.018237518 0 9.1105531e-006 0 0)
(-0.0086436125 0.018226711 0 3.5877438e-006 0 0)
(-0.0086302389 0.018215692 0 -2.5520723e-007 0 0)
(-0.0086270872 0.018212291 0 -3.0542088e-007 0 0)
(-0.008626888 0.018211714 0 -8.3881014e-008 0 0)
(-0.0086269321 0.018211703 0 1.4749852e-008 0 0)
(-0.0086269267 0.018211711 0 1.474357e-008 0 0)
(-0.0086269014 0.018211706 0 3.6379474e-009 0 0)
(-0.0086268901 0.0182117 0 -7.9813616e-010 0 0)
(-0.0086268881 0.018211699 0 -1.6308604e-009 0 0)
(-0.008626886 0.018211697 0 -1.1089024e-009 0 0)
(-0.008626889 0.018211698 0 7.1630638e-010 0 0)
(-0.0086268864 0.018211697 0 6.8322466e-010 0 0)
(-0.0086268868 0.018211699 0 -8.6471321e-010 0 0)
(-0.0086268888 0.018211698 0 -4.6881385e-010 0 0)
(-0.0086268918 0.018211697 0 1.9263227e-009 0 0)
(-0.0086268865 0.018211691 0 4.0757458e-009 0 0)
(-0.0086269064 0.018211687 0 1.8151204e-008 0 0)
(-0.0086268987 0.018211669 0 1.8575054e-008 0 0)
(-0.0062571851 0.0087558366 0 0.0027633659 0 0)
(-0.0059144139 0.014461431 0 0.00043252061 0 0)
(-0.0086894417 0.018204215 0 -0.00020941089 0 0)
(-0.010540746 0.019979389 0 -0.00012441533 0 0)
(-0.011273766 0.020365875 0 -1.3856455e-005 0 0)
(-0.011412407 0.020447074 0 2.8561634e-005 0 0)
(-0.011417043 0.0204503 0 2.0783163e-005 0 0)
(-0.011397134 0.020446187 0 9.4151197e-006 0 0)
(-0.011380269 0.02043981 0 8.4319822e-007 0 0)
(-0.011376148 0.020437396 0 -3.1922602e-007 0 0)
(-0.011375906 0.020436856 0 -1.2298199e-007 0 0)
(-0.011376017 0.020436843 0 2.2673126e-008 0 0)
(-0.011376031 0.020436866 0 2.5248071e-008 0 0)
(-0.011376007 0.020436873 0 7.4459305e-009 0 0)
(-0.011375994 0.020436871 0 -1.2033088e-009 0 0)
(-0.011375992 0.02043687 0 -1.7321643e-009 0 0)
(-0.011375991 0.020436869 0 -1.3131462e-009 0 0)
(-0.011375992 0.020436868 0 -1.0742144e-010 0 0)
(-0.011375992 0.020436869 0 -9.7148202e-011 0 0)
(-0.011375993 0.020436869 0 -3.0769113e-011 0 0)
(-0.011375992 0.020436868 0 6.8778213e-010 0 0)
(-0.011375995 0.020436867 0 2.2962833e-009 0 0)
(-0.011375993 0.020436865 0 4.8854497e-009 0 0)
(-0.011376018 0.020436864 0 1.9075906e-008 0 0)
(-0.011376037 0.020436872 0 1.9624006e-008 0 0)
(-0.0050959118 0.010905567 0 0.00059359828 0 0)
(-0.0073005125 0.018663684 0 -0.0013228986 0 0)
(-0.012040631 0.021496578 0 -0.00071562953 0 0)
(-0.013758315 0.022462014 0 -0.00021848662 0 0)
(-0.014426038 0.02259576 0 -9.0994943e-006 0 0)
(-0.014534762 0.02263443 0 3.8997153e-005 0 0)
(-0.014541461 0.022644087 0 2.7028211e-005 0 0)
(-0.014519796 0.022647696 0 1.0763753e-005 0 0)
(-0.014504596 0.022645618 0 1.1781872e-006 0 0)
(-0.014500746 0.022644348 0 -3.3104239e-007 0 0)
(-0.014500619 0.022643916 0 -1.2939364e-007 0 0)
(-0.01450078 0.022643911 0 2.7336724e-008 0 0)
(-0.014500814 0.022643948 0 2.8778046e-008 0 0)
(-0.014500793 0.022643964 0 6.6788448e-009 0 0)
(-0.014500781 0.022643964 0 -1.4649533e-009 0 0)
(-0.01450078 0.022643963 0 -1.5119037e-009 0 0)
(-0.014500779 0.022643962 0 -1.101006e-009 0 0)
(-0.01450078 0.022643962 0 -8.4226909e-010 0 0)
(-0.014500781 0.022643962 0 -1.3717569e-010 0 0)
(-0.01450078 0.022643961 0 5.2444164e-010 0 0)
(-0.014500781 0.022643961 0 7.8874092e-010 0 0)
(-0.014500783 0.022643961 0 1.6082136e-009 0 0)
(-0.014500786 0.022643963 0 4.079344e-009 0 0)
(-0.014500805 0.022643964 0 1.3819253e-008 0 0)
(-0.014500843 0.02264399 0 1.348164e-008 0 0)
(-0.0049043465 0.015258318 0 -0.0025278551 0 0)
(-0.011041126 0.023393713 0 -0.0025967847 0 0)
(-0.016761779 0.02489506 0 -0.0007981 0 0)
(-0.017762687 0.025149857 0 -0.00019560021 0 0)
(-0.018270824 0.02511804 0 1.4624133e-005 0 0)
(-0.018329146 0.025138995 0 4.4520771e-005 0 0)
(-0.018342744 0.025160398 0 2.66955e-005 0 0)
(-0.018324148 0.02517168 0 8.8266287e-006 0 0)
(-0.018314161 0.025172564 0 9.6904557e-007 0 0)
(-0.018311217 0.02517214 0 -3.4507019e-007 0 0)
(-0.018311298 0.025171809 0 -1.1126853e-007 0 0)
(-0.018311465 0.025171821 0 2.0838566e-008 0 0)
(-0.018311522 0.025171866 0 2.2990526e-008 0 0)
(-0.018311509 0.025171884 0 3.6927444e-009 0 0)
(-0.018311502 0.025171884 0 -1.6624042e-009 0 0)
(-0.018311502 0.025171883 0 -1.1057576e-009 0 0)
(-0.018311501 0.025171882 0 -8.3136696e-010 0 0)
(-0.0183115 0.025171882 0 -9.8231671e-010 0 0)
(-0.018311501 0.025171881 0 -9.2323389e-011 0 0)
(-0.018311502 0.025171881 0 5.5425121e-010 0 0)
(-0.018311503 0.025171881 0 4.1549509e-010 0 0)
(-0.018311504 0.025171882 0 8.4310386e-010 0 0)
(-0.018311507 0.025171885 0 2.3409605e-009 0 0)
(-0.018311517 0.025171889 0 5.3225305e-009 0 0)
(-0.018311556 0.025171917 0 4.3055752e-009 0 0)
(-0.0097256104 0.023849177 0 -0.0057013692 0 0)
(-0.017856271 0.028732777 0 -0.0033719565 0 0)
(-0.022540017 0.028391008 0 -0.00061839964 0 0)
(-0.022524417 0.02809276 0 -0.00014231685 0 0)
(-0.022843309 0.028003283 0 4.3846515e-005 0 0)
(-0.022883576 0.02804663 0 3.8490239e-005 0 0)
(-0.022918554 0.028081834 0 2.1841597e-005 0 0)
(-0.022908444 0.028098216 0 5.3092638e-006 0 0)
(-0.022905152 0.02810056 0 5.8006951e-007 0 0)
(-0.022903286 0.028100451 0 -3.1357704e-007 0 0)
(-0.022903437 0.028100149 0 -7.2315699e-008 0 0)
(-0.022903571 0.028100167 0 1.0123784e-008 0 0)
(-0.022903645 0.028100209 0 1.4930984e-008 0 0)
(-0.022903636 0.028100224 0 6.0434556e-010 0 0)
(-0.022903633 0.028100223 0 -1.5219888e-009 0 0)
(-0.022903632 0.028100221 0 -7.5141782e-010 0 0)
(-0.022903632 0.028100221 0 -4.5177571e-010 0 0)
(-0.022903631 0.02810022 0 -7.4006301e-010 0 0)
(-0.022903631 0.028100219 0 -1.4470531e-010 0 0)
(-0.022903632 0.028100219 0 3.8666544e-010 0 0)
(-0.022903633 0.02810022 0 1.5447554e-010 0 0)
(-0.022903633 0.02810022 0 3.2538946e-011 0 0)
(-0.022903635 0.028100223 0 2.2781579e-010 0 0)
(-0.022903634 0.028100228 0 -2.7567683e-009 0 0)
(-0.022903655 0.028100246 0 -3.1995513e-009 0 0)
(-0.031010329 0.040348139 0 -0.0098919639 0 0)
(-0.02743487 0.033114687 0 -0.002053963 0 0)
(-0.033124743 0.033764166 0 -0.00028017576 0 0)
(-0.031051906 0.032611132 0 -3.1426542e-005 0 0)
(-0.03187426 0.032887513 0 3.6336375e-005 0 0)
(-0.031780327 0.032891763 0 1.9505104e-005 0 0)
(-0.031906952 0.032968452 0 8.6428665e-006 0 0)
(-0.031895651 0.032975767 0 1.4694353e-006 0 0)
(-0.031903701 0.032980983 0 1.5050348e-007 0 0)
(-0.031900473 0.032979624 0 -1.9282804e-007 0 0)
(-0.03190109 0.032979582 0 -3.6836039e-008 0 0)
(-0.03190099 0.032979493 0 -5.5434035e-010 0 0)
(-0.031901101 0.032979549 0 3.8631034e-009 0 0)
(-0.031901083 0.032979546 0 -8.027085e-010 0 0)
(-0.031901083 0.032979545 0 -7.5547571e-010 0 0)
(-0.03190108 0.032979543 0 -2.808351e-010 0 0)
(-0.03190108 0.032979543 0 -1.3466005e-010 0 0)
(-0.031901078 0.032979542 0 -3.697309e-010 0 0)
(-0.031901077 0.03297954 0 -5.2714797e-011 0 0)
(-0.031901079 0.032979541 0 2.0509394e-010 0 0)
(-0.03190108 0.032979542 0 -2.6060495e-011 0 0)
(-0.031901079 0.032979542 0 -3.5483439e-010 0 0)
(-0.031901075 0.032979542 0 -2.0942323e-010 0 0)
(-0.031901055 0.032979538 0 -5.2842931e-009 0 0)
(-0.031901027 0.032979533 0 -5.4149986e-009 0 0)
(-0.0002505628 0.00035049787 0 0.00024499544 0 0)
(-0.00032154372 9.8617564e-006 0 0.00032725998 0 0)
(-0.00028263063 -9.678957e-005 0 0.00028109413 0 0)
(-0.0002265464 -0.00011441158 0 0.00021835365 0 0)
(-0.00016281999 -0.00010108306 0 0.00016550558 0 0)
(-0.00012710376 -7.8163458e-005 0 0.00012384553 0 0)
(-9.6394433e-005 -5.6653027e-005 0 9.6220007e-005 0 0)
(-7.8504891e-005 -3.1579306e-005 0 7.7457248e-005 0 0)
(-6.847684e-005 -7.2189834e-006 0 6.792777e-005 0 0)
(-6.6101265e-005 1.9772796e-005 0 6.5424077e-005 0 0)
(-7.158659e-005 5.2453545e-005 0 7.0931904e-005 0 0)
(-8.2861621e-005 8.7209124e-005 0 8.1808542e-005 0 0)
(-0.00010598722 0.00013988802 0 0.00010455013 0 0)
(-0.00013839354 0.00020740386 0 0.00013604345 0 0)
(-0.0001840868 0.00029916493 0 0.00017905947 0 0)
(-0.00024911625 0.00043875903 0 0.00024149517 0 0)
(-0.00033177538 0.00063772891 0 0.00031680266 0 0)
(-0.00043539262 0.00091072455 0 0.00040305722 0 0)
(-0.00055508286 0.0014162027 0 0.00050740453 0 0)
(-0.0006927845 0.0020491579 0 0.00054260942 0 0)
(-0.00065571849 0.0034298625 0 0.00044914194 0 0)
(-0.00069656742 0.0048501881 0 -0.00012648268 0 0)
(0.00095486021 0.0071161825 0 -0.0016004234 0 0)
(0.0016330789 0.0075059438 0 -0.0039361839 0 0)
(0.0098795093 0.0057368814 0 -0.012285335 0 0)
(-0.00028418821 0.00045314726 0 0.00027396777 0 0)
(-0.00035674184 -1.97564e-006 0 0.00036613797 0 0)
(-0.0003027983 -0.00015022681 0 0.00029904158 0 0)
(-0.00022661824 -0.00016540858 0 0.00021572112 0 0)
(-0.00015003897 -0.00014257414 0 0.00015347708 0 0)
(-0.00010863843 -0.0001090824 0 0.00010536533 0 0)
(-7.6403026e-005 -7.8160947e-005 0 7.6446055e-005 0 0)
(-5.7372804e-005 -4.5932458e-005 0 5.6914694e-005 0 0)
(-4.6716325e-005 -1.5524458e-005 0 4.6545675e-005 0 0)
(-4.2408023e-005 1.7304595e-005 0 4.2086405e-005 0 0)
(-4.2897963e-005 5.2670354e-005 0 4.2950728e-005 0 0)
(-4.7722094e-005 9.2848948e-005 0 4.7240561e-005 0 0)
(-5.8568231e-005 0.00015081734 0 5.7822187e-005 0 0)
(-7.4175508e-005 0.00022773377 0 7.3215484e-005 0 0)
(-9.3586002e-005 0.00032461125 0 9.0183853e-005 0 0)
(-0.00011883708 0.00046906283 0 0.00011258567 0 0)
(-0.00014315364 0.00067736454 0 0.00013206365 0 0)
(-0.00016505882 0.00094636261 0 0.00013693103 0 0)
(-0.00014070068 0.0014084543 0 9.6823006e-005 0 0)
(-7.2277182e-005 0.001982183 0 -5.3985794e-005 0 0)
(0.0002979961 0.0030066613 0 -0.00050495786 0 0)
(0.00085965382 0.0038350179 0 -0.0015170126 0 0)
(0.0028487362 0.0045330907 0 -0.0035352952 0 0)
(0.0050823264 0.0019304469 0 -0.0071370678 0 0)
(0.0063556811 -0.0023768914 0 -0.009491393 0 0)
(-0.00034797921 0.00055801061 0 0.00033402063 0 0)
(-0.00041294322 -4.237031e-005 0 0.00042410172 0 0)
(-0.00032816962 -0.00023825812 0 0.00032124255 0 0)
(-0.0002190205 -0.00024566154 0 0.00020635596 0 0)
(-0.00012789276 -0.00020550851 0 0.00013049381 0 0)
(-8.1780086e-005 -0.00015617446 0 7.852765e-005 0 0)
(-5.0113618e-005 -0.00011437282 0 4.9663319e-005 0 0)
(-3.1505895e-005 -7.4367523e-005 0 3.1256413e-005 0 0)
(-2.1146193e-005 -3.7825992e-005 0 2.0868054e-005 0 0)
(-1.5252529e-005 -3.3345932e-006 0 1.5044892e-005 0 0)
(-1.1665909e-005 3.521515e-005 0 1.1853309e-005 0 0)
(-9.7444559e-006 8.0358838e-005 0 9.6257367e-006 0 0)
(-8.7086333e-006 0.00013556573 0 7.8979204e-006 0 0)
(-6.1888857e-006 0.0002159347 0 5.2136476e-006 0 0)
(-4.3612489e-007 0.00031500233 0 -1.7815674e-006 0 0)
(1.0514644e-005 0.00044988326 0 -1.63421e-005 0 0)
(4.0167696e-005 0.00065180694 0 -4.9534732e-005 0 0)
(8.7136145e-005 0.00089813195 0 -0.00011107047 0 0)
(0.00020690287 0.0012957054 0 -0.000243606 0 0)
(0.00040397988 0.0017743416 0 -0.00049929524 0 0)
(0.00091580738 0.0025146909 0 -0.001067405 0 0)
(0.0017067576 0.0030276907 0 -0.0020944288 0 0)
(0.0032678002 0.0030472912 0 -0.0036257557 0 0)
(0.0046883209 0.00072409457 0 -0.0054127857 0 0)
(0.003671127 -0.004214043 0 -0.0042020221 0 0)
(-0.00048384703 0.00066554386 0 0.00046298143 0 0)
(-0.00050097812 -0.00013110609 0 0.00051678083 0 0)
(-0.00035658708 -0.00037194408 0 0.00034194259 0 0)