/*--------------------------------*- C++ -*----------------------------------*\
| =========                 |                                                 |
| \\      /  F ield         | OpenFOAM: The Open Source CFD Toolbox           |
|  \\    /   O peration     | Version:  5.x                                   |
|   \\  /    A nd           | Web:      www.OpenFOAM.org                      |
|    \\/     M anipulation  |                                                 |
\*---------------------------------------------------------------------------*/
/*   Windows 32 and 64 bit porting by blueCAPE: http://www.bluecape.com.pt   *\
|  Based on Windows porting (2.0.x v4) by Symscape: http://www.symscape.com   |
\*---------------------------------------------------------------------------*/
FoamFile
{
    version     2.0;
    format      ascii;
    class       volVectorField;
    location    "0.11";
    object      U;
}
// * * * * * * * * * * * * * * * * * * * * * * * * * * * * * * * * * * * * * //

dimensions      [0 1 -1 0 0 0 0];

internalField   nonuniform List<vector> 
750
(
(0.039130887 -9.6521826e-005 0)
(0.039951843 -0.00011738218 0)
(0.040976709 -0.00011175958 0)
(0.041763453 -9.2072326e-005 0)
(0.042441895 -7.6773238e-005 0)
(0.042993435 -6.2748743e-005 0)
(0.043444606 -5.2217467e-005 0)
(0.043827446 -4.4813968e-005 0)
(0.044160333 -4.0813905e-005 0)
(0.04447903 -4.0549791e-005 0)
(0.044807088 -4.4388346e-005 0)
(0.045186939 -5.3551946e-005 0)
(0.04566183 -6.9149835e-005 0)
(0.046289243 -9.3576168e-005 0)
(0.0471537 -0.00013084831 0)
(0.048376384 -0.00018634515 0)
(0.050119868 -0.00027025832 0)
(0.052685913 -0.00039717017 0)
(0.056442133 -0.00059303963 0)
(0.062108416 -0.00092386326 0)
(0.071226724 -0.0014574131 0)
(0.085086046 -0.0023813335 0)
(0.10952552 -0.0035294427 0)
(0.14013864 -0.0046764002 0)
(0.18497141 -0.0052183133 0)
(0.039132136 -0.00028821616 0)
(0.039954192 -0.00035546894 0)
(0.040981406 -0.00033368958 0)
(0.041770289 -0.00027715486 0)
(0.042448317 -0.0002298682 0)
(0.042999172 -0.00018809796 0)
(0.043448904 -0.00015631134 0)
(0.043830117 -0.00013411726 0)
(0.044161235 -0.00012204588 0)
(0.044477887 -0.00012122901 0)
(0.044803498 -0.00013264032 0)
(0.045180501 -0.00015999873 0)
(0.045651571 -0.00020660547 0)
(0.046273448 -0.00027947279 0)
(0.047130257 -0.00039061767 0)
(0.048340957 -0.00055619772 0)
(0.050066398 -0.00080614027 0)
(0.052603303 -0.0011838716 0)
(0.056310911 -0.0017675141 0)
(0.061905117 -0.002751644 0)
(0.070898332 -0.004346378 0)
(0.084538763 -0.00705239 0)
(0.10852859 -0.010502777 0)
(0.13824037 -0.013788278 0)
(0.18236996 -0.01556375 0)
(0.039134118 -0.00047954421 0)
(0.039959393 -0.00059600175 0)
(0.040991505 -0.00055522065 0)
(0.041784077 -0.00046296992 0)
(0.042461589 -0.0003826216 0)
(0.043010971 -0.0003131132 0)
(0.043457896 -0.00025985638 0)
(0.043835844 -0.00022283132 0)
(0.044163425 -0.00020260538 0)
(0.04447604 -0.000201119 0)
(0.044796848 -0.00021996133 0)
(0.045168051 -0.00026529522 0)
(0.045631475 -0.00034245058 0)
(0.046242414 -0.00046304072 0)
(0.047083659 -0.00064695468 0)
(0.048270842 -0.00092081858 0)
(0.049959773 -0.0013336458 0)
(0.052438206 -0.0019570908 0)
(0.056051395 -0.0029212712 0)
(0.061494459 -0.0045422869 0)
(0.070236676 -0.0071793986 0)
(0.083429052 -0.011590358 0)
(0.10656327 -0.017274178 0)
(0.13459853 -0.022576755 0)
(0.17730533 -0.02565208 0)
(0.039137133 -0.00067197492 0)
(0.03996811 -0.00083795476 0)
(0.041007538 -0.00077809079 0)
(0.041805106 -0.00064921665 0)
(0.042481885 -0.00053513182 0)
(0.043028925 -0.0004374363 0)
(0.043471651 -0.00036246675 0)
(0.043844669 -0.00031047434 0)
(0.044166921 -0.00028198511 0)
(0.044473544 -0.00027963424 0)
(0.044787318 -0.00030562817 0)
(0.045149742 -0.00036848881 0)
(0.045601748 -0.00047537913 0)
(0.046196608 -0.00064245276 0)
(0.047014446 -0.00089718777 0)
(0.048167098 -0.0012760854 0)
(0.049801871 -0.0018463151 0)
(0.052193921 -0.0027066116 0)
(0.055670063 -0.0040361341 0)
(0.060882405 -0.0062700178 0)
(0.069254157 -0.0099068986 0)
(0.081801812 -0.015939472 0)
(0.10369638 -0.023660307 0)
(0.1294116 -0.030852065 0)
(0.16995966 -0.035237834 0)
(0.039141931 -0.00086629181 0)
(0.039981027 -0.0010816778 0)
(0.041029984 -0.0010028935 0)
(0.041833709 -0.00083592015 0)
(0.042509248 -0.00068725113 0)
(0.043052997 -0.00056076167 0)
(0.043490075 -0.00046375613 0)
(0.043856477 -0.00039661042 0)
(0.044171619 -0.00035971752 0)
(0.044470262 -0.00035628162 0)
(0.044774856 -0.00038900677 0)
(0.045125661 -0.00046870899 0)
(0.045562574 -0.00060431324 0)
(0.046136444 -0.00081615832 0)
(0.046923431 -0.0011390262 0)
(0.048031003 -0.0016185578 0)
(0.049595268 -0.0023386708 0)
(0.051875107 -0.0034239061 0)
(0.055173908 -0.0050980886 0)
(0.060082535 -0.0079112758 0)
(0.067978572 -0.012479896 0)
(0.07958947 -0.020006004 0)
(0.099957151 -0.029562649 0)
(0.12273562 -0.038443086 0)
(0.16053305 -0.043958559 0)
(0.039149287 -0.0010632453 0)
(0.039998694 -0.0013278373 0)
(0.041059235 -0.0012299804 0)
(0.041870208 -0.0010231426 0)
(0.042543744 -0.00083876935 0)
(0.043083177 -0.00068278477 0)
(0.043513097 -0.000563324 0)
(0.043871178 -0.00048081082 0)
(0.044177456 -0.00043533621 0)
(0.04446616 -0.00043051458 0)
(0.044759456 -0.00046947645 0)
(0.045095931 -0.00056519513 0)
(0.045514182 -0.00072820755 0)
(0.04606234 -0.0009826584 0)
(0.04681151 -0.0013702567 0)
(0.04786388 -0.001944982 0)
(0.049342662 -0.0028057254 0)
(0.051486238 -0.0041008913 0)
(0.054571043 -0.0060935589 0)
(0.05910807 -0.0094411898 0)
(0.066398376 -0.01485925 0)
(0.076815267 -0.023726625 0)
(0.095322842 -0.034847329 0)
(0.11451256 -0.045296149 0)
(0.14934784 -0.051590589 0)
(0.039159574 -0.0012637959 0)
(0.040021381 -0.0015769164 0)
(0.041095451 -0.0014597712 0)
(0.041914816 -0.0012108902 0)
(0.042585391 -0.00098943932 0)
(0.043119342 -0.00080317486 0)
(0.043540509 -0.00066076583 0)
(0.043888549 -0.00056264336 0)
(0.044184214 -0.00050838165 0)
(0.044461046 -0.00050181926 0)
(0.044741026 -0.00054643393 0)
(0.045060581 -0.0006572021 0)
(0.04545673 -0.00084606496 0)
(0.045974657 -0.0011405187 0)
(0.046679538 -0.0015888325 0)
(0.047667385 -0.0022523309 0)
(0.049046696 -0.0032427484 0)
(0.051033323 -0.0047300502 0)
(0.053868073 -0.0070097741 0)
(0.057976194 -0.01083768 0)
(0.064536131 -0.016985874 0)
(0.07355463 -0.027034956 0)
(0.089838293 -0.039374086 0)
(0.10466573 -0.051230148 0)
(0.13716214 -0.058338183 0)
(0.039173209 -0.00146916 0)
(0.040049246 -0.0018291608 0)
(0.041138599 -0.0016927484 0)
(0.04196767 -0.0013991574 0)
(0.04263411 -0.0011389944 0)
(0.04316128 -0.00092156789 0)
(0.043571993 -0.00075565234 0)
(0.043908238 -0.0006416653 0)
(0.044191538 -0.00057837758 0)
(0.044454478 -0.00056973434 0)
(0.044719337 -0.00061935285 0)
(0.045019679 -0.00074395448 0)
(0.045390433 -0.00095685603 0)
(0.045873816 -0.0012883584 0)
(0.046528656 -0.001792744 0)
(0.047442824 -0.0025376924 0)
(0.048711341 -0.0036457173 0)
(0.050523619 -0.0053053639 0)
(0.053076935 -0.0078358459 0)
(0.056712243 -0.012077328 0)
(0.062427486 -0.018824998 0)
(0.069846067 -0.029850378 0)
(0.083573865 -0.043028795 0)
(0.093641503 -0.056122636 0)
(0.12415319 -0.063118909 0)
(0.039190761 -0.001680533 0)
(0.040082547 -0.0020850211 0)
(0.041188557 -0.0019294119 0)
(0.042028981 -0.0015879267 0)
(0.042689781 -0.0012871646 0)
(0.043208702 -0.0010375376 0)
(0.043607172 -0.00084754931 0)
(0.043929848 -0.00071742589 0)
(0.044199079 -0.00064483895 0)
(0.044446085 -0.00063380858 0)
(0.044694151 -0.00068773624 0)
(0.044973252 -0.00082473665 0)
(0.045315628 -0.0010596112 0)
(0.04576036 -0.001425061 0)
(0.046360395 -0.0019802536 0)
(0.047192915 -0.0027986762 0)
(0.04834117 -0.0040116388 0)
(0.04996388 -0.0058203837 0)
(0.052212162 -0.0085623147 0)
(0.055333037 -0.013145198 0)
(0.060143338 -0.020334803 0)
(0.065786768 -0.032093098 0)
(0.076696179 -0.045761586 0)
(0.081729672 -0.060277602 0)
(0.10995585 -0.066290493 0)
(0.039213775 -0.0018977253 0)
(0.040121102 -0.0023471254 0)
(0.041245405 -0.0021688835 0)
(0.042099414 -0.0017773758 0)
(0.042752595 -0.0014334975 0)
(0.043261546 -0.0011506882 0)
(0.043645928 -0.00093602189 0)
(0.043953221 -0.00078951483 0)
(0.044206723 -0.00070739441 0)
(0.044436318 -0.00069351788 0)
(0.044665486 -0.00075108338 0)
(0.044921264 -0.00089910335 0)
(0.045232913 -0.001153729 0)
(0.045635501 -0.0015496616 0)
(0.046176492 -0.0021502518 0)
(0.046921759 -0.0030337964 0)
(0.047939128 -0.0043372259 0)
(0.049358832 -0.0062721174 0)
(0.051294488 -0.0091858196 0)
(0.053863055 -0.014027537 0)
(0.05774002 -0.02154123 0)
(0.061598564 -0.033717586 0)
(0.069327032 -0.047608701 0)
(0.068690386 -0.063181803 0)
(0.090634045 -0.066609362 0)
(0.22086204 -0.0029176118 0)
(0.23202975 -0.0010264431 0)
(0.23561304 -0.00021823849 0)
(0.23609264 -9.6736126e-005 0)
(0.23702248 -9.0546923e-005 0)
(0.23724593 -2.1025386e-005 0)
(0.23723052 8.9797358e-006 0)
(0.23711846 9.7220679e-006 0)
(0.23707811 3.6169059e-006 0)
(0.23706845 4.3932782e-007 0)
(0.23707152 -3.0989047e-007 0)
(0.23707335 -1.4697726e-007 0)
(0.23707356 -4.3401954e-009 0)
(0.23707341 1.1157902e-008 0)
(0.23707337 1.6043278e-009 0)
(0.23707339 -2.4101525e-009 0)
(0.23707341 -1.8724495e-009 0)
(0.23707341 -4.453809e-010 0)
(0.23707341 6.432256e-010 0)
(0.23707341 -2.5582393e-010 0)
(0.23707342 -2.1011676e-010 0)
(0.23707341 1.1372053e-009 0)
(0.2370734 3.2330498e-010 0)
(0.2370734 -5.1723474e-009 0)
(0.23707348 -5.1800046e-009 0)
(0.21692811 -0.0083599382 0)
(0.2264515 -0.0029569465 0)
(0.23027577 -0.00067620065 0)
(0.23047501 -0.00030153642 0)
(0.23110024 -0.00018527981 0)
(0.23121156 -4.4157758e-005 0)
(0.23118283 2.6206454e-005 0)
(0.23109168 2.6537179e-005 0)
(0.23106009 9.5426239e-006 0)
(0.23105357 9.9275718e-007 0)
(0.23105636 -8.6655709e-007 0)
(0.23105777 -3.7711325e-007 0)
(0.2310579 -8.0194842e-009 0)
(0.23105778 3.2812235e-008 0)
(0.23105775 4.6394558e-009 0)
(0.23105776 -6.2323271e-009 0)
(0.23105777 -4.7093502e-009 0)
(0.23105778 -8.5990855e-010 0)
(0.23105778 8.3797434e-010 0)
(0.23105778 -6.9117697e-010 0)
(0.23105778 -4.5785879e-010 0)
(0.23105778 2.7407221e-009 0)
(0.23105777 1.1141058e-009 0)
(0.23105777 -1.3707493e-008 0)
(0.23105783 -1.433768e-008 0)
(0.20920192 -0.013218674 0)
(0.215978 -0.004673494 0)
(0.21984968 -0.0010945229 0)
(0.21948524 -0.00041251511 0)
(0.21970773 -0.0002182382 0)
(0.21967496 -4.9021852e-005 0)
(0.2196292 4.2523743e-005 0)
(0.21956877 3.8972496e-005 0)
(0.21955295 1.355932e-005 0)
(0.21955125 1.1114029e-006 0)
(0.21955346 -1.3018383e-006 0)
(0.21955417 -5.289025e-007 0)
(0.21955417 -3.5625076e-009 0)
(0.2195541 4.8840713e-008 0)
(0.21955409 6.336436e-009 0)
(0.21955409 -8.6255895e-009 0)
(0.2195541 -6.6025351e-009 0)
(0.2195541 -1.6756368e-009 0)
(0.21955411 8.4677818e-010 0)
(0.21955411 -6.873704e-010 0)
(0.2195541 -3.6454037e-010 0)
(0.21955411 3.5785096e-009 0)
(0.2195541 2.3084074e-009 0)
(0.21955409 -1.8281611e-008 0)
(0.21955411 -1.9926569e-008 0)
(0.19786806 -0.017155108 0)
(0.20169021 -0.0061416458 0)
(0.20437629 -0.0012666307 0)
(0.20362357 -0.00039040052 0)
(0.20358308 -0.00019975451 0)
(0.20340404 -3.4766711e-005 0)
(0.20335453 5.6241897e-005 0)
(0.20333073 4.4411944e-005 0)
(0.20333228 1.455021e-005 0)
(0.20333492 7.112064e-007 0)
(0.20333616 -1.5414371e-006 0)
(0.2033361 -5.7052758e-007 0)
(0.20333601 1.0112566e-008 0)
(0.20333599 5.395201e-008 0)
(0.203336 5.7370102e-009 0)
(0.203336 -9.4916936e-009 0)
(0.203336 -6.9486416e-009 0)
(0.203336 -1.9609227e-009 0)
(0.203336 3.6426293e-010 0)
(0.203336 -4.7846104e-010 0)
(0.203336 -3.2031963e-010 0)
(0.203336 3.0360061e-009 0)
(0.203336 3.7670969e-009 0)
(0.20333599 -1.5464765e-008 0)
(0.20333595 -1.9116713e-008 0)
(0.18344286 -0.019967744 0)
(0.18340222 -0.0070007699 0)
(0.18424435 -0.0012247687 0)
(0.18347383 -0.00031990507 0)
(0.1833038 -0.00013701212 0)
(0.18303354 -3.4926286e-006 0)
(0.18300605 6.4511917e-005 0)
(0.18302032 4.2954289e-005 0)
(0.18303613 1.2883471e-005 0)
(0.18304107 3.9006299e-008 0)
(0.18304113 -1.556244e-006 0)
(0.18304044 -5.0471739e-007 0)
(0.18304032 2.595309e-008 0)
(0.18304035 4.9246865e-008 0)
(0.18304038 3.434352e-009 0)
(0.18304037 -8.7183938e-009 0)
(0.18304037 -5.9467505e-009 0)
(0.18304036 -1.9857091e-009 0)
(0.18304036 -2.0736545e-010 0)
(0.18304036 -1.6471495e-010 0)
(0.18304036 -2.4676175e-010 0)
(0.18304037 1.8969059e-009 0)
(0.18304037 5.1358429e-009 0)
(0.18304036 -5.0499123e-009 0)
(0.18304028 -1.0509861e-008 0)
(0.16656453 -0.021746257 0)
(0.16005847 -0.0068608959 0)
(0.16010344 -0.0010583374 0)
(0.15931212 -0.00025439893 0)
(0.1591133 -5.8119428e-005 0)
(0.15884739 2.956851e-005 0)
(0.1588684 6.3514949e-005 0)
(0.15891285 3.5761326e-005 0)
(0.15893712 9.6191349e-006 0)
(0.1589419 -5.779181e-007 0)
(0.15894084 -1.3557458e-006 0)
(0.15893981 -3.7844915e-007 0)
(0.15893972 3.436362e-008 0)
(0.15893979 3.7830817e-008 0)
(0.15893982 7.0101873e-010 0)
(0.15893981 -6.9766832e-009 0)
(0.1589398 -4.2731683e-009 0)
(0.1589398 -1.7122397e-009 0)
(0.1589398 -2.7313982e-010 0)
(0.1589398 7.0567673e-012 0)
(0.1589398 -5.3913407e-010 0)
(0.1589398 3.7647201e-010 0)
(0.15893981 6.2802759e-009 0)
(0.1589398 8.5384927e-009 0)
(0.15893971 2.2253267e-009 0)
(0.14565766 -0.021624379 0)
(0.13194801 -0.0059828997 0)
(0.13211429 -0.00079456988 0)
(0.13113346 -0.00017765943 0)
(0.1310268 9.2579096e-006 0)
(0.13084235 4.7890744e-005 0)
(0.13092104 5.2401381e-005 0)
(0.13097944 2.4967277e-005 0)
(0.131006 5.9155506e-006 0)
(0.1310088 -9.0043767e-007 0)
(0.13100697 -1.0054647e-006 0)
(0.13100589 -2.3773295e-007 0)
(0.13100587 3.2436191e-008 0)
(0.13100595 2.3895533e-008 0)
(0.13100597 -1.1588144e-009 0)
(0.13100596 -4.7326246e-009 0)
(0.13100595 -2.6071598e-009 0)
(0.13100595 -1.2483832e-009 0)
(0.13100595 -3.4932433e-010 0)
(0.13100595 -2.248419e-011 0)
(0.13100595 -7.3880372e-010 0)
(0.13100595 -9.2228185e-010 0)
(0.13100595 6.1266219e-009 0)
(0.13100596 1.9480864e-008 0)
(0.1310059 1.3451468e-008 0)
(0.11838154 -0.01869113 0)
(0.099736505 -0.0044350714 0)
(0.10021298 -0.00050844279 0)
(0.09895496 -9.9094472e-005 0)
(0.099046567 4.6553735e-005 0)
(0.09896732 4.5235479e-005 0)
(0.099087246 3.4358385e-005 0)
(0.099140932 1.3508148e-005 0)
(0.099164149 2.7451206e-006 0)
(0.099164334 -8.5592678e-007 0)
(0.099162286 -5.9965191e-007 0)
(0.099161382 -1.1880829e-007 0)
(0.099161418 2.2543575e-008 0)
(0.099161485 1.1159019e-008 0)
(0.099161497 -1.6882055e-009 0)
(0.099161487 -2.587774e-009 0)
(0.099161481 -1.2616093e-009 0)
(0.099161479 -8.0915452e-010 0)
(0.099161477 -2.8083008e-010 0)
(0.099161477 2.1390887e-011 0)
(0.099161477 -7.3859583e-010 0)
(0.099161477 -1.5431043e-009 0)
(0.099161478 4.3623785e-009 0)
(0.099161494 2.1560518e-008 0)
(0.099161499 1.7024131e-008 0)
(0.084279021 -0.013284938 0)
(0.063446231 -0.0025007332 0)
(0.064228678 -0.00019791359 0)
(0.062954389 -4.0101339e-005 0)
(0.063252714 4.6979601e-005 0)
(0.063247277 2.5877336e-005 0)
(0.063370159 1.5683161e-005 0)
(0.063403654 4.4584961e-006 0)
(0.063419444 7.2871895e-007 0)
(0.063417581 -5.1827835e-007 0)
(0.063415946 -2.3536339e-007 0)
(0.063415338 -3.9871159e-008 0)
(0.063415403 1.0031806e-008 0)
(0.06341544 2.6179784e-009 0)
(0.063415444 -1.1393522e-009 0)
(0.063415436 -9.5010518e-010 0)
(0.063415433 -4.3490633e-010 0)
(0.063415432 -3.9205418e-010 0)
(0.06341543 -8.0981997e-011 0)
(0.06341543 6.2154812e-011 0)
(0.06341543 -5.3351508e-010 0)
(0.063415428 -1.2870573e-009 0)
(0.063415425 1.5357827e-009 0)
(0.063415446 1.3257665e-008 0)
(0.063415507 1.119631e-008 0)
(0.039062603 -0.0068695193 0)
(0.022822883 -0.00011167593 0)
(0.024309437 7.2858316e-006 0)
(0.023368769 2.150027e-005 0)
(0.023747695 3.6848847e-006 0)
(0.023728854 2.891458e-006 0)
(0.023807515 -7.0988071e-007 0)
(0.02381187 -3.7019911e-007 0)
(0.023818686 -2.2583579e-007 0)
(0.023816439 -5.7304543e-008 0)
(0.02381588 -1.3447499e-008 0)
(0.023815605 1.6187932e-009 0)
(0.023815655 -4.581886e-010 0)
(0.023815658 -3.0422564e-010 0)
(0.023815659 -1.6961572e-010 0)
(0.023815655 5.069673e-011 0)
(0.023815654 2.4590972e-011 0)
(0.023815653 1.9376815e-011 0)
(0.023815653 2.0946231e-011 0)
(0.023815653 -3.3037488e-011 0)
(0.023815653 -2.1256668e-010 0)
(0.02381565 -4.1253102e-010 0)
(0.023815645 1.9620941e-010 0)
(0.023815656 4.0191532e-009 0)
(0.023815709 3.5353994e-009 0)
(0.039268713 -0.0023383883 0)
(0.040211077 -0.0028960857 0)
(0.041376989 -0.0026482168 0)
(0.042261768 -0.0021580411 0)
(0.042895713 -0.001721932 0)
(0.043380391 -0.0013705841 0)
(0.04373268 -0.0011055289 0)
(0.044005359 -0.00092577363 0)
(0.044223934 -0.00082412483 0)
(0.044416013 -0.00080383282 0)
(0.04460377 -0.00086725444 0)
(0.044808549 -0.0010343521 0)
(0.045054924 -0.0013235647 0)
(0.045366889 -0.0017733487 0)
(0.045781908 -0.0024531146 0)
(0.046342449 -0.0034488521 0)
(0.047082561 -0.0049016114 0)
(0.048079537 -0.0070418278 0)
(0.049380655 -0.010215433 0)
(0.050859128 -0.015377319 0)
(0.052862748 -0.023286705 0)
(0.053607554 -0.03556082 0)
(0.054867213 -0.048867794 0)
(0.042705874 -0.062838471 0)
(0.036168348 -0.050570839 0)
(0.03936144 -0.0030582881 0)
(0.040430284 -0.0038254306 0)
(0.041710227 -0.0033959345 0)
(0.042628999 -0.0027277058 0)
(0.04322011 -0.0021294389 0)
(0.04364298 -0.0016622955 0)
(0.043926761 -0.001317964 0)
(0.044129573 -0.0010868647 0)
(0.044280311 -0.00095517336 0)
(0.044403649 -0.00092125399 0)
(0.044516195 -0.00098552543 0)
(0.044629639 -0.0011672428 0)
(0.044763105 -0.0014859693 0)
(0.044920475 -0.001980581 0)
(0.045120018 -0.0027218114 0)
(0.045376758 -0.0038019593 0)
(0.045681929 -0.0053492023 0)
(0.046026102 -0.0075883958 0)
(0.046401671 -0.010813542 0)
(0.046481628 -0.015820885 0)
(0.046192151 -0.023193372 0)
(0.04385276 -0.033455281 0)
(0.039609524 -0.042655393 0)
(0.025851325 -0.046821337 0)
(0.010841805 -0.024935991 0)
(0.039532337 -0.0039190296 0)
(0.040843968 -0.0048839875 0)
(0.042301595 -0.0042044966 0)
(0.043231047 -0.0032821205 0)
(0.043744001 -0.002489395 0)
(0.04406815 -0.0018943666 0)
(0.044256949 -0.0014702261 0)
(0.044370788 -0.0011904871 0)
(0.044439962 -0.0010293966 0)
(0.044484766 -0.00097966882 0)
(0.044510973 -0.0010382622 0)
(0.044527771 -0.0012183844 0)
(0.044535894 -0.0015421256 0)
(0.044536656 -0.0020456302 0)
(0.044513984 -0.0027913996 0)
(0.044462289 -0.003872519 0)
(0.044345699 -0.005397747 0)
(0.044085227 -0.0075620189 0)
(0.043621391 -0.010605191 0)
(0.042555803 -0.01509912 0)
(0.040571939 -0.021472549 0)
(0.036232055 -0.029591091 0)
(0.029088073 -0.036129726 0)
(0.016267516 -0.036483253 0)
(0.0026483046 -0.018358115 0)
(0.039920512 -0.0050668811 0)
(0.041630761 -0.0061568889 0)
(0.043302578 -0.0050759345 0)
(0.044181058 -0.0037924911 0)
(0.044550878 -0.002766807 0)
(0.044724963 -0.0020397656 0)
(0.044786141 -0.0015439554 0)
(0.04479148 -0.0012241483 0)
(0.044767632 -0.0010391001 0)
(0.044724504 -0.0009741115 0)
(0.044661931 -0.0010198438 0)
(0.044580029 -0.0011859128 0)
(0.044463508 -0.0014906769 0)
(0.044306645 -0.0019675063 0)
(0.044074276 -0.0026682684 0)
(0.043729668 -0.0036732501 0)
(0.043223652 -0.0050786108 0)
(0.042430833 -0.0070299682 0)
(0.041249928 -0.0097121243 0)
(0.03930267 -0.013490206 0)
(0.036209479 -0.018622608 0)
(0.030877588 -0.024659053 0)
(0.022793625 -0.028772869 0)
(0.011859574 -0.026913728 0)
(0.0002597445 -0.012852803 0)
(0.040660672 -0.006789968 0)
(0.042841057 -0.0077282835 0)
(0.044600444 -0.0059703048 0)
(0.045284063 -0.0041981955 0)
(0.045410634 -0.0029080077 0)
(0.045373606 -0.0020639574 0)
(0.045272366 -0.0015189522 0)
(0.045152667 -0.0011767617 0)
(0.045028713 -0.00097864029 0)
(0.044894308 -0.00090093455 0)
(0.044747227 -0.00093059539 0)
(0.044567032 -0.0010702949 0)
(0.044340012 -0.0013368477 0)
(0.04403232 -0.0017524736 0)
(0.043611852 -0.0023645828 0)
(0.043014059 -0.0032320279 0)
(0.042170878 -0.0044340595 0)
(0.040943554 -0.0060739972 0)
(0.039191485 -0.0082841359 0)
(0.03659679 -0.011285248 0)
(0.03276946 -0.015188006 0)
(0.026981662 -0.019430763 0)
(0.01884516 -0.021833801 0)
(0.0093924649 -0.019265766 0)
(-0.00022459868 -0.009184431 0)
(0.041650362 -0.009386049 0)
(0.044010277 -0.0094881787 0)
(0.045351023 -0.0067199431 0)
(0.045565408 -0.0043785867 0)
(0.045324617 -0.0028456399 0)
(0.045022081 -0.0019307792 0)
(0.044732704 -0.0013783822 0)
(0.044483209 -0.0010411835 0)
(0.044260087 -0.00084649219 0)
(0.044043933 -0.00076290666 0)
(0.043821115 -0.00077567292 0)
(0.043561006 -0.00088002607 0)
(0.043240859 -0.001090183 0)
(0.042815917 -0.0014206793 0)
(0.042247025 -0.0019062113 0)
(0.041459868 -0.0025910105 0)
(0.040366931 -0.0035294034 0)
(0.038835307 -0.004790864 0)
(0.036706287 -0.0064627934 0)
(0.033719718 -0.0086709622 0)
(0.029525607 -0.011434454 0)
(0.023663673 -0.01422172 0)
(0.015923081 -0.015386698 0)
(0.0078472242 -0.012850633 0)
(-0.0001911511 -0.0060235061 0)
(0.042241388 -0.012826677 0)
(0.043916077 -0.010813922 0)
(0.04383093 -0.0069146945 0)
(0.04320565 -0.0041453876 0)
(0.042484137 -0.0025099797 0)
(0.041897395 -0.0016179726 0)
(0.04143008 -0.0011164073 0)
(0.041065152 -0.00082074945 0)
(0.040762797 -0.00065113555 0)
(0.040490454 -0.00057209436 0)
(0.040217376 -0.00056857221 0)
(0.039913483 -0.00063610384 0)
(0.039541176 -0.00077843847 0)
(0.039061234 -0.0010093954 0)
(0.038421164 -0.0013476938 0)
(0.037549327 -0.0018222914 0)
(0.03635501 -0.0024683858 0)
(0.034715169 -0.003326681 0)
(0.032478441 -0.004448751 0)
(0.029431197 -0.0058990298 0)
(0.025300354 -0.007654649 0)
(0.019810581 -0.009293726 0)
(0.012906402 -0.0096592446 0)
(0.0063088286 -0.0075168185 0)
(-0.00012818189 -0.003343216 0)
(0.041154216 -0.016152132 0)
(0.040798609 -0.010654876 0)
(0.038045955 -0.0061315774 0)
(0.036400763 -0.0033568872 0)
(0.035194657 -0.0018829645 0)
(0.034377233 -0.0011423186 0)
(0.033800021 -0.00075820457 0)
(0.033371855 -0.00054078377 0)
(0.033037792 -0.00041586623 0)
(0.032752444 -0.000353737 0)
(0.032477975 -0.00034074176 0)
(0.032183068 -0.00037222311 0)
(0.031829219 -0.00044844739 0)
(0.031380015 -0.00057759574 0)
(0.030783642 -0.00076838551 0)
(0.029979823 -0.0010357539 0)
(0.028889136 -0.0013975699 0)
(0.027408836 -0.001873377 0)
(0.025413609 -0.0024878218 0)
(0.022739983 -0.003270349 0)
(0.019194247 -0.0041930521 0)
(0.014630504 -0.0049789339 0)
(0.009113262 -0.0049141478 0)
(0.0043326978 -0.0033736695 0)
(-0.00014087756 -0.0012487943 0)
(0.035783167 -0.015596903 0)
(0.033222386 -0.007486728 0)
(0.027016456 -0.0039718582 0)
(0.024737231 -0.0019811324 0)
(0.023253924 -0.0010497386 0)
(0.022381544 -0.00060443298 0)
(0.021823489 -0.0003856619 0)
(0.021431501 -0.00026792271 0)
(0.021140369 -0.00020078653 0)
(0.020904111 -0.00016579496 0)
(0.020688767 -0.00015531699 0)
(0.02046608 -0.00016542428 0)
(0.020208051 -0.00019608285 0)
(0.019884674 -0.0002504216 0)
(0.019458809 -0.00033155812 0)
(0.018886783 -0.00044598124 0)
(0.018112036 -0.00059832536 0)
(0.017066581 -0.0007946876 0)
(0.015669688 -0.0010428353 0)
(0.013816422 -0.0013535084 0)
(0.011384123 -0.0017094893 0)
(0.0083173539 -0.0019784213 0)
(0.0047135359 -0.0018240033 0)
(0.0020179726 -0.00099495426 0)
(-0.00024056594 -0.00018563288 0)
(0.021131436 -0.012228142 0)
(0.017846567 -0.0025221572 0)
(0.011285803 -0.00054460677 0)
(0.010007591 -0.0002536951 0)
(0.0088643102 -9.6410856e-005 0)
(0.0083209501 -4.3150371e-005 0)
(0.0079850629 -2.0292919e-005 0)
(0.0077608689 -1.0401951e-005 0)
(0.0076008317 -4.6546891e-006 0)
(0.0074773535 -4.8591455e-007 0)
(0.0073709583 2.8367556e-006 0)
(0.0072661526 5.6718857e-006 0)
(0.007149462 8.7654527e-006 0)
(0.0070057873 1.2052902e-005 0)
(0.0068186997 1.6587312e-005 0)
(0.0065686022 2.2678697e-005 0)
(0.0062321063 3.1064885e-005 0)
(0.0057830936 4.2440263e-005 0)
(0.0051924641 5.8103353e-005 0)
(0.0044225534 7.8727698e-005 0)
(0.0034306504 0.00010850574 0)
(0.0022391896 0.0001594822 0)
(0.00085773903 0.0002074214 0)
(0.00015053531 0.00030230961 0)
(-0.00019435559 0.00021608807 0)
)
;

boundaryField
{
    inlet
    {
        type            fixedValue;
        value           uniform (0.03876 0 0);
    }
    walls
    {
        type            fixedValue;
        value           uniform (0 0 0);
    }
    outlet
    {
        type            zeroGradient;
    }
    centreline
    {
        type            symmetryPlane;
    }
    frontAndBack
    {
        type            empty;
    }
}


// ************************************************************************* //
