/*--------------------------------*- C++ -*----------------------------------*\
| =========                 |                                                 |
| \\      /  F ield         | OpenFOAM: The Open Source CFD Toolbox           |
|  \\    /   O peration     | Version:  5.x                                   |
|   \\  /    A nd           | Web:      www.OpenFOAM.org                      |
|    \\/     M anipulation  |                                                 |
\*---------------------------------------------------------------------------*/
/*   Windows 32 and 64 bit porting by blueCAPE: http://www.bluecape.com.pt   *\
|  Based on Windows porting (2.0.x v4) by Symscape: http://www.symscape.com   |
\*---------------------------------------------------------------------------*/
FoamFile
{
    version     2.0;
    format      ascii;
    class       volVectorField;
    location    "0.11";
    object      U_0;
}
// * * * * * * * * * * * * * * * * * * * * * * * * * * * * * * * * * * * * * //

dimensions      [0 1 -1 0 0 0 0];

internalField   nonuniform List<vector> 
750
(
(0.039130407 -9.640566e-005 0)
(0.039950399 -0.00011720627 0)
(0.040973506 -0.00011157092 0)
(0.041758911 -9.1902423e-005 0)
(0.042436022 -7.6638181e-005 0)
(0.042986708 -6.2650574e-005 0)
(0.043437179 -5.2145355e-005 0)
(0.043819557 -4.4762888e-005 0)
(0.044152095 -4.0777731e-005 0)
(0.044470562 -4.0525359e-005 0)
(0.044798461 -4.4371944e-005 0)
(0.04517821 -5.3540157e-005 0)
(0.045653017 -6.9139934e-005 0)
(0.04628036 -9.3564496e-005 0)
(0.047144695 -0.00013082957 0)
(0.048367211 -0.0001863132 0)
(0.050110353 -0.00027020683 0)
(0.052675925 -0.00039708096 0)
(0.056431193 -0.00059285073 0)
(0.062095408 -0.00092343785 0)
(0.071209081 -0.0014566693 0)
(0.085061376 -0.0023806457 0)
(0.10949769 -0.0035296327 0)
(0.14011685 -0.004678463 0)
(0.18497494 -0.0052224013 0)
(0.039131643 -0.00028786484 0)
(0.03995273 -0.00035493921 0)
(0.040978182 -0.00033312338 0)
(0.041765728 -0.00027664569 0)
(0.042442427 -0.00022946355 0)
(0.04299243 -0.00018780376 0)
(0.043441464 -0.00015609547 0)
(0.043822218 -0.00013396436 0)
(0.04415299 -0.00012193777 0)
(0.044469411 -0.00012115569 0)
(0.044794866 -0.00013259146 0)
(0.045171769 -0.00015996417 0)
(0.045642757 -0.00020657606 0)
(0.046264565 -0.00027943793 0)
(0.047121255 -0.00039056232 0)
(0.048331792 -0.00055610308 0)
(0.050056899 -0.00080598711 0)
(0.052593339 -0.0011836049 0)
(0.056299995 -0.0017669489 0)
(0.061892168 -0.0027503882 0)
(0.070880859 -0.0043442268 0)
(0.084514762 -0.0070504629 0)
(0.10850214 -0.010503418 0)
(0.1382199 -0.013794024 0)
(0.182371 -0.0155748 0)
(0.039133598 -0.00047895289 0)
(0.039957896 -0.00059511571 0)
(0.040988242 -0.00055427737 0)
(0.04177948 -0.00046212207 0)
(0.042455666 -0.00038194822 0)
(0.0430042 -0.00031262349 0)
(0.043450432 -0.00025949761 0)
(0.043827924 -0.00022257727 0)
(0.044155163 -0.00020242606 0)
(0.044467552 -0.00020099724 0)
(0.044788206 -0.00021988095 0)
(0.045159315 -0.00026523863 0)
(0.045622659 -0.00034240192 0)
(0.046233532 -0.00046298342 0)
(0.047074665 -0.00064686429 0)
(0.048261696 -0.00092066367 0)
(0.049950309 -0.0013333935 0)
(0.05242829 -0.001956649 0)
(0.056040545 -0.0029203318 0)
(0.061481604 -0.0045402129 0)
(0.070219491 -0.0071759127 0)
(0.08340634 -0.011587394 0)
(0.10653903 -0.017275332 0)
(0.13457996 -0.022585471 0)
(0.17730247 -0.025668187 0)
(0.039136581 -0.00067113553 0)
(0.039966568 -0.00083670869 0)
(0.041004217 -0.00077677129 0)
(0.041800456 -0.00064803082 0)
(0.042475915 -0.0005341909 0)
(0.043022111 -0.00043675213 0)
(0.043464151 -0.00036196659 0)
(0.043836721 -0.0003101205 0)
(0.044158637 -0.00028173584 0)
(0.044465039 -0.00027946522 0)
(0.044778665 -0.0003055175 0)
(0.045140999 -0.0003684111 0)
(0.045592931 -0.00047531216 0)
(0.046187731 -0.00064237474 0)
(0.047005464 -0.00089706476 0)
(0.048157978 -0.0012758744 0)
(0.04979246 -0.0018459685 0)
(0.052184079 -0.002706 0)
(0.055659332 -0.004034832 0)
(0.060869723 -0.0062671949 0)
(0.069237637 -0.0099022808 0)
(0.0817807 -0.015935678 0)
(0.10367497 -0.023662069 0)
(0.12939551 -0.030863038 0)
(0.16995344 -0.035256435 0)
(0.039141344 -0.00086519426 0)
(0.039979432 -0.001080067 0)
(0.041026594 -0.001001197 0)
(0.041828992 -0.00083439739 0)
(0.042503217 -0.00068604401 0)
(0.043046128 -0.00055988482 0)
(0.04348253 -0.00046311664 0)
(0.043848493 -0.00039615879 0)
(0.044163309 -0.00035940006 0)
(0.044461738 -0.00035606702 0)
(0.044766191 -0.00038886692 0)
(0.045116911 -0.00046861142 0)
(0.045553756 -0.00060422989 0)
(0.046127575 -0.00081606186 0)
(0.046914469 -0.0011388735 0)
(0.04802192 -0.0016182963 0)
(0.049585929 -0.0023382373 0)
(0.051865372 -0.0034231362 0)
(0.055163354 -0.005096441 0)
(0.060070164 -0.0079077538 0)
(0.067962858 -0.012474323 0)
(0.079570271 -0.020001779 0)
(0.099939094 -0.029565126 0)
(0.12272236 -0.038455632 0)
(0.16052544 -0.043977919 0)
(0.039148661 -0.0010618787 0)
(0.039997046 -0.0013258569 0)
(0.041055765 -0.001227904 0)
(0.041865412 -0.0010212841 0)
(0.04253764 -0.00083729775 0)
(0.043076244 -0.00068171765 0)
(0.043505501 -0.00056254787 0)
(0.043863155 -0.00048026393 0)
(0.044169117 -0.00043495287 0)
(0.044457618 -0.00043025641 0)
(0.04475078 -0.00046930911 0)
(0.045087178 -0.00056507954 0)
(0.045505368 -0.00072810983 0)
(0.046053486 -0.00098254617 0)
(0.046802578 -0.0013700786 0)
(0.047854846 -0.0019446771 0)
(0.049333416 -0.0028052159 0)
(0.051476638 -0.004099976 0)
(0.054560716 -0.0060915938 0)
(0.05909607 -0.0094370721 0)
(0.066383542 -0.01485294 0)
(0.076798025 -0.023722188 0)
(0.095307851 -0.034850723 0)
(0.11450184 -0.045309401 0)
(0.14934059 -0.051609042 0)
(0.039158907 -0.0012621478 0)
(0.040019684 -0.0015745621 0)
(0.041091893 -0.0014573103 0)
(0.041909931 -0.0012086966 0)
(0.042579203 -0.00098770536 0)
(0.043112338 -0.00080192072 0)
(0.043532858 -0.00065985637 0)
(0.043880484 -0.00056200431 0)
(0.044175846 -0.00050793541 0)
(0.044452488 -0.00050151979 0)
(0.044732343 -0.00054624149 0)
(0.04505183 -0.0006570707 0)
(0.045447927 -0.00084595511 0)
(0.045965825 -0.0011403941 0)
(0.046670647 -0.0015886338 0)
(0.047658414 -0.0022519911 0)
(0.049037559 -0.0032421742 0)
(0.051023882 -0.0047290087 0)
(0.05385802 -0.00700753 0)
(0.057964657 -0.010833025 0)
(0.064522256 -0.016979048 0)
(0.073539151 -0.02703056 0)
(0.089825499 -0.03937849 0)
(0.10465753 -0.051244562 0)
(0.13715769 -0.058354921 0)
(0.039172514 -0.0014672188 0)
(0.040047488 -0.0018264246 0)
(0.041134945 -0.0016898993 0)
(0.041962684 -0.001396629 0)
(0.042627827 -0.0011370003 0)
(0.043154197 -0.00092013073 0)
(0.043564283 -0.00075461365 0)
(0.04390013 -0.0006409379 0)
(0.044183143 -0.00057787192 0)
(0.044445908 -0.00056939669 0)
(0.04471065 -0.00061913743 0)
(0.045010933 -0.0007438094 0)
(0.045381647 -0.00095673685 0)
(0.045865015 -0.0012882258 0)
(0.046519814 -0.00179253 0)
(0.047433928 -0.0025373262 0)
(0.048702324 -0.0036450914 0)
(0.050514357 -0.0053042136 0)
(0.053067195 -0.0078333653 0)
(0.056701216 -0.01207224 0)
(0.062414548 -0.018817701 0)
(0.069832249 -0.029846225 0)
(0.083562506 -0.043033952 0)
(0.093635288 -0.056138042 0)
(0.12415299 -0.063135473 0)
(0.039190062 -0.0016782936 0)
(0.040080701 -0.0020818842 0)
(0.041184793 -0.0019261725 0)
(0.042023877 -0.0015850627 0)
(0.042683389 -0.0012849134 0)
(0.043201529 -0.0010359221 0)
(0.043599395 -0.00084638636 0)
(0.043921692 -0.00071661442 0)
(0.044190655 -0.00064427796 0)
(0.044437501 -0.00063343613 0)
(0.044685463 -0.00068749962 0)
(0.044964512 -0.00082458048 0)
(0.045306862 -0.0010594863 0)
(0.045751592 -0.0014249241 0)
(0.046351607 -0.0019800308 0)
(0.047184103 -0.0027982911 0)
(0.048332283 -0.0040109754 0)
(0.049954817 -0.005819159 0)
(0.052202753 -0.0085596327 0)
(0.05532257 -0.013139758 0)
(0.060131485 -0.020327207 0)
(0.065774316 -0.032089122 0)
(0.076685915 -0.045767738 0)
(0.08172502 -0.060294341 0)
(0.10995965 -0.066307429 0)
(0.039213025 -0.0018951737 0)
(0.0401192 -0.0023435837 0)
(0.041241505 -0.0021652401 0)
(0.042094165 -0.0017741795 0)
(0.042746071 -0.0014309939 0)
(0.043254265 -0.0011488999 0)
(0.043638069 -0.00093474007 0)
(0.043945004 -0.00078862421 0)
(0.044198258 -0.00070678233 0)
(0.04442771 -0.00069311398 0)
(0.044656789 -0.00075082899 0)
(0.044912525 -0.00089893918 0)
(0.04522416 -0.0011536015 0)
(0.045626762 -0.0015495246 0)
(0.046167753 -0.0021500265 0)
(0.046913026 -0.0030334034 0)
(0.04793038 -0.0043365398 0)
(0.049349969 -0.0062708364 0)
(0.051285412 -0.0091829888 0)
(0.053853211 -0.014021839 0)
(0.057729278 -0.021533432 0)
(0.061587438 -0.033713762 0)
(0.069318295 -0.047616048 0)
(0.068687392 -0.063200675 0)
(0.090639068 -0.066626716 0)
(0.22089954 -0.0029231049 0)
(0.23211095 -0.0010326195 0)
(0.23573736 -0.000223536 0)
(0.23624869 -9.9861431e-005 0)
(0.23718877 -9.1030169e-005 0)
(0.23741051 -2.0609797e-005 0)
(0.23739132 9.3371801e-006 0)
(0.23727811 9.8021208e-006 0)
(0.23723783 3.5954739e-006 0)
(0.23722842 4.1900666e-007 0)
(0.23723154 -3.1286098e-007 0)
(0.23723335 -1.4481032e-007 0)
(0.23723355 -3.3843109e-009 0)
(0.2372334 1.1185315e-008 0)
(0.23723336 1.5048884e-009 0)
(0.23723338 -2.4391295e-009 0)
(0.2372334 -1.8753619e-009 0)
(0.2372334 -4.3836759e-010 0)
(0.2372334 6.5771351e-010 0)
(0.2372334 -2.6497928e-010 0)
(0.2372334 -2.2258071e-010 0)
(0.2372334 1.1376248e-009 0)
(0.23723339 3.2842834e-010 0)
(0.23723339 -4.9949024e-009 0)
(0.23723346 -4.9968993e-009 0)
(0.21695564 -0.0083739718 0)
(0.22650911 -0.0029728193 0)
(0.23036468 -0.00068976171 0)
(0.23058712 -0.00030914525 0)
(0.23122061 -0.0001869202 0)
(0.23133049 -4.3136563e-005 0)
(0.23129895 2.7099445e-005 0)
(0.23120702 2.6733946e-005 0)
(0.23117553 9.4818573e-006 0)
(0.23116918 9.4035431e-007 0)
(0.23117201 -8.7283969e-007 0)
(0.23117341 -3.713776e-007 0)
(0.23117352 -5.5339142e-009 0)
(0.2311734 3.2846388e-008 0)
(0.23117337 4.3823956e-009 0)
(0.23117338 -6.3040026e-009 0)
(0.2311734 -4.7069922e-009 0)
(0.2311734 -8.3845007e-010 0)
(0.2311734 8.5773531e-010 0)
(0.2311734 -7.1296591e-010 0)
(0.23117341 -4.8106664e-010 0)
(0.2311734 2.7429716e-009 0)
(0.2311734 1.1298816e-009 0)
(0.23117339 -1.3312037e-008 0)
(0.23117345 -1.3926945e-008 0)
(0.20921372 -0.013237788 0)
(0.21599794 -0.0046949659 0)
(0.21988281 -0.0011132352 0)
(0.21952835 -0.0004230236 0)
(0.21975489 -0.00022053407 0)
(0.21972097 -4.761446e-005 0)
(0.21967403 4.3725757e-005 0)
(0.21961342 3.9224677e-005 0)
(0.21959771 1.3466154e-005 0)
(0.2195961 1.039986e-006 0)
(0.21959831 -1.3084684e-006 0)
(0.219599 -5.2043041e-007 0)
(0.21959901 -1.4173245e-010 0)
(0.21959893 4.8822366e-008 0)
(0.21959892 5.9759864e-009 0)
(0.21959893 -8.7120236e-009 0)
(0.21959893 -6.5946358e-009 0)
(0.21959894 -1.6530291e-009 0)
(0.21959894 8.6191002e-010 0)
(0.21959894 -7.0797882e-010 0)
(0.21959894 -3.8159186e-010 0)
(0.21959894 3.5806523e-009 0)
(0.21959893 2.321459e-009 0)
(0.21959893 -1.7840155e-008 0)
(0.21959894 -1.9459438e-008 0)
(0.19786447 -0.017175038 0)
(0.20167257 -0.006162552 0)
(0.20435567 -0.0012862385 0)
(0.20359927 -0.00040168469 0)
(0.20355714 -0.0002019689 0)
(0.20337762 -3.3210597e-005 0)
(0.20332862 5.7471278e-005 0)
(0.20330514 4.4635431e-005 0)
(0.20330682 1.4437792e-005 0)
(0.20330943 6.3897171e-007 0)
(0.20331064 -1.5450348e-006 0)
(0.20331057 -5.6065919e-007 0)
(0.20331048 1.3609812e-008 0)
(0.20331046 5.3821712e-008 0)
(0.20331048 5.3519819e-009 0)
(0.20331048 -9.5635333e-009 0)
(0.20331048 -6.9311717e-009 0)
(0.20331047 -1.9453386e-009 0)
(0.20331048 3.6308046e-010 0)
(0.20331048 -4.8774091e-010 0)
(0.20331047 -3.2197097e-010 0)
(0.20331048 3.035959e-009 0)
(0.20331048 3.7618444e-009 0)
(0.20331047 -1.5179648e-008 0)
(0.20331043 -1.8794214e-008 0)
(0.18342639 -0.019983943 0)
(0.18336367 -0.0070181099 0)
(0.18418934 -0.0012413089 0)
(0.18340466 -0.00032937558 0)
(0.18322899 -0.00013869593 0)
(0.18295898 -2.0887997e-006 0)
(0.18293311 6.5520774e-005 0)
(0.18294799 4.3092835e-005 0)
(0.18296387 1.2767708e-005 0)
(0.18296871 -2.0275364e-008 0)
(0.18296873 -1.5551687e-006 0)
(0.18296804 -4.9512963e-007 0)
(0.18296792 2.8858849e-008 0)
(0.18296796 4.9001704e-008 0)
(0.18296798 3.0925565e-009 0)
(0.18296798 -8.7551074e-009 0)
(0.18296797 -5.9207771e-009 0)
(0.18296797 -1.9836217e-009 0)
(0.18296797 -2.1959134e-010 0)
(0.18296797 -1.5688007e-010 0)
(0.18296797 -2.3541302e-010 0)
(0.18296797 1.8870357e-009 0)
(0.18296798 5.0979592e-009 0)
(0.18296797 -5.0221763e-009 0)
(0.18296789 -1.0432736e-008 0)
(0.16654313 -0.021757296 0)
(0.16001745 -0.0068729743 0)
(0.16003896 -0.0010700093 0)
(0.15922915 -0.00026072241 0)
(0.15902394 -5.9015678e-005 0)
(0.15875884 3.063851e-005 0)
(0.15878182 6.4187338e-005 0)
(0.1588269 3.5810193e-005 0)
(0.15885113 9.51762e-006 0)
(0.15885578 -6.1784767e-007 0)
(0.15885469 -1.3509597e-006 0)
(0.15885367 -3.7051558e-007 0)
(0.15885359 3.6357792e-008 0)
(0.15885366 3.7523543e-008 0)
(0.15885369 4.4569574e-010 0)
(0.15885368 -6.9809581e-009 0)
(0.15885367 -4.243781e-009 0)
(0.15885367 -1.719844e-009 0)
(0.15885367 -2.826976e-010 0)
(0.15885367 2.4099709e-011 0)
(0.15885367 -5.3009784e-010 0)
(0.15885367 3.5615093e-010 0)
(0.15885368 6.2046751e-009 0)
(0.15885367 8.3449175e-009 0)
(0.15885358 2.0925484e-009 0)
(0.14564175 -0.021631916 0)
(0.13191396 -0.0059893265 0)
(0.13206048 -0.00080081113 0)
(0.13106324 -0.00018092699 0)
(0.13095173 9.0084834e-006 0)
(0.13076839 4.8583241e-005 0)
(0.13084878 5.2756933e-005 0)
(0.13090763 2.4956838e-005 0)
(0.13093406 5.8424526e-006 0)
(0.13093675 -9.2160808e-007 0)
(0.1309349 -9.9942738e-007 0)
(0.13093384 -2.322258e-007 0)
(0.13093382 3.3538421e-008 0)
(0.1309339 2.3619266e-008 0)
(0.13093392 -1.3178656e-009 0)
(0.13093391 -4.7181057e-009 0)
(0.1309339 -2.5825933e-009 0)
(0.1309339 -1.2586911e-009 0)
(0.1309339 -3.5579561e-010 0)
(0.1309339 -8.2058525e-012 0)
(0.1309339 -7.3377372e-010 0)
(0.1309339 -9.4896606e-010 0)
(0.1309339 6.0319328e-009 0)
(0.13093391 1.9192879e-008 0)
(0.13093385 1.3229807e-008 0)
(0.11837357 -0.018695309 0)
(0.099715147 -0.0044376938 0)
(0.10017937 -0.00051082141 0)
(0.098910745 -0.00010022661 0)
(0.098999893 4.6634004e-005 0)
(0.098921775 4.5592141e-005 0)
(0.099042836 3.4491755e-005 0)
(0.099096718 1.3479025e-005 0)
(0.099119778 2.7041162e-006 0)
(0.099119881 -8.63497e-007 0)
(0.099117833 -5.9474821e-007 0)
(0.099116942 -1.1578633e-007 0)
(0.099116983 2.2988326e-008 0)
(0.099117049 1.0979419e-008 0)
(0.099117061 -1.7645402e-009 0)
(0.099117051 -2.5703688e-009 0)
(0.099117045 -1.246354e-009 0)
(0.099117043 -8.1849029e-010 0)
(0.099117042 -2.8494337e-010 0)
(0.099117041 3.2733844e-011 0)
(0.099117041 -7.3652839e-010 0)
(0.099117041 -1.5697824e-009 0)
(0.099117042 4.2759741e-009 0)
(0.099117057 2.1308383e-008 0)
(0.099117062 1.6832084e-008 0)
(0.084276759 -0.013286801 0)
(0.063436658 -0.0025012668 0)
(0.064214407 -0.00019835977 0)
(0.062935545 -4.0238685e-005 0)
(0.06323336 4.7090552e-005 0)
(0.063228801 2.59914e-005 0)
(0.063352228 1.5703811e-005 0)
(0.063385734 4.4386115e-006 0)
(0.063401402 7.1467786e-007 0)
(0.063399496 -5.1898545e-007 0)
(0.06339787 -2.3287531e-007 0)
(0.063397272 -3.8800706e-008 0)
(0.063397339 1.0119393e-008 0)
(0.063397375 2.540596e-009 0)
(0.063397379 -1.1605064e-009 0)
(0.063397371 -9.3979532e-010 0)
(0.063397368 -4.2915948e-010 0)
(0.063397366 -3.9766733e-010 0)
(0.063397365 -8.2485054e-011 0)
(0.063397365 6.8140631e-011 0)
(0.063397365 -5.33278e-010 0)
(0.063397363 -1.3045253e-009 0)
(0.063397359 1.4798626e-009 0)
(0.063397381 1.3117323e-008 0)
(0.063397441 1.1094309e-008 0)
(0.03906279 -0.0068700269 0)
(0.022821053 -0.00011145815 0)
(0.024307602 7.4626966e-006 0)
(0.02336627 2.163078e-005 0)
(0.023745508 3.705426e-006 0)
(0.023726968 2.8963838e-006 0)
(0.023805745 -7.150151e-007 0)
(0.023810056 -3.710251e-007 0)
(0.023816829 -2.2431954e-007 0)
(0.023814574 -5.667221e-008 0)
(0.023814022 -1.3328552e-008 0)
(0.02381375 1.5906687e-009 0)
(0.023813801 -4.8371357e-010 0)
(0.023813803 -3.0799456e-010 0)
(0.023813804 -1.6827212e-010 0)
(0.023813801 5.1715503e-011 0)
(0.0238138 2.4334384e-011 0)
(0.023813799 1.7970596e-011 0)
(0.023813798 2.0672163e-011 0)
(0.023813799 -3.2673371e-011 0)
(0.023813798 -2.1269791e-010 0)
(0.023813796 -4.1709334e-010 0)
(0.023813791 1.8354421e-010 0)
(0.023813802 4.0090638e-009 0)
(0.023813854 3.5328076e-009 0)
(0.039267804 -0.0023352008 0)
(0.040209036 -0.002891696 0)
(0.041372735 -0.0026437576 0)
(0.042256143 -0.002154178 0)
(0.042888839 -0.0017189342 0)
(0.043372823 -0.0013684608 0)
(0.043724595 -0.0011040214 0)
(0.043996965 -0.00092473458 0)
(0.04421534 -0.0008234197 0)
(0.04440731 -0.00080337298 0)
(0.044595007 -0.00086697069 0)
(0.04479977 -0.0010341775 0)
(0.04504616 -0.0013234388 0)
(0.045358174 -0.001773221 0)
(0.045773235 -0.0024528952 0)
(0.04633384 -0.0034484651 0)
(0.047074059 -0.0049009195 0)
(0.048071037 -0.0070404586 0)
(0.049372238 -0.01021243 0)
(0.050850624 -0.015371288 0)
(0.052854135 -0.023278745 0)
(0.053599227 -0.035557514 0)
(0.054861364 -0.048877364 0)
(0.042704681 -0.062860365 0)
(0.036171537 -0.050588378 0)
(0.039360159 -0.0030539826 0)
(0.040427489 -0.0038195459 0)
(0.041704861 -0.003390127 0)
(0.042622199 -0.002722846 0)
(0.04321215 -0.0021257682 0)
(0.043634472 -0.0016597389 0)
(0.043917876 -0.0013161923 0)
(0.044120487 -0.0010856618 0)
(0.044271122 -0.00095437843 0)
(0.044394413 -0.00092075086 0)
(0.044506961 -0.00098523251 0)
(0.044620438 -0.001167084 0)
(0.04475396 -0.0014858783 0)
(0.044911432 -0.0019805133 0)
(0.045111111 -0.0027216736 0)
(0.045367989 -0.0038016664 0)
(0.045673433 -0.0053486448 0)
(0.046017894 -0.0075872101 0)
(0.046393938 -0.010810828 0)
(0.0464749 -0.015815252 0)
(0.046186675 -0.023185932 0)
(0.043848953 -0.033453061 0)
(0.039607344 -0.04266704 0)
(0.025850365 -0.046845276 0)
(0.010841243 -0.02495302 0)
(0.039530244 -0.0039130343 0)
(0.040839696 -0.0048761711 0)
(0.042294259 -0.0041971718 0)
(0.043222253 -0.0032762945 0)
(0.043734219 -0.0024851705 0)
(0.044058058 -0.0018915033 0)
(0.044246678 -0.0014683016 0)
(0.044360468 -0.0011892088 0)
(0.044429652 -0.0010285801 0)
(0.044474491 -0.0009791761 0)
(0.044500774 -0.0010380006 0)
(0.044517657 -0.0012182805 0)
(0.044525893 -0.0015421125 0)
(0.044526796 -0.0020456676 0)
(0.044504361 -0.0027914178 0)
(0.044452911 -0.0038724137 0)
(0.044336722 -0.0053974622 0)
(0.044076799 -0.0075612464 0)
(0.043613751 -0.01060321 0)
(0.042549778 -0.015094756 0)
(0.04056845 -0.021466667 0)
(0.036231458 -0.029590104 0)
(0.029089435 -0.036141815 0)
(0.016268064 -0.036506366 0)
(0.0026468841 -0.018375431 0)
(0.039917125 -0.0050581201 0)
(0.041624741 -0.0061465508 0)
(0.04329333 -0.0050669512 0)
(0.044170534 -0.0037857705 0)
(0.044539669 -0.0027622287 0)
(0.044713771 -0.0020367867 0)
(0.04477504 -0.0015420274 0)
(0.044780519 -0.001222909 0)
(0.044756804 -0.0010383447 0)
(0.044713823 -0.00097369099 0)
(0.044651378 -0.0010196595 0)
(0.044569612 -0.0011859063 0)
(0.04445327 -0.0014907956 0)
(0.044296597 -0.0019676947 0)
(0.044064501 -0.0026684988 0)
(0.04372027 -0.0036734501 0)
(0.04321475 -0.0050787366 0)
(0.042422693 -0.0070298237 0)
(0.041242807 -0.0097112058 0)
(0.039297484 -0.013487688 0)
(0.036207418 -0.018619254 0)
(0.030879205 -0.024660112 0)
(0.022797461 -0.028785236 0)
(0.01186207 -0.026935552 0)
(0.00025774305 -0.012870615 0)
(0.040656356 -0.0067773464 0)
(0.042835034 -0.0077153553 0)
(0.044592292 -0.0059598929 0)
(0.045275333 -0.0041908453 0)
(0.045401717 -0.002903355 0)
(0.045365072 -0.002061119 0)
(0.045264244 -0.001517208 0)
(0.045144874 -0.0011756915 0)
(0.045021188 -0.00097802556 0)
(0.044887001 -0.0009006413 0)
(0.044740093 -0.0009305431 0)
(0.04456008 -0.0010704207 0)
(0.044333245 -0.0013371169 0)
(0.04402577 -0.0017528716 0)
(0.043605564 -0.0023650781 0)
(0.043008192 -0.0032326073 0)
(0.042165513 -0.0044347068 0)
(0.040938993 -0.0060746107 0)
(0.039187963 -0.0082843737 0)
(0.036595092 -0.011284651 0)
(0.032770769 -0.015187399 0)
(0.026986559 -0.019434242 0)
(0.018851959 -0.021846262 0)
(0.0093976986 -0.019285444 0)
(-0.00022508484 -0.0092013163 0)
(0.041647291 -0.0093699282 0)
(0.044008371 -0.0094742437 0)
(0.045349915 -0.0067092001 0)
(0.045565192 -0.0043712442 0)
(0.04532487 -0.0028412528 0)
(0.045023097 -0.0019283493 0)
(0.044734418 -0.0013770074 0)
(0.044485401 -0.0010403984 0)
(0.044262637 -0.00084609714 0)
(0.044046725 -0.00076278188 0)
(0.04382409 -0.00077575429 0)
(0.043564129 -0.00088028805 0)
(0.043244098 -0.0010905965 0)
(0.042819298 -0.00142125 0)
(0.042250576 -0.0019069457 0)
(0.041463666 -0.0025919142 0)
(0.040371042 -0.0035305048 0)
(0.038839934 -0.004792132 0)
(0.036711618 -0.0064640249 0)
(0.033726208 -0.0086719974 0)
(0.029534112 -0.011436099 0)
(0.023674391 -0.014227044 0)
(0.015934303 -0.015398824 0)
(0.0078555177 -0.012867563 0)
(-0.00018996995 -0.0060374884 0)
(0.042241888 -0.012810484 0)
(0.043921888 -0.010802392 0)
(0.043840853 -0.0069055101 0)
(0.043218226 -0.0041390665 0)
(0.042498096 -0.0025063496 0)
(0.041912439 -0.0016161683 0)
(0.041445925 -0.0011155256 0)
(0.041081532 -0.00082031804 0)
(0.040779523 -0.00065096772 0)
(0.040507396 -0.00057211979 0)
(0.040234427 -0.00056875583 0)
(0.03993057 -0.00063642792 0)
(0.039558253 -0.00077890006 0)
(0.039078272 -0.0010100111 0)
(0.038438137 -0.0013484842 0)
(0.037566218 -0.0018232722 0)
(0.036371816 -0.0024696198 0)
(0.034731897 -0.0033281951 0)
(0.032495134 -0.0044503796 0)
(0.02944804 -0.0059007368 0)
(0.02531772 -0.0076571912 0)
(0.019827985 -0.0092992301 0)
(0.012921852 -0.0096694006 0)
(0.0063191867 -0.0075294242 0)
(-0.00012647741 -0.0033527151 0)
(0.04115871 -0.016140757 0)
(0.040809642 -0.010648673 0)
(0.038063003 -0.0061257577 0)
(0.036421305 -0.0033525537 0)
(0.035217349 -0.0018805196 0)
(0.034401161 -0.001141281 0)
(0.033824611 -0.00075783076 0)
(0.033396871 -0.00054068183 0)
(0.033063038 -0.00041588994 0)
(0.032777796 -0.00035385394 0)
(0.032503332 -0.0003409387 0)
(0.032208345 -0.00037250161 0)
(0.03185435 -0.00044881813 0)
(0.031404936 -0.00057807661 0)
(0.030808267 -0.00076899417 0)
(0.030004088 -0.0010365165 0)
(0.028912971 -0.0013985248 0)
(0.027432065 -0.0018745295 0)
(0.025436129 -0.0024891062 0)
(0.022761836 -0.0032717693 0)
(0.019215414 -0.0041951076 0)
(0.014650093 -0.0049828355 0)
(0.009129041 -0.0049204789 0)
(0.0043424075 -0.0033806235 0)
(-0.00013987601 -0.0012533511 0)
(0.035789407 -0.015591477 0)
(0.0332312 -0.0074843548 0)
(0.027030465 -0.0039688019 0)
(0.024754057 -0.00197886 0)
(0.023272868 -0.0010484647 0)
(0.022401492 -0.00060395987 0)
(0.021843807 -0.00038557279 0)
(0.021451972 -0.00026795971 0)
(0.021160882 -0.00020086587 0)
(0.0209246 -0.0001659053 0)
(0.020709173 -0.0001554572 0)
(0.020486348 -0.00016560004 0)
(0.02022813 -0.00019630856 0)
(0.019904499 -0.00025070628 0)
(0.019478305 -0.0003319192 0)
(0.018905871 -0.00044644355 0)
(0.018130605 -0.00059889193 0)
(0.017084503 -0.00079534431 0)
(0.015686849 -0.0010436142 0)
(0.013832771 -0.0013543888 0)
(0.011399585 -0.0017106652 0)
(0.0083311191 -0.0019803872 0)
(0.0047237672 -0.0018267926 0)
(0.0020239913 -0.00099773237 0)
(-0.000240613 -0.00018730155 0)
(0.021135844 -0.012228776 0)
(0.017849802 -0.0025235367 0)
(0.011291672 -0.00054508304 0)
(0.010014847 -0.00025384342 0)
(0.0088730473 -9.6460456e-005 0)
(0.0083301435 -4.3214285e-005 0)
(0.0079943535 -2.0373769e-005 0)
(0.0077701077 -1.0467757e-005 0)
(0.0076099937 -4.7021922e-006 0)
(0.0074864262 -5.1740547e-007 0)
(0.0073799282 2.8175161e-006 0)
(0.0072750034 5.6614359e-006 0)
(0.007158168 8.7614796e-006 0)
(0.0070143134 1.2055417e-005 0)
(0.0068270018 1.6595466e-005 0)
(0.0065766198 2.2693837e-005 0)
(0.0062397691 3.1092131e-005 0)
(0.0057903381 4.2482136e-005 0)
(0.0051992146 5.8172485e-005 0)
(0.0044287551 7.8839891e-005 0)
(0.0034362772 0.00010867413 0)
(0.0022438808 0.00015973068 0)
(0.00086062787 0.00020796514 0)
(0.00015243528 0.00030314661 0)
(-0.00019434467 0.00021639213 0)
)
;

boundaryField
{
    inlet
    {
        type            fixedValue;
        value           uniform (0.03876 0 0);
    }
    walls
    {
        type            fixedValue;
        value           uniform (0 0 0);
    }
    outlet
    {
        type            zeroGradient;
    }
    centreline
    {
        type            symmetryPlane;
    }
    frontAndBack
    {
        type            empty;
    }
}


// ************************************************************************* //
