/*--------------------------------*- C++ -*----------------------------------*\
| =========                 |                                                 |
| \\      /  F ield         | OpenFOAM: The Open Source CFD Toolbox           |
|  \\    /   O peration     | Version:  5.x                                   |
|   \\  /    A nd           | Web:      www.OpenFOAM.org                      |
|    \\/     M anipulation  |                                                 |
\*---------------------------------------------------------------------------*/
/*   Windows 32 and 64 bit porting by blueCAPE: http://www.bluecape.com.pt   *\
|  Based on Windows porting (2.0.x v4) by Symscape: http://www.symscape.com   |
\*---------------------------------------------------------------------------*/
FoamFile
{
    version     2.0;
    format      ascii;
    class       volScalarField;
    location    "2000";
    object      k;
}
// * * * * * * * * * * * * * * * * * * * * * * * * * * * * * * * * * * * * * //

dimensions      [0 2 -2 0 0 0 0];

internalField   nonuniform List<scalar> 
4000
(
0.00963406
0.00893208
0.00829634
0.00771707
0.00718732
0.0067016
0.00625535
0.0058447
0.00546628
0.00511715
0.0047947
0.00449661
0.0042208
0.0039654
0.00372871
0.00350922
0.00330555
0.00311642
0.00294071
0.00277737
0.00262544
0.00248405
0.0023524
0.00222976
0.00211546
0.00200888
0.00190945
0.00181665
0.00173
0.00164905
0.0015734
0.00150267
0.00143651
0.0013746
0.00131664
0.00126237
0.00121151
0.00116385
0.00111915
0.00107723
0.0010379
0.00100098
0.000966305
0.00093374
0.000903143
0.00087438
0.000847313
0.000821838
0.00079786
0.000775289
0.000754042
0.000734041
0.000715212
0.00069749
0.00068081
0.000665114
0.000650349
0.000636462
0.000623407
0.000611141
0.000599622
0.000588814
0.000578681
0.00056919
0.000560313
0.00055202
0.000544287
0.00053709
0.000530406
0.000524217
0.000518502
0.000513245
0.00050843
0.000504043
0.00050007
0.000496499
0.000493319
0.00049052
0.00048809
0.00048592
0.000483873
0.000481965
0.000480209
0.000478615
0.000477193
0.000475951
0.000474898
0.00047404
0.000473383
0.000472932
0.000472692
0.000472667
0.00047286
0.000473274
0.000473912
0.000474778
0.000475871
0.000477194
0.000478748
0.000480534
0.00048255
0.000484797
0.000487272
0.000489974
0.0004929
0.000496046
0.000499408
0.00050298
0.000506754
0.000510724
0.000514882
0.000519216
0.000523718
0.000528374
0.000533175
0.000538116
0.000543236
0.000548746
0.00055462
0.000560741
0.00056702
0.000573391
0.000579795
0.000586164
0.00059246
0.000598659
0.000604745
0.000610706
0.000616534
0.000622225
0.000627779
0.000633194
0.000638474
0.000643619
0.000648634
0.00065352
0.000658283
0.000662925
0.000667451
0.000671864
0.000676168
0.000680366
0.000684462
0.00068846
0.000692362
0.000696172
0.000699893
0.000703529
0.000707083
0.000710557
0.000713955
0.000717279
0.000720534
0.000723721
0.000726843
0.000729904
0.000732905
0.00073585
0.000738742
0.000741582
0.000744374
0.000747119
0.00074982
0.000752479
0.000755098
0.00075768
0.000760226
0.000762738
0.000765219
0.000767669
0.000770091
0.000772486
0.000774856
0.000777202
0.000779525
0.000781828
0.000784111
0.000786376
0.000788622
0.000790853
0.000793067
0.000795266
0.00079745
0.000799619
0.000801772
0.00080391
0.00080603
0.000808131
0.000810209
0.000812261
0.000814282
0.000816266
0.000818205
0.00082009
0.000821913
0.000823659
0.000825325
0.00082687
0.000828377
0.000829314
0.0099726
0.0098802
0.00976441
0.00963399
0.00949362
0.00934648
0.00919494
0.00904074
0.00888528
0.00872967
0.00857475
0.00842119
0.00826953
0.0081202
0.00797355
0.00782987
0.00768934
0.00755212
0.00741832
0.00728802
0.00716127
0.00703809
0.00691849
0.00680248
0.00669002
0.00658109
0.00647565
0.00637365
0.00627504
0.00617976
0.00608775
0.00599894
0.00591327
0.00583068
0.00575109
0.00567445
0.00560068
0.00552971
0.00546148
0.00539592
0.00533297
0.00527258
0.00521467
0.0051592
0.0051061
0.00505532
0.00500684
0.00496059
0.00491653
0.0048746
0.00483476
0.00479696
0.00476116
0.00472732
0.0046954
0.00466538
0.0046372
0.00461086
0.00458631
0.00456353
0.0045425
0.00452319
0.00450558
0.00448965
0.00447538
0.00446276
0.00445176
0.00444238
0.00443459
0.00442839
0.00442376
0.00442069
0.00441917
0.00441919
0.00442073
0.00442378
0.00442834
0.00443438
0.00444187
0.00445047
0.0044597
0.00446956
0.00448005
0.00449119
0.00450296
0.00451539
0.00452846
0.00454219
0.00455658
0.00457163
0.00458734
0.00460371
0.00462075
0.00463845
0.00465681
0.00467581
0.00469546
0.00471575
0.00473666
0.00475818
0.0047803
0.00480302
0.0048263
0.00485013
0.0048745
0.00489937
0.00492472
0.00495052
0.00497674
0.00500334
0.00503029
0.00505755
0.00508507
0.00511282
0.00514077
0.00516884
0.00519696
0.00522487
0.0052525
0.00527986
0.00530695
0.00533374
0.00536023
0.00538638
0.00541217
0.00543759
0.00546262
0.00548723
0.00551142
0.00553517
0.00555846
0.00558128
0.00560363
0.00562549
0.00564686
0.00566774
0.00568812
0.005708
0.00572739
0.00574629
0.0057647
0.00578263
0.00580008
0.00581707
0.0058336
0.00584969
0.00586534
0.00588057
0.00589539
0.0059098
0.00592383
0.00593747
0.00595074
0.00596365
0.00597622
0.00598845
0.00600035
0.00601193
0.0060232
0.00603417
0.00604484
0.00605524
0.00606536
0.00607521
0.00608481
0.00609415
0.00610326
0.00611213
0.00612078
0.00612921
0.00613743
0.00614545
0.00615328
0.00616092
0.00616838
0.00617568
0.0061828
0.00618977
0.00619659
0.00620326
0.00620979
0.00621619
0.00622245
0.0062286
0.00623463
0.00624055
0.00624636
0.00625207
0.00625769
0.00626321
0.00626864
0.00627398
0.00627925
0.00628443
0.00628956
0.00629457
0.00629959
0.00630436
0.00630935
0.00631385
0.009992
0.00996555
0.00992912
0.00988516
0.00983514
0.00978008
0.00972079
0.00965791
0.00959197
0.00952349
0.00945288
0.0093805
0.0093067
0.00923177
0.00915598
0.00907957
0.00900275
0.0089257
0.0088486
0.00877159
0.0086948
0.00861836
0.00854237
0.00846692
0.0083921
0.00831797
0.00824461
0.00817208
0.00810041
0.00802967
0.00795988
0.00789108
0.00782331
0.00775658
0.00769093
0.00762636
0.00756289
0.00750054
0.00743931
0.00737922
0.00732027
0.00726247
0.00720583
0.00715035
0.00709602
0.00704285
0.00699085
0.00694
0.00689032
0.00684179
0.00679443
0.00674823
0.00670319
0.00665931
0.0066166
0.00657505
0.00653467
0.00649547
0.00645744
0.00642059
0.00638492
0.00635044
0.00631716
0.00628507
0.00625418
0.00622451
0.00619605
0.00616882
0.00614281
0.00611804
0.00609451
0.00607223
0.0060512
0.00603143
0.00601292
0.00599568
0.0059797
0.00596499
0.00595154
0.00593937
0.00592848
0.00591885
0.00591042
0.00590318
0.0058971
0.00589214
0.00588828
0.0058855
0.00588378
0.00588309
0.00588342
0.00588476
0.00588708
0.00589037
0.00589462
0.00589981
0.00590593
0.00591296
0.0059209
0.00592971
0.0059394
0.00594994
0.00596132
0.00597352
0.00598653
0.00600032
0.00601488
0.00603019
0.00604622
0.00606294
0.00608032
0.00609832
0.00611691
0.00613604
0.00615567
0.00617575
0.00619622
0.00621702
0.00623809
0.00625932
0.00628068
0.00630212
0.00632358
0.00634503
0.00636642
0.00638771
0.00640886
0.00642982
0.00645056
0.00647107
0.0064913
0.00651124
0.00653088
0.00655019
0.00656917
0.0065878
0.00660609
0.00662402
0.0066416
0.00665883
0.0066757
0.00669222
0.00670839
0.00672423
0.00673972
0.00675489
0.00676973
0.00678425
0.00679846
0.00681236
0.00682596
0.00683928
0.0068523
0.00686505
0.00687753
0.00688975
0.00690171
0.00691341
0.00692488
0.00693611
0.00694711
0.0069579
0.00696847
0.00697883
0.006989
0.00699897
0.00700877
0.00701839
0.00702784
0.00703714
0.00704628
0.00705528
0.00706415
0.00707288
0.00708147
0.00708992
0.00709823
0.00710642
0.00711449
0.00712246
0.00713032
0.0071381
0.00714579
0.00715341
0.00716096
0.00716845
0.00717588
0.00718326
0.0071906
0.00719789
0.00720515
0.00721238
0.00721959
0.00722676
0.00723393
0.00724107
0.00724822
0.00725532
0.00726248
0.00726838
0.0099949
0.00998162
0.00996381
0.00994206
0.00991689
0.00988871
0.00985784
0.00982455
0.0097891
0.0097517
0.00971254
0.00967179
0.00962961
0.00958614
0.00954152
0.00949588
0.00944931
0.00940193
0.00935384
0.00930512
0.00925588
0.00920619
0.00915612
0.00910576
0.00905517
0.0090044
0.00895352
0.00890258
0.00885162
0.00880071
0.00874988
0.00869917
0.00864862
0.00859827
0.00854815
0.0084983
0.00844875
0.00839951
0.00835063
0.00830213
0.00825402
0.00820634
0.00815911
0.00811232
0.00806599
0.00802016
0.00797484
0.00793005
0.00788582
0.00784216
0.00779909
0.00775664
0.00771483
0.00767368
0.00763321
0.00759344
0.00755439
0.00751608
0.00747855
0.0074418
0.00740586
0.00737077
0.00733652
0.00730316
0.00727071
0.00723918
0.0072086
0.00717899
0.00715038
0.00712278
0.00709622
0.00707071
0.00704627
0.00702292
0.00700068
0.00697956
0.00695957
0.00694072
0.00692302
0.00690648
0.0068911
0.00687689
0.00686383
0.00685194
0.00684119
0.00683159
0.00682311
0.00681574
0.00680948
0.0068043
0.00680019
0.00679713
0.0067951
0.00679409
0.00679406
0.00679501
0.0067969
0.00679971
0.00680343
0.00680801
0.00681344
0.0068197
0.00682675
0.00683457
0.00684314
0.00685241
0.00686238
0.00687299
0.00688423
0.00689606
0.00690843
0.00692132
0.00693469
0.00694849
0.00696269
0.00697724
0.00699211
0.00700724
0.00702259
0.00703813
0.0070538
0.00706958
0.00708542
0.0071013
0.00711716
0.00713298
0.00714875
0.00716442
0.00717999
0.00719544
0.00721074
0.00722588
0.00724086
0.00725566
0.00727027
0.00728469
0.0072989
0.00731292
0.00732673
0.00734034
0.00735374
0.00736693
0.00737992
0.0073927
0.00740527
0.00741765
0.00742982
0.0074418
0.00745359
0.00746519
0.0074766
0.00748783
0.00749888
0.00750976
0.00752048
0.00753103
0.00754142
0.00755166
0.00756175
0.00757171
0.00758153
0.00759122
0.00760079
0.00761024
0.00761958
0.00762882
0.00763797
0.00764702
0.00765599
0.00766488
0.0076737
0.00768246
0.00769117
0.00769982
0.00770843
0.007717
0.00772553
0.00773404
0.00774253
0.007751
0.00775945
0.0077679
0.00777635
0.0077848
0.00779325
0.00780171
0.00781018
0.00781866
0.00782716
0.00783567
0.00784419
0.00785273
0.00786128
0.00786983
0.0078784
0.00788698
0.00789555
0.00790413
0.00791245
0.00791828
0.00999595
0.00998698
0.00997556
0.00996184
0.00994598
0.00992817
0.00990857
0.0098873
0.0098645
0.00984027
0.00981471
0.00978792
0.00975997
0.00973094
0.0097009
0.00966992
0.00963806
0.00960538
0.00957194
0.0095378
0.00950301
0.00946761
0.00943166
0.00939521
0.00935828
0.00932094
0.00928322
0.00924515
0.00920679
0.00916816
0.00912931
0.00909026
0.00905106
0.00901173
0.0089723
0.00893281
0.00889328
0.00885375
0.00881424
0.00877478
0.00873539
0.0086961
0.00865693
0.00861791
0.00857907
0.00854042
0.00850201
0.00846385
0.00842596
0.00838839
0.00835116
0.00831429
0.00827782
0.00824177
0.00820618
0.00817108
0.00813649
0.00810245
0.00806899
0.00803614
0.00800394
0.00797241
0.00794158
0.0079115
0.00788218
0.00785366
0.00782597
0.00779914
0.00777319
0.00774815
0.00772405
0.0077009
0.00767874
0.00765758
0.00763743
0.00761831
0.00760024
0.00758323
0.00756727
0.00755238
0.00753857
0.00752582
0.00751414
0.00750353
0.00749397
0.00748545
0.00747796
0.00747149
0.00746601
0.00746152
0.00745799
0.00745539
0.00745372
0.00745293
0.00745302
0.00745394
0.00745568
0.0074582
0.00746149
0.0074655
0.00747021
0.00747559
0.00748162
0.00748826
0.00749548
0.00750326
0.00751156
0.00752036
0.00752962
0.00753931
0.0075494
0.00755987
0.00757067
0.00758179
0.00759318
0.00760482
0.00761668
0.00762873
0.00764093
0.00765327
0.00766571
0.00767824
0.00769082
0.00770345
0.00771609
0.00772873
0.00774135
0.00775394
0.00776648
0.00777896
0.00779137
0.0078037
0.00781594
0.00782809
0.00784013
0.00785207
0.00786389
0.00787559
0.00788718
0.00789864
0.00790997
0.00792118
0.00793226
0.00794321
0.00795403
0.00796473
0.0079753
0.00798575
0.00799608
0.00800628
0.00801637
0.00802635
0.00803622
0.00804598
0.00805564
0.0080652
0.00807466
0.00808404
0.00809333
0.00810255
0.00811169
0.00812076
0.00812977
0.00813873
0.00814763
0.00815649
0.0081653
0.00817409
0.00818284
0.00819158
0.0082003
0.00820901
0.00821771
0.00822642
0.00823514
0.00824388
0.00825263
0.00826141
0.00827021
0.00827906
0.00828794
0.00829686
0.00830582
0.00831484
0.0083239
0.008333
0.00834215
0.00835135
0.00836059
0.00836987
0.00837918
0.00838851
0.00839787
0.00840723
0.00841659
0.00842593
0.00843525
0.00844442
0.00845297
0.00845778
0.00999648
0.0099894
0.00998084
0.00997077
0.00995926
0.00994637
0.00993218
0.00991675
0.00990016
0.00988248
0.00986374
0.00984402
0.00982335
0.00980178
0.00977935
0.0097561
0.00973206
0.00970728
0.0096818
0.00965563
0.00962883
0.00960142
0.00957344
0.00954492
0.00951588
0.00948637
0.0094564
0.00942602
0.00939524
0.00936411
0.00933264
0.00930086
0.00926881
0.0092365
0.00920397
0.00917123
0.00913833
0.00910529
0.00907212
0.00903887
0.00900556
0.00897221
0.00893885
0.00890551
0.00887222
0.008839
0.00880589
0.0087729
0.00874008
0.00870746
0.00867506
0.00864292
0.00861107
0.00857956
0.0085484
0.00851764
0.00848732
0.00845746
0.00842811
0.0083993
0.00837107
0.00834345
0.00831648
0.00829019
0.00826462
0.0082398
0.00821575
0.00819252
0.00817012
0.00814859
0.00812795
0.00810821
0.00808941
0.00807155
0.00805466
0.00803873
0.00802379
0.00800983
0.00799687
0.00798489
0.0079739
0.00796389
0.00795485
0.00794677
0.00793964
0.00793344
0.00792814
0.00792374
0.00792021
0.00791753
0.00791567
0.00791461
0.00791433
0.00791479
0.00791598
0.00791786
0.00792041
0.00792359
0.00792738
0.00793175
0.00793667
0.00794211
0.00794804
0.00795444
0.00796128
0.00796853
0.00797617
0.00798416
0.00799249
0.00800113
0.00801005
0.00801923
0.00802865
0.00803828
0.00804811
0.00805811
0.00806827
0.00807856
0.00808898
0.00809949
0.00811009
0.00812077
0.0081315
0.00814227
0.00815307
0.00816389
0.00817471
0.00818554
0.00819635
0.00820713
0.00821789
0.00822861
0.00823928
0.0082499
0.00826046
0.00827095
0.00828138
0.00829174
0.00830202
0.00831222
0.00832235
0.00833239
0.00834235
0.00835223
0.00836202
0.00837174
0.00838137
0.00839091
0.00840038
0.00840977
0.00841909
0.00842834
0.00843751
0.00844663
0.00845568
0.00846467
0.00847361
0.0084825
0.00849136
0.00850017
0.00850895
0.0085177
0.00852643
0.00853514
0.00854384
0.00855253
0.00856122
0.00856992
0.00857862
0.00858735
0.0085961
0.00860487
0.00861368
0.00862253
0.00863143
0.00864037
0.00864938
0.00865844
0.00866756
0.00867676
0.00868602
0.00869536
0.00870476
0.00871424
0.00872379
0.00873341
0.00874309
0.00875283
0.00876262
0.00877245
0.00878231
0.00879218
0.00880206
0.00881192
0.00882174
0.00883151
0.00884116
0.0088505
0.00885878
0.00886238
0.00999677
0.00999066
0.00998357
0.00997543
0.00996622
0.00995597
0.0099447
0.00993246
0.00991928
0.0099052
0.00989025
0.00987446
0.00985786
0.00984048
0.00982234
0.00980348
0.00978391
0.00976366
0.00974276
0.00972122
0.00969908
0.00967636
0.00965308
0.00962927
0.00960494
0.00958013
0.00955486
0.00952915
0.00950303
0.00947651
0.00944963
0.0094224
0.00939485
0.009367
0.00933888
0.00931051
0.00928192
0.00925312
0.00922416
0.00919504
0.00916581
0.00913648
0.00910709
0.00907766
0.00904821
0.00901879
0.00898943
0.00896014
0.00893097
0.00890195
0.00887312
0.00884451
0.00881615
0.00878808
0.00876034
0.00873297
0.00870601
0.00867949
0.00865345
0.00862793
0.00860296
0.0085786
0.00855486
0.00853179
0.00850942
0.00848778
0.00846691
0.00844682
0.00842756
0.00840913
0.00839157
0.00837489
0.00835911
0.00834424
0.00833029
0.00831726
0.00830516
0.00829399
0.00828374
0.00827442
0.00826601
0.0082585
0.00825188
0.00824614
0.00824124
0.00823717
0.0082339
0.00823142
0.00822969
0.00822869
0.00822841
0.0082288
0.00822984
0.00823151
0.00823377
0.0082366
0.00823997
0.00824384
0.0082482
0.00825301
0.00825826
0.0082639
0.00826993
0.0082763
0.00828301
0.00829003
0.00829733
0.0083049
0.00831271
0.00832075
0.00832899
0.00833743
0.00834605
0.00835482
0.00836375
0.0083728
0.00838197
0.00839125
0.00840063
0.00841009
0.00841962
0.00842921
0.00843886
0.00844855
0.00845828
0.00846803
0.00847781
0.00848759
0.00849738
0.00850717
0.00851694
0.0085267
0.00853644
0.00854616
0.00855584
0.00856548
0.00857508
0.00858463
0.00859414
0.00860359
0.008613
0.00862234
0.00863163
0.00864086
0.00865003
0.00865915
0.00866821
0.00867722
0.00868617
0.00869507
0.00870393
0.00871274
0.00872151
0.00873025
0.00873895
0.00874762
0.00875626
0.00876489
0.00877349
0.00878209
0.00879068
0.00879927
0.00880786
0.00881647
0.00882508
0.00883372
0.00884239
0.00885108
0.00885982
0.00886859
0.00887742
0.0088863
0.00889524
0.00890425
0.00891333
0.00892249
0.00893172
0.00894104
0.00895045
0.00895995
0.00896953
0.00897921
0.00898898
0.00899883
0.00900877
0.00901878
0.00902886
0.009039
0.00904918
0.0090594
0.00906963
0.00907986
0.00909006
0.00910022
0.00911031
0.00912027
0.00913003
0.00913929
0.00914709
0.00914959
0.00999693
0.00999135
0.00998506
0.00997797
0.00997006
0.0099613
0.00995171
0.0099413
0.00993008
0.00991808
0.00990532
0.00989181
0.00987758
0.00986265
0.00984703
0.00983073
0.00981379
0.00979621
0.00977802
0.00975923
0.00973987
0.00971995
0.00969949
0.00967851
0.00965703
0.00963508
0.00961266
0.00958981
0.00956654
0.00954287
0.00951883
0.00949443
0.0094697
0.00944465
0.00941931
0.00939371
0.00936786
0.0093418
0.00931553
0.0092891
0.00926252
0.00923583
0.00920905
0.00918221
0.00915534
0.00912847
0.00910163
0.00907485
0.00904818
0.00902164
0.00899527
0.00896911
0.0089432
0.00891756
0.00889225
0.0088673
0.00884275
0.00881863
0.008795
0.00877189
0.00874933
0.00872736
0.00870603
0.00868536
0.00866539
0.00864615
0.00862767
0.00860997
0.00859308
0.00857702
0.00856181
0.00854745
0.00853398
0.00852138
0.00850968
0.00849886
0.00848893
0.00847988
0.00847171
0.0084644
0.00845794
0.00845232
0.00844752
0.00844351
0.00844027
0.00843778
0.00843601
0.00843494
0.00843455
0.00843479
0.00843565
0.0084371
0.0084391
0.00844163
0.00844467
0.00844817
0.00845213
0.0084565
0.00846127
0.0084664
0.00847188
0.00847769
0.00848379
0.00849018
0.00849682
0.0085037
0.00851081
0.00851812
0.00852563
0.00853331
0.00854116
0.00854916
0.0085573
0.00856557
0.00857396
0.00858245
0.00859105
0.00859974
0.0086085
0.00861735
0.00862626
0.00863522
0.00864424
0.00865331
0.00866241
0.00867155
0.00868071
0.00868989
0.00869909
0.00870829
0.00871749
0.00872669
0.00873588
0.00874505
0.00875421
0.00876334
0.00877244
0.00878151
0.00879054
0.00879954
0.0088085
0.00881742
0.0088263
0.00883513
0.00884392
0.00885267
0.00886139
0.00887006
0.0088787
0.0088873
0.00889588
0.00890443
0.00891295
0.00892146
0.00892995
0.00893842
0.00894689
0.00895536
0.00896383
0.00897231
0.0089808
0.00898931
0.00899784
0.00900639
0.00901498
0.00902361
0.00903228
0.009041
0.00904978
0.00905862
0.00906753
0.00907651
0.00908557
0.00909471
0.00910394
0.00911327
0.00912269
0.00913221
0.00914183
0.00915156
0.00916139
0.00917132
0.00918135
0.00919148
0.00920169
0.00921198
0.00922234
0.00923275
0.0092432
0.00925367
0.00926414
0.00927458
0.00928498
0.0092953
0.0093055
0.00931553
0.00932527
0.00933434
0.00934166
0.0093433
0.00999701
0.0099917
0.00998583
0.00997931
0.0099721
0.00996416
0.00995549
0.00994609
0.00993597
0.00992514
0.00991361
0.00990139
0.0098885
0.00987495
0.00986075
0.00984591
0.00983046
0.0098144
0.00979776
0.00978054
0.00976277
0.00974445
0.00972562
0.00970628
0.00968645
0.00966615
0.00964539
0.00962421
0.00960261
0.00958061
0.00955824
0.00953551
0.00951244
0.00948906
0.00946538
0.00944143
0.00941723
0.0093928
0.00936817
0.00934336
0.0093184
0.00929332
0.00926814
0.00924289
0.0092176
0.00919231
0.00916705
0.00914185
0.00911674
0.00909176
0.00906695
0.00904235
0.00901799
0.00899391
0.00897016
0.00894676
0.00892378
0.00890123
0.00887917
0.00885763
0.00883665
0.00881626
0.00879651
0.00877743
0.00875905
0.0087414
0.0087245
0.00870839
0.00869308
0.00867859
0.00866494
0.00865214
0.00864019
0.00862911
0.0086189
0.00860955
0.00860105
0.00859341
0.0085866
0.00858062
0.00857545
0.00857106
0.00856744
0.00856457
0.00856241
0.00856095
0.00856016
0.00856
0.00856046
0.00856149
0.00856308
0.0085652
0.00856781
0.00857088
0.0085744
0.00857833
0.00858264
0.00858732
0.00859234
0.00859767
0.00860329
0.00860919
0.00861534
0.00862172
0.00862832
0.00863512
0.00864211
0.00864928
0.0086566
0.00866407
0.00867168
0.00867942
0.00868728
0.00869525
0.00870332
0.00871149
0.00871974
0.00872808
0.00873649
0.00874497
0.00875352
0.00876212
0.00877078
0.00877947
0.00878821
0.00879699
0.00880579
0.00881462
0.00882346
0.00883232
0.00884118
0.00885004
0.0088589
0.00886775
0.00887659
0.00888541
0.00889421
0.00890299
0.00891174
0.00892046
0.00892915
0.0089378
0.00894642
0.00895501
0.00896357
0.00897209
0.00898059
0.00898906
0.0089975
0.00900592
0.00901432
0.0090227
0.00903108
0.00903944
0.0090478
0.00905616
0.00906452
0.00907289
0.00908128
0.00908968
0.00909811
0.00910657
0.00911506
0.00912359
0.00913216
0.00914078
0.00914946
0.00915821
0.00916701
0.00917589
0.00918486
0.0091939
0.00920303
0.00921226
0.00922159
0.00923103
0.00924057
0.00925022
0.00925998
0.00926985
0.00927983
0.00928992
0.00930012
0.00931041
0.00932079
0.00933125
0.00934178
0.00935235
0.00936296
0.00937357
0.00938417
0.00939473
0.00940523
0.00941562
0.00942586
0.0094359
0.00944556
0.00945445
0.00946137
0.00946243
0.00999704
0.00999182
0.00998611
0.00997983
0.00997291
0.00996532
0.00995706
0.00994811
0.00993848
0.00992818
0.0099172
0.00990557
0.00989329
0.00988038
0.00986683
0.00985268
0.00983792
0.00982257
0.00980665
0.00979016
0.00977314
0.00975558
0.00973751
0.00971894
0.00969989
0.00968037
0.00966041
0.00964002
0.00961922
0.00959803
0.00957646
0.00955453
0.00953227
0.00950969
0.00948682
0.00946367
0.00944027
0.00941665
0.00939281
0.0093688
0.00934464
0.00932035
0.00929597
0.00927151
0.00924701
0.00922251
0.00919804
0.00917362
0.0091493
0.00912511
0.00910109
0.00907727
0.0090537
0.00903042
0.00900746
0.00898486
0.00896267
0.00894093
0.00891968
0.00889894
0.00887878
0.00885921
0.00884028
0.00882202
0.00880446
0.00878763
0.00877156
0.00875627
0.00874178
0.0087281
0.00871526
0.00870327
0.00869212
0.00868182
0.00867238
0.00866379
0.00865604
0.00864912
0.00864303
0.00863773
0.00863322
0.00862948
0.00862648
0.00862419
0.0086226
0.00862167
0.00862137
0.00862169
0.00862258
0.00862402
0.00862598
0.00862843
0.00863135
0.0086347
0.00863846
0.0086426
0.0086471
0.00865192
0.00865706
0.00866248
0.00866817
0.00867411
0.00868027
0.00868664
0.00869321
0.00869996
0.00870688
0.00871395
0.00872117
0.00872852
0.008736
0.00874359
0.00875129
0.00875909
0.00876699
0.00877498
0.00878304
0.00879118
0.0087994
0.00880768
0.00881602
0.00882442
0.00883286
0.00884136
0.00884989
0.00885846
0.00886706
0.00887568
0.00888432
0.00889298
0.00890164
0.00891031
0.00891898
0.00892765
0.0089363
0.00894494
0.00895356
0.00896216
0.00897074
0.00897929
0.00898782
0.00899632
0.00900479
0.00901323
0.00902164
0.00903003
0.0090384
0.00904674
0.00905506
0.00906336
0.00907166
0.00907994
0.00908821
0.00909649
0.00910476
0.00911304
0.00912133
0.00912964
0.00913796
0.00914631
0.00915469
0.00916311
0.00917156
0.00918006
0.00918861
0.00919721
0.00920588
0.00921461
0.00922342
0.00923231
0.00924128
0.00925034
0.00925949
0.00926875
0.00927811
0.00928758
0.00929716
0.00930686
0.00931667
0.0093266
0.00933665
0.0093468
0.00935706
0.00936742
0.00937787
0.0093884
0.00939899
0.00940963
0.00942029
0.00943096
0.00944161
0.00945221
0.00946273
0.00947314
0.00948339
0.0094934
0.00950301
0.00951178
0.00951847
0.00951916
0.00999701
0.00999176
0.00998601
0.00997968
0.00997272
0.00996511
0.00995681
0.00994785
0.0099382
0.00992789
0.00991692
0.0099053
0.00989303
0.00988013
0.00986661
0.00985248
0.00983775
0.00982244
0.00980655
0.00979011
0.00977313
0.00975562
0.0097376
0.00971908
0.00970009
0.00968063
0.00966073
0.0096404
0.00961966
0.00959853
0.00957703
0.00955517
0.00953298
0.00951047
0.00948767
0.0094646
0.00944128
0.00941773
0.00939398
0.00937005
0.00934596
0.00932176
0.00929745
0.00927308
0.00924866
0.00922425
0.00919985
0.00917552
0.00915129
0.00912718
0.00910325
0.00907952
0.00905604
0.00903284
0.00900997
0.00898746
0.00896536
0.00894371
0.00892255
0.00890191
0.00888183
0.00886235
0.00884352
0.00882535
0.00880788
0.00879114
0.00877516
0.00875997
0.00874557
0.00873199
0.00871925
0.00870735
0.0086963
0.0086861
0.00867675
0.00866825
0.0086606
0.00865378
0.00864777
0.00864257
0.00863815
0.0086345
0.00863158
0.00862938
0.00862787
0.00862702
0.0086268
0.00862719
0.00862815
0.00862966
0.00863168
0.00863419
0.00863715
0.00864055
0.00864435
0.00864852
0.00865304
0.00865789
0.00866304
0.00866847
0.00867416
0.00868008
0.00868624
0.00869259
0.00869914
0.00870586
0.00871274
0.00871977
0.00872694
0.00873424
0.00874166
0.0087492
0.00875683
0.00876456
0.00877239
0.00878029
0.00878828
0.00879634
0.00880447
0.00881266
0.00882091
0.00882921
0.00883757
0.00884596
0.0088544
0.00886287
0.00887137
0.0088799
0.00888844
0.008897
0.00890557
0.00891414
0.00892271
0.00893128
0.00893984
0.00894839
0.00895692
0.00896543
0.00897392
0.00898239
0.00899083
0.00899924
0.00900763
0.009016
0.00902433
0.00903265
0.00904094
0.00904921
0.00905746
0.0090657
0.00907393
0.00908215
0.00909036
0.00909857
0.00910679
0.00911502
0.00912325
0.00913151
0.00913978
0.00914808
0.00915642
0.00916478
0.00917319
0.00918164
0.00919015
0.00919871
0.00920733
0.00921603
0.00922479
0.00923364
0.00924257
0.00925159
0.00926071
0.00926992
0.00927924
0.00928868
0.00929822
0.00930788
0.00931766
0.00932755
0.00933755
0.00934767
0.0093579
0.00936823
0.00937864
0.00938914
0.0093997
0.00941031
0.00942094
0.00943159
0.00944221
0.00945279
0.00946329
0.00947368
0.00948391
0.00949391
0.0095035
0.00951225
0.0095189
0.00951952
0.00999694
0.00999151
0.00998551
0.00997888
0.00997155
0.00996351
0.00995476
0.00994531
0.00993515
0.0099243
0.00991277
0.00990057
0.00988772
0.00987422
0.00986009
0.00984534
0.00982998
0.00981402
0.00979749
0.0097804
0.00976276
0.00974459
0.00972591
0.00970673
0.00968707
0.00966694
0.00964637
0.00962538
0.00960397
0.00958218
0.00956001
0.00953749
0.00951464
0.00949148
0.00946803
0.00944432
0.00942035
0.00939616
0.00937177
0.00934721
0.0093225
0.00929767
0.00927274
0.00924775
0.00922272
0.00919769
0.00917269
0.00914775
0.00912291
0.0090982
0.00907365
0.00904932
0.00902523
0.00900143
0.00897794
0.00895483
0.00893212
0.00890985
0.00888806
0.0088668
0.00884611
0.00882601
0.00880654
0.00878775
0.00876965
0.00875229
0.00873569
0.00871987
0.00870485
0.00869066
0.0086773
0.0086648
0.00865315
0.00864237
0.00863245
0.00862339
0.00861519
0.00860784
0.00860133
0.00859563
0.00859074
0.00858664
0.0085833
0.00858069
0.0085788
0.00857759
0.00857704
0.00857712
0.00857779
0.00857904
0.00858082
0.00858311
0.00858588
0.0085891
0.00859275
0.00859678
0.00860119
0.00860593
0.008611
0.00861635
0.00862199
0.00862787
0.00863399
0.00864032
0.00864685
0.00865356
0.00866044
0.00866748
0.00867467
0.00868198
0.00868942
0.00869697
0.00870463
0.00871238
0.00872022
0.00872815
0.00873616
0.00874423
0.00875238
0.00876058
0.00876884
0.00877715
0.00878551
0.00879391
0.00880235
0.00881082
0.00881931
0.00882783
0.00883636
0.00884491
0.00885346
0.00886202
0.00887058
0.00887913
0.00888767
0.0088962
0.00890471
0.00891321
0.00892168
0.00893012
0.00893854
0.00894694
0.0089553
0.00896364
0.00897196
0.00898025
0.00898852
0.00899676
0.00900499
0.0090132
0.00902139
0.00902958
0.00903776
0.00904594
0.00905412
0.00906231
0.0090705
0.00907871
0.00908694
0.00909519
0.00910346
0.00911177
0.00912012
0.00912851
0.00913695
0.00914544
0.00915399
0.0091626
0.00917128
0.00918004
0.00918888
0.0091978
0.00920682
0.00921593
0.00922514
0.00923445
0.00924387
0.00925341
0.00926306
0.00927282
0.00928269
0.00929268
0.00930277
0.00931296
0.00932324
0.0093336
0.00934403
0.00935452
0.00936504
0.00937557
0.0093861
0.00939659
0.00940702
0.00941735
0.00942754
0.00943752
0.00944713
0.00945595
0.00946276
0.00946357
0.00999681
0.00999103
0.00998453
0.00997725
0.00996915
0.00996023
0.0099505
0.00993999
0.00992871
0.00991668
0.00990393
0.00989046
0.00987629
0.00986145
0.00984594
0.00982978
0.009813
0.0097956
0.00977761
0.00975904
0.00973991
0.00972024
0.00970005
0.00967935
0.00965817
0.00963653
0.00961444
0.00959192
0.009569
0.00954569
0.00952202
0.009498
0.00947365
0.00944901
0.00942408
0.00939889
0.00937346
0.00934782
0.00932199
0.009296
0.00926986
0.00924362
0.00921729
0.00919091
0.00916449
0.00913809
0.00911171
0.00908541
0.00905921
0.00903315
0.00900725
0.00898157
0.00895614
0.00893099
0.00890617
0.00888171
0.00885765
0.00883403
0.0088109
0.00878829
0.00876623
0.00874478
0.00872395
0.0087038
0.00868434
0.00866562
0.00864766
0.00863049
0.00861412
0.00859859
0.00858391
0.00857009
0.00855715
0.00854509
0.00853391
0.00852363
0.00851423
0.00850571
0.00849806
0.00849127
0.00848533
0.00848021
0.0084759
0.00847238
0.00846961
0.00846759
0.00846627
0.00846563
0.00846564
0.00846627
0.00846749
0.00846928
0.0084716
0.00847441
0.0084777
0.00848142
0.00848556
0.00849008
0.00849495
0.00850016
0.00850568
0.00851148
0.00851754
0.00852385
0.00853038
0.00853712
0.00854405
0.00855115
0.00855842
0.00856583
0.00857337
0.00858104
0.00858883
0.00859671
0.00860469
0.00861276
0.00862091
0.00862913
0.00863741
0.00864575
0.00865414
0.00866258
0.00867107
0.00867958
0.00868813
0.00869671
0.00870531
0.00871392
0.00872255
0.00873118
0.00873982
0.00874846
0.00875709
0.00876571
0.00877431
0.0087829
0.00879147
0.00880002
0.00880854
0.00881704
0.0088255
0.00883394
0.00884234
0.00885072
0.00885907
0.00886738
0.00887567
0.00888394
0.00889218
0.0089004
0.0089086
0.00891679
0.00892496
0.00893313
0.00894129
0.00894945
0.00895762
0.00896579
0.00897397
0.00898217
0.00899039
0.00899863
0.00900691
0.00901522
0.00902356
0.00903196
0.0090404
0.0090489
0.00905745
0.00906608
0.00907477
0.00908354
0.00909239
0.00910133
0.00911035
0.00911947
0.0091287
0.00913802
0.00914745
0.00915698
0.00916662
0.00917637
0.00918622
0.00919617
0.00920621
0.00921633
0.00922652
0.00923678
0.00924708
0.00925741
0.00926775
0.00927807
0.00928835
0.00929856
0.00930866
0.00931859
0.00932823
0.0093372
0.00934433
0.00934555
0.0099966
0.0099902
0.00998282
0.0099744
0.00996493
0.00995445
0.009943
0.00993063
0.00991736
0.00990324
0.00988829
0.00987255
0.00985604
0.0098388
0.00982083
0.00980217
0.00978283
0.00976286
0.00974225
0.00972105
0.00969927
0.00967693
0.00965406
0.00963068
0.00960682
0.00958249
0.00955773
0.00953254
0.00950696
0.009481
0.00945469
0.00942806
0.00940111
0.00937389
0.0093464
0.00931868
0.00929074
0.00926262
0.00923433
0.0092059
0.00917735
0.00914872