/*--------------------------------*- C++ -*----------------------------------*\
| =========                 |                                                 |
| \\      /  F ield         | OpenFOAM: The Open Source CFD Toolbox           |
|  \\    /   O peration     | Version:  5.x                                   |
|   \\  /    A nd           | Web:      www.OpenFOAM.org                      |
|    \\/     M anipulation  |                                                 |
\*---------------------------------------------------------------------------*/
/*   Windows 32 and 64 bit porting by blueCAPE: http://www.bluecape.com.pt   *\
|  Based on Windows porting (2.0.x v4) by Symscape: http://www.symscape.com   |
\*---------------------------------------------------------------------------*/
FoamFile
{
    version     2.0;
    format      ascii;
    class       volScalarField;
    location    "2000";
    object      p;
}
// * * * * * * * * * * * * * * * * * * * * * * * * * * * * * * * * * * * * * //

dimensions      [0 2 -2 0 0 0 0];

internalField   nonuniform List<scalar> 
4000
(
0.0390288
0.0335639
0.0308061
0.0292466
0.0279914
0.026975
0.0261735
0.0255052
0.0249416
0.0244503
0.0240109
0.0236165
0.0232638
0.0229469
0.0226607
0.0223988
0.0221563
0.0219307
0.0217203
0.021523
0.0213369
0.0211609
0.0209937
0.020834
0.0206805
0.0205326
0.0203893
0.0202501
0.0201143
0.0199813
0.0198508
0.0197225
0.019596
0.0194709
0.0193472
0.0192246
0.019103
0.0189824
0.0188627
0.0187439
0.0186257
0.0185081
0.0183909
0.0182742
0.018158
0.0180424
0.0179268
0.0178105
0.0176938
0.017577
0.0174601
0.0173431
0.017226
0.0171089
0.0169917
0.0168744
0.016757
0.0166395
0.0165218
0.016404
0.0162859
0.0161676
0.0160491
0.0159302
0.015811
0.0156915
0.0155716
0.0154513
0.0153306
0.0152095
0.0150879
0.014966
0.0148436
0.0147208
0.0145977
0.0144746
0.0143515
0.0142291
0.0141084
0.0139902
0.0138694
0.0137422
0.0136115
0.0134792
0.0133451
0.013209
0.0130714
0.0129325
0.0127922
0.0126506
0.0125078
0.012364
0.0122194
0.0120739
0.0119276
0.0117808
0.0116335
0.011486
0.0113384
0.0111907
0.0110432
0.010896
0.0107493
0.0106032
0.0104579
0.0103135
0.0101702
0.0100281
0.0098873
0.00974793
0.00961006
0.00947372
0.00933895
0.00920592
0.00907448
0.00894436
0.00881557
0.00868847
0.00856336
0.00844051
0.00831955
0.00820035
0.00808387
0.00796969
0.00785642
0.00774359
0.00763119
0.00751925
0.00740775
0.00729666
0.00718591
0.00707546
0.00696529
0.00685539
0.00674571
0.00663624
0.00652694
0.0064178
0.0063088
0.00619994
0.00609121
0.00598259
0.00587408
0.00576566
0.00565733
0.00554909
0.00544092
0.00533283
0.00522481
0.00511685
0.00500895
0.0049011
0.00479329
0.00468553
0.00457781
0.00447012
0.00436246
0.00425483
0.00414722
0.00403963
0.00393205
0.00382449
0.00371693
0.00360938
0.00350183
0.00339429
0.00328673
0.00317918
0.00307161
0.00296403
0.00285643
0.00274882
0.0026412
0.00253357
0.00242593
0.00231829
0.00221063
0.00210292
0.00199517
0.00188737
0.00177955
0.00167175
0.00156405
0.00145651
0.00134925
0.00124238
0.00113603
0.00103037
0.000925621
0.000822038
0.000719979
0.000619809
0.000522206
0.00042738
0.00033726
0.000249609
0.000174071
9.13036e-005
5.64258e-005
-6.35352e-005
0.0312482
0.0306616
0.0296908
0.0287251
0.0277919
0.0269642
0.0262583
0.0256522
0.025111
0.0246191
0.0241731
0.0237696
0.0234107
0.0230881
0.022797
0.0225306
0.0222828
0.0220525
0.0218382
0.0216371
0.0214473
0.0212682
0.0210977
0.0209345
0.0207778
0.0206269
0.020481
0.0203394
0.0202011
0.0200661
0.019934
0.0198042
0.0196765
0.0195503
0.0194256
0.0193021
0.0191797
0.0190584
0.0189382
0.0188189
0.0187003
0.0185823
0.0184647
0.0183473
0.0182296
0.0181113
0.017993
0.0178754
0.0177582
0.0176413
0.0175245
0.0174078
0.0172912
0.0171745
0.0170578
0.0169411
0.0168242
0.0167073
0.0165902
0.0164729
0.0163555
0.0162378
0.0161198
0.0160015
0.015883
0.015764
0.0156447
0.0155251
0.015405
0.0152844
0.0151634
0.0150419
0.01492
0.0147977
0.0146749
0.0145517
0.0144281
0.0143039
0.0141782
0.01405
0.0139204
0.0137908
0.0136603
0.0135282
0.0133945
0.0132594
0.0131227
0.0129847
0.0128453
0.0127045
0.0125626
0.0124197
0.0122757
0.0121309
0.0119853
0.0118392
0.0116926
0.0115457
0.0113986
0.0112514
0.0111043
0.0109574
0.0108109
0.0106649
0.0105196
0.010375
0.0102314
0.0100889
0.00994763
0.00980768
0.00966916
0.00953213
0.00939653
0.00926223
0.00912941
0.00899841
0.00886959
0.00874308
0.00861864
0.00849571
0.00837412
0.00825368
0.00813518
0.00801879
0.00790337
0.00778864
0.00767454
0.00756104
0.00744811
0.00733568
0.00722372
0.00711217
0.00700099
0.00689016
0.00677962
0.00666935
0.00655931
0.00644948
0.00633987
0.00623045
0.0061212
0.00601211
0.00590316
0.00579433
0.00568563
0.00557704
0.00546856
0.00536018
0.00525189
0.00514369
0.00503556
0.00492749
0.00481949
0.00471154
0.00460364
0.0044958
0.00438799
0.00428023
0.0041725
0.00406479
0.00395712
0.00384946
0.00374181
0.00363418
0.00352656
0.00341894
0.00331132
0.0032037
0.00309607
0.00298843
0.00288077
0.0027731
0.00266542
0.00255772
0.00245004
0.00234237
0.00223469
0.00212698
0.0020192
0.00191136
0.00180347
0.00169558
0.00158772
0.00147999
0.00137246
0.00126524
0.00115845
0.00105224
0.000946815
0.000842409
0.00073938
0.000638006
0.00053914
0.000442472
0.000351314
0.000259952
0.000186651
9.11555e-005
8.62801e-005
-0.000120498
0.0288063
0.0293407
0.0286544
0.0279136
0.027193
0.0265211
0.0258998
0.02536
0.0248746
0.0244256
0.0240104
0.0236355
0.0232992
0.0229994
0.0227281
0.022473
0.0222321
0.0220087
0.0218025
0.0216075
0.0214217
0.021249
0.0210846
0.0209268
0.0207749
0.0206282
0.0204864
0.0203481
0.0202127
0.0200802
0.01995
0.0198218
0.0196952
0.0195698
0.0194456
0.0193225
0.0192003
0.0190793
0.0189594
0.0188405
0.0187223
0.0186047
0.0184878
0.0183713
0.0182545
0.0181376
0.0180211
0.0179048
0.0177885
0.0176722
0.0175559
0.0174396
0.0173232
0.0172067
0.0170902
0.0169737
0.016857
0.0167403
0.0166236
0.0165067
0.0163896
0.0162724
0.0161549
0.0160371
0.0159191
0.0158008
0.0156822
0.0155633
0.015444
0.0153243
0.0152041
0.0150835
0.0149625
0.014841
0.014719
0.0145963
0.014473
0.0143486
0.0142225
0.0140939
0.0139648
0.0138364
0.0137069
0.0135755
0.0134427
0.0133087
0.0131733
0.0130364
0.0128982
0.0127588
0.0126183
0.0124767
0.0123341
0.0121907
0.0120466
0.0119018
0.0117563
0.0116105
0.0114644
0.0113181
0.011172
0.0110261
0.0108805
0.0107354
0.0105909
0.0104471
0.0103042
0.0101624
0.0100217
0.00988233
0.00974432
0.00960773
0.00947257
0.00933879
0.00920635
0.0090753
0.0089458
0.00881809
0.00869225
0.00856813
0.00844559
0.00832453
0.00820512
0.00808735
0.00797084
0.00785536
0.0077407
0.00762675
0.0075134
0.00740059
0.00728827
0.00717639
0.0070649
0.00695375
0.00684286
0.00673219
0.00662171
0.00651145
0.0064014
0.00629156
0.00618189
0.00607236
0.00596295
0.00585367
0.00574452
0.0056355
0.0055266
0.00541783
0.00530916
0.00520057
0.00509207
0.00498364
0.00487528
0.00476699
0.00465876
0.0045506
0.00444248
0.00433442
0.0042264
0.00411842
0.00401046
0.00390254
0.00379465
0.00368677
0.00357891
0.00347107
0.00336323
0.0032554
0.00314757
0.00303973
0.00293188
0.00282401
0.00271611
0.00260819
0.00250023
0.00239223
0.00228417
0.00217607
0.00206791
0.00195973
0.00185152
0.00174331
0.00163513
0.00152702
0.00141903
0.00131122
0.00120369
0.00109655
0.000989959
0.000884103
0.000779328
0.00067578
0.000574587
0.0004746
0.000382154
0.000282612
0.00021332
9.38221e-005
9.33019e-005
-0.000142125
0.0265919
0.0271935
0.0271037
0.0268049
0.0263902
0.0259291
0.025455
0.0249909
0.0245688
0.0241868
0.0238367
0.0235209
0.0232266
0.0229533
0.0226989
0.0224582
0.0222259
0.0220081
0.0218116
0.0216285
0.0214514
0.0212832
0.0211208
0.0209643
0.0208132
0.0206664
0.0205255
0.0203861
0.0202486
0.020116
0.0199864
0.019859
0.0197328
0.0196077
0.0194841
0.0193613
0.0192394
0.0191188
0.0189994
0.0188813
0.018764
0.0186467
0.0185295
0.0184122
0.0182946
0.018177
0.0180594
0.0179421
0.017825
0.0177082
0.0175917
0.0174754
0.0173591
0.0172427
0.0171264
0.0170101
0.0168939
0.0167776
0.0166613
0.0165449
0.0164284
0.0163117
0.0161947
0.0160775
0.01596
0.0158423
0.0157244
0.0156061
0.0154874
0.0153683
0.0152488
0.0151289
0.0150084
0.0148874
0.0147657
0.0146433
0.0145202
0.0143962
0.0142711
0.0141448
0.0140175
0.0138894
0.0137598
0.0136289
0.0134969
0.0133637
0.0132292
0.0130934
0.0129565
0.0128184
0.0126791
0.0125388
0.0123976
0.0122555
0.0121127
0.0119692
0.0118252
0.0116808
0.0115363
0.0113919
0.0112476
0.0111035
0.0109595
0.0108157
0.0106723
0.0105294
0.0103872
0.0102461
0.010106
0.00996716
0.00982965
0.00969347
0.00955861
0.00942503
0.0092927
0.00916168
0.00903222
0.00890458
0.00877883
0.00865479
0.00853211
0.0084106
0.0082903
0.00817131
0.00805355
0.00793685
0.00782099
0.00770581
0.00759121
0.00747719
0.00736374
0.00725083
0.0071384
0.00702636
0.00691458
0.00680299
0.00669165
0.00658061
0.00646988
0.00635943
0.00624919
0.00613911
0.00602918
0.0059194
0.00580979
0.00570035
0.00559107
0.00548193
0.0053729
0.00526398
0.00515516
0.00504643
0.00493778
0.00482922
0.00472074
0.00461234
0.004504
0.00439573
0.00428751
0.00417934
0.00407122
0.00396314
0.00385509
0.00374708
0.0036391
0.00353114
0.0034232
0.00331527
0.00320735
0.00309943
0.00299149
0.00288352
0.00277552
0.00266746
0.00255929
0.002451
0.0023426
0.00223414
0.00212565
0.00201715
0.00190867
0.0018002
0.00169173
0.00158326
0.00147481
0.00136639
0.00125807
0.00114989
0.00104198
0.000934438
0.000827542
0.000721326
0.000616779
0.000512586
0.00041469
0.00030868
0.000230405
0.000100847
9.14849e-005
-0.000176085
0.0256563
0.0259955
0.0259943
0.0258442
0.0255854
0.0252659
0.024919
0.0245658
0.024226
0.0239043
0.0235975
0.0233097
0.0230393
0.0227815
0.0225361
0.0223127
0.0221067
0.0219139
0.0217333
0.0215622
0.0213991
0.0212383
0.0210818
0.02093
0.0207821
0.0206382
0.0205041
0.0203737
0.0202427
0.0201128
0.0199857
0.0198608
0.0197355
0.0196106
0.0194871
0.0193635
0.0192407
0.0191202
0.0190012
0.0188831
0.0187653
0.0186475
0.0185297
0.0184118
0.0182943
0.0181772
0.0180609
0.0179449
0.0178286
0.0177126
0.0175968
0.0174813
0.0173656
0.0172498
0.017134
0.0170182
0.0169026
0.016787
0.0166714
0.0165559
0.0164402
0.0163243
0.0162082
0.0160918
0.0159752
0.0158585
0.0157416
0.0156245
0.015507
0.0153892
0.0152709
0.0151523
0.0150332
0.0149134
0.014793
0.0146721
0.0145505
0.0144282
0.014305
0.0141803
0.014054
0.0139263
0.0137976
0.0136683
0.0135383
0.0134073
0.0132752
0.0131419
0.0130073
0.0128714
0.0127341
0.0125958
0.0124565
0.0123163
0.0121754
0.0120337
0.0118916
0.0117491
0.0116064
0.0114636
0.0113205
0.0111773
0.011034
0.0108906
0.0107476
0.0106053
0.0104639
0.0103238
0.010185
0.0100474
0.00991104
0.00977583
0.00964174
0.00950874
0.00937679
0.00924597
0.0091165
0.00898873
0.00886284
0.00873869
0.00861588
0.00849407
0.00837329
0.00825375
0.00813552
0.00801845
0.00790227
0.00778676
0.00767184
0.00755755
0.00744389
0.00733082
0.00721833
0.00710624
0.00699426
0.00688234
0.00677063
0.00665928
0.00654829
0.00643758
0.00632705
0.00621668
0.00610646
0.00599642
0.00588657
0.00577691
0.00566741
0.00555806
0.00544884
0.00533972
0.00523071
0.00512181
0.00501301
0.00490431
0.0047957
0.00468718
0.00457873
0.00447035
0.00436203
0.00425378
0.00414557
0.00403742
0.00392931
0.00382125
0.00371322
0.00360523
0.00349726
0.0033893
0.00328135
0.0031734
0.00306543
0.00295744
0.0028494
0.0027413
0.00263311
0.00252483
0.00241647
0.00230804
0.00219956
0.00209105
0.00198248
0.00187385
0.00176513
0.00165629
0.0015473
0.00143818
0.00132892
0.00121954
0.00111008
0.00100057
0.000891184
0.000781783
0.000673245
0.000563823
0.000458938
0.000345771
0.000255059
0.000115336
8.63858e-005
-0.000209284
0.024893
0.0251006
0.0251127
0.0250299
0.0248655
0.0246448
0.0243908
0.0241202
0.0238484
0.0235829
0.0233258
0.0230806
0.0228472
0.0226248
0.0224124
0.0222132
0.0220274
0.0218519
0.0216748
0.0214996
0.0213378
0.0211822
0.0210328
0.0208886
0.0207485
0.0206125
0.0204809
0.0203553
0.0202313
0.0201043
0.0199787
0.0198555
0.0197305
0.0196071
0.0194889
0.0193705
0.0192496
0.0191286
0.0190094
0.0188909
0.0187732
0.0186561
0.0185387
0.0184213
0.0183037
0.0181849
0.0180666
0.0179498
0.0178336
0.017718
0.0176028
0.0174879
0.017373
0.0172578
0.0171425
0.0170275
0.0169127
0.016798
0.0166835
0.0165689
0.0164543
0.0163394
0.0162242
0.0161086
0.015993
0.0158773
0.0157616
0.0156458
0.0155296
0.0154131
0.0152962
0.0151789
0.015061
0.0149425
0.0148234
0.0147037
0.0145833
0.0144622
0.0143397
0.0142155
0.0140892
0.0139619
0.0138349
0.0137085
0.0135818
0.0134533
0.0133229
0.0131908
0.0130573
0.0129223
0.0127863
0.0126494
0.0125115
0.0123727
0.0122332
0.0120931
0.0119524
0.0118114
0.01167
0.0115284
0.0113865
0.0112445
0.0111024
0.0109607
0.0108197
0.0106796
0.0105406
0.0104028
0.0102659
0.0101299
0.00999465
0.00986011
0.00972637
0.00959356
0.00946185
0.00933146
0.00920266
0.00907569
0.00895064
0.00882722
0.00870489
0.00858333
0.00846266
0.00834317
0.00822495
0.00810782
0.0079915
0.00787582
0.00776074
0.0076463
0.00753247
0.00741918
0.00730639
0.00719382
0.00708117
0.00696861
0.00685644
0.00674478
0.00663353
0.00652254
0.00641173
0.00630108
0.00619063
0.00608039
0.00597037
0.00586055
0.0057509
0.0056414
0.00553203
0.00542278
0.00531366
0.00520465
0.00509577
0.00498699
0.00487832
0.00476973
0.00466123
0.0045528
0.00444445
0.00433616
0.00422794
0.00411978
0.00401166
0.0039036
0.00379558
0.0036876
0.00357964
0.00347171
0.00336378
0.00325584
0.00314789
0.00303991
0.00293188
0.00282379
0.00271562
0.00260736
0.002499
0.00239056
0.00228202
0.00217339
0.00206463
0.00195573
0.00184664
0.00173733
0.00162775
0.00151788
0.00140767
0.00129706
0.00118606
0.00107453
0.000962615
0.000849839
0.000737044
0.000622129
0.000509643
0.000388392
0.00028368
0.000132859
8.01466e-005
-0.000242239
0.0243007
0.024436
0.0244427
0.0243829
0.0242644
0.0241012
0.0239085
0.0236983
0.023481
0.0232633
0.0230483
0.0228391
0.0226365
0.0224411
0.0222527
0.0220728
0.021901
0.0217366
0.0215767
0.0214216
0.0212731
0.0211288
0.0209886
0.0208521
0.0207206
0.0205932
0.0204595
0.0203257
0.0201984
0.0200741
0.0199499
0.0198266
0.019704
0.0195848
0.0194702
0.0193557
0.019238
0.0191194
0.0190021
0.0188843
0.0187658
0.0186488
0.0185336
0.018419
0.0183032
0.018186
0.0180681
0.0179504
0.0178339
0.0177184
0.0176038
0.01749
0.0173762
0.0172609
0.0171452
0.0170302
0.0169158
0.0168016
0.0166876
0.0165738
0.0164598
0.0163453
0.0162304
0.0161157
0.0160014
0.0158875
0.0157736
0.0156594
0.0155446
0.0154293
0.0153135
0.0151972
0.0150804
0.014963
0.0148449
0.0147262
0.0146068
0.0144865
0.0143649
0.014242
0.0141179
0.0139938
0.0138708
0.0137482
0.0136237
0.0134961
0.0133662
0.0132351
0.013103
0.0129701
0.0128364
0.0127019
0.0125665
0.0124304
0.0122936
0.0121562
0.0120184
0.01188
0.0117413
0.0116022
0.0114627
0.0113231
0.0111835
0.0110441
0.0109053
0.010767
0.0106293
0.0104922
0.0103556
0.0102197
0.0100845
0.00995007
0.00981667
0.00968448
0.00955369
0.00942447
0.00929692
0.00917094
0.00904627
0.00892252
0.00879945
0.00867711
0.0085558
0.00843578
0.00831696
0.00819909
0.00808197
0.00796553
0.00784975
0.00773463
0.00762008
0.00750598
0.00739213
0.00727845
0.00716506
0.00705219
0.00693992
0.00682819
0.0067168
0.00660564
0.00649465
0.00638386
0.00627331
0.006163
0.00605293
0.00594305
0.00583333
0.00572377
0.00561434
0.00550506
0.00539591
0.00528689
0.005178
0.00506923
0.00496056
0.00485199
0.0047435
0.0046351
0.00452678
0.00441853
0.00431034
0.00420222
0.00409416
0.00398615
0.00387819
0.00377027
0.00366237
0.00355449
0.00344661
0.00333873
0.00323083
0.0031229
0.00301492
0.00290687
0.00279874
0.00269052
0.0025822
0.00247377
0.0023652
0.0022565
0.00214762
0.00203852
0.00192917
0.0018195
0.00170945
0.00159895
0.00148791
0.00137623
0.00126381
0.00115042
0.00103606
0.000920081
0.000803133
0.000682791
0.000563021
0.000433325
0.000314941
0.000152235
7.38697e-005
-0.000272567
0.023796
0.0238861
0.0238878
0.0238404
0.02375
0.0236249
0.0234753
0.0233094
0.0231348
0.0229567
0.0227782
0.0226019
0.022429
0.0222603
0.022096
0.0219369
0.0217829
0.0216336
0.0214873
0.0213438
0.0212042
0.0210679
0.0209344
0.0208036
0.020675
0.0205486
0.0204222
0.0202979
0.0201758
0.0200549
0.0199344
0.0198151
0.0196978
0.01958
0.0194592
0.0193392
0.0192219
0.0191059
0.0189895
0.018872
0.0187531
0.0186349
0.0185198
0.0184059
0.0182911
0.0181772
0.0180635
0.0179487
0.0178341
0.0177198
0.0176052
0.0174907
0.0173767
0.0172618
0.0171463
0.0170316
0.0169176
0.0168039
0.0166907
0.0165783
0.0164662
0.0163531
0.0162392
0.0161253
0.0160122
0.0158994
0.0157866
0.0156732
0.0155592
0.0154447
0.0153299
0.0152147
0.015099
0.0149829
0.0148663
0.0147492
0.0146313
0.0145127
0.0143933
0.0142732
0.0141528
0.0140322
0.0139108
0.0137877
0.0136624
0.0135355
0.0134074
0.0132782
0.013148
0.013017
0.012885
0.0127522
0.0126185
0.0124841
0.012349
0.0122133
0.0120771
0.0119403
0.011803
0.0116653
0.0115272
0.011389
0.0112509
0.011113
0.0109755
0.0108384
0.0107018
0.0105657
0.0104301
0.0102952
0.0101609
0.0100275
0.00989514
0.00976382
0.00963368
0.00950477
0.00937705
0.00925042
0.00912473
0.00899994
0.00887612
0.00875344
0.00863199
0.00851172
0.00839247
0.00827406
0.00815642
0.00803952
0.00792334
0.00780782
0.00769287
0.00757841
0.00746438
0.00735078
0.00723768
0.00712509
0.00701297
0.00690119
0.00678968
0.00667838
0.00656731
0.00645649
0.00634594
0.00623563
0.00612555
0.00601566
0.00590594
0.00579637
0.00568696
0.00557771
0.0054686
0.00535963
0.00525079
0.00514208
0.00503346
0.00492495
0.00481653
0.0047082
0.00459995
0.00449177
0.00438367
0.00427563
0.00416765
0.00405973
0.00395185
0.003844
0.00373618
0.00362837
0.00352057
0.00341276
0.00330493
0.00319707
0.00308915
0.00298116
0.0028731
0.00276493
0.00265665
0.00254824
0.00243968
0.00233094
0.00222198
0.00211275
0.00200321
0.00189327
0.00178284
0.00167183
0.00156012
0.00144753
0.00133392
0.00121895
0.00110249
0.000983772
0.000863135
0.000738051
0.000611879
0.000474353
0.000344361
0.000170465
6.93211e-005
-0.000293421
0.0233544
0.0234132
0.0234103
0.023371
0.0232997
0.0232019
0.0230843
0.022953
0.022813
0.0226682
0.0225212
0.022374
0.0222278
0.0220833
0.0219408
0.021801
0.0216638
0.0215291
0.0213963
0.0212653
0.0211364
0.0210093
0.0208839
0.0207599
0.0206372
0.0205158
0.0203944
0.0202735
0.0201537
0.0200346
0.0199161
0.019798
0.0196804
0.0195629
0.0194458
0.0193299
0.0192144
0.0190987
0.0189828
0.0188669
0.0187514
0.0186365
0.0185207
0.0184033
0.0182865
0.0181714
0.0180572
0.0179432
0.0178295
0.0177158
0.0176016
0.0174864
0.0173719
0.0172591
0.0171467
0.0170341
0.0169212
0.0168081
0.0166949
0.0165813
0.0164679
0.016356
0.0162453
0.0161344
0.0160224
0.01591
0.0157972
0.0156841
0.0155708
0.0154574
0.0153437
0.0152296
0.0151152
0.0150003
0.0148849
0.014769
0.0146522
0.0145346
0.0144162
0.0142972
0.0141777
0.0140576
0.0139365
0.0138139
0.0136897
0.0135641
0.0134373
0.0133094
0.0131805
0.0130506
0.0129197
0.012788
0.0126553
0.0125219
0.0123878
0.012253
0.0121176
0.0119817
0.0118453
0.0117084
0.0115712
0.0114339
0.0112965
0.0111593
0.0110224
0.0108859
0.0107497
0.0106141
0.0104789
0.0103444
0.0102106
0.0100776
0.0099455
0.00981444
0.00968451
0.00955573
0.00942812
0.00930162
0.0091762
0.00905187
0.00892863
0.0088065
0.0086854
0.00856525
0.00844599
0.00832756
0.00820994
0.00809309
0.00797694
0.00786144
0.0077465
0.00763207
0.00751811
0.00740461
0.00729155
0.00717892
0.00706666
0.00695473
0.00684311
0.00673177
0.00662072
0.00650996
0.00639946
0.00628919
0.00617914
0.00606928
0.0059596
0.00585009
0.00574075
0.00563157
0.00552254
0.00541366
0.0053049
0.00519627
0.00508775
0.00497932
0.00487099
0.00476275
0.0046546
0.00454652
0.00443851
0.00433056
0.00422267
0.00411483
0.00400703
0.00389927
0.00379152
0.00368379
0.00357607
0.00346833
0.00336056
0.00325276
0.0031449
0.00303698
0.00292897
0.00282086
0.00271263
0.00260426
0.00249571
0.00238696
0.00227797
0.00216868
0.00205902
0.0019489
0.00183822
0.00172687
0.00161469
0.00150147
0.001387
0.0012709
0.00115291
0.0010322
0.000908842
0.000780265
0.000649246
0.000505508
0.000367136
0.000182912
6.48962e-005
-0.000318143
0.0229554
0.022989
0.0229818
0.0229485
0.0228921
0.0228161
0.022725
0.0226227
0.0225127
0.0223976
0.0222793
0.0221591
0.0220379
0.0219164
0.021795
0.0216739
0.0215533
0.0214333
0.0213136
0.0211942
0.0210753
0.0209569
0.020839
0.0207216
0.0206044
0.0204875
0.0203705
0.0202538
0.0201373
0.0200211
0.019905
0.0197891
0.0196733
0.0195576
0.0194417
0.0193261
0.0192106
0.0190951
0.0189797
0.0188641
0.0187484
0.0186327
0.0185168
0.0184013
0.0182867
0.0181726
0.0180588
0.0179451
0.0178315
0.0177177
0.0176039
0.01749
0.0173767
0.0172645
0.0171527
0.0170406
0.0169277
0.0168146
0.0167013
0.0165871
0.016473
0.0163605
0.0162496
0.0161392
0.0160282
0.0159165
0.0158044
0.0156921
0.0155795
0.0154667
0.0153536
0.0152401
0.0151263
0.0150121
0.0148974
0.014782
0.014666
0.0145491
0.0144314
0.014313
0.0141939
0.0140741
0.0139532
0.013831
0.0137074
0.0135825
0.0134563
0.013329
0.0132007
0.0130713
0.0129409
0.0128095
0.0126773
0.0125442
0.0124103
0.0122758
0.0121406
0.0120049
0.0118687
0.011732
0.0115951
0.011458
0.0113208
0.0111838
0.011047
0.0109105
0.0107745
0.0106389
0.0105039
0.0103695
0.0102359
0.0101031
0.00997134
0.00984059
0.00971092
0.00958237
0.00945492
0.00932856
0.00920327
0.00907904
0.00895584
0.00883365
0.00871244
0.00859216
0.0084728
0.00835432
0.00823666
0.00811976
0.00800357
0.007888
0.00777302
0.00765858
0.00754464
0.00743116
0.00731813
0.00720551
0.00709327
0.0069814
0.00686985
0.00675861
0.00664766
0.00653698
0.00642655
0.00631634
0.00620635
0.00609655
0.00598695
0.00587752
0.00576827
0.00565918
0.00555025
0.00544146
0.0053328
0.00522426
0.00511582
0.00500749
0.00489926
0.00479111
0.00468305
0.00457505
0.00446713
0.00435926
0.00425145
0.00414367
0.00403594
0.00392823
0.00382055
0.00371287
0.00360519
0.0034975
0.00338978
0.00328202
0.00317421
0.00306632
0.00295836
0.00285028
0.00274209
0.00263374
0.00252522
0.00241648
0.00230749
0.00219817
0.00208848
0.00197829
0.00186751
0.001756
0.0016436
0.00153009
0.0014152
0.00129855
0.0011798
0.00105807
0.000933297
0.000802845
0.000669172
0.000521623
0.000378391
0.000183958
6.08959e-005
-0.000344735
0.0225848
0.0225954
0.0225834
0.0225547
0.0225111
0.0224545
0.0223874
0.0223121
0.0222302
0.0221433
0.0220525
0.0219584
0.0218616
0.0217625
0.0216614
0.0215586
0.0214543
0.0213487
0.0212418
0.0211337
0.0210247
0.0209149
0.0208044
0.0206933
0.0205816
0.0204693
0.0203565
0.0202432
0.0201296
0.0200157
0.0199016
0.0197873
0.0196728
0.0195582
0.0194434
0.0193285
0.0192137
0.0190988
0.0189837
0.0188686
0.0187534
0.0186382
0.018523
0.0184079
0.0182931
0.0181785
0.0180642
0.0179502
0.0178362
0.0177224
0.0176086
0.017495
0.0173817
0.0172688
0.0171562
0.0170437
0.0169311
0.0168183
0.0167056
0.0165931
0.0164805
0.0163684
0.0162567
0.0161452
0.0160337
0.0159219
0.01581
0.0156978
0.0155855
0.0154729
0.01536
0.0152467
0.015133
0.0150188
0.0149041
0.0147888
0.0146727
0.0145558
0.0144381
0.0143195
0.0142002
0.0140799
0.0139585
0.0138359
0.013712
0.0135868
0.0134604
0.0133329
0.0132042
0.0130745
0.0129437
0.0128119
0.0126792
0.0125456
0.0124113
0.0122762
0.0121406
0.0120043
0.0118676
0.0117305
0.0115932
0.0114557
0.0113182
0.0111808
0.0110436
0.0109067
0.0107703
0.0106344
0.0104991
0.0103645
0.0102307
0.0100978
0.00996595
0.00983511
0.00970538
0.00957679
0.00944933
0.009323
0.00919778
0.00907364
0.00895055
0.00882848
0.00870739
0.00858723
0.00846798
0.0083496
0.00823201
0.00811518
0.00799905
0.00788356
0.00776867
0.00765433
0.00754049
0.00742712
0.00731418
0.00720166
0.00708951
0.00697772
0.00686626
0.00675511
0.00664423
0.00653361
0.00642324
0.0063131
0.00620318
0.00609346
0.00598394
0.0058746
0.00576544
0.00565644
0.00554759
0.00543888
0.0053303
0.00522184
0.00511349
0.00500524
0.00489709
0.00478901
0.00468102
0.00457309
0.00446522
0.0043574
0.00424962
0.00414189
0.00403418
0.0039265
0.00381883
0.00371118
0.00360351
0.00349583
0.00338812
0.00328037
0.00317257
0.00306469
0.00295673
0.00284867
0.00274049
0.00263216
0.00252365
0.00241493
0.00230596
0.00219667
0.002087
0.00197686
0.00186612
0.00175466
0.00164232
0.00152888
0.00141408
0.00129751
0.00117887
0.00105727
0.000932644
0.000802377
0.000668925
0.000521783
0.000378964
0.000186698
6.19666e-005
-0.000338575
0.022231
0.0222171
0.0221987
0.0221737
0.0221423
0.0221051
0.0220623
0.0220142
0.0219611
0.021903
0.0218401
0.0217724
0.0217002
0.0216236
0.0215428
0.0214582
0.02137
0.0212785
0.021184
0.0210868
0.0209873
0.0208856
0.0207821
0.0206769
0.0205702
0.0204622
0.020353
0.0202428
0.0201318
0.02002
0.0199076
0.0197947
0.0196813
0.0195675
0.0194534
0.019339
0.0192244
0.0191096
0.0189946
0.0188794
0.0187642
0.0186489
0.0185337
0.0184185
0.0183035
0.0181887
0.0180742
0.0179598
0.0178456
0.0177315
0.0176175
0.0175037
0.0173901
0.0172767
0.0171637
0.0170507
0.0169377
0.0168245
0.0167115
0.0165987
0.016486
0.0163736
0.0162616
0.0161497
0.0160378
0.0159257
0.0158135
0.0157011
0.0155884
0.0154755
0.0153622
0.0152486
0.0151345
0.0150199
0.0149046
0.0147887
0.014672
0.0145545
0.0144361
0.0143167
0.0141964
0.0140751
0.0139526
0.0138289
0.013704
0.0135778
0.0134503
0.0133217
0.0131919
0.013061
0.012929
0.012796
0.0126621
0.0125273
0.0123917
0.0122554
0.0121185
0.011981
0.0118431
0.0117049
0.0115665
0.011428
0.0112895
0.0111512
0.0110131
0.0108754
0.0107382
0.0106016
0.0104657
0.0103305
0.0101962
0.010063
0.00993074
0.00979966
0.00966976
0.00954106
0.00941356
0.00928726
0.0091621
0.00903806
0.00891507
0.00879311
0.00867213
0.00855209
0.00843293
0.00831461
0.0081971
0.00808035
0.00796431
0.00784893
0.00773415
0.00761992
0.00750621
0.00739295
0.00728013
0.0071677
0.00705566
0.00694396
0.00683258
0.0067215
0.00661071
0.00650017
0.00638988
0.00627982
0.00616997
0.00606034
0.0059509
0.00584164
0.00573255
0.00562361
0.00551483
0.00540619
0.00529768
0.00518928
0.00508099
0.00497279
0.00486469
0.00475666
0.0046487
0.0045408
0.00443295
0.00432515
0.00421738
0.00410964
0.00400192
0.00389423
0.00378655
0.00367887
0.00357119
0.00346348
0.00335575
0.00324797
0.00314013
0.00303223
0.00292424
0.00281616
0.00270796
0.00259963
0.00249113
0.00238244
0.00227351
0.00216429
0.00205471
0.00194471
0.00183416
0.00172295
0.00161094
0.00149793
0.0013837
0.00126787
0.0011502
0.00102985
0.00090689
0.000778778
0.000648269
0.000505202
0.000367493
0.000184665
6.74533e-005
-0.000310904
0.0218811
0.0218379
0.0218108
0.0217894
0.0217718
0.0217566
0.0217414
0.0217238
0.0217022
0.0216752
0.021642
0.021602
0.0215551
0.0215014
0.021441
0.0213745
0.0213021
0.0212244
0.0211419
0.021055
0.0209643
0.0208701
0.020773
0.0206732
0.020571
0.0204668
0.0203607
0.020253
0.0201441
0.0200339
0.0199228
0.0198108
0.0196981
0.0195848
0.019471
0.0193567
0.0192421
0.0191272
0.0190121
0.0188967
0.0187812
0.0186657
0.0185501
0.0184345
0.0183191
0.0182039
0.0180887
0.0179737
0.0178589
0.0177442
0.0176296
0.0175152
0.0174011
0.0172871
0.0171733
0.0170597
0.016946
0.0168323
0.0167189
0.0166056
0.0164925
0.0163795
0.0162667
0.016154
0.0160413
0.0159285
0.0158155
0.0157024
0.015589
0.0154754
0.0153613
0.0152469
0.0151319
0.0150163
0.0149
0.014783
0.0146652
0.0145464
0.0144267
0.014306
0.0141842
0.0140613
0.0139371
0.0138117
0.0136851
0.0135572
0.013428
0.0132976
0.013166
0.0130332
0.0128994
0.0127645
0.0126287
0.012492
0.0123546
0.0122164
0.0120777
0.0119384
0.0117988
0.0116589
0.0115189
0.0113788
0.0112389
0.0110992
0.0109598
0.0108209
0.0106826
0.0105449
0.010408
0.010272
0.010137
0.0100032
0.00987046
0.009739
0.00960883
0.00947994
0.00935232
0.00922595
0.00910079
0.00897679
0.0088539
0.00873205
0.0086112
0.00849128
0.00837225
0.00825407
0.00813669
0.00802007
0.00790416
0.00778892
0.00767429
0.00756021
0.00744664
0.00733353
0.00722084
0.00710854
0.0069966
0.006885
0.00677371
0.00666272
0.006552
0.00644154
0.00633133
0.00622134
0.00611156
0.00600199
0.00589261
0.0057834
0.00567437
0.00556549
0.00545675
0.00534815
0.00523968
0.00513132
0.00502307
0.00491491
0.00480683
0.00469882
0.00459087
0.00448297
0.00437511
0.00426728
0.00415948
0.00405171
0.00394395
0.00383622
0.00372849
0.00362077
0.00351303
0.00340528
0.00329748
0.00318964
0.00308174
0.00297377
0.00286573
0.0027576
0.00264937
0.00254102
0.00243253
0.00232387
0.002215
0.00210588
0.00199646
0.00188668
0.00177645
0.00166567
0.00155423
0.00144198
0.00132874
0.00121421
0.00109826
0.000980099
0.000860097
0.00073572
0.000610334
0.000473656
0.000344589
0.000171534
7.10256e-005
-0.000292302
0.0215173
0.0214349
0.0213953
0.0213791
0.0213803
0.0213941
0.0214133
0.0214326
0.0214477
0.0214559
0.0214552
0.0214447
0.0214243
0.021394
0.0213542
0.0213055
0.0212486
0.0211841
0.0211129
0.0210357
0.0209531
0.0208658
0.0207743
0.0206792
0.0205809
0.0204798
0.0203762
0.0202706
0.0201631
0.0200541
0.0199438
0.0198323
0.0197199
0.0196068
0.0194929
0.0193785
0.0192636
0.0191483
0.0190327
0.0189168
0.0188008
0.0186847
0.0185686
0.0184524
0.0183364
0.0182204
0.0181046
0.0179889
0.0178734
0.0177579
0.0176426
0.0175275
0.0174125
0.0172977
0.017183
0.0170684
0.016954
0.0168396
0.0167254
0.0166114
0.0164975
0.0163837
0.01627
0.0161563
0.0160426
0.0159288
0.0158149
0.0157008
0.0155864
0.0154718
0.0153567
0.0152411
0.0151249
0.015008
0.0148904
0.014772
0.0146526
0.0145323
0.014411
0.0142885
0.0141649
0.0140401
0.013914
0.0137865
0.0136578
0.0135278
0.0133964
0.0132639
0.01313
0.012995
0.0128589
0.0127218
0.0125837
0.0124447
0.012305
0.0121646
0.0120236
0.0118822
0.0117405
0.0115985
0.0114566
0.0113146
0.0111729
0.0110315
0.0108906
0.0107502
0.0106105
0.0104716
0.0103335
0.0101964
0.0100604
0.00992576
0.00979243
0.0096605
0.00952999
0.00940088
0.00927315
0.00914674
0.0090216
0.00889767
0.00877488
0.00865317
0.00853248
0.00841273
0.00829387
0.00817585
0.00805864
0.00794218
0.00782644
0.00771137
0.00759691
0.007483
0.00736959
0.00725663
0.00714409
0.00703191
0.00692009
0.00680858
0.00669738
0.00658647
0.00647583
0.00636544
0.00625529
0.00614536
0.00603564
0.00592612
0.00581679
0.00570763
0.00559864
0.0054898
0.0053811
0.00527253
0.00516409
0.00505576
0.00494752
0.00483938
0.00473131
0.0046233
0.00451535
0.00440743
0.00429955
0.00419168
0.00408384
0.00397601
0.0038682
0.00376041
0.00365264
0.00354486
0.00343707
0.00332925
0.00322139
0.00311347
0.0030055
0.00289746
0.00278935
0.00268117
0.00257291
0.00246454
0.00235607
0.00224746
0.00213868
0.00202972
0.00192052
0.00181105
0.00170125