/*--------------------------------*- C++ -*----------------------------------*\
| =========                 |                                                 |
| \\      /  F ield         | OpenFOAM: The Open Source CFD Toolbox           |
|  \\    /   O peration     | Version:  5.x                                   |
|   \\  /    A nd           | Web:      www.OpenFOAM.org                      |
|    \\/     M anipulation  |                                                 |
\*---------------------------------------------------------------------------*/
/*   Windows 32 and 64 bit porting by blueCAPE: http://www.bluecape.com.pt   *\
|  Based on Windows porting (2.0.x v4) by Symscape: http://www.symscape.com   |
\*---------------------------------------------------------------------------*/
FoamFile
{
    version     2.0;
    format      ascii;
    class       volScalarField;
    location    "0.08";
    object      p;
}
// * * * * * * * * * * * * * * * * * * * * * * * * * * * * * * * * * * * * * //

dimensions      [0 2 -2 0 0 0 0];

internalField   nonuniform List<scalar> 
750
(
0.36119703
0.36123915
0.36097548
0.36070409
0.36035608
0.35993739
0.35949175
0.359002
0.35849436
0.35796624
0.35742412
0.35687046
0.35630844
0.35573271
0.35513783
0.35452721
0.35385859
0.35314737
0.35231176
0.35122228
0.35012695
0.34733024
0.34625488
0.33671838
0.33267375
0.36120248
0.36124649
0.36097951
0.36070968
0.36035859
0.35994072
0.35949343
0.35900372
0.35849539
0.35796707
0.35742484
0.35687113
0.35630901
0.35573345
0.35513937
0.35452877
0.35386237
0.35315326
0.35231844
0.35124877
0.35012625
0.34743785
0.34620263
0.33691068
0.33264751
0.36121406
0.36125984
0.36098898
0.36071903
0.36036513
0.35994644
0.35949735
0.3590069
0.35849764
0.35796881
0.35742632
0.35687251
0.35631046
0.35573545
0.35514256
0.35453338
0.35387067
0.3531663
0.35233952
0.35128912
0.35017596
0.34756764
0.34630672
0.33715413
0.33309904
0.36123307
0.36127734
0.36100521
0.36073172
0.36037579
0.35995454
0.35950348
0.35901154
0.35850106
0.35797143
0.35742848
0.35687454
0.3563127
0.35573856
0.3551472
0.35454059
0.35388298
0.35318538
0.35237323
0.35134109
0.35026344
0.34771532
0.34651776
0.33747402
0.33386748
0.36125927
0.36129948
0.36102772
0.36074814
0.36039019
0.3599652
0.35951166
0.35901767
0.3585056
0.35797489
0.3574313
0.35687718
0.35631566
0.35574264
0.35515321
0.35455004
0.35389898
0.3532098
0.35241789
0.35140761
0.3503823
0.3479059
0.34680166
0.33787366
0.33489821
0.36129231
0.36132703
0.3610561
0.36076861
0.36040812
0.35997849
0.3595218
0.35902528
0.35851122
0.35797915
0.35743477
0.35688042
0.35631928
0.35574755
0.35516048
0.35456141
0.35391828
0.35323932
0.35247238
0.35149152
0.35053121
0.34816083
0.34720109
0.33833313
0.33644938
0.36133208
0.3613605
0.36109024
0.36079325
0.36042957
0.35999438
0.35953388
0.35903433
0.35851787
0.35798419
0.35743886
0.35688422
0.35632349
0.35575323
0.35516891
0.35457452
0.35394052
0.35327392
0.3525352
0.35159051
0.35070282
0.34845517
0.34774143
0.33885566
0.33887669
0.36137815
0.36140099
0.36112967
0.36082231
0.36045443
0.36001285
0.35954781
0.35904478
0.35852553
0.35798996
0.35744353
0.35688857
0.3563283
0.35575967
0.35517856
0.35458932
0.35396559
0.35331329
0.35260404
0.35170414
0.35090704
0.34878419
0.34847133
0.33974229
0.34261454
0.36142956
0.36145024
0.36117323
0.36085644
0.36048228
0.36003399
0.35956346
0.35905662
0.35853415
0.35799642
0.35744879
0.35689346
0.35633365
0.35576679
0.35518944
0.35460596
0.35399329
0.35335666
0.35267902
0.35182917
0.35115554
0.34919644
0.34941392
0.34116073
0.34718301
0.36148704
0.36150677
0.36122172
0.36089592
0.36051257
0.360058
0.35958064
0.35906983
0.35854363
0.35800349
0.35745451
0.35689872
0.35633926
0.35577422
0.35520096
0.35462354
0.35402302
0.35340299
0.35275782
0.35196633
0.35138663
0.34972844
0.35025712
0.34309359
0.35201886
0.30969618
0.29910802
0.28331301
0.27109149
0.25812679
0.2456235
0.23299442
0.22040791
0.20780844
0.19521472
0.18261985
0.17002553
0.15743103
0.14483657
0.1322421
0.11964762
0.10705314
0.094458668
0.08186419
0.069269702
0.056675224
0.04408074
0.031486237
0.018891752
0.006297242
0.30938064
0.29880135
0.28320911
0.27103585
0.25811542
0.24562346
0.23299697
0.2204078
0.20780838
0.19521465
0.18261985
0.17002554
0.15743103
0.14483657
0.13224209
0.11964762
0.10705314
0.094458668
0.081864189
0.069269704
0.056675224
0.044080739
0.031486239
0.018891751
0.006297247
0.30877176
0.29868282
0.28298229
0.27099624
0.25808526
0.24561569
0.23299633
0.22040771
0.20780831
0.1952146
0.18261984
0.17002555
0.15743103
0.14483657
0.13224209
0.11964762
0.10705314
0.094458666
0.081864186
0.069269708
0.056675227
0.044080737
0.03148624
0.018891747
0.0062972525
0.30791938
0.29868001
0.28267656
0.27094755
0.25806338
0.24560543
0.23299405
0.22040749
0.2078082
0.19521455
0.18261983
0.17002555
0.15743104
0.14483657
0.13224209
0.11964762
0.10705314
0.094458662
0.081864187
0.069269711
0.056675226
0.044080735
0.031486242
0.018891743
0.0062972562
0.30714447
0.29860494
0.28247209
0.27085538
0.25804504
0.24559912
0.23299124
0.22040705
0.20780807
0.19521451
0.18261982
0.17002555
0.15743104
0.14483657
0.13224209
0.11964762
0.10705315
0.094458663
0.08186419
0.06926971
0.056675223
0.044080734
0.031486245
0.01889174
0.0062972547
0.30646528
0.29850616
0.28231441
0.27074729
0.25801728
0.24559585
0.23298829
0.22040655
0.20780793
0.1952145
0.18261982
0.17002556
0.15743103
0.14483658
0.13224209
0.11964762
0.10705315
0.094458666
0.081864189
0.069269707
0.056675223
0.044080735
0.031486247
0.01889174
0.0062972521
0.30539149
0.29849886
0.28205665
0.2706787
0.25798783
0.24559321
0.23298563
0.22040614
0.20780779
0.19521452
0.18261981
0.17002556
0.15743103
0.14483658
0.13224209
0.11964762
0.10705315
0.094458667
0.081864188
0.069269707
0.056675223
0.044080736
0.031486246
0.018891745
0.0062972523
0.30395656
0.29828878
0.28177329
0.2706434
0.25796805
0.24559297
0.23298423
0.22040594
0.20780768
0.19521456
0.18261982
0.17002557
0.15743103
0.14483658
0.13224209
0.11964762
0.10705315
0.094458667
0.081864189
0.069269707
0.056675223
0.044080737
0.031486246
0.018891752
0.0062972545
0.30177149
0.29790016
0.28158005
0.27062639
0.25796014
0.24559642
0.23298397
0.22040609
0.20780761
0.19521464
0.18261983
0.17002558
0.15743103
0.14483658
0.13224209
0.11964762
0.10705315
0.094458667
0.081864188
0.069269707
0.056675224
0.044080738
0.031486246
0.018891757
0.0062972558
0.29668266
0.29831733
0.28153143
0.2707449
0.25793621
0.24560414
0.23298035
0.22040695
0.20780718
0.19521475
0.1826198
0.17002559
0.15743103
0.14483658
0.13224209
0.11964762
0.10705315
0.094458667
0.081864188
0.069269707
0.056675224
0.044080738
0.031486245
0.018891752
0.0062972509
0.36161997
0.36162696
0.36133396
0.36098384
0.36057858
0.36011129
0.35961798
0.35909857
0.35856405
0.3580186
0.35746638
0.35690939
0.35635047
0.35578895
0.35522388
0.35465835
0.35408375
0.35350047
0.35291445
0.35226721
0.35174992
0.35089885
0.35147948
0.34812559
0.36507425
0.36188466
0.36188158
0.36154904
0.36115236
0.36070947
0.36020947
0.3596895
0.35915106
0.35860174
0.35804613
0.35748792
0.35692799
0.35636964
0.3558142
0.35526126
0.35471496
0.35417665
0.353645
0.35313974
0.35263134
0.35223174
0.35177631
0.35188799
0.34983958
0.35512421
0.36223061
0.36221165
0.36181774
0.36135735
0.36086572
0.36032358
0.35977149
0.35920992
0.35864328
0.35807577
0.35751006
0.35694627
0.35638728
0.35583663
0.35529524
0.3547665
0.35425937
0.35377531
0.35334134
0.35294676
0.35269055
0.35249751
0.35268071
0.35233933
0.35456742
0.36267209
0.36263444
0.36214205
0.36159622
0.36104103
0.36044891
0.35985941
0.35927138
0.35868574
0.35810503
0.35753022
0.35696135
0.35640126
0.35585306
0.35531978
0.35480541
0.35432207
0.35387652
0.35349452
0.35318314
0.35301707
0.35296903
0.35320939
0.35366696
0.35424778
0.3632399
0.3631632
0.36251938
0.36186134
0.3612269
0.36057799
0.35994758
0.35933102
0.35872561
0.35813092
0.35754635
0.35697147
0.35640911
0.35586077
0.35533061
0.35482566
0.35435733
0.35393734
0.35358942
0.35333292
0.35321758
0.35325017
0.35354089
0.35428259
0.35428066
0.3640073
0.36378333
0.36293704
0.36213916
0.36141093
0.36070089
0.36002892
0.359384
0.35875921
0.35815074
0.35755653
0.35697582
0.35640881
0.35585775
0.35532695
0.35482485
0.35436252
0.35395344
0.35362037
0.35338747
0.35329255
0.3533557
0.35363901
0.35444281
0.35423863
0.36511747
0.36443424
0.36336606
0.36240629
0.36157476
0.36080529
0.36009536
0.35942529
0.35878309
0.35816246
0.35755923
0.35697183
0.35639861
0.35584239
0.35530736
0.35480119
0.35433451
0.35392208
0.35358445
0.35334667
0.35324228
0.35329271
0.35353407
0.35430949
0.35405673
0.36697213
0.36496731
0.36373461
0.36261785
0.36169366
0.36087703
0.36013784
0.35944877
0.35879339
0.35816308
0.35755182
0.35695644
0.35637559
0.35581071
0.35526554
0.35474717
0.35426455
0.3538326
0.35347
0.35320025
0.35305447
0.35305546
0.35323048
0.35394675
0.35370937
0.37089522
0.36527155
0.36406064
0.36275473
0.36175833
0.36090905
0.36015089
0.35944989
0.35878574
0.35814733
0.35752748
0.35692148
0.35632767
0.35574609
0.35517972
0.35463403
0.35411682
0.35363969
0.35322077
0.35288246
0.35265401
0.35256355
0.35263866
0.35326813
0.35309542
0.37206989
0.36393992
0.36433637
0.36281897
0.36181064
0.36094033
0.36016987
0.3594619
0.358794
0.35815364
0.357533
0.35692728
0.35633436
0.35575452
0.35519031
0.35464687
0.35413377
0.35366046
0.35324449
0.35290857
0.35267907
0.35258714
0.35262231
0.35320877
0.35299968
)
;

boundaryField
{
    inlet
    {
        type            zeroGradient;
    }
    walls
    {
        type            zeroGradient;
    }
    outlet
    {
        type            fixedValue;
        value           uniform 0;
    }
    centreline
    {
        type            symmetryPlane;
    }
    frontAndBack
    {
        type            empty;
    }
}


// ************************************************************************* //
