/*--------------------------------*- C++ -*----------------------------------*\
| =========                 |                                                 |
| \\      /  F ield         | OpenFOAM: The Open Source CFD Toolbox           |
|  \\    /   O peration     | Version:  5.x                                   |
|   \\  /    A nd           | Web:      www.OpenFOAM.org                      |
|    \\/     M anipulation  |                                                 |
\*---------------------------------------------------------------------------*/
/*   Windows 32 and 64 bit porting by blueCAPE: http://www.bluecape.com.pt   *\
|  Based on Windows porting (2.0.x v4) by Symscape: http://www.symscape.com   |
\*---------------------------------------------------------------------------*/
FoamFile
{
    version     2.0;
    format      ascii;
    class       surfaceScalarField;
    location    "0.08";
    object      phi;
}
// * * * * * * * * * * * * * * * * * * * * * * * * * * * * * * * * * * * * * //

dimensions      [0 3 -1 0 0 0 0];

internalField   nonuniform List<scalar> 
1430
(
5.0802366e-006
-7.8956273e-008
5.1705392e-006
-9.0302554e-008
5.2527388e-006
-8.2199681e-008
5.3200911e-006
-6.7352235e-008
5.3770365e-006
-5.6945415e-008
5.4256765e-006
-4.8640017e-008
5.4671923e-006
-4.1515758e-008
5.5046114e-006
-3.7419175e-008
5.5403026e-006
-3.5691176e-008
5.5777137e-006
-3.7411035e-008
5.6204684e-006
-4.2754727e-008
5.673492e-006
-5.302366e-008
5.7428874e-006
-6.9395349e-008
5.8371417e-006
-9.4254351e-008
5.9686207e-006
-1.3147893e-007
6.1548317e-006
-1.8621104e-007
6.4233966e-006
-2.6856483e-007
6.8160265e-006
-3.9262997e-007
7.3959238e-006
-5.798973e-007
8.2821768e-006
-8.8625299e-007
9.6479757e-006
-1.3657989e-006
1.1919509e-005
-2.2715337e-006
1.5449447e-005
-3.5299374e-006
2.0475034e-005
-5.0255868e-006
-6.0531509e-006
2.6528184e-005
5.0796106e-006
-1.5728652e-007
5.1714092e-006
-1.8210114e-007
5.2530202e-006
-1.6381073e-007
5.3206701e-006
-1.350021e-007
5.3775912e-006
-1.1386649e-007
5.4260383e-006
-9.7087173e-008
5.4674682e-006
-8.2945591e-008
5.5046605e-006
-7.4611472e-008
5.5401589e-006
-7.1189633e-008
5.5773117e-006
-7.4563762e-008
5.6197691e-006
-8.5212138e-008
5.672377e-006
-1.0563162e-007
5.7412005e-006
-1.3821881e-007
5.8346683e-006
-1.877222e-007
5.9648961e-006
-2.6170664e-007
6.1493955e-006
-3.7071048e-007
6.4149868e-006
-5.3415611e-007
6.8029304e-006
-7.8057364e-007
7.3757565e-006
-1.1527234e-006
8.2470829e-006
-1.7575794e-006
9.6050939e-006
-2.7238099e-006
1.1827991e-005
-4.4944304e-006
1.5336314e-005
-7.0382605e-006
2.01752e-005
-9.8644729e-006
-1.1957105e-005
2.6079154e-005
5.0796734e-006
-2.3567961e-007
5.1719731e-006
-2.7440081e-007
5.2539234e-006
-2.4576102e-007
5.3218079e-006
-2.0288658e-007
5.3785904e-006
-1.7064906e-007
5.4268627e-006
-1.4535946e-007
5.4679717e-006
-1.2405464e-007
5.5048194e-006
-1.1145909e-007
5.539904e-006
-1.0627431e-007
5.5765626e-006
-1.1122238e-007
5.6184159e-006
-1.2706544e-007
5.6702234e-006
-1.5743903e-007
5.7379192e-006
-2.0591467e-007
5.8297847e-006
-2.7958769e-007
5.9576729e-006
-3.8959486e-007
6.1385708e-006
-5.5160835e-007
6.3985301e-006
-7.9411537e-007
6.7773663e-006
-1.1594099e-006
7.334978e-006
-1.7103352e-006
8.182532e-006
-2.6051335e-006
9.5053715e-006
-4.0466494e-006
1.1673068e-005
-6.6621271e-006
1.5056717e-005
-1.042191e-005
1.9659832e-005
-1.4467588e-005
-1.7422995e-005
2.5125722e-005
5.0798134e-006
-3.1421266e-007
5.1727831e-006
-3.6737056e-007
5.2553926e-006
-3.2837048e-007
5.3235028e-006
-2.7099685e-007
5.380157e-006
-2.2730322e-007
5.4281164e-006
-1.9331889e-007
5.4687728e-006
-1.6471101e-007
5.5050916e-006
-1.4777789e-007
5.5395666e-006
-1.4074933e-007
5.5754923e-006
-1.4714803e-007
5.6164343e-006
-1.6800744e-007
5.6670434e-006
-2.0804814e-007
5.7330774e-006
-2.7194871e-007
5.822564e-006
-3.6907426e-007
5.946952e-006
-5.1398286e-007
6.1225465e-006
-7.2720292e-007
6.3741368e-006
-1.0457056e-006
6.7395443e-006
-1.5248173e-006
7.2748476e-006
-2.2456385e-006
8.0869803e-006
-3.4172662e-006
9.3564645e-006
-5.3161336e-006
1.1436595e-005
-8.7422581e-006
1.4632169e-005
-1.3617484e-005
1.890036e-005
-1.8735779e-005
-2.2319076e-005
2.3796441e-005
5.080101e-006
-3.9303332e-007
5.1739046e-006
-4.611742e-007
5.2574351e-006
-4.1190101e-007
5.3257918e-006
-3.3935349e-007
5.3822813e-006
-2.8379276e-007
5.4298045e-006
-2.4084212e-007
5.4698623e-006
-2.0476875e-007
5.5054727e-006
-1.8338838e-007
5.5391402e-006
-1.7441678e-007
5.5740993e-006
-1.821071e-007
5.6138325e-006
-2.0774065e-007
5.6628567e-006
-2.5707235e-007
5.7267128e-006
-3.3580485e-007
5.8130777e-006
-4.5543917e-007
5.9328664e-006
-6.3377152e-007
6.1015524e-006
-8.9588897e-007
6.342234e-006
-1.2863872e-006
6.6901382e-006
-1.8727215e-006
7.1965077e-006
-2.7520081e-006
7.9617288e-006
-4.1824874e-006
9.154852e-006
-6.5092568e-006
1.1106664e-005
-1.069407e-005
1.4046362e-005
-1.6557182e-005
1.791413e-005
-2.2603547e-005
-2.6565262e-005
2.2160317e-005
5.0806404e-006
-4.7239336e-007
5.1754339e-006
-5.5596771e-007
5.2600862e-006
-4.9655331e-007
5.3287253e-006
-4.0799261e-007
5.3849782e-006
-3.4004571e-007
5.4319478e-006
-2.8781171e-007
5.471252e-006
-2.4407296e-007
5.5059758e-006
-2.1811213e-007
5.5386396e-006
-2.0708063e-007
5.5724026e-006
-2.1587009e-007
5.6106416e-006
-2.4597964e-007
5.6577094e-006
-3.0414014e-007
5.7188893e-006
-3.9698472e-007
5.8014287e-006
-5.3797864e-007
5.9155922e-006
-7.4793503e-007
6.0758565e-006
-1.0561532e-006
6.3032501e-006
-1.5137808e-006
6.6298725e-006
-2.199344e-006
7.10101e-006
-3.2231456e-006
7.8073634e-006
-4.888841e-006
8.8994631e-006
-7.6013566e-006
1.0677854e-005
-1.2472461e-005
1.3293233e-005
-1.9172561e-005
1.6716647e-005
-2.602696e-005
-3.0175748e-005
2.0327132e-005
5.0815489e-006
-5.5266191e-007
5.1774728e-006
-6.5189164e-007
5.2634074e-006
-5.8248788e-007
5.3323534e-006
-4.7693865e-007
5.3882738e-006
-3.9596612e-007
5.434568e-006
-3.3410591e-007
5.4729581e-006
-2.824631e-007
5.5066155e-006
-2.5176947e-007
5.5380827e-006
-2.3854782e-007
5.5704289e-006
-2.4821632e-007
5.6068995e-006
-2.8245024e-007
5.651653e-006
-3.4889362e-007
5.7096816e-006
-4.5501332e-007
5.7877307e-006
-6.160278e-007
5.8953089e-006
-8.5551319e-007
6.0456967e-006
-1.206541e-006
6.2576732e-006
-1.7257573e-006
6.5596756e-006
-2.5013465e-006
6.9900534e-006
-3.6535234e-006
7.627973e-006
-5.5267606e-006
8.5976867e-006
-8.5710704e-006
1.0164436e-005
-1.4039209e-005
1.2383464e-005
-2.1391589e-005
1.5351362e-005
-2.8994858e-005
-3.3139902e-005
1.8315517e-005
5.0829297e-006
-6.3431133e-007
5.1801369e-006
-7.4909882e-007
5.2674467e-006
-6.6979768e-007
5.3367278e-006
-5.4621976e-007
5.3921888e-006
-4.5142707e-007
5.4376813e-006
-3.7959843e-007
5.4749887e-006
-3.1977053e-007
5.5074007e-006
-2.8418141e-007
5.5374782e-006
-2.6862533e-007
5.5681964e-006
-2.7893453e-007
5.602644e-006
-3.1689787e-007
5.6447422e-006
-3.9099186e-007
5.6991622e-006
-5.0943329e-007
5.7720967e-006
-6.8896226e-007
5.872196e-006
-9.5561247e-007
6.0114152e-006
-1.3457603e-006
6.2061964e-006
-1.9205385e-006
6.4808107e-006
-2.7759608e-006
6.8660049e-006
-4.0387176e-006
7.4265005e-006
-6.0872562e-006
8.2540676e-006
-9.3986375e-006
9.5646635e-006
-1.5349805e-005
1.1328543e-005
-2.3155469e-005
1.3838215e-005
-3.1504531e-005
-3.5222592e-005
1.5920905e-005
5.0848609e-006
-7.1789187e-007
5.1835351e-006
-8.47773e-007
5.2722053e-006
-7.5846791e-007
5.3419006e-006
-6.1591506e-007
5.3967128e-006
-5.0623923e-007
5.4412866e-006
-4.2417226e-007
5.4773266e-006
-3.5581048e-007
5.5083194e-006
-3.1517423e-007
5.5368168e-006
-2.9712273e-007
5.5657019e-006
-3.0781963e-007
5.5978951e-006
-3.490911e-007
5.6370261e-006
-4.3012283e-007
5.6874116e-006
-5.5981883e-007
5.7546722e-006
-7.5622284e-007
5.8465161e-006
-1.0474563e-006
5.9734735e-006
-1.4727177e-006
6.1495745e-006
-2.0966396e-006
6.3944243e-006
-3.0208106e-006
6.7306583e-006
-4.3749516e-006
7.207198e-006
-6.5637959e-006
7.8741519e-006
-1.0065592e-005
8.8866186e-006
-1.6362272e-005
1.0152516e-005
-2.4421366e-005
1.2164838e-005
-3.3516853e-005
-3.6018809e-005
1.2961055e-005
5.0870282e-006
-8.0363972e-007
5.1879647e-006
-9.4870947e-007
5.2776999e-006
-8.4820307e-007
5.3478618e-006
-6.8607702e-007
5.4018862e-006
-5.6026355e-007
5.4453388e-006
-4.6762484e-007
5.4799567e-006
-3.9042838e-007
5.5093348e-006
-3.4455239e-007
5.5360826e-006
-3.2387045e-007
5.5629304e-006
-3.3466751e-007
5.5926439e-006
-3.7880458e-007
5.6285357e-006
-4.6601458e-007
5.6745278e-006
-6.0581091e-007
5.7356408e-006
-8.1733589e-007
5.8185585e-006
-1.130374e-006
5.9323482e-006
-1.5865074e-006
6.0883401e-006
-2.2526316e-006
6.3016489e-006
-3.2341194e-006
6.5870093e-006
-4.6603121e-006
6.9746203e-006
-6.9514069e-006
7.4792941e-006
-1.0570265e-005
8.1630122e-006
-1.704599e-005
8.8874809e-006
-2.5145835e-005
1.0010285e-005
-3.4639657e-005
8.8367828e-006
-3.4845306e-005
3.04304e-005
-3.9022154e-006
3.2427941e-005
-1.997542e-006
3.317949e-005
-7.5154833e-007
3.3326668e-005
-1.4717803e-007
3.3272507e-005
5.4161041e-008
3.3215532e-005
5.6974419e-008
3.319539e-005
2.0142338e-008
3.3192934e-005
2.4556069e-009
3.3193579e-005
-6.4498591e-010
3.3193734e-005
-1.5467e-010
3.319364e-005
9.3528136e-011
3.3193585e-005
5.5716743e-011
3.3193577e-005
7.6440336e-012
3.319358e-005
-2.663596e-012
3.3193581e-005
-1.1593813e-012
3.3193581e-005
-3.3384488e-013
3.3193582e-005
-5.5562261e-013
3.3193582e-005
2.4212388e-013
3.3193581e-005
5.2317404e-013
3.3193582e-005
-1.2074015e-012
3.3193583e-005
-5.7002993e-013
3.3193582e-005
8.0519977e-013
3.319358e-005
2.1557603e-012
3.3193561e-005
1.9366958e-011
1.8332707e-011
2.9491134e-005
-7.3141962e-006
3.1213966e-005
-3.7203743e-006
3.1821797e-005
-1.3593785e-006
3.1959279e-005
-2.8466071e-007
3.191823e-005
9.5210115e-008
3.187499e-005
1.0021472e-007
3.1858546e-005
3.6586796e-008
3.1856483e-005
4.5179545e-009
3.1856874e-005
-1.0353964e-009
3.1857003e-005
-2.8391698e-010
3.185693e-005
1.6655218e-010
3.1856889e-005
9.6268541e-011
3.1856882e-005
1.4493842e-011
3.1856884e-005
-4.7545432e-012
3.1856886e-005
-2.2809225e-012
3.1856886e-005
-1.0289659e-012
3.1856887e-005
-9.7123721e-013
3.1856886e-005
5.8902122e-013
3.1856886e-005
5.9812306e-013
3.1856887e-005
-1.6186604e-012
3.1856887e-005
-5.8593607e-013
3.1856886e-005
1.3789538e-012
3.1856885e-005
3.726612e-012
3.1856874e-005
3.0380065e-011
2.9095109e-011
2.7800683e-005
-9.9891572e-006
2.8967912e-005
-4.8876033e-006
2.9352861e-005
-1.7443273e-006
2.9442703e-005
-3.7450241e-007
2.9424835e-005
1.1307773e-007
2.9402752e-005
1.2229795e-007
2.9393475e-005
4.5863142e-008
2.9392079e-005
5.9142382e-009
2.9392181e-005
-1.1369656e-009
2.9392247e-005
-3.5038273e-010
2.9392212e-005
2.0199188e-010
2.9392193e-005
1.1530563e-010
2.9392189e-005
1.8213953e-011
2.939219e-005
-5.8958325e-012
2.9392191e-005
-3.0945723e-012
2.9392191e-005
-1.4053631e-012
2.9392191e-005
-1.1465469e-012
2.9392192e-005
2.7739824e-013
2.9392192e-005
-9.2800558e-014
2.9392192e-005
-9.0748678e-013
2.9392191e-005
3.5396101e-013
2.9392191e-005
1.5779388e-012
2.9392191e-005
3.4368324e-012
2.9392192e-005
2.9136453e-011
2.8585263e-011
2.5545936e-005
-1.1738652e-005
2.6047906e-005
-5.3895738e-006
2.6140102e-005
-1.8365227e-006
2.6157976e-005
-3.9237709e-007
2.616115e-005
1.099041e-007
2.6162178e-005
1.2126985e-007
2.6161067e-005
4.6973703e-008
2.6160656e-005
6.3254848e-009
2.6160528e-005
-1.0090248e-009
2.6160534e-005
-3.5608017e-010
2.6160536e-005
1.9993843e-010
2.6160539e-005
1.1185178e-010
2.616054e-005
1.7739662e-011
2.616054e-005
-6.2822666e-012
2.616054e-005
-3.2940284e-012
2.616054e-005
-1.107761e-012
2.616054e-005
-1.1600991e-012
2.6160541e-005
-8.6098632e-013
2.6160541e-005
-6.1490874e-013
2.616054e-005
4.6550272e-013
2.6160539e-005
1.2146958e-012
2.616054e-005
1.1933421e-012
2.6160542e-005
1.3375027e-012
2.6160555e-005
1.6466914e-011
1.7356607e-011
2.2960709e-005
-1.2539044e-005
2.279747e-005
-5.2263343e-006
2.257803e-005
-1.6170827e-006
2.25292e-005
-3.4354782e-007
2.2544744e-005
9.436012e-008
2.2562857e-005
1.0315706e-007
2.2568683e-005
4.1147735e-008
2.2569341e-005
5.6671631e-009
2.2569109e-005
-7.7656949e-010
2.256907e-005
-3.1732777e-010
2.25691e-005
1.6971113e-010
2.2569121e-005
9.1138907e-011
2.2569125e-005
1.4018115e-011
2.2569124e-005
-6.0558634e-012
2.2569124e-005
-2.9578942e-012
2.2569124e-005
-7.3596989e-013
2.2569124e-005
-1.0766771e-012
2.2569124e-005
-1.6088839e-012
2.2569124e-005
-3.9701009e-013
2.2569123e-005
1.2631151e-012
2.2569124e-005
1.0207242e-012
2.2569124e-005
4.2556074e-013
2.2569127e-005
-1.2679523e-012
2.2569146e-005
-2.4552269e-012
-2.6464473e-013
2.0166283e-005
-1.2378195e-005
1.9399164e-005
-4.4592152e-006
1.8969844e-005
-1.1877624e-006
1.8879777e-005
-2.5348113e-007
1.8898453e-005
7.5684535e-008
1.8924764e-005
7.6845666e-008
1.8934897e-005
3.1014685e-008
1.8936379e-005
4.1851729e-009
1.8936141e-005
-5.3825148e-010
1.8936076e-005
-2.5320191e-010
1.8936122e-005
1.2450789e-010
1.8936151e-005
6.1912026e-011
1.8936156e-005
9.0090515e-012
1.8936155e-005
-5.3233116e-012
1.8936154e-005
-2.264179e-012
1.8936154e-005
-5.1631163e-013
1.8936154e-005
-8.4816928e-013
1.8936154e-005
-1.4900102e-012
1.8936154e-005
-1.2282098e-013
1.8936154e-005
1.1211907e-012
1.8936154e-005
4.9116181e-013
1.8936155e-005
-2.6416634e-013
1.8936157e-005
-3.5270547e-012
1.8936174e-005
-1.8997422e-011
-1.5799286e-011
1.7087949e-005
-1.1150627e-005
1.5893732e-005
-3.2649983e-006
1.5424688e-005
-7.1871771e-007
1.5317812e-005
-1.4660609e-007
1.5335996e-005
5.7501251e-008
1.5363786e-005
4.9055025e-008
1.5375294e-005
1.9506995e-008
1.537707e-005
2.4095504e-009
1.5376863e-005
-3.3127621e-010
1.5376789e-005
-1.7950143e-010
1.5376836e-005
7.6922731e-011
1.5376865e-005
3.3340799e-011
1.5376869e-005
4.5250344e-012
1.5376868e-005
-4.1405877e-012
1.5376867e-005
-1.4515137e-012
1.5376867e-005
-3.6507939e-013
1.5376867e-005
-4.851404e-013
1.5376866e-005
-9.8909586e-013
1.5376866e-005
-4.1837623e-014
1.5376867e-005
6.7265632e-013
1.5376867e-005
1.2298856e-013
1.5376868e-005
-7.0830295e-013
1.5376869e-005
-4.6831465e-012
1.5376876e-005
-2.5765612e-011
-2.2230376e-011
1.3517592e-005
-8.7473142e-006
1.2190128e-005
-1.9375344e-006
1.1796677e-005
-3.252669e-007
1.1705231e-005
-5.5159465e-008
1.1725432e-005
3.7299753e-008
1.175e-005
2.4487322e-008
1.1760157e-005
9.3497261e-009
1.1761641e-005
9.2544907e-010
1.176147e-005
-1.5972609e-010
1.1761397e-005
-1.0733253e-010
1.1761438e-005
3.6662333e-011
1.1761459e-005
1.2178499e-011
1.1761462e-005
1.524579e-012
1.176146e-005
-2.5555091e-012
1.1761459e-005
-7.0202638e-013
1.1761459e-005
-2.2042608e-013
1.1761459e-005
-2.0850984e-013
1.1761458e-005
-4.9229319e-013
1.1761458e-005
-1.9179048e-015
1.1761459e-005
3.1728149e-013
1.1761459e-005
-3.8452858e-014
1.1761459e-005
-7.887844e-013
1.1761458e-005
-4.0009932e-012
1.1761453e-005
-2.0698809e-011
-1.792897e-011
9.2213708e-006
-5.0076294e-006
8.0153696e-006
-7.3153315e-007
7.7627158e-006
-7.2613148e-008
7.7158479e-006
-8.2915252e-009
7.7377054e-006
1.5442131e-008
7.7555781e-006
6.6146148e-009
7.7622853e-006
2.6424227e-009
7.7631152e-006
9.5587645e-011
7.7629886e-006
-3.3149309e-011
7.7629245e-006
-4.3250318e-011
7.7629508e-006
1.0360068e-011
7.7629618e-006
1.1973975e-012
7.7629631e-006
1.727631e-013
7.7629615e-006
-9.5363013e-013
7.762961e-006
-1.9144872e-013
7.7629609e-006
-8.5135376e-014
7.7629607e-006
-4.3021713e-014
7.7629603e-006
-1.4908733e-013
7.7629603e-006
1.7322795e-015
7.7629606e-006
8.2637358e-014
7.7629606e-006
-4.0429519e-014
7.7629603e-006
-4.2041404e-013
7.7629581e-006
-1.8044965e-012
7.762946e-006
-8.5899624e-012
-7.4052466e-012
3.8291534e-006
3.0976203e-006
3.0250071e-006
3.0167156e-006
3.0321577e-006
3.0387723e-006
3.0414147e-006
3.0415103e-006
3.0414771e-006
3.0414339e-006
3.0414442e-006
3.0414454e-006
3.0414456e-006
3.0414446e-006
3.0414444e-006
3.0414444e-006
3.0414443e-006
3.0414442e-006
3.0414442e-006
3.0414443e-006
3.0414442e-006
3.0414438e-006
3.041442e-006
3.0414334e-006
1.5268372e-005
-1.0681709e-006
1.560208e-005
-1.2824178e-006
1.5871808e-005
-1.117931e-006
1.6083203e-005
-8.9747144e-007
1.624223e-005
-7.1929102e-007
1.6362675e-005
-5.8806969e-007
1.6457519e-005
-4.8527195e-007
1.6534619e-005
-4.2165222e-007
1.6603308e-005
-3.9255939e-007
1.6670431e-005
-4.0179124e-007
1.674348e-005
-4.5185281e-007
1.6830125e-005
-5.5265994e-007
1.6939831e-005
-7.1551733e-007
1.7083826e-005
-9.6133052e-007
1.7275477e-005
-1.3220253e-006
1.7533052e-005
-1.8440824e-006
1.7874617e-005
-2.5941965e-006
1.831857e-005
-3.6780726e-006
1.887844e-005
-5.2201814e-006
1.9504963e-005
-7.5779303e-006
2.0160843e-005
-1.1226146e-005
2.0277448e-005
-1.7162595e-005
1.9233561e-005
-2.4101948e-005
1.4649381e-005
-3.0055478e-005
-2.0195926e-005
1.529945e-005
-1.3637796e-006
1.5670598e-005
-1.6535665e-006
1.5955567e-005
-1.4028995e-006
1.616508e-005
-1.1069849e-006
1.6311009e-005
-8.6522002e-007
1.641344e-005
-6.9050014e-007
1.6488236e-005
-5.6006863e-007
1.6544908e-005
-4.783234e-007
1.6591794e-005
-4.3944541e-007
1.6634663e-005
-4.446605e-007
1.6678891e-005
-4.9608087e-007
1.6728881e-005
-6.0264975e-007
1.6789735e-005
-7.7637174e-007
1.6866478e-005
-1.0380732e-006
1.6963672e-005
-1.4192195e-006
1.7085139e-005
-1.965549e-006
1.7230488e-005
-2.7395455e-006
1.7389123e-005
-3.8367075e-006
1.753362e-005
-5.3646787e-006
1.7547449e-005
-7.5917598e-006
1.7210762e-005
-1.0889458e-005
1.5876276e-005
-1.5828109e-005
1.2909738e-005
-2.1135409e-005
6.7346857e-006
-2.3880426e-005
-1.346124e-005
1.5355519e-005
-1.7154575e-006
1.5777606e-005
-2.0756537e-006
1.6082279e-005
-1.7075723e-006
1.6280466e-005
-1.3051721e-006
1.6404557e-005
-9.8931149e-007
1.6480976e-005
-7.6691837e-007
1.6529916e-005
-6.0900933e-007
1.6561534e-005
-5.0994105e-007
1.6583127e-005
-4.6103831e-007
1.6598785e-005
-4.6031913e-007
1.6611332e-005
-5.0862695e-007
1.6621864e-005
-6.131822e-007
1.6631228e-005
-7.8573586e-007
1.6638305e-005
-1.0451497e-006
1.6639331e-005
-1.4202459e-006
1.6626577e-005
-1.9527947e-006
1.6584846e-005
-2.6978146e-006
1.6481304e-005
-3.7331653e-006
1.6262849e-005
-5.1462238e-006
1.5786815e-005
-7.1157268e-006
1.4790713e-005
-9.8933561e-006
1.2694466e-005
-1.3731863e-005
9.0620585e-006
-1.7503001e-005
3.5083984e-006
-1.8326765e-005
-9.9528414e-006
1.5476412e-005
-2.1880288e-006
1.5984589e-005
-2.5838301e-006
1.6305043e-005
-2.0280271e-006
1.6477033e-005
-1.4771616e-006
1.6564215e-005
-1.0764934e-006
1.6604479e-005
-8.07183e-007
1.6620778e-005
-6.2530832e-007
1.6623023e-005
-5.1218599e-007
1.6616609e-005
-4.5462344e-007
1.6603327e-005
-4.4703798e-007
1.6583267e-005
-4.8856634e-007
1.6554217e-005
-5.841328e-007
1.651252e-005
-7.4403806e-007
1.6451572e-005
-9.8420209e-007
1.6360997e-005
-1.3296707e-006
1.6223876e-005
-1.8156745e-006
1.6013723e-005
-2.4876617e-006
1.5684912e-005
-3.4043543e-006
1.517057e-005
-4.6318809e-006
1.4336771e-005
-6.2819281e-006
1.295228e-005
-8.5088648e-006
1.0589219e-005
-1.1368803e-005
6.9900242e-006
-1.3903806e-005
2.3943843e-006
-1.3731125e-005
-7.5584571e-006
1.5750432e-005
-2.9346203e-006
1.6391309e-005
-3.2247072e-006
1.6707728e-005
-2.3444452e-006
1.6825067e-005
-1.5945009e-006
1.6852816e-005
-1.1042425e-006
1.6843838e-005
-7.9820492e-007
1.6820331e-005
-6.0180155e-007
1.6789461e-005
-4.8131569e-007
1.6753305e-005
-4.184672e-007
1.671061e-005
-4.0434313e-007
1.6658559e-005
-4.3651611e-007
1.6591446e-005
-5.1701925e-007
1.6501458e-005
-6.5405063e-007
1.6377548e-005
-8.6029202e-007
1.6204023e-005
-1.1561453e-006
1.5957008e-005
-1.5686595e-006
1.5602324e-005
-2.132978e-006
1.5088112e-005
-2.890142e-006
1.4341976e-005
-3.8857448e-006
1.3247016e-005
-5.1869679e-006
1.1620088e-005
-6.8819369e-006
9.179615e-006
-8.92833e-006
5.8138542e-006
-1.0538045e-005
2.0322786e-006
-9.9495497e-006
-5.5261785e-006
1.6238892e-005
-4.1696714e-006
1.6982214e-005
-3.9680293e-006
1.7222941e-005
-2.5851725e-006
1.7234889e-005
-1.606449e-006
1.7174572e-005
-1.0439253e-006
1.7102135e-005
-7.2576723e-007
1.7032649e-005
-5.3231608e-007
1.6966458e-005
-4.1512504e-007
1.6900525e-005
-3.5253338e-007
1.6829917e-005
-3.3373512e-007
1.6748142e-005
-3.5474196e-007
1.6646433e-005
-4.1530972e-007
1.6513605e-005
-5.2122267e-007
1.6335339e-005
-6.8202567e-007
1.6090998e-005
-9.1180466e-007
1.5752203e-005
-1.2298645e-006
1.52809e-005
-1.661675e-006
1.4623185e-005
-2.2324274e-006
1.37075e-005
-2.9700598e-006
1.2433164e-005
-3.912632e-006
1.0658911e-005
-5.107683e-006
8.2139447e-006
-6.4833642e-006
5.1021273e-006
-7.4262277e-006
1.8648993e-006
-6.7123217e-006
-3.6612791e-006
1.6728916e-005
-5.8947465e-006
1.7275594e-005
-4.514707e-006
1.7265896e-005
-2.5754751e-006
1.710177e-005
-1.442323e-006
1.6929071e-005
-8.7122646e-007
1.6785178e-005
-5.8187422e-007
1.6668514e-005
-4.1565157e-007
1.6569055e-005
-3.156662e-007
1.6477348e-005
-2.6082684e-007
1.6384303e-005
-2.4068991e-007
1.6279789e-005
-2.5022733e-007
1.615306e-005
-2.885813e-007
1.5990356e-005
-3.5851832e-007
1.577493e-005
-4.6659965e-007
1.5483476e-005
-6.2035127e-007
1.5086123e-005
-8.3251139e-007
1.4543179e-005
-1.1187309e-006
1.3802994e-005
-1.4922427e-006
1.2800447e-005
-1.967512e-006
1.1451349e-005
-2.5635349e-006
9.6474255e-006
-3.3037592e-006
7.2864867e-006
-4.1224253e-006
4.4437833e-006
-4.5835242e-006
1.6472569e-006
-3.9157952e-006
-2.0140222e-006
1.6486407e-005
-7.3773125e-006
1.6142404e-005
-4.1707036e-006
1.5648838e-005
-2.0819096e-006
1.5253293e-005
-1.0467775e-006
1.4968143e-005
-5.8607661e-007
1.4762513e-005
-3.7624457e-007
1.4609155e-005
-2.6229392e-007
1.4487319e-005
-1.9382989e-007
1.4381566e-005
-1.5507344e-007
1.4279392e-005
-1.3851652e-007
1.416878e-005
-1.3961459e-007
1.4037735e-005
-1.5753665e-007
1.3872196e-005
-1.9297989e-007
1.3654812e-005
-2.4921559e-007
1.3364153e-005
-3.2969151e-007
1.2972468e-005
-4.4082712e-007
1.2442079e-005
-5.8834189e-007
1.1729636e-005
-7.7979938e-007
1.0781897e-005
-1.0197727e-006
9.5335426e-006
-1.315181e-006
7.9052956e-006
-1.6755121e-006
5.8391893e-006
-2.0563191e-006
3.4545651e-006
-2.1988999e-006
1.2448314e-006
-1.7060615e-006
-7.6919067e-007
1.4334e-005
-6.7074719e-006
1.2503156e-005
-2.3398596e-006
1.1405819e-005
-9.8457284e-007
1.081073e-005
-4.5168773e-007
1.0464535e-005
-2.3988227e-007
1.0238199e-005
-1.499083e-007
1.0078902e-005
-1.0299707e-007
9.9594106e-006
-7.4338276e-008
9.8619227e-006
-5.7585568e-008
9.7730214e-006
-4.9615225e-008
9.6816778e-006
-4.8271023e-008
9.5770841e-006
-5.2942899e-008
9.4478748e-006
-6.3770602e-008
9.2800469e-006
-8.1387724e-008
9.0573346e-006
-1.0697924e-007
8.7587097e-006
-1.422022e-007
8.3581155e-006
-1.8774774e-007
7.8249121e-006
-2.4659602e-007
7.1234606e-006
-3.1832121e-007
6.2120749e-006
-4.0379533e-007
5.0414421e-006
-5.048793e-007
3.5867905e-006
-6.0166748e-007
1.9850005e-006
-5.9710979e-007
6.4214752e-007
-3.6320848e-007
-1.270431e-007
8.296369e-006
5.9565094e-006
4.9719366e-006
4.5202488e-006
4.2803665e-006
4.1304582e-006
4.0274612e-006
3.9531229e-006
3.8955373e-006
3.8459221e-006
3.7976511e-006
3.7447082e-006
3.6809376e-006
3.5995498e-006
3.4925706e-006
3.3503684e-006
3.1626206e-006
2.9160246e-006
2.5977034e-006
2.193908e-006
1.6890287e-006
1.0873613e-006
4.9025153e-007
1.270431e-007
)
;

boundaryField
{
    inlet
    {
        type            calculated;
        value           nonuniform List<scalar> 
20
(
-5.0012803e-006
-5.0012803e-006
-5.0012803e-006
-5.0012803e-006
-5.0012803e-006
-5.0012803e-006
-5.0012803e-006
-5.0012803e-006
-5.0012803e-006
-5.0012803e-006
-1.5003841e-005
-1.5003841e-005
-1.5003841e-005
-1.5003841e-005
-1.5003841e-005
-1.5003841e-005
-1.5003841e-005
-1.5003841e-005
-1.5003841e-005
-1.5003841e-005
)
;
    }
    walls
    {
        type            calculated;
        value           uniform 0;
    }
    outlet
    {
        type            calculated;
        value           nonuniform List<scalar> 10(3.3193542e-005 3.1856863e-005 2.9392193e-005 2.6160566e-005 2.2569164e-005 1.8936189e-005 1.5376882e-005 1.1761449e-005 7.7629355e-006 3.041426e-006);
    }
    centreline
    {
        type            symmetryPlane;
        value           uniform 0;
    }
    frontAndBack
    {
        type            empty;
        value           nonuniform 0();
    }
}


// ************************************************************************* //
