/*--------------------------------*- C++ -*----------------------------------*\
| =========                 |                                                 |
| \\      /  F ield         | OpenFOAM: The Open Source CFD Toolbox           |
|  \\    /   O peration     | Version:  5.x                                   |
|   \\  /    A nd           | Web:      www.OpenFOAM.org                      |
|    \\/     M anipulation  |                                                 |
\*---------------------------------------------------------------------------*/
/*   Windows 32 and 64 bit porting by blueCAPE: http://www.bluecape.com.pt   *\
|  Based on Windows porting (2.0.x v4) by Symscape: http://www.symscape.com   |
\*---------------------------------------------------------------------------*/
FoamFile
{
    version     2.0;
    format      ascii;
    class       surfaceScalarField;
    location    "0.08";
    object      phi_0;
}
// * * * * * * * * * * * * * * * * * * * * * * * * * * * * * * * * * * * * * //

dimensions      [0 3 -1 0 0 0 0];

internalField   nonuniform List<scalar> 
1430
(
5.0800805e-006
-7.8800151e-008
5.1701427e-006
-9.0062175e-008
5.2520987e-006
-8.1955977e-008
5.3192569e-006
-6.7158242e-008
5.376045e-006
-5.6788065e-008
5.424571e-006
-4.852597e-008
5.4659962e-006
-4.1425266e-008
5.5033509e-006
-3.7354693e-008
5.5389945e-006
-3.5643595e-008
5.5763729e-006
-3.7378348e-008
5.6191052e-006
-4.2732304e-008
5.6721127e-006
-5.3007558e-008
5.7414947e-006
-6.9381989e-008
5.8357345e-006
-9.4239811e-008
5.9671912e-006
-1.3145669e-007
6.1533644e-006
-1.8617319e-007
6.4218591e-006
-2.6849462e-007
6.8143729e-006
-3.9251386e-007
7.3940697e-006
-5.7969683e-007
8.2799364e-006
-8.8586667e-007
9.6448271e-006
-1.3648907e-006
1.1914857e-005
-2.2700301e-006
1.5443422e-005
-3.5285645e-006
2.0469675e-005
-5.0262529e-006
-6.0571052e-006
2.652678e-005
5.0794578e-006
-1.569776e-007
5.1710104e-006
-1.8161476e-007
5.2523801e-006
-1.6332567e-007
5.3198329e-006
-1.3461098e-007
5.3765985e-006
-1.1355367e-007
5.4249306e-006
-9.6858026e-008
5.4662711e-006
-8.276575e-008
5.5033986e-006
-7.4482266e-008
5.5388501e-006
-7.1095052e-008
5.5759703e-006
-7.4498495e-008
5.6184056e-006
-8.5167627e-008
5.6709977e-006
-1.0559964e-007
5.739808e-006
-1.3819233e-007
5.8332618e-006
-1.8769359e-007
5.9634679e-006
-2.616628e-007
6.1479302e-006
-3.7063549e-007
6.413454e-006
-5.3401841e-007
6.8012857e-006
-7.8034552e-007
7.3739164e-006
-1.1523275e-006
8.2448511e-006
-1.7568014e-006
9.6019877e-006
-2.7220273e-006
1.1823482e-005
-4.4915242e-006
1.5330736e-005
-7.0358184e-006
2.0170517e-005
-9.8660346e-006
-1.1965078e-005
2.607849e-005
5.0795202e-006
-2.3521748e-007
5.1715742e-006
-2.7366876e-007
5.2532796e-006
-2.4503106e-007
5.3209669e-006
-2.0229827e-007
5.3775935e-006
-1.7018025e-007
5.4257515e-006
-1.4501604e-007
5.4667717e-006
-1.2378589e-007
5.5035552e-006
-1.1126581e-007
5.5385934e-006
-1.0613326e-007
5.57522e-006
-1.1112508e-007
5.6170518e-006
-1.2699938e-007
5.6688438e-006
-1.5739161e-007
5.7365271e-006
-2.0587569e-007
5.8283794e-006
-2.795459e-007
5.9562472e-006
-3.8953058e-007
6.1371101e-006
-5.5149836e-007
6.3970061e-006
-7.9391437e-007
6.775739e-006
-1.1590785e-006
7.3331638e-006
-1.7097523e-006
8.1803267e-006
-2.6039644e-006
9.5023393e-006
-4.04404e-006
1.1668823e-005
-6.6580083e-006
1.5051864e-005
-1.0418859e-005
1.9656259e-005
-1.447043e-005
-1.7434742e-005
2.5125924e-005
5.0796581e-006
-3.1359526e-007
5.1723813e-006
-3.6639191e-007
5.2547435e-006
-3.2739333e-007
5.3226556e-006
-2.7021029e-007
5.379154e-006
-2.2667867e-007
5.4269999e-006
-1.92862e-007
5.4675683e-006
-1.6435425e-007
5.5038239e-006
-1.4752145e-007
5.5382533e-006
-1.4056264e-007
5.5741477e-006
-1.4701946e-007
5.6150689e-006
-1.6792058e-007
5.6656633e-006
-2.0798603e-007
5.7316858e-006
-2.7189811e-007
5.8211604e-006
-3.6902056e-007
5.9455297e-006
-5.138999e-007
6.1210923e-006
-7.2706095e-007
6.3726252e-006
-1.0454472e-006
6.7379396e-006
-1.5243929e-006
7.2730693e-006
-2.244882e-006
8.0848183e-006
-3.4157134e-006
9.3535314e-006
-5.3127532e-006
1.1432689e-005
-8.7371659e-006
1.4628137e-005
-1.3614307e-005
1.889789e-005
-1.8740183e-005
-2.2333884e-005
2.3797032e-005
5.0799406e-006
-3.9225556e-007
5.1734964e-006
-4.5994765e-007
5.2567782e-006
-4.1067518e-007
5.3249356e-006
-3.3836767e-007
5.38127e-006
-2.8301308e-007
5.4286808e-006
-2.4027274e-007
5.4686517e-006
-2.0432522e-007
5.5042003e-006
-1.8307e-007
5.5378232e-006
-1.7418558e-007
5.572752e-006
-1.8194823e-007
5.6124654e-006
-2.0763395e-007
5.6614759e-006
-2.5699655e-007
5.7253215e-006
-3.3574373e-007
5.8116761e-006
-4.5537517e-007
5.9314485e-006
-6.3367223e-007
6.1001064e-006
-8.9571885e-007
6.3407374e-006
-1.2860783e-006
6.6885592e-006
-1.8722147e-006
7.1947712e-006
-2.7510941e-006
7.959625e-006
-4.1805672e-006
9.1520568e-006
-6.505185e-006
1.1103125e-005
-1.0688234e-005
1.404309e-005
-1.6554272e-005
1.7912555e-005
-2.2609648e-005
-2.6582065e-005
2.2160737e-005
5.0804717e-006
-4.7144689e-007
5.1750157e-006
-5.5449166e-007
5.2594183e-006
-4.9507783e-007
5.3278577e-006
-4.0680703e-007
5.3839564e-006
-3.3911176e-007
5.4308148e-006
-2.8713113e-007
5.4700338e-006
-2.4354425e-007
5.5046972e-006
-2.1773335e-007
5.5373179e-006
-2.0680632e-007
5.5710518e-006
-2.1568213e-007
5.6092722e-006
-2.4585427e-007
5.6563275e-006
-3.0405192e-007
5.7174982e-006
-3.9691444e-007
5.8000293e-006
-5.3790624e-007
5.9141794e-006
-7.4782226e-007
6.07442e-006
-1.0559595e-006
6.3017705e-006
-1.5134288e-006
6.6283212e-006
-2.1987654e-006
7.0993213e-006
-3.2220942e-006
7.8053377e-006
-4.8865837e-006
8.8968423e-006
-7.5966897e-006
1.0674706e-005
-1.2466098e-005
1.3290669e-005
-1.9170235e-005
1.6715847e-005
-2.6034825e-005
-3.0193043e-005
2.0326824e-005
5.0813694e-006
-5.5153594e-007
5.1770414e-006
-6.5016371e-007
5.2627257e-006
-5.8076205e-007
5.3314719e-006
-4.7555322e-007
5.3872391e-006
-3.9487897e-007
5.4334237e-006
-3.3331581e-007
5.4717307e-006
-2.818512e-007
5.5053295e-006
-2.5133213e-007
5.5367553e-006
-2.382321e-007
5.5690739e-006
-2.480007e-007
5.6055271e-006
-2.8230756e-007
5.6502697e-006
-3.4879445e-007
5.7082907e-006
-4.549355e-007
5.7863337e-006
-6.1594918e-007
5.8939016e-006
-8.553902e-007
6.0442709e-006
-1.2063288e-006
6.2562126e-006
-1.7253705e-006
6.5581553e-006
-2.5007082e-006
6.9884188e-006
-3.6523577e-006
7.6260441e-006
-5.5242091e-006
8.5952685e-006
-8.5659142e-006
1.0161747e-005
-1.4032577e-005
1.2381604e-005
-2.1390092e-005
1.5351225e-005
-2.9004446e-005
-3.3156665e-005
1.8314846e-005
5.0827381e-006
-6.3299367e-007
5.1796902e-006
-7.4711581e-007
5.2667486e-006
-6.6782044e-007
5.3358302e-006
-5.4463485e-007
5.3911391e-006
-4.5018789e-007
5.4365242e-006
-3.7870091e-007
5.4737509e-006
-3.1907782e-007
5.5061064e-006
-2.8368765e-007
5.5361445e-006
-2.6827025e-007
5.5668368e-006
-2.7869294e-007
5.6012685e-006
-3.1673931e-007
5.6433575e-006
-3.9088337e-007
5.6977717e-006
-5.0934978e-007
5.7707024e-006
-6.8887983e-007
5.8707952e-006
-9.5548298e-007
6.0100014e-006
-1.345535e-006
6.2047564e-006
-1.9201255e-006
6.4793254e-006
-2.7752772e-006
6.8644286e-006
-4.0374609e-006
7.4246816e-006
-6.0844621e-006
8.2518673e-006
-9.3931e-006
9.5623816e-006
-1.5343091e-005
1.1327111e-005
-2.3154822e-005
1.3838574e-005
-3.1515909e-005
-3.5239073e-005
1.5920983e-005
5.084656e-006
-7.1636937e-007
5.1830724e-006
-8.4553216e-007
5.2714882e-006
-7.5623626e-007
5.3409854e-006
-6.1413204e-007
5.3956465e-006
-5.0484889e-007
5.4401157e-006
-4.2317016e-007
5.4760775e-006
-3.5503964e-007
5.5070164e-006
-3.1462651e-007
5.5354768e-006
-2.9673067e-007
5.5643379e-006
-3.0755401e-007
5.5965168e-006
-3.4891819e-007
5.6356402e-006
-4.3000675e-007
5.6860222e-006
-5.5973176e-007
5.7532815e-006
-7.5613919e-007
5.8451228e-006
-1.0473242e-006
5.9720727e-006
-1.4724849e-006
6.1481568e-006
-2.0962095e-006
6.3929779e-006
-3.0200983e-006
6.7291438e-006
-4.3736268e-006
7.2054909e-006
-6.5608092e-006
7.8721557e-006
-1.0059765e-005
8.8845802e-006
-1.6355515e-005
1.0151236e-005
-2.4421477e-005
1.2165456e-005
-3.3530129e-005
-3.6035473e-005
1.2961856e-005
5.0868115e-006
-8.019005e-007
5.1874844e-006
-9.4620505e-007
5.2769629e-006
-8.457147e-007
5.3469275e-006
-6.8409669e-007
5.4008024e-006
-5.5872379e-007
5.4441533e-006
-4.6652106e-007
5.4786965e-006
-3.8958277e-007
5.5080233e-006
-3.4395331e-007
5.5347368e-006
-3.2344414e-007
5.5615628e-006
-3.3438002e-007
5.5912637e-006
-3.7861911e-007
5.6271497e-006
-4.6589271e-007
5.6731405e-006
-6.0572251e-007
5.734255e-006
-8.1725373e-007
5.817174e-006
-1.1302432e-006
5.9309622e-006
-1.5862731e-006
6.0869483e-006
-2.2521956e-006
6.3002424e-006
-3.2333924e-006
6.5855623e-006
-4.6589468e-006
6.973043e-006
-6.9482899e-006
7.4775141e-006
-1.0564236e-005
8.1611913e-006
-1.7039193e-005
8.8863385e-006
-2.5146624e-005
1.0010862e-005
-3.4654653e-005
8.8377414e-006
-3.4862352e-005
3.0433899e-005
-3.90712e-006
3.2434554e-005
-2.0006543e-006
3.3185153e-005
-7.5059912e-007
3.3329849e-005
-1.4469592e-007
3.3274469e-005
5.5380059e-008
3.3217481e-005
5.698805e-008
3.319754e-005
1.9940729e-008
3.3195159e-005
2.3803907e-009
3.3195803e-005
-6.4396747e-010
3.319595e-005
-1.4668386e-010
3.3195855e-005
9.5435011e-011
3.3195799e-005
5.5360506e-011
3.3195792e-005
7.4122037e-012
3.3195794e-005
-2.6621905e-012
3.3195796e-005
-1.1310795e-012
3.3195796e-005
-3.1439323e-013
3.3195796e-005
-5.4057288e-013
3.3195796e-005
2.4110462e-013
3.3195796e-005
5.2034668e-013
3.3195797e-005
-1.1976648e-012
3.3195797e-005
-5.5925218e-013
3.3195797e-005
8.0750915e-013
3.3195794e-005
2.1663257e-012
3.3195775e-005
1.9395509e-011
1.835694e-011
2.9495465e-005
-7.3240959e-006
3.1221725e-005
-3.7269145e-006
3.1829287e-005
-1.3581611e-006
3.1965102e-005
-2.8051086e-007
3.1923158e-005
9.7324894e-008
3.1879892e-005
1.0025384e-007
3.1863593e-005
3.6239665e-008
3.1861586e-005
4.3867449e-009
3.1861977e-005
-1.0342089e-009
3.18621e-005
-2.7003809e-010
3.1862026e-005
1.6990347e-010
3.1861985e-005
9.5665794e-011
3.1861979e-005
1.4090511e-011
3.1861981e-005
-4.7539422e-012
3.1861982e-005
-2.2317929e-012
3.1861982e-005
-9.9879677e-013
3.1861983e-005
-9.5233092e-013
3.1861982e-005
5.8893557e-013
3.1861982e-005
5.908659e-013
3.1861983e-005
-1.6083412e-012
3.1861983e-005
-5.7333133e-013
3.1861982e-005
1.377441e-012
3.1861981e-005
3.7436193e-012
3.186197e-005
3.0470754e-011
2.9175427e-011
2.7805506e-005
-1.0003678e-005
2.8976062e-005
-4.8974705e-006
2.936178e-005
-1.7438789e-006
2.9451246e-005
-3.6997722e-007
2.9433018e-005
1.1555316e-007
2.9410894e-005
1.2237775e-007
2.9401674e-005
4.5459682e-008
2.9400303e-005
5.7573835e-009
2.9400405e-005
-1.1361119e-009
2.9400469e-005
-3.3389704e-010
2.9400433e-005
2.0604948e-010
2.9400414e-005
1.1460563e-010
2.940041e-005
1.7734981e-011
2.9400411e-005
-5.897339e-012
2.9400412e-005
-3.0355442e-012
2.9400412e-005
-1.3748015e-012
2.9400412e-005
-1.1326764e-012
2.9400413e-005
2.8016679e-013
2.9400413e-005
-9.7265671e-014
2.9400413e-005
-8.9918839e-013
2.9400412e-005
3.6345906e-013
2.9400412e-005
1.5748931e-012
2.9400412e-005
3.4559639e-012
2.9400413e-005
2.9296867e-011
2.8734253e-011
2.5549431e-005
-1.1756077e-005
2.605375e-005
-5.4017895e-006
2.614756e-005
-1.8376888e-006
2.6166212e-005
-3.8862969e-007
2.6169559e-005
1.1220652e-007
2.6170564e-005
1.2137257e-007
2.616943e-005
4.6593675e-008
2.6169014e-005
6.1737932e-009
2.6168886e-005
-1.0087011e-009
2.6168893e-005
-3.4023114e-010
2.6168895e-005
2.0394138e-010
2.6168898e-005
1.1118258e-010
2.6168899e-005
1.7274494e-011
2.6168899e-005
-6.2859711e-012
2.6168899e-005
-3.238377e-012
2.6168899e-005
-1.0817644e-012
2.6168899e-005
-1.1526599e-012
2.61689e-005
-8.5953633e-013
2.61689e-005
-6.1547369e-013
2.6168899e-005
4.7236495e-013
2.6168898e-005
1.2215074e-012
2.6168899e-005
1.1958229e-012
2.6168901e-005
1.3526187e-012
2.6168913e-005
1.6646995e-011
1.7533757e-011
2.2960961e-005
-1.2556302e-005
2.279813e-005
-5.2389587e-006
2.2580496e-005
-1.6200551e-006
2.253298e-005
-3.4111379e-007
2.2549067e-005
9.6120009e-008
2.2567205e-005
1.0323392e-007
2.2572957e-005
4.0842349e-008
2.2573587e-005
5.5431401e-009
2.2573355e-005
-7.7659312e-010
2.2573319e-005
-3.0439539e-010
2.257335e-005
1.7307603e-010
2.2573371e-005
9.057445e-011
2.2573374e-005
1.3628866e-011
2.2573374e-005
-6.0611625e-012
2.2573374e-005
-2.9149665e-012
2.2573374e-005
-7.1961775e-013
2.2573373e-005
-1.0764001e-012
2.2573374e-005
-1.6084354e-012
2.2573374e-005
-3.9366142e-013
2.2573373e-005
1.2689836e-012
2.2573373e-005
1.0255969e-012
2.2573374e-005
4.3545571e-013
2.2573377e-005
-1.2594353e-012
2.2573396e-005
-2.3379413e-012
-1.4081985e-013
2.0162935e-005
-1.2392412e-005
1.9394173e-005
-4.4701973e-006
1.8965714e-005
-1.1915955e-006
1.8876901e-005
-2.5230163e-007
1.8896239e-005
7.6781956e-008
1.8922599e-005
7.6873842e-008
1.893264e-005
3.0802251e-008
1.8934084e-005
4.0985236e-009
1.8933846e-005
-5.3828719e-010
1.8933786e-005
-2.4414496e-010
1.8933832e-005
1.2693233e-010
1.8933861e-005
6.1471439e-011
1.8933866e-005
8.7239544e-012
1.8933865e-005
-5.3300512e-012
1.8933864e-005
-2.2369865e-012
1.8933864e-005
-5.1139486e-013
1.8933864e-005
-8.5251257e-013
1.8933864e-005
-1.4868497e-012
1.8933863e-005
-1.1790597e-013
1.8933864e-005
1.1234665e-012
1.8933864e-005
4.9400041e-013
1.8933865e-005
-2.478505e-013
1.8933867e-005
-3.5279276e-012
1.8933884e-005
-1.9006991e-011
-1.5793257e-011
1.7082843e-005
-1.1160409e-005
1.5885401e-005
-3.2727555e-006
1.5415754e-005
-7.2194882e-007
1.5309692e-005
-1.4623965e-007
1.5328452e-005
5.8021889e-008
1.5356286e-005
4.9039505e-008
1.5367707e-005
1.9381382e-008
1.5369447e-005
2.3590672e-009
1.5369239e-005
-3.3114662e-010
1.5369169e-005
-1.7415566e-010
1.5369218e-005
7.8381276e-011
1.5369246e-005
3.3019632e-011
1.5369251e-005
4.3454116e-012
1.536925e-005
-4.1483351e-012
1.5369249e-005
-1.4382852e-012
1.5369249e-005
-3.6708856e-013
1.5369248e-005
-4.8930983e-013
1.5369248e-005
-9.8349869e-013
1.5369248e-005
-3.9249782e-014
1.5369248e-005
6.7052472e-013
1.5369248e-005
1.2474389e-013
1.5369249e-005
-6.900153e-013
1.536925e-005
-4.6917792e-012
1.5369257e-005
-2.5891739e-011
-2.2336714e-011
1.3513174e-005
-8.7525996e-006
1.2181851e-005
-1.9414322e-006
1.1787031e-005
-3.2712954e-007
1.1695934e-005
-5.5142351e-008
1.1716506e-005
3.7450266e-008
1.1741091e-005
2.4453907e-008
1.175118e-005
9.2919728e-009
1.1752636e-005
9.0309957e-010
1.1752465e-005
-1.5945784e-010
1.1752395e-005
-1.0487869e-010
1.1752436e-005
3.7327431e-011
1.1752457e-005
1.1982512e-011
1.175246e-005
1.4354334e-012
1.1752459e-005
-2.5629442e-012
1.1752458e-005
-6.9857902e-013
1.1752458e-005
-2.2406226e-013
1.1752458e-005
-2.1108558e-013
1.1752457e-005
-4.8683401e-013
1.1752457e-005
-2.6070703e-015
1.1752457e-005
3.1371417e-013
1.1752458e-005
-3.7734843e-014
1.1752458e-005
-7.7465142e-013
1.1752457e-005
-4.0105083e-012
1.1752452e-005
-2.0850975e-011
-1.8066347e-011
9.2187318e-006
-5.0094757e-006
8.009871e-006
-7.3257137e-007
7.755941e-006
-7.3199484e-008
7.7091397e-006
-8.341138e-009
7.7311457e-006
1.5444169e-008
7.7490051e-006
6.5944436e-009
7.7556694e-006
2.6277311e-009
7.756482e-006
9.0395261e-011
7.7563555e-006
-3.2963933e-011
7.7562933e-006
-4.2597529e-011
7.7563201e-006
1.0520705e-011
7.7563309e-006
1.1278762e-012
7.7563322e-006
1.4486102e-013
7.7563306e-006
-9.5813084e-013
7.75633e-006
-1.9319724e-013
7.7563299e-006
-8.744966e-014
7.7563297e-006
-4.4706287e-014
7.7563294e-006
-1.4663801e-013
7.7563294e-006
-2.3645534e-016
7.7563296e-006
8.0143022e-014
7.7563296e-006
-4.1893642e-014
7.7563293e-006
-4.1525865e-013
7.7563271e-006
-1.8095789e-012
7.7563149e-006
-8.6670108e-012
-7.4785737e-012
3.8282657e-006
3.0956943e-006
3.0224948e-006
3.0141536e-006
3.0295978e-006
3.0361922e-006
3.0388199e-006
3.0389103e-006
3.0388774e-006
3.0388348e-006
3.0388453e-006
3.0388464e-006
3.0388465e-006
3.0388456e-006
3.0388454e-006
3.0388453e-006
3.0388452e-006
3.0388451e-006
3.0388451e-006
3.0388452e-006
3.0388451e-006
3.0388447e-006
3.0388429e-006
3.0388343e-006
1.5267697e-005
-1.0657567e-006
1.56005e-005
-1.2790076e-006
1.5869468e-005
-1.1146833e-006
1.6080266e-005
-8.9489449e-007
1.6238878e-005
-7.1733591e-007
1.6359024e-005
-5.8666613e-007
1.6453672e-005
-4.8423109e-007
1.6530634e-005
-4.2091564e-007
1.6599238e-005
-3.9204801e-007
1.666631e-005
-4.0145199e-007
1.6739333e-005
-4.5164218e-007
1.6825973e-005
-5.5253217e-007
1.6935689e-005
-7.1543861e-007
1.7079704e-005
-9.6126932e-007
1.7271388e-005
-1.3219268e-006
1.7528995e-005
-1.8438802e-006
1.7870608e-005
-2.5938091e-006
1.8314596e-005
-3.6773803e-006
1.8874528e-005
-5.2188784e-006
1.9501073e-005
-7.574835e-006
2.0156907e-005
-1.122007e-005
2.0273656e-005
-1.7155941e-005
1.9231282e-005
-2.4104251e-005
1.4650046e-005
-3.0073417e-005
-2.0212306e-005
1.5298643e-005
-1.3605583e-006
1.5668802e-005
-1.6491672e-006
1.595294e-005
-1.3988212e-006
1.6161878e-005
-1.103832e-006
1.6307427e-005
-8.6288517e-007
1.6409606e-005
-6.8884529e-007
1.6484252e-005
-5.5887697e-007
1.6540827e-005
-4.7749061e-007
1.658766e-005
-4.388808e-007
1.6630503e-005
-4.4429557e-007
1.6674728e-005
-4.9586662e-007
1.6724732e-005
-6.0253669e-007
1.6785619e-005
-7.7632565e-007
1.6862412e-005
-1.0380616e-006
1.6959677e-005
-1.4191919e-006
1.7081237e-005
-1.9654405e-006
1.7226718e-005
-2.7392904e-006
1.7385526e-005
-3.8361885e-006
1.7530318e-005
-5.3636699e-006
1.7544732e-005
-7.5892488e-006
1.7209072e-005
-1.088441e-005
1.5875699e-005
-1.5822568e-005
1.2909603e-005
-2.1138154e-005
6.7337515e-006
-2.3897566e-005
-1.3478555e-005
1.5354472e-005
-1.7111898e-006
1.5775322e-005
-2.0700165e-006
1.6079092e-005
-1.7025919e-006
1.6276719e-005
-1.3014583e-006
1.6400502e-005
-9.8666819e-007
1.6476743e-005
-7.6508621e-007
1.6525595e-005
-6.0772963e-007
1.6557169e-005
-5.0906428e-007
1.6578748e-005
-4.6046009e-007
1.6594412e-005
-4.5995957e-007
1.660698e-005
-5.0843433e-007
1.661755e-005
-6.1310718e-007
1.6626969e-005
-7.8574471e-007
1.6634121e-005
-1.0452135e-006
1.6635255e-005
-1.4203253e-006
1.662265e-005
-1.9528357e-006
1.6581124e-005
-2.6977646e-006
1.6477868e-005
-3.7329324e-006
1.6259848e-005
-5.1456503e-006
1.5784694e-005
-7.1140949e-006
1.4790193e-005
-9.8899087e-006
1.2695879e-005
-1.3728255e-005
9.0639733e-006
-1.7506248e-005
3.5083998e-006
-1.8341992e-005
-9.9701549e-006
1.5474712e-005
-2.1820611e-006
1.5981218e-005
-2.5765227e-006
1.6300684e-005
-2.0220574e-006
1.6472189e-005
-1.4729638e-006
1.655919e-005
-1.0736689e-006
1.6599393e-005
-8.0528877e-007
1.6615689e-005
-6.2402581e-007
1.6617955e-005
-5.1133064e-007
1.6611574e-005
-4.540794e-007
1.6598335e-005
-4.467197e-007
1.6578323e-005
-4.8842277e-007
1.6549336e-005
-5.8412056e-007
1.6507716e-005
-7.4412391e-007
1.644687e-005
-9.84368e-007
1.6356438e-005
-1.3298927e-006
1.621952e-005
-1.8159183e-006
1.6009647e-005
-2.4878914e-006
1.568123e-005
-3.4045151e-006
1.5167447e-005
-4.6318674e-006
1.433463e-005
-6.2812784e-006
1.295185e-005
-8.5071281e-006
1.0591032e-005
-1.1367437e-005
6.9929093e-006
-1.3908126e-005
2.3958194e-006
-1.3744902e-005
-7.5743355e-006
1.5747647e-005
-2.9258667e-006
1.6386542e-005
-3.2154177e-006
1.6702013e-005
-2.3375292e-006
1.6819062e-005
-1.5900124e-006
1.6846835e-005
-1.1014416e-006
1.6837956e-005
-7.9641007e-007
1.6814555e-005
-6.0062513e-007
1.6783782e-005
-4.8055778e-007
1.6747713e-005
-4.1800977e-007
1.6705097e-005
-4.0410411e-007
1.6653123e-005
-4.3644872e-007
1.6586093e-005
-5.1709042e-007
1.6496205e-005
-6.5423539e-007
1.6372423e-005
-8.6058652e-007
1.619907e-005
-1.1565395e-006
1.5952298e-005
-1.5691467e-006
1.5597954e-005
-2.1335472e-006
1.5084222e-005
-2.8907833e-006
1.4338761e-005
-3.8864059e-006
1.324485e-005
-5.1873674e-006
1.1619593e-005
-6.8818713e-006
9.1813286e-006
-8.9291734e-006
5.8170586e-006
-1.0543856e-005
2.0346712e-006
-9.9625148e-006
-5.5396642e-006
1.6235679e-005
-4.1577047e-006
1.6977661e-005
-3.9574004e-006
1.7217935e-005
-2.5778026e-006
1.7229955e-005
-1.6020322e-006
1.7169928e-005
-1.0414147e-006
1.7097777e-005
-7.2425901e-007
1.7028516e-005
-5.3136447e-007
1.6962497e-005
-4.1453831e-007
1.6896694e-005
-3.5220758e-007
1.6826193e-005
-3.3360265e-007
1.6744509e-005
-3.5476527e-007
1.6642888e-005
-4.1546885e-007
1.6510161e-005
-5.2150852e-007
1.6332017e-005
-6.8244282e-007
1.6087838e-005
-9.1235977e-007
1.5749271e-005
-1.23058e-006
1.5278288e-005
-1.6625642e-006
1.4621023e-005
-2.2335187e-006
1.3705969e-005
-2.9713519e-006
1.2432577e-005
-3.9139755e-006
1.0659745e-005
-5.1090388e-006
8.2165227e-006
-6.4859512e-006
5.1057585e-006
-7.4330913e-006
1.8676191e-006
-6.7243752e-006
-3.6720452e-006
1.672766e-005
-5.8815242e-006
1.72752e-005
-4.5049399e-006
1.7266211e-005
-2.5688133e-006
1.7102712e-005
-1.4385332e-006
1.6930571e-005
-8.6927446e-007
1.6787121e-005
-5.8080817e-007
1.6670774e-005
-4.1501745e-007
1.6571533e-005
-3.1529821e-007
1.6479976e-005
-2.6065003e-007
1.6387033e-005
-2.4066022e-007
1.628259e-005
-2.5032131e-007
1.6155912e-005
-2.8879122e-007
1.5993251e-005
-3.58848e-007
1.5777868e-005
-4.6705979e-007
1.5486469e-005
-6.209607e-007
1.5089196e-005
-8.3330629e-007
1.4546374e-005
-1.1197426e-006
1.3806375e-005
-1.4935201e-006
1.2804108e-005
-1.9690841e-006
1.1455468e-005
-2.5653358e-006
9.6522621e-006
-3.3058331e-006
7.2920085e-006
-4.1256977e-006
4.4489731e-006
-4.5900558e-006
1.65029e-006
-3.9256921e-006
-2.0217551e-006
1.6489336e-005
-7.3670197e-006
1.6148984e-005
-4.1645873e-006
1.5657358e-005
-2.0771877e-006
1.5262987e-005
-1.0441619e-006
1.4978569e-005
-5.8485658e-007
1.477343e-005
-3.7566936e-007
1.4620404e-005
-2.6199091e-007
1.4498777e-005
-1.9367144e-007
1.4393146e-005
-1.5501944e-007
1.4291034e-005
-1.3854771e-007
1.4180433e-005
-1.3972021e-007
1.4049361e-005
-1.5771936e-007
1.3883759e-005
-1.9324655e-007
1.3666279e-005
-2.4957925e-007
1.3375489e-005
-3.3017039e-007
1.2983628e-005
-4.4144551e-007
1.2453026e-005
-5.891409e-007
1.1740327e-005
-7.8082129e-007
1.0792288e-005
-1.0210446e-006
9.5436344e-006
-1.3166827e-006
7.9150933e-006
-1.677292e-006
5.8483083e-006
-2.0589127e-006
3.4616296e-006
-2.203377e-006
1.2481441e-006
-1.7122066e-006
-7.736109e-007
1.4339862e-005
-6.7030413e-006
1.2513211e-005
-2.3379362e-006
1.1418406e-005
-9.8238216e-007
1.0824804e-005
-4.5056007e-007
1.047935e-005
-2.3940223e-007
1.0253412e-005
-1.4973137e-007
1.0094348e-005
-1.0292713e-007
9.9749871e-006
-7.4310705e-008
9.8775566e-006
-5.7588988e-008
9.7886561e-006
-4.9647153e-008
9.6972654e-006
-4.8329591e-008
9.5925773e-006
-5.3031226e-008
9.4632245e-006
-6.3893715e-008
9.2951969e-006
-8.1551712e-008
9.0722211e-006
-1.071946e-007
8.7732532e-006
-1.4247757e-007
8.3722197e-006
-1.8810737e-007
7.8384555e-006
-2.4705719e-007
7.1363074e-006
-3.1889643e-007
6.2241135e-006
-4.0448878e-007
5.0525243e-006
-5.0570285e-007
3.5964237e-006
-6.0281208e-007
1.9918708e-006
-5.98824e-007
6.449699e-007
-3.653056e-007
-1.2864095e-007
8.3007997e-006
5.9628634e-006
4.9804813e-006
4.5299212e-006
4.290519e-006
4.1407876e-006
4.0378605e-006
3.9635497e-006
3.9059608e-006
3.8563136e-006
3.807984e-006
3.7549528e-006
3.6910591e-006
3.6095074e-006
3.5023128e-006
3.3598352e-006
3.1717278e-006
2.9246706e-006
2.6057742e-006
2.2012854e-006
1.6955825e-006
1.0927705e-006
4.9394651e-007
1.2864095e-007
)
;

boundaryField
{
    inlet
    {
        type            calculated;
        value           nonuniform List<scalar> 
20
(
-5.0012803e-006
-5.0012803e-006
-5.0012803e-006
-5.0012803e-006
-5.0012803e-006
-5.0012803e-006
-5.0012803e-006
-5.0012803e-006
-5.0012803e-006
-5.0012803e-006
-1.5003841e-005
-1.5003841e-005
-1.5003841e-005
-1.5003841e-005
-1.5003841e-005
-1.5003841e-005
-1.5003841e-005
-1.5003841e-005
-1.5003841e-005
-1.5003841e-005
)
;
    }
    walls
    {
        type            calculated;
        value           uniform 0;
    }
    outlet
    {
        type            calculated;
        value           nonuniform List<scalar> 10(3.3195757e-005 3.1861959e-005 2.9400414e-005 2.6168925e-005 2.2573413e-005 1.8933899e-005 1.5369264e-005 1.1752448e-005 7.7563043e-006 3.0388268e-006);
    }
    centreline
    {
        type            symmetryPlane;
        value           uniform 0;
    }
    frontAndBack
    {
        type            empty;
        value           nonuniform 0();
    }
}


// ************************************************************************* //
