/*--------------------------------*- C++ -*----------------------------------*\
| =========                 |                                                 |
| \\      /  F ield         | OpenFOAM: The Open Source CFD Toolbox           |
|  \\    /   O peration     | Version:  5.x                                   |
|   \\  /    A nd           | Web:      www.OpenFOAM.org                      |
|    \\/     M anipulation  |                                                 |
\*---------------------------------------------------------------------------*/
/*   Windows 32 and 64 bit porting by blueCAPE: http://www.bluecape.com.pt   *\
|  Based on Windows porting (2.0.x v4) by Symscape: http://www.symscape.com   |
\*---------------------------------------------------------------------------*/
FoamFile
{
    version     2.0;
    format      ascii;
    class       volSymmTensorField;
    location    "0.08";
    object      sigma_0;
}
// * * * * * * * * * * * * * * * * * * * * * * * * * * * * * * * * * * * * * //

dimensions      [0 2 -2 0 0 0 0];

internalField   nonuniform List<symmTensor> 
750
(
(-0.00013169762 1.0945276e-005 0 0.00014508728 0 0)
(-0.0002006518 -3.9988437e-007 0 0.00017733955 0 0)
(-0.00012536969 -2.3083059e-006 0 0.00013964784 0 0)
(-0.00014338363 -1.7704567e-006 0 0.00013290773 0 0)
(-0.00010005378 -2.2396932e-006 0 0.00010540999 0 0)
(-0.00010195193 -1.3135757e-006 0 9.8672857e-005 0 0)
(-8.3975753e-005 -1.141691e-006 0 8.5313731e-005 0 0)
(-8.3161433e-005 -2.4083926e-007 0 8.2278525e-005 0 0)
(-8.2748103e-005 5.0724154e-007 0 8.2886651e-005 0 0)
(-9.2175919e-005 1.5950586e-006 0 9.1853964e-005 0 0)
(-0.00011133318 2.9644952e-006 0 0.00011107007 0 0)
(-0.00013872793 4.5403618e-006 0 0.00013821313 0 0)
(-0.00018685823 7.0254217e-006 0 0.00018600999 0 0)
(-0.00025406724 1.0371944e-005 0 0.00025253644 0 0)
(-0.00035277289 1.5133661e-005 0 0.00034953112 0 0)
(-0.00049851668 2.238602e-005 0 0.00049260959 0 0)
(-0.00071528953 3.3625181e-005 0 0.00070280912 0 0)
(-0.0010289518 4.9707771e-005 0 0.0010020832 0 0)
(-0.0015379655 7.9755349e-005 0 0.0014864926 0 0)
(-0.0022827462 0.00012014464 0 0.0021462839 0 0)
(-0.0035677469 0.00021059811 0 0.0033208093 0 0)
(-0.0057459694 0.00031395303 0 0.0049647932 0 0)
(-0.0093590942 0.00048711695 0 0.0078105852 0 0)
(-0.014186947 0.00067032137 0 0.010377658 0 0)
(-0.01849753 0.00024593624 0 0.013119185 0 0)
(-0.00013154347 3.2259197e-005 0 0.00014672973 0 0)
(-0.00020136646 -9.6627888e-007 0 0.00017511581 0 0)
(-0.00012560029 -6.6000696e-006 0 0.00014242737 0 0)
(-0.00014340038 -5.4151444e-006 0 0.00013110422 0 0)
(-0.00010003756 -6.378335e-006 0 0.00010668446 0 0)
(-0.0001016715 -3.8978602e-006 0 9.7673e-005 0 0)
(-8.3688968e-005 -3.1402723e-006 0 8.5371267e-005 0 0)
(-8.2741579e-005 -5.3244236e-007 0 8.1626422e-005 0 0)
(-8.2275721e-005 1.7873697e-006 0 8.2448675e-005 0 0)
(-9.1615794e-005 5.0114892e-006 0 9.1197995e-005 0 0)
(-0.00011049095 9.1199939e-006 0 0.00011018794 0 0)
(-0.00013763705 1.3839623e-005 0 0.00013703181 0 0)
(-0.0001854643 2.1275918e-005 0 0.00018449038 0 0)
(-0.00025209834 3.1237259e-005 0 0.00025040037 0 0)
(-0.00034958059 4.5417448e-005 0 0.00034604569 0 0)
(-0.00049422614 6.7086334e-005 0 0.00048799826 0 0)
(-0.00070812587 0.0001001471 0 0.00069490785 0 0)
(-0.0010170073 0.00014814059 0 0.00098936836 0 0)
(-0.0015215804 0.00023771943 0 0.0014689683 0 0)
(-0.00224567 0.00035203651 0 0.0021031999 0 0)
(-0.0035367407 0.00063901028 0 0.0032913533 0 0)
(-0.0056555283 0.00093976432 0 0.0048441175 0 0)
(-0.0093281421 0.0013816678 0 0.0077865051 0 0)
(-0.014087806 0.0020245897 0 0.010148225 0 0)
(-0.018384246 0.00083307715 0 0.013065664 0 0)
(-0.00013132828 5.3152955e-005 0 0.00014770812 0 0)
(-0.00020280155 -1.1976971e-006 0 0.00017441769 0 0)
(-0.00012590619 -1.0688631e-005 0 0.00014415713 0 0)
(-0.00014366663 -9.2206579e-006 0 0.00013035563 0 0)
(-9.99306e-005 -1.0372268e-005 0 0.00010710226 0 0)
(-0.00010115388 -6.5601546e-006 0 9.6870109e-005 0 0)
(-8.3109604e-005 -5.0383694e-006 0 8.4942731e-005 0 0)
(-8.1919211e-005 -8.1404488e-007 0 8.0761096e-005 0 0)
(-8.1331735e-005 3.1231624e-006 0 8.1558187e-005 0 0)
(-9.0464101e-005 8.4460613e-006 0 9.0063821e-005 0 0)
(-0.00010887219 1.5249984e-005 0 0.00010862672 0 0)
(-0.00013558913 2.3123696e-005 0 0.00013503348 0 0)
(-0.00018268959 3.5452663e-005 0 0.00018178242 0 0)
(-0.00024810834 5.1881292e-005 0 0.00024651863 0 0)
(-0.00034352467 7.5317798e-005 0 0.00034013304 0 0)
(-0.00048529252 0.00011124385 0 0.00047933298 0 0)
(-0.00069421893 0.00016539693 0 0.00068136409 0 0)
(-0.00099456349 0.00024496652 0 0.00096754257 0 0)
(-0.0014856921 0.0003913254 0 0.0014345642 0 0)
(-0.0021834746 0.00058841765 0 0.0020421255 0 0)
(-0.0034523546 0.0010307806 0 0.0032122401 0 0)
(-0.0055257903 0.0015573608 0 0.0047042967 0 0)
(-0.0091496835 0.002358606 0 0.0076140559 0 0)
(-0.013938706 0.0034688321 0 0.0098442188 0 0)
(-0.017903575 0.0016006609 0 0.012752565 0 0)
(-0.00013090573 7.4296454e-005 0 0.0001478793 0 0)
(-0.00020493852 -1.1782162e-006 0 0.00017547475 0 0)
(-0.00012645008 -1.4819258e-005 0 0.00014528035 0 0)
(-0.00014413963 -1.3205013e-005 0 0.00013055831 0 0)
(-9.9761233e-005 -1.4571635e-005 0 0.00010696091 0 0)
(-0.00010039282 -9.4202778e-006 0 9.614205e-005 0 0)
(-8.2225496e-005 -7.1138299e-006 0 8.4023791e-005 0 0)
(-8.0692152e-005 -1.294528e-006 0 7.9568406e-005 0 0)
(-7.9927785e-005 4.2563192e-006 0 8.0144282e-005 0 0)
(-8.8666916e-005 1.1613018e-005 0 8.8281901e-005 0 0)
(-0.00010662551 2.1129103e-005 0 0.00010637257 0 0)
(-0.00013258884 3.2081407e-005 0 0.00013203422 0 0)
(-0.00017840802 4.9172844e-005 0 0.00017750567 0 0)
(-0.00024201268 7.192076e-005 0 0.00024043355 0 0)
(-0.0003346899 0.00010445464 0 0.00033131152 0 0)
(-0.00047181755 0.00015384139 0 0.00046585194 0 0)
(-0.00067349323 0.00022880412 0 0.00066075817 0 0)
(-0.00096176839 0.00033926732 0 0.0009347753 0 0)
(-0.0014305046 0.0005397684 0 0.0013799873 0 0)
(-0.0020972608 0.00081127993 0 0.0019572724 0 0)
(-0.0032993323 0.0014506144 0 0.0030580865 0 0)
(-0.005322452 0.0022199545 0 0.0044893036 0 0)
(-0.0087800404 0.0034057436 0 0.0072354876 0 0)
(-0.013701219 0.0049856232 0 0.0093894973 0 0)
(-0.016909283 0.0025914444 0 0.012112285 0 0)
(-0.00013018795 9.5849698e-005 0 0.00014722748 0 0)
(-0.00020779257 -1.0678641e-006 0 0.00017807462 0 0)
(-0.00012733074 -1.9091971e-005 0 0.00014620977 0 0)
(-0.00014480932 -1.7315296e-005 0 0.00013134335 0 0)
(-9.9538421e-005 -1.89321e-005 0 0.00010657047 0 0)
(-9.9370718e-005 -1.2337643e-005 0 9.5261993e-005 0 0)
(-8.1037465e-005 -9.23775e-006 0 8.2745746e-005 0 0)
(-7.9062971e-005 -1.812197e-006 0 7.7998574e-005 0 0)
(-7.8066915e-005 5.3350944e-006 0 7.8262992e-005 0 0)
(-8.6298066e-005 1.4688966e-005 0 8.5933657e-005 0 0)
(-0.00010363209 2.6848651e-005 0 0.00010337579 0 0)
(-0.00012863941 4.0800604e-005 0 0.00012809616 0 0)
(-0.00017277562 6.2483221e-005 0 0.00017189069 0 0)
(-0.00023396054 9.1315368e-005 0 0.00023240533 0 0)
(-0.0003230882 0.00013258424 0 0.00031975664 0 0)
(-0.00045404144 0.00019504678 0 0.00044809353 0 0)
(-0.00064614847 0.00028953767 0 0.0006336306 0 0)
(-0.0009188612 0.0004290643 0 0.0008919754 0 0)
(-0.0013576663 0.00068026237 0 0.0013076375 0 0)
(-0.0019822144 0.0010293985 0 0.0018439178 0 0)
(-0.0031121114 0.0018056567 0 0.0028671948 0 0)
(-0.0050739215 0.0027789061 0 0.0042293015 0 0)
(-0.0082789269 0.0043417221 0 0.0067261619 0 0)
(-0.013333175 0.0064827845 0 0.0087534682 0 0)
(-0.015567682 0.0036910185 0 0.01126718 0 0)
(-0.00012917473 0.00011773082 0 0.00014602398 0 0)
(-0.00021142718 -1.0664917e-006 0 0.00018182316 0 0)
(-0.00012853163 -2.3729392e-005 0 0.00014720176 0 0)
(-0.00014567379 -2.1622528e-005 0 0.0001324856 0 0)
(-9.9249633e-005 -2.3568733e-005 0 0.00010603057 0 0)
(-9.8064349e-005 -1.5360712e-005 0 9.413461e-005 0 0)
(-7.9550248e-005 -1.1474639e-005 0 8.1147183e-005 0 0)
(-7.7030952e-005 -2.4222041e-006 0 7.60368e-005 0 0)
(-7.5755755e-005 6.2999282e-006 0 7.5931371e-005 0 0)
(-8.3389586e-005 1.7615717e-005 0 8.3045201e-005 0 0)
(-9.9878384e-005 3.2317285e-005 0 9.9640774e-005 0 0)
(-0.00012374777 4.9170464e-005 0 0.00012322583 0 0)
(-0.00016582195 7.522153e-005 0 0.0001649588 0 0)
(-0.00022413524 0.0001098473 0 0.00022260366 0 0)
(-0.0003088557 0.00015947957 0 0.00030560179 0 0)
(-0.00043239677 0.00023384693 0 0.00042650048 0 0)
(-0.00061252314 0.00034704167 0 0.0006003021 0 0)
(-0.00086727277 0.00051199994 0 0.00084078259 0 0)
(-0.0012682357 0.00080998092 0 0.0012189951 0 0)
(-0.0018440589 0.0012228426 0 0.0017091851 0 0)
(-0.0028540133 0.0021642038 0 0.0026131259 0 0)
(-0.0046823362 0.0033887679 0 0.0038386624 0 0)
(-0.0075456592 0.0053368067 0 0.006017882 0 0)
(-0.012741092 0.0080043245 0 0.0078915296 0 0)
(-0.013711915 0.004560675 0 0.010281211 0 0)
(-0.00012798266 0.00013966752 0 0.00014467154 0 0)
(-0.00021590482 -1.3381445e-006 0 0.00018624366 0 0)
(-0.0001299967 -2.8873466e-005 0 0.00014850294 0 0)
(-0.00014670408 -2.6209092e-005 0 0.00013376884 0 0)
(-9.8869303e-005 -2.8553182e-005 0 0.0001053884 0 0)
(-9.6452575e-005 -1.8540014e-005 0 9.2719547e-005 0 0)
(-7.7760261e-005 -1.3857877e-005 0 7.9233157e-005 0 0)
(-7.4594065e-005 -3.1540917e-006 0 7.3682294e-005 0 0)
(-7.3001205e-005 7.1166392e-006 0 7.3154042e-005 0 0)
(-7.9932245e-005 2.0332142e-005 0 7.9615379e-005 0 0)
(-9.5446378e-005 3.7487619e-005 0 9.5221234e-005 0 0)
(-0.00011798459 5.7070568e-005 0 0.00011747848 0 0)
(-0.000157627 8.7257177e-005 0 0.00015677232 0 0)
(-0.00021257848 0.00012744608 0 0.0002110543 0 0)
(-0.00029220709 0.00018467746 0 0.00028899971 0 0)
(-0.00040712742 0.00027027305 0 0.00040127573 0 0)
(-0.00057422213 0.0003993758 0 0.00056223936 0 0)
(-0.00080645182 0.00058830598 0 0.00078025905 0 0)
(-0.0011650135 0.00092671488 0 0.0011171135 0 0)
(-0.0016767826 0.001402463 0 0.0015440364 0 0)
(-0.0025461713 0.0024777019 0 0.0023068498 0 0)
(-0.0042109669 0.003904263 0 0.0033591117 0 0)
(-0.0064285632 0.006453894 0 0.0049090045 0 0)
(-0.011952089 0.0092218945 0 0.0068647078 0 0)
(-0.0095765817 0.0058427397 0 0.0073037603 0 0)
(-0.00012676728 0.0001617113 0 0.00014395202 0 0)
(-0.00022128356 -1.9351198e-006 0 0.00019033663 0 0)
(-0.00013166154 -3.463099e-005 0 0.00015076724 0 0)
(-0.00014787327 -3.1214804e-005 0 0.00013483306 0 0)
(-9.8350848e-005 -3.3868997e-005 0 0.00010465477 0 0)
(-9.4517699e-005 -2.1888199e-005 0 9.0993214e-005 0 0)
(-7.5664459e-005 -1.6382116e-005 0 7.6995589e-005 0 0)
(-7.175105e-005 -4.0045728e-006 0 7.0920918e-005 0 0)
(-6.9817214e-005 7.7865236e-006 0 6.9936351e-005 0 0)
(-7.5935757e-005 2.2790163e-005 0 7.5639196e-005 0 0)
(-9.0401079e-005 4.2329559e-005 0 9.0154194e-005 0 0)
(-0.00011139203 6.4498193e-005 0 0.00011087158 0 0)
(-0.00014830412 9.8517693e-005 0 0.00014743376 0 0)
(-0.0001994647 0.00014370502 0 0.00019790984 0 0)
(-0.00027328698 0.00020807897 0 0.00027003429 0 0)
(-0.00037895571 0.0003031943 0 0.00037294767 0 0)
(-0.00053010371 0.0004483037 0 0.00051819291 0 0)
(-0.00073873568 0.00065568516 0 0.00071288231 0 0)
(-0.0010478371 0.0010297906 0 0.0010010919 0 0)
(-0.0014919552 0.0015556436 0 0.0013627237 0 0)
(-0.0021942661 0.0027337573 0 0.0019516542 0 0)
(-0.0036186271 0.0043362879 0 0.0027619513 0 0)
(-0.005357348 0.0072045262 0 0.0038214147 0 0)
(-0.010822949 0.010140214 0 0.005644956 0 0)
(-0.0067021358 0.0068359506 0 0.004950775 0 0)
(-0.00012578588 0.00018364618 0 0.00014450681 0 0)
(-0.00022753433 -2.7206271e-006 0 0.00019375066 0 0)
(-0.00013349549 -4.0901636e-005 0 0.00015399354 0 0)
(-0.0001490945 -3.6805366e-005 0 0.00013535579 0 0)
(-9.7655504e-005 -3.9519055e-005 0 0.0001039733 0 0)
(-9.2241315e-005 -2.5457534e-005 0 8.8817699e-005 0 0)
(-7.3254624e-005 -1.906511e-005 0 7.4510242e-005 0 0)
(-6.8520707e-005 -4.9966638e-006 0 6.7737294e-005 0 0)
(-6.6220923e-005 8.2753456e-006 0 6.6323636e-005 0 0)
(-7.148569e-005 2.5020415e-005 0 7.1193102e-005 0 0)
(-8.4657023e-005 4.6766652e-005 0 8.4417075e-005 0 0)
(-0.00010395106 7.1383899e-005 0 0.0001034561 0 0)
(-0.00013780729 0.00010888711 0 0.00013697404 0 0)
(-0.00018470645 0.00015877788 0 0.00018319196 0 0)
(-0.00025199091 0.00022962568 0 0.00024883914 0 0)
(-0.00034725966 0.0003335255 0 0.00034138703 0 0)
(-0.00048222971 0.00049105118 0 0.00047055295 0 0)
(-0.00066318445 0.00071480365 0 0.00063769489 0 0)
(-0.00092559838 0.0011138281 0 0.00088041227 0 0)
(-0.0012863337 0.0016683979 0 0.0011597539 0 0)
(-0.0017628088 0.0029518822 0 0.001543428 0 0)
(-0.0029619427 0.0045832752 0 0.0021204769 0 0)
(-0.0035085879 0.007990373 0 0.0021323197 0 0)
(-0.0077386172 0.011040552 0 0.0030160412 0 0)
(-0.0005393568 0.0095355499 0 -0.0013275922 0 0)
(-0.00012512037 0.00020609606 0 0.00014735308 0 0)
(-0.00023463408 -3.5477389e-006 0 0.00019504018 0 0)
(-0.00013571879 -4.7979726e-005 0 0.00016033838 0 0)
(-0.00015022738 -4.2792256e-005 0 0.00013374907 0 0)
(-9.6710541e-005 -4.5519664e-005 0 0.0001044671 0 0)
(-8.9604535e-005 -2.9206348e-005 0 8.5695917e-005 0 0)
(-7.0504774e-005 -2.179463e-005 0 7.1996865e-005 0 0)
(-6.4855938e-005 -6.0814642e-006 0 6.4043083e-005 0 0)
(-6.2171289e-005 8.6561053e-006 0 6.2313389e-005 0 0)
(-6.6617625e-005 2.7259207e-005 0 6.637579e-005 0 0)
(-7.81702e-005 5.0707068e-005 0 7.8077618e-005 0 0)
(-9.5622556e-005 7.7651271e-005 0 9.5248773e-005 0 0)
(-0.00012631987 0.00011852343 0 0.00012562055 0 0)
(-0.00016861478 0.00017272388 0 0.00016731054 0 0)
(-0.00022842322 0.00024906631 0 0.00022554815 0 0)
(-0.00031205622 0.00036063258 0 0.0003065177 0 0)
(-0.0004293326 0.0005292675 0 0.00041804165 0 0)
(-0.00058637413 0.00076074636 0 0.00055992588 0 0)
(-0.00078925529 0.0011853835 0 0.00074573772 0 0)
(-0.0010795589 0.0017339861 0 0.00094501038 0 0)
(-0.0012704878 0.0030662993 0 0.0010907224 0 0)
(-0.0020698848 0.0046563394 0 0.0012282275 0 0)
(-0.0013418533 0.0078565632 0 0.00036568143 0 0)
(-0.0033972813 0.010008349 0 -0.00026995725 0 0)
(0.0037686418 0.0098107017 0 -0.0069086358 0 0)
(-0.014546021 0.00021289164 0 0.010504234 0 0)
(-0.0077237245 0.00068661818 0 0.00648863 0 0)
(-0.0026716182 0.0011795251 0 0.0023207069 0 0)
(-0.0004913533 0.0013937819 0 0.00045672786 0 0)
(-4.7302252e-006 0.0014441338 0 -4.3707587e-005 0 0)
(3.2708702e-005 0.0014450818 0 -6.9893485e-005 0 0)
(-1.6701347e-005 0.0014405993 0 -2.0994097e-005 0 0)
(-3.2895227e-005 0.0014389262 0 -3.4563935e-006 0 0)
(-3.6567361e-005 0.0014384998 0 1.1583669e-007 0 0)
(-3.6082628e-005 0.001438444 0 -2.5251823e-007 0 0)
(-3.6084007e-005 0.0014384021 0 -2.7474048e-007 0 0)
(-3.6236001e-005 0.0014383735 0 -1.1131469e-007 0 0)
(-3.6326206e-005 0.0014383608 0 -2.3164865e-008 0 0)
(-3.6344899e-005 0.0014383577 0 -3.6586479e-009 0 0)
(-3.6347037e-005 0.0014383553 0 -1.3993078e-009 0 0)
(-3.6348012e-005 0.0014383566 0 -4.3697341e-010 0 0)
(-3.6348661e-005 0.0014383555 0 1.6470267e-010 0 0)
(-3.6348075e-005 0.0014383561 0 -4.7786221e-010 0 0)
(-3.6348032e-005 0.0014383561 0 -5.0737987e-010 0 0)
(-3.6349443e-005 0.0014383529 0 8.765726e-010 0 0)
(-3.634913e-005 0.0014383513 0 6.3734674e-010 0 0)
(-3.6347876e-005 0.0014383542 0 -4.4071363e-010 0 0)
(-3.6346245e-005 0.0014383538 0 -5.9743079e-010 0 0)
(-3.6333917e-005 0.0014383504 0 3.9278217e-009 0 0)
(-3.6337887e-005 0.0014383657 0 8.4562656e-009 0 0)
(-0.014043674 0.0007823695 0 0.010047662 0 0)
(-0.0073394665 0.0022896122 0 0.0061173918 0 0)
(-0.0027278742 0.0037683442 0 0.0021098589 0 0)
(-0.0008025016 0.0044099154 0 0.00045589313 0 0)
(-0.00036494931 0.0045565232 0 -1.7152686e-005 0 0)
(-0.00031440885 0.004564343 0 -5.4575352e-005 0 0)
(-0.00035183052 0.0045535482 0 -1.8782306e-005 0 0)
(-0.0003652416 0.0045491279 0 -3.3083643e-006 0 0)
(-0.00036845976 0.0045478769 0 -9.9755291e-008 0 0)
(-0.00036813454 0.0045477044 0 -2.2844249e-007 0 0)
(-0.0003681514 0.0045475728 0 -2.2081225e-007 0 0)
(-0.00036825248 0.0045474991 0 -9.6991135e-008 0 0)
(-0.00036832995 0.0045474647 0 -1.8547173e-008 0 0)
(-0.00036834148 0.0045474482 0 -4.163481e-009 0 0)
(-0.00036834466 0.0045474522 0 -9.2523593e-010 0 0)
(-0.00036834539 0.0045474502 0 -1.5804345e-010 0 0)
(-0.00036834586 0.0045474495 0 9.032212e-011 0 0)
(-0.00036834438 0.0045474404 0 -3.8106756e-010 0 0)
(-0.00036834525 0.0045474494 0 8.6262657e-011 0 0)
(-0.00036834584 0.0045474505 0 3.2889184e-010 0 0)
(-0.00036834468 0.0045474383 0 -1.7296977e-010 0 0)
(-0.00036834504 0.0045474502 0 -2.3007992e-010 0 0)
(-0.00036834399 0.004547445 0 -2.350588e-010 0 0)
(-0.00036832973 0.0045474354 0 5.3269416e-010 0 0)
(-0.00036833541 0.0045474842 0 2.2796309e-009 0 0)
(-0.013133604 0.0016975777 0 0.0093325836 0 0)
(-0.0065728338 0.0045008249 0 0.0052983972 0 0)
(-0.0029974496 0.0068900436 0 0.0017786856 0 0)
(-0.0015784865 0.0079445156 0 0.00041138885 0 0)
(-0.0012823026 0.0081716061 0 3.2964352e-005 0 0)
(-0.0012059399 0.008207032 0 -3.2402269e-005 0 0)
(-0.0012249989 0.0081929172 0 -1.4147426e-005 0 0)
(-0.0012324064 0.0081862918 0 -3.2942615e-006 0 0)
(-0.0012349709 0.0081839079 0 -3.4292621e-007 0 0)
(-0.0012348238 0.0081835676 0 -1.9180457e-007 0 0)
(-0.0012348565 0.0081833644 0 -1.4553319e-007 0 0)
(-0.0012348904 0.0081832675 0 -6.7956163e-008 0 0)
(-0.0012349319 0.0081832184 0 -1.447524e-008 0 0)
(-0.0012349392 0.0081832063 0 -2.1566992e-009 0 0)
(-0.0012349395 0.0081832001 0 -4.1874725e-010 0 0)
(-0.0012349399 0.0081832012 0 -1.9901998e-010 0 0)
(-0.0012349377 0.0081831846 0 6.3791342e-011 0 0)
(-0.001234939 0.0081831951 0 4.8061558e-010 0 0)
(-0.0012349404 0.0081831997 0 7.7019555e-010 0 0)
(-0.0012349392 0.0081832009 0 -7.3202789e-010 0 0)
(-0.001234937 0.0081831859 0 -9.5249802e-010 0 0)
(-0.0012349389 0.0081831937 0 -1.3469499e-010 0 0)
(-0.0012349395 0.0081831948 0 2.2929618e-010 0 0)
(-0.0012349326 0.0081831873 0 -5.7986669e-009 0 0)
(-0.0012349353 0.0081832113 0 -7.3068996e-009 0 0)
(-0.011633527 0.0030188932 0 0.0081057772 0 0)
(-0.0055718694 0.0074584868 0 0.0039118601 0 0)
(-0.0038639386 0.010462669 0 0.0013772517 0 0)
(-0.003092589 0.011928907 0 0.00033216411 0 0)
(-0.0029958844 0.012234149 0 5.473482e-005 0 0)
(-0.0029368489 0.0122912 0 -6.6070189e-006 0 0)
(-0.0029356334 0.012278475 0 -8.0920664e-006 0 0)
(-0.0029361249 0.012270601 0 -2.9055557e-006 0 0)
(-0.0029375149 0.012267128 0 -5.2146049e-007 0 0)
(-0.0029374728 0.012266599 0 -1.0582029e-007 0 0)
(-0.0029374735 0.012266367 0 -5.6214834e-008 0 0)
(-0.0029374341 0.012266268 0 -2.8472155e-008 0 0)
(-0.0029374334 0.012266215 0 -7.9660927e-009 0 0)
(-0.0029374317 0.012266202 0 -1.3788227e-009 0 0)
(-0.0029374304 0.012266195 0 -4.8873718e-011 0 0)
(-0.00293743 0.012266197 0 -2.8453468e-010 0 0)
(-0.0029374297 0.012266188 0 2.2274129e-010 0 0)
(-0.0029374311 0.012266191 0 1.311492e-009 0 0)
(-0.0029374309 0.012266195 0 3.664646e-010 0 0)
(-0.0029374259 0.012266181 0 -1.2474757e-009 0 0)
(-0.0029374273 0.01226619 0 -1.0116438e-009 0 0)
(-0.0029374303 0.012266196 0 1.0216875e-010 0 0)
(-0.0029374329 0.012266195 0 1.0379268e-009 0 0)
(-0.0029374308 0.012266178 0 -7.3282136e-009 0 0)
(-0.0029374354 0.012266205 0 -1.1182975e-008 0 0)
(-0.0094696335 0.0044210665 0 0.0063108016 0 0)
(-0.0049012173 0.011371098 0 0.0019904809 0 0)
(-0.0053333748 0.014110725 0 0.00084226222 0 0)
(-0.0055366814 0.015990712 0 0.00021506453 0 0)
(-0.0057054619 0.016351004 0 6.5170845e-005 0 0)
(-0.0056681735 0.01640748 0 1.4571689e-005 0 0)
(-0.0056506161 0.016394489 0 -1.778791e-006 0 0)
(-0.0056439485 0.016386366 0 -2.0917484e-006 0 0)
(-0.0056437716 0.016382153 0 -5.2451336e-007 0 0)
(-0.0056436793 0.016381511 0 1.4816142e-008 0 0)
(-0.0056436235 0.016381298 0 2.9692393e-008 0 0)
(-0.005643517 0.016381223 0 6.1096954e-009 0 0)
(-0.0056434812 0.016381174 0 -1.3864172e-009 0 0)
(-0.005643471 0.016381162 0 -3.2874604e-010 0 0)
(-0.0056434675 0.016381156 0 2.1570741e-010 0 0)
(-0.0056434679 0.016381157 0 -6.8099612e-011 0 0)
(-0.0056434676 0.016381155 0 1.8756312e-010 0 0)
(-0.0056434688 0.016381156 0 1.006114e-009 0 0)
(-0.0056434646 0.016381148 0 -6.9603273e-011 0 0)
(-0.0056434651 0.016381153 0 -8.9917609e-010 0 0)
(-0.005643467 0.016381156 0 -2.0382079e-010 0 0)
(-0.0056434685 0.016381158 0 3.0132904e-011 0 0)
(-0.0056434708 0.016381154 0 1.5020308e-009 0 0)
(-0.005643482 0.016381145 0 -2.6149549e-009 0 0)
(-0.0056434809 0.016381142 0 -7.3839395e-009 0 0)
(-0.0058532069 0.0076673332 0 0.0028158121 0 0)
(-0.0052986713 0.014175472 0 0.00051055933 0 0)
(-0.007721964 0.018026669 0 4.8295509e-005 0 0)
(-0.0088785551 0.019650134 0 9.4892673e-005 0 0)
(-0.0092757885 0.019990026 0 8.190043e-005 0 0)
(-0.0092492194 0.020056006 0 3.0964346e-005 0 0)
(-0.0092210215 0.020047001 0 4.0943971e-006 0 0)
(-0.0092078522 0.020039855 0 -9.5389426e-007 0 0)
(-0.0092060459 0.020035561 0 -3.3882886e-007 0 0)
(-0.0092057664 0.020034982 0 1.3301578e-007 0 0)
(-0.0092056742 0.020034835 0 9.7315636e-008 0 0)
(-0.009205523 0.020034802 0 2.9385281e-008 0 0)
(-0.0092054693 0.020034768 0 3.3705067e-009 0 0)
(-0.009205455 0.02003476 0 4.5765001e-010 0 0)
(-0.0092054531 0.020034758 0 3.5002078e-010 0 0)
(-0.009205453 0.020034759 0 3.4268066e-010 0 0)
(-0.0092054519 0.020034758 0 -1.0831905e-010 0 0)
(-0.0092054497 0.020034754 0 -7.9168994e-011 0 0)
(-0.0092054511 0.020034756 0 -2.7866157e-010 0 0)
(-0.0092054526 0.020034758 0 2.8160808e-010 0 0)
(-0.0092054526 0.020034758 0 5.5436903e-010 0 0)
(-0.0092054524 0.020034756 0 3.7828628e-011 0 0)
(-0.0092054545 0.020034754 0 1.4037276e-009 0 0)
(-0.0092054777 0.020034757 0 4.4026345e-009 0 0)
(-0.0092054723 0.020034727 0 1.7455958e-009 0 0)
(-0.0043253805 0.01052014 0 0.00018040263 0 0)
(-0.0065073743 0.018497304 0 -0.0014928047 0 0)
(-0.011310281 0.021591585 0 -0.00052697574 0 0)
(-0.012852561 0.022695126 0 -1.1554073e-006 0 0)
(-0.013364823 0.022944749 0 8.5266927e-005 0 0)
(-0.013340799 0.023013933 0 3.8300416e-005 0 0)
(-0.013310548 0.023010679 0 8.1057514e-006 0 0)
(-0.013293342 0.023006281 0 1.1940961e-007 0 0)
(-0.013290666 0.023002769 0 -6.5004958e-008 0 0)
(-0.013290226 0.023002468 0 2.0434224e-007 0 0)
(-0.013290163 0.023002417 0 1.3051265e-007 0 0)
(-0.013290015 0.023002438 0 4.114661e-008 0 0)
(-0.013289959 0.023002423 0 5.5050293e-009 0 0)
(-0.013289945 0.02300242 0 7.0547161e-010 0 0)
(-0.013289943 0.023002418 0 3.0652557e-010 0 0)
(-0.013289943 0.02300242 0 2.7491426e-010 0 0)
(-0.013289942 0.023002419 0 -4.3878477e-010 0 0)
(-0.013289943 0.02300242 0 -7.9434909e-010 0 0)
(-0.013289942 0.023002418 0 4.1602889e-011 0 0)
(-0.013289943 0.023002417 0 9.4396986e-010 0 0)
(-0.013289943 0.023002418 0 5.9487203e-010 0 0)
(-0.013289943 0.023002419 0 -4.3812485e-011 0 0)
(-0.013289946 0.023002418 0 5.7606598e-010 0 0)
(-0.013289967 0.023002425 0 7.7359718e-009 0 0)
(-0.013289974 0.023002399 0 7.4468554e-009 0 0)
(-0.0039135943 0.014625711 0 -0.0029043367 0 0)
(-0.0099222605 0.023126396 0 -0.0029338613 0 0)
(-0.015913696 0.024760419 0 -0.00076720847 0 0)
(-0.01713742 0.025229153 0 -4.5166216e-005 0 0)
(-0.017658573 0.025378465 0 7.9985212e-005 0 0)
(-0.017628924 0.025445537 0 3.7180775e-005 0 0)
(-0.01760729 0.025450289 0 9.3125488e-006 0 0)
(-0.017590196 0.025449547 0 8.0949829e-007 0 0)
(-0.017587915 0.025447372 0 1.4450811e-007 0 0)
(-0.017587452 0.025447431 0 1.9624628e-007 0 0)
(-0.01758752 0.025447486 0 1.3010354e-007 0 0)
(-0.017587399 0.025447554 0 3.4978708e-008 0 0)
(-0.017587365 0.025447555 0 4.8513896e-009 0 0)
(-0.017587356 0.025447557 0 1.928484e-010 0 0)
(-0.017587356 0.025447557 0 1.0553994e-010 0 0)
(-0.017587357 0.025447558 0 3.2563148e-011 0 0)
(-0.017587356 0.025447558 0 -5.6730538e-010 0 0)
(-0.017587355 0.025447557 0 -7.4812248e-010 0 0)
(-0.017587356 0.025447557 0 1.7253337e-010 0 0)
(-0.017587357 0.025447558 0 6.1309272e-010 0 0)
(-0.017587358 0.025447558 0 3.601937e-010 0 0)
(-0.017587358 0.025447558 0 6.8422066e-012 0 0)
(-0.017587357 0.025447558 0 -8.3666048e-010 0 0)
(-0.017587363 0.025447564 0 4.494481e-009 0 0)
(-0.017587378 0.025447554 0 6.2523768e-009 0 0)
(-0.0086464311 0.022978296 0 -0.0057740326 0 0)
(-0.0157743 0.027812682 0 -0.0037145288 0 0)
(-0.020953739 0.027484494 0 -0.00065439286 0 0)
(-0.021312143 0.027380552 0 -6.9950683e-005 0 0)
(-0.021754264 0.027457002 0 7.1203253e-005 0 0)
(-0.021732916 0.027529127 0 2.5427073e-005 0 0)
(-0.021737262 0.027543268 0 9.3634223e-006 0 0)
(-0.021721367 0.027545327 0 4.8342317e-007 0 0)
(-0.021721949 0.027544752 0 3.3619242e-007 0 0)
(-0.021721347 0.027544976 0 1.1409719e-007 0 0)
(-0.021721682 0.027545144 0 1.0890806e-007 0 0)
(-0.021721588 0.027545225 0 1.7173766e-008 0 0)
(-0.021721596 0.027545237 0 3.3556715e-009 0 0)
(-0.02172159 0.027545239 0 -5.6816595e-010 0 0)
(-0.021721592 0.027545239 0 -1.2559486e-010 0 0)
(-0.021721593 0.02754524 0 -1.6292136e-010 0 0)
(-0.021721593 0.02754524 0 -2.3248338e-010 0 0)
(-0.021721592 0.027545239 0 -3.0046931e-010 0 0)
(-0.021721592 0.027545239 0 -6.9362999e-011 0 0)
(-0.021721592 0.027545239 0 1.1975494e-010 0 0)
(-0.021721593 0.02754524 0 1.7423677e-010 0 0)
(-0.021721594 0.02754524 0 6.9247211e-011 0 0)
(-0.021721592 0.027545241 0 -1.7934558e-009 0 0)
(-0.021721581 0.027545243 0 1.9354398e-010 0 0)
(-0.021721584 0.027545247 0 2.8826381e-009 0 0)
(-0.02947074 0.039196304 0 -0.0096428495 0 0)
(-0.024755194 0.031348899 0 -0.0022327301 0 0)
(-0.031247174 0.032080201 0 -0.0003474436 0 0)
(-0.029266535 0.030859911 0 -3.0456031e-005 0 0)
(-0.030245761 0.031266938 0 3.4193133e-005 0 0)
(-0.030055725 0.031235605 0 1.0888843e-005 0 0)
(-0.030152242 0.031293529 0 4.2370323e-006 0 0)
(-0.030125501 0.031285949 0 3.3358989e-008 0 0)
(-0.030133956 0.031289801 0 2.0276364e-007 0 0)
(-0.030132067 0.031289037 0 1.1777657e-008 0 0)
(-0.030133017 0.031289548 0 4.0237593e-008 0 0)
(-0.030132885 0.031289523 0 8.2884761e-010 0 0)
(-0.030132937 0.031289552 0 2.5764791e-010 0 0)
(-0.030132928 0.031289547 0 -1.0006349e-009 0 0)
(-0.03013293 0.031289547 0 -2.0724453e-010 0 0)
(-0.03013293 0.031289546 0 -1.695491e-010 0 0)
(-0.03013293 0.031289546 0 1.1022416e-011 0 0)
(-0.030132929 0.031289546 0 -1.9807717e-011 0 0)
(-0.030132929 0.031289546 0 -5.6245904e-011 0 0)
(-0.030132929 0.031289546 0 -6.9738733e-011 0 0)
(-0.030132929 0.031289546 0 -4.131963e-012 0 0)
(-0.030132928 0.031289546 0 -7.8449626e-011 0 0)
(-0.030132924 0.031289547 0 -1.4965532e-009 0 0)
(-0.0301329 0.031289538 0 -2.8728959e-009 0 0)
(-0.030132864 0.031289549 0 -1.1225262e-009 0 0)
(-0.00012421901 0.00024365125 0 0.00015655572 0 0)
(-0.00025120103 -6.3114202e-006 0 0.00019863276 0 0)
(-0.00014013246 -6.3526913e-005 0 0.0001743774 0 0)
(-0.00015226696 -5.7327746e-005 0 0.0001294133 0 0)
(-9.4415e-005 -5.6858773e-005 0 0.00010447943 0 0)
(-8.3490245e-005 -3.7589156e-005 0 7.837952e-005 0 0)
(-6.4353168e-005 -2.6600348e-005 0 6.5419921e-005 0 0)
(-5.6810616e-005 -8.1815641e-006 0 5.5612909e-005 0 0)
(-5.3420414e-005 9.6901462e-006 0 5.3038378e-005 0 0)
(-5.5837511e-005 3.0999818e-005 0 5.5143122e-005 0 0)
(-6.4616388e-005 5.8321929e-005 0 6.4020343e-005 0 0)
(-7.8196117e-005 8.9005334e-005 0 7.7156369e-005 0 0)
(-0.00010221603 0.00013525544 0 0.00010076818 0 0)
(-0.00013480064 0.00019562401 0 0.00013252978 0 0)
(-0.00018033779 0.00028050214 0 0.00017615416 0 0)
(-0.0002419022 0.00040222628 0 0.00023475368 0 0)
(-0.00032330406 0.00058493461 0 0.00031114367 0 0)
(-0.00042069424 0.00082918049 0 0.00039415635 0 0)
(-0.00053668366 0.0012624027 0 0.00049979408 0 0)
(-0.00066072217 0.0018211243 0 0.0005462299 0 0)
(-0.00061451012 0.0030340428 0 0.00048379448 0 0)
(-0.00067476669 0.0045485883 0 -2.3392098e-005 0 0)
(0.0008404538 0.0070459807 0 -0.0013775288 0 0)
(0.0015197915 0.0075429411 0 -0.0036790642 0 0)
(0.0098584636 0.0047709552 0 -0.011683374 0 0)
(-0.00013598022 0.00029944063 0 0.00017360479 0 0)
(-0.00027860973 -1.2213972e-005 0 0.00021670658 0 0)
(-0.00014881022 -9.1223624e-005 0 0.00018693989 0 0)
(-0.00015213539 -8.5198098e-005 0 0.00012633325 0 0)
(-8.7149216e-005 -7.5039065e-005 0 9.7208087e-005 0 0)
(-7.0797196e-005 -5.2085472e-005 0 6.6344973e-005 0 0)
(-5.1147982e-005 -3.3815362e-005 0 5.1992991e-005 0 0)
(-4.1600535e-005 -1.1735676e-005 0 4.099398e-005 0 0)
(-3.684286e-005 1.0450159e-005 0 3.6688131e-005 0 0)
(-3.6532774e-005 3.6035307e-005 0 3.619795e-005 0 0)
(-4.0149859e-005 6.6144321e-005 0 4.0069815e-005 0 0)
(-4.7271596e-005 0.00010166203 0 4.683315e-005 0 0)
(-5.9792213e-005 0.00015230519 0 5.9009835e-005 0 0)
(-7.690096e-005 0.00022036963 0 7.5669557e-005 0 0)
(-9.8386672e-005 0.00031119831 0 9.5695894e-005 0 0)
(-0.00012513863 0.00043976984 0 0.00011969108 0 0)
(-0.00015338663 0.00062789983 0 0.00014403312 0 0)
(-0.00017792609 0.00087425369 0 0.00015570869 0 0)
(-0.00017312629 0.001268563 0 0.00013829982 0 0)
(-0.00012379053 0.0017690069 0 2.8218651e-005 0 0)
(0.00015621023 0.0026958425 0 -0.00030805016 0 0)
(0.00065351336 0.0036141207 0 -0.0012229446 0 0)
(0.0025875175 0.0046748367 0 -0.003213065 0 0)
(0.0049880463 0.0021875438 0 -0.0069349604 0 0)
(0.0062214986 -0.0030235899 0 -0.0093558663 0 0)
(-0.00016544079 0.00036279586 0 0.0002030138 0 0)
(-0.00031089456 -2.8772177e-005 0 0.0002486534 0 0)
(-0.0001574578 -0.00013364081 0 0.00019416637 0 0)
(-0.00014661708 -0.00012365448 0 0.00012194959 0 0)
(-7.441492e-005 -0.00010108 0 8.1678124e-005 0 0)
(-5.3579192e-005 -7.0968743e-005 0 5.0437438e-005 0 0)
(-3.4046918e-005 -4.5618173e-005 0 3.4106946e-005 0 0)
(-2.3384454e-005 -1.9147795e-005 0 2.3153318e-005 0 0)
(-1.7615069e-005 6.3420379e-006 0 1.7472593e-005 0 0)
(-1.4641329e-005 3.4098852e-005 0 1.4371416e-005 0 0)
(-1.3553447e-005 6.6278998e-005 0 1.3522725e-005 0 0)
(-1.3839897e-005 0.00010515488 0 1.3623177e-005 0 0)
(-1.4993251e-005 0.00015562518 0 1.423683e-005 0 0)
(-1.5625455e-005 0.00022568295 0 1.4478274e-005 0 0)
(-1.4302756e-005 0.00031763617 0 1.2152248e-005 0 0)
(-8.3843443e-006 0.00044262532 0 3.5641152e-006 0 0)
(1.0433929e-005 0.00062149618 0 -1.8678411e-005 0 0)
(4.918226e-005 0.0008520077 0 -6.7641992e-005 0 0)
(0.00013967261 0.001190555 0 -0.00016930718 0 0)
(0.00029963777 0.0016174424 0 -0.00037041989 0 0)
(0.00070157826 0.0022906524 0 -0.00080989232 0 0)
(0.0013933869 0.0029251779 0 -0.0017178155 0 0)
(0.0029873968 0.0032425456 0 -0.0032908244 0 0)