/*--------------------------------*- C++ -*----------------------------------*\
| =========                 |                                                 |
| \\      /  F ield         | OpenFOAM: The Open Source CFD Toolbox           |
|  \\    /   O peration     | Version:  5.x                                   |
|   \\  /    A nd           | Web:      www.OpenFOAM.org                      |
|    \\/     M anipulation  |                                                 |
\*---------------------------------------------------------------------------*/
/*   Windows 32 and 64 bit porting by blueCAPE: http://www.bluecape.com.pt   *\
|  Based on Windows porting (2.0.x v4) by Symscape: http://www.symscape.com   |
\*---------------------------------------------------------------------------*/
FoamFile
{
    version     2.0;
    format      ascii;
    class       volSymmTensorField;
    location    "0.08";
    object      sigma;
}
// * * * * * * * * * * * * * * * * * * * * * * * * * * * * * * * * * * * * * //

dimensions      [0 2 -2 0 0 0 0];

internalField   nonuniform List<symmTensor> 
750
(
(-0.00013234619 1.0970387e-005 0 0.00014561101 0 0)
(-0.00020106127 -3.8897627e-007 0 0.00017795592 0 0)
(-0.00012628061 -2.3129521e-006 0 0.00014041266 0 0)
(-0.00014378573 -1.7876573e-006 0 0.00013339073 0 0)
(-0.00010057142 -2.247665e-006 0 0.00010588272 0 0)
(-0.00010226595 -1.3257117e-006 0 9.9006108e-005 0 0)
(-8.4269374e-005 -1.1491177e-006 0 8.5596726e-005 0 0)
(-8.3370047e-005 -2.4791098e-007 0 8.2490401e-005 0 0)
(-8.2920207e-005 5.0257552e-007 0 8.305619e-005 0 0)
(-9.2309765e-005 1.591822e-006 0 9.1987986e-005 0 0)
(-0.0001114541 2.9636173e-006 0 0.00011118991 0 0)
(-0.00013884076 4.5409881e-006 0 0.00013832484 0 0)
(-0.00018698611 7.0286365e-006 0 0.00018613632 0 0)
(-0.00025423405 1.0378982e-005 0 0.00025270073 0 0)
(-0.0003529948 1.5144513e-005 0 0.0003497463 0 0)
(-0.00049887162 2.2406081e-005 0 0.00049295519 0 0)
(-0.00071580655 3.3654842e-005 0 0.00070329748 0 0)
(-0.0010297949 4.975971e-005 0 0.001002879 0 0)
(-0.0015392605 7.9844574e-005 0 0.0014876585 0 0)
(-0.0022848776 0.00012029558 0 0.0021481397 0 0)
(-0.0035716044 0.0002108512 0 0.0033239565 0 0)
(-0.0057531552 0.00031432302 0 0.0049701048 0 0)
(-0.0093707999 0.00048757312 0 0.0078176925 0 0)
(-0.014202068 0.00067176705 0 0.010384822 0 0)
(-0.018522656 0.00024979315 0 0.013127852 0 0)
(-0.00013219482 3.2342798e-005 0 0.00014722746 0 0)
(-0.00020177356 -9.3565325e-007 0 0.00017578062 0 0)
(-0.00012651478 -6.6181041e-006 0 0.00014315596 0 0)
(-0.00014380414 -5.463152e-006 0 0.00013161149 0 0)
(-0.00010055441 -6.4046065e-006 0 0.00010714268 0 0)
(-0.00010198557 -3.9326377e-006 0 9.8012422e-005 0 0)
(-8.3981357e-005 -3.163094e-006 0 8.5649906e-005 0 0)
(-8.2949479e-005 -5.5323847e-007 0 8.1838956e-005 0 0)
(-8.244683e-005 1.773364e-006 0 8.2616541e-005 0 0)
(-9.1749081e-005 5.0019875e-006 0 9.1331675e-005 0 0)
(-0.00011061126 9.1174258e-006 0 0.00011030708 0 0)
(-0.00013774791 1.3841497e-005 0 0.00013714161 0 0)
(-0.00018559045 2.1285647e-005 0 0.00018461497 0 0)
(-0.00025226355 3.1258199e-005 0 0.00025056299 0 0)
(-0.00034979827 4.5449915e-005 0 0.00034625655 0 0)
(-0.00049457887 6.7146217e-005 0 0.00048834161 0 0)
(-0.00070862968 0.00010023416 0 0.00069538214 0 0)
(-0.0010178451 0.00014829721 0 0.00099015972 0 0)
(-0.0015228413 0.00023796783 0 0.0014700961 0 0)
(-0.0022477522 0.00035246605 0 0.0021050284 0 0)
(-0.0035405848 0.0006398158 0 0.0032944511 0 0)
(-0.0056625255 0.00094076305 0 0.0048493095 0 0)
(-0.009339146 0.0013839696 0 0.0077929125 0 0)
(-0.014100745 0.0020286664 0 0.010153749 0 0)
(-0.018403426 0.00084331479 0 0.013070763 0 0)
(-0.00013198336 5.3302229e-005 0 0.00014819632 0 0)
(-0.00020320624 -1.1505997e-006 0 0.00017510392 0 0)
(-0.0001268282 -1.0723735e-005 0 0.00014487672 0 0)
(-0.00014407229 -9.2976334e-006 0 0.00013087432 0 0)
(-0.00010044649 -1.0419079e-005 0 0.00010755526 0 0)
(-0.00010146761 -6.6167501e-006 0 9.7211414e-005 0 0)
(-8.3399769e-005 -5.0774258e-006 0 8.5218302e-005 0 0)
(-8.2125571e-005 -8.4858956e-007 0 8.0972535e-005 0 0)
(-8.1500891e-005 3.0994177e-006 0 8.1724003e-005 0 0)
(-9.0595825e-005 8.4300526e-006 0 9.0196067e-005 0 0)
(-0.00010899059 1.5245221e-005 0 0.00010874402 0 0)
(-0.00013569722 2.3126378e-005 0 0.00013514063 0 0)
(-0.00018281266 3.5468461e-005 0 0.00018190404 0 0)
(-0.00024826979 5.1915162e-005 0 0.00024667758 0 0)
(-0.0003437355 7.5370945e-005 0 0.00034033714 0 0)
(-0.00048563701 0.00011134161 0 0.00047966851 0 0)
(-0.00069470468 0.00016553986 0 0.00068182066 0 0)
(-0.00099537427 0.00024521918 0 0.0009683085 0 0)
(-0.0014869037 0.0003917266 0 0.0014356432 0 0)
(-0.0021854788 0.00058914245 0 0.0020438834 0 0)
(-0.0034561585 0.0010319898 0 0.0032152847 0 0)
(-0.0055324302 0.0015592608 0 0.0047091929 0 0)
(-0.0091595713 0.0023610057 0 0.0076196018 0 0)
(-0.013948367 0.0034750252 0 0.0098473177 0 0)
(-0.017912779 0.0016150015 0 0.012752592 0 0)
(-0.00013156668 7.4508119e-005 0 0.0001483705 0 0)
(-0.00020534115 -1.118038e-006 0 0.00017616338 0 0)
(-0.00012738244 -1.487264e-005 0 0.00014600889 0 0)
(-0.00014454758 -1.3312454e-005 0 0.00013107944 0 0)
(-0.00010027577 -1.4639719e-005 0 0.00010741369 0 0)
(-0.00010070582 -9.4992548e-006 0 9.6481863e-005 0 0)
(-8.2512455e-005 -7.1696904e-006 0 8.4296728e-005 0 0)
(-8.089612e-005 -1.3431718e-006 0 7.9777168e-005 0 0)
(-8.0094063e-005 4.222475e-006 0 8.0307388e-005 0 0)
(-8.8795801e-005 1.1589998e-005 0 8.8411305e-005 0 0)
(-0.00010674082 2.1121578e-005 0 0.0001064868 0 0)
(-0.00013269382 3.2084577e-005 0 0.00013213824 0 0)
(-0.00017852666 4.9194112e-005 0 0.0001776229 0 0)
(-0.00024216784 7.1966726e-005 0 0.00024058633 0 0)
(-0.00033489176 0.00010452758 0 0.00033150665 0 0)
(-0.00047214664 0.00015397525 0 0.00046617231 0 0)
(-0.00067395622 0.00022900038 0 0.00066119217 0 0)
(-0.0009625316 0.0003396133 0 0.00093549445 0 0)
(-0.0014316491 0.00054031033 0 0.0013810014 0 0)
(-0.0020991906 0.00081227879 0 0.0019589456 0 0)
(-0.0033029566 0.0014523674 0 0.0030609386 0 0)
(-0.0053286425 0.0022226381 0 0.0044937106 0 0)
(-0.0087882026 0.0034091122 0 0.007239733 0 0)
(-0.013707556 0.0049926983 0 0.0093899581 0 0)
(-0.016908196 0.0026067192 0 0.01210699 0 0)
(-0.00013085928 9.6117384e-005 0 0.00014772883 0 0)
(-0.00020819239 -9.9769514e-007 0 0.00017875937 0 0)
(-0.00012827539 -1.9164435e-005 0 0.00014695241 0 0)
(-0.00014521994 -1.7455801e-005 0 0.00013186435 0 0)
(-0.00010005087 -1.902172e-005 0 0.00010702335 0 0)
(-9.9682643e-005 -1.2439539e-005 0 9.5599193e-005 0 0)
(-8.1320228e-005 -9.3106312e-006 0 8.3015332e-005 0 0)
(-7.9263685e-005 -1.8750194e-006 0 7.820369e-005 0 0)
(-7.822939e-005 5.2910761e-006 0 7.8422528e-005 0 0)
(-8.6423326e-005 1.4658833e-005 0 8.6059401e-005 0 0)
(-0.00010374319 2.6838263e-005 0 0.00010348585 0 0)
(-0.00012874029 4.0804028e-005 0 0.00012819611 0 0)
(-0.00017288852 6.2509412e-005 0 0.00017200216 0 0)
(-0.00023410747 9.1372507e-005 0 0.00023255003 0 0)
(-0.00032327873 0.0001326753 0 0.00031994055 0 0)
(-0.00045435017 0.00019521335 0 0.00044839368 0 0)
(-0.00064658406 0.00028978195 0 0.0006340379 0 0)
(-0.00091956641 0.0004294895 0 0.0008926365 0 0)
(-0.0013587218 0.00068094009 0 0.0013085672 0 0)
(-0.0019840271 0.0010306718 0 0.0018454622 0 0)
(-0.0031154696 0.0018078288 0 0.0028697976 0 0)
(-0.0050796671 0.0027819779 0 0.0042332426 0 0)
(-0.0082848719 0.0043462931 0 0.0067285715 0 0)
(-0.013336573 0.0064894011 0 0.008751825 0 0)
(-0.015561951 0.0037040075 0 0.01126032 0 0)
(-0.00012986341 0.00011804863 0 0.00014654295 0 0)
(-0.00021182185 -9.8889449e-007 0 0.00018250015 0 0)
(-0.00012949015 -2.3821519e-005 0 0.0001479615 0 0)
(-0.00014608717 -2.1798946e-005 0 0.0001330054 0 0)
(-9.9758991e-005 -2.3680052e-005 0 0.00010648304 0 0)
(-9.8374903e-005 -1.5486413e-005 0 9.4468745e-005 0 0)
(-7.9827701e-005 -1.1564891e-005 0 8.141239e-005 0 0)
(-7.7227515e-005 -2.4993819e-006 0 7.623735e-005 0 0)
(-7.5913508e-005 6.2455666e-006 0 7.6086429e-005 0 0)
(-8.3510598e-005 1.7578466e-005 0 8.3166605e-005 0 0)
(-9.9984224e-005 3.2303545e-005 0 9.9745679e-005 0 0)
(-0.00012384323 4.9173539e-005 0 0.00012332043 0 0)
(-0.00016592833 7.5251882e-005 0 0.00016506382 0 0)
(-0.00022427205 0.00010991372 0 0.00022273831 0 0)
(-0.00030903324 0.00015958742 0 0.00030577274 0 0)
(-0.00043268118 0.00023404245 0 0.00042677625 0 0)
(-0.00061292497 0.00034733152 0 0.00060067608 0 0)
(-0.00086791434 0.00051249119 0 0.00084137779 0 0)
(-0.0012691797 0.00081078835 0 0.001219819 0 0)
(-0.0018457346 0.0012243077 0 0.0017105886 0 0)
(-0.0028569998 0.0021667742 0 0.0026153712 0 0)
(-0.0046871888 0.0033925382 0 0.0038417525 0 0)
(-0.0075492123 0.0053417834 0 0.0060183322 0 0)
(-0.012741624 0.0080097193 0 0.0078881478 0 0)
(-0.013702869 0.0045684821 0 0.010273837 0 0)
(-0.00012869741 0.00014003046 0 0.000145217 0 0)
(-0.00021629148 -1.2549237e-006 0 0.00018690962 0 0)
(-0.00013097057 -2.8985312e-005 0 0.00014928184 0 0)
(-0.00014712004 -2.6423699e-005 0 0.0001342869 0 0)
(-9.9374253e-005 -2.8686311e-005 0 0.00010583931 0 0)
(-9.6761497e-005 -1.869025e-005 0 9.3050202e-005 0 0)
(-7.8031152e-005 -1.3965647e-005 0 7.9492874e-005 0 0)
(-7.4785555e-005 -3.2455682e-006 0 7.3877287e-005 0 0)
(-7.3153262e-005 7.0519668e-006 0 7.3303678e-005 0 0)
(-8.0048077e-005 2.0287869e-005 0 7.9731528e-005 0 0)
(-9.5546086e-005 3.7470313e-005 0 9.5320113e-005 0 0)
(-0.00011807402 5.7073143e-005 0 0.00011756709 0 0)
(-0.00015772528 8.7291114e-005 0 0.00015686925 0 0)
(-0.00021270322 0.00012752207 0 0.00021117683 0 0)
(-0.0002923697 0.00018479975 0 0.0002891556 0 0)
(-0.00040738332 0.0002704963 0 0.00040152303 0 0)
(-0.00057458629 0.00039970536 0 0.00056257628 0 0)
(-0.00080701886 0.00058885195 0 0.00078077943 0 0)
(-0.001165856 0.00092762212 0 0.001117843 0 0)
(-0.0016782412 0.0014041274 0 0.0015452212 0 0)
(-0.0025488241 0.0024804898 0 0.0023087613 0 0)
(-0.0042151466 0.0039081217 0 0.0033616261 0 0)
(-0.0064326133 0.006456501 0 0.0049102421 0 0)
(-0.011951276 0.0092243541 0 0.0068613012 0 0)
(-0.0095690112 0.0058491539 0 0.0072958426 0 0)
(-0.00012751811 0.00016211636 0 0.0001445323 0 0)
(-0.00022165789 -1.8472506e-006 0 0.00019099097 0 0)
(-0.0001326524 -3.4761548e-005 0 0.00015156461 0 0)
(-0.00014829173 -3.1470081e-005 0 0.0001353506 0 0)
(-9.8849886e-005 -3.4023405e-005 0 0.00010510302 0 0)
(-9.4824753e-005 -2.2062993e-005 0 9.1319713e-005 0 0)
(-7.5927431e-005 -1.6506953e-005 0 7.7248701e-005 0 0)
(-7.1936537e-005 -4.1097784e-006 0 7.11093e-005 0 0)
(-6.9962607e-005 7.7120706e-006 0 7.0079609e-005 0 0)
(-7.6045454e-005 2.2739168e-005 0 7.5749236e-005 0 0)
(-9.0493879e-005 4.2308977e-005 0 9.0246239e-005 0 0)
(-0.00011147467 6.4500718e-005 0 0.00011095336 0 0)
(-0.00014839352 9.855534e-005 0 0.00014752178 0 0)
(-0.00019957667 0.00014378939 0 0.00019801974 0 0)
(-0.00027343169 0.00020821578 0 0.00027017246 0 0)
(-0.00037918244 0.00030343675 0 0.00037316544 0 0)
(-0.00053042559 0.00044867078 0 0.00051848875 0 0)
(-0.00073921809 0.00065628419 0 0.00071331937 0 0)
(-0.0010485598 0.0010307882 0 0.0010017004 0 0)
(-0.0014932073 0.0015574483 0 0.0013637071 0 0)
(-0.0021963361 0.0027368274 0 0.0019530003 0 0)
(-0.0036215975 0.0043405317 0 0.0027632982 0 0)
(-0.0053581592 0.0072082527 0 0.00381992 0 0)
(-0.010818857 0.010143318 0 0.0056393116 0 0)
(-0.0067009665 0.0068390466 0 0.0049476516 0 0)
(-0.00012658335 0.00018409157 0 0.00014512188 0 0)
(-0.00022789141 -2.6288264e-006 0 0.0001944096 0 0)
(-0.00013450473 -4.104827e-005 0 0.00015479909 0 0)
(-0.0001495154 -3.710262e-005 0 0.00013587885 0 0)
(-9.8146897e-005 -3.9694627e-005 0 0.00010441558 0 0)
(-9.2546074e-005 -2.5656245e-005 0 8.9140319e-005 0 0)
(-7.3508156e-005 -1.9206043e-005 0 7.4754812e-005 0 0)
(-6.8699388e-005 -5.1143512e-006 0 6.7918526e-005 0 0)
(-6.6358624e-005 8.1924281e-006 0 6.6459487e-005 0 0)
(-7.1588695e-005 2.4964135e-005 0 7.1296411e-005 0 0)
(-8.4742423e-005 4.6744289e-005 0 8.4501817e-005 0 0)
(-0.00010402537 7.1386726e-005 0 0.00010352973 0 0)
(-0.00013788655 0.00010892907 0 0.00013705224 0 0)
(-0.00018480313 0.00015887035 0 0.00018328692 0 0)
(-0.0002521154 0.00022977587 0 0.00024895767 0 0)
(-0.00034745079 0.00033379182 0 0.00034156983 0 0)
(-0.00048249583 0.00049145333 0 0.00047079362 0 0)
(-0.00066359281 0.00071543637 0 0.00063805988 0 0)
(-0.00092617779 0.0011149064 0 0.00088088286 0 0)
(-0.0012873446 0.0016702594 0 0.0011604905 0 0)
(-0.0017642594 0.0029551587 0 0.0015442697 0 0)
(-0.002964998 0.00458702 0 0.0021219097 0 0)
(-0.0035076711 0.0079931926 0 0.0021299974 0 0)
(-0.007734281 0.011041507 0 0.0030115377 0 0)
(-0.00053515878 0.009540807 0 -0.0013346844 0 0)
(-0.00012597568 0.00020659162 0 0.00014797582 0 0)
(-0.00023496808 -3.4510183e-006 0 0.00019576578 0 0)
(-0.00013674744 -4.8141096e-005 0 0.00016110523 0 0)
(-0.00015065145 -4.3132415e-005 0 0.00013429987 0 0)
(-9.7192459e-005 -4.5716609e-005 0 0.00010489159 0 0)
(-8.9906207e-005 -2.942807e-005 0 8.6017354e-005 0 0)
(-7.0747435e-005 -2.1950568e-005 0 7.2230253e-005 0 0)
(-6.5026586e-005 -6.2100504e-006 0 6.4216934e-005 0 0)
(-6.230025e-005 8.5660922e-006 0 6.244092e-005 0 0)
(-6.6714032e-005 2.7201219e-005 0 6.6472867e-005 0 0)
(-7.824721e-005 5.0682915e-005 0 7.8154583e-005 0 0)
(-9.5687194e-005 7.7654506e-005 0 9.5313465e-005 0 0)
(-0.0001263877 0.00011856967 0 0.00012568805 0 0)
(-0.00016869717 0.00017282549 0 0.00016739217 0 0)
(-0.00022852643 0.00024922741 0 0.00022564649 0 0)
(-0.00031221466 0.000360917 0 0.00030667087 0 0)
(-0.00042956165 0.00052968689 0 0.00041824786 0 0)
(-0.00058669914 0.00076139601 0 0.00056020887 0 0)
(-0.00078963296 0.0011865542 0 0.00074603008 0 0)
(-0.0010803573 0.0017357947 0 0.00094553245 0 0)
(-0.0012714032 0.003069707 0 0.0010911398 0 0)
(-0.0020715968 0.004660163 0 0.0012284966 0 0)
(-0.0013416777 0.0078583416 0 0.00036417897 0 0)
(-0.0033969371 0.010008582 0 -0.00027234407 0 0)
(0.0037698109 0.0098147046 0 -0.0069139877 0 0)
(-0.014573218 0.00021953158 0 0.01051646 0 0)
(-0.0077539192 0.00069780746 0 0.0065080685 0 0)
(-0.0026880508 0.0011947388 0 0.0023339281 0 0)
(-0.0004975197 0.0014111404 0 0.00046168039 0 0)
(-6.1900503e-006 0.0014618679 0 -4.3197668e-005 0 0)
(3.2435404e-005 0.0014627669 0 -7.0585389e-005 0 0)
(-1.7250901e-005 0.0014581647 0 -2.138825e-005 0 0)
(-3.3699569e-005 0.0014564521 0 -3.5894721e-006 0 0)
(-3.7503819e-005 0.0014560122 0 1.1811456e-007 0 0)
(-3.7023334e-005 0.0014559558 0 -2.4574663e-007 0 0)
(-3.7017569e-005 0.0014559139 0 -2.7494225e-007 0 0)
(-3.7168482e-005 0.0014558852 0 -1.125421e-007 0 0)
(-3.7259605e-005 0.0014558723 0 -2.3463637e-008 0 0)
(-3.7278581e-005 0.0014558692 0 -3.6601168e-009 0 0)
(-3.7280747e-005 0.0014558668 0 -1.372912e-009 0 0)
(-3.7281702e-005 0.0014558681 0 -4.2932365e-010 0 0)
(-3.7282353e-005 0.0014558669 0 1.7322493e-010 0 0)
(-3.7281758e-005 0.0014558676 0 -4.7900659e-010 0 0)
(-3.7281708e-005 0.0014558676 0 -5.1548355e-010 0 0)
(-3.7283135e-005 0.0014558643 0 8.8576909e-010 0 0)
(-3.7282821e-005 0.0014558627 0 6.4566366e-010 0 0)
(-3.7281546e-005 0.0014558657 0 -4.5751467e-010 0 0)
(-3.7279914e-005 0.0014558652 0 -6.6118531e-010 0 0)
(-3.7267337e-005 0.0014558618 0 3.4682726e-009 0 0)
(-3.7271253e-005 0.0014558769 0 8.0204631e-009 0 0)
(-0.014065507 0.00080017241 0 0.010056334 0 0)
(-0.0073653089 0.0023190707 0 0.0061317534 0 0)
(-0.0027472176 0.0038085183 0 0.0021210067 0 0)
(-0.00081462111 0.0044562146 0 0.00045988678 0 0)
(-0.000373895 0.0046038149 0 -1.6410758e-005 0 0)
(-0.00032212513 0.0046115334 0 -5.5026157e-005 0 0)
(-0.00035965629 0.0046004678 0 -1.9091115e-005 0 0)
(-0.00037325119 0.0045959515 0 -3.4202406e-006 0 0)
(-0.00037657361 0.0045946659 0 -9.9848678e-008 0 0)
(-0.00037625214 0.0045944916 0 -2.2368422e-007 0 0)
(-0.00037626373 0.0045943596 0 -2.2070048e-007 0 0)
(-0.00037636344 0.0045942856 0 -9.8032109e-008 0 0)
(-0.00037644164 0.004594251 0 -1.8771706e-008 0 0)
(-0.00037645335 0.0045942344 0 -4.1596356e-009 0 0)
(-0.00037645655 0.0045942383 0 -9.0611855e-010 0 0)
(-0.00037645727 0.0045942364 0 -1.469708e-010 0 0)
(-0.00037645773 0.0045942354 0 9.6019079e-011 0 0)
(-0.00037645623 0.0045942264 0 -3.8177459e-010 0 0)
(-0.0003764571 0.0045942355 0 8.5316684e-011 0 0)
(-0.0003764577 0.0045942367 0 3.31424e-010 0 0)
(-0.00037645653 0.0045942244 0 -1.7448388e-010 0 0)
(-0.00037645689 0.0045942362 0 -2.4613644e-010 0 0)
(-0.00037645583 0.004594231 0 -2.8026313e-010 0 0)
(-0.00037644147 0.0045942213 0 2.4644831e-010 0 0)
(-0.00037644706 0.0045942695 0 1.9979688e-009 0 0)
(-0.013146679 0.0017205899 0 0.0093361719 0 0)
(-0.0065918996 0.0045388358 0 0.0053049707 0 0)
(-0.0030214463 0.006941246 0 0.0017864001 0 0)
(-0.0016005031 0.008004664 0 0.00041376742 0 0)
(-0.0013040249 0.0082327456 0 3.4441729e-005 0 0)
(-0.0012262166 0.0082685624 0 -3.2520581e-005 0 0)
(-0.0012451372 0.0082541704 0 -1.43157e-005 0 0)
(-0.0012525951 0.0082474287 0 -3.374267e-006 0 0)
(-0.0012552145 0.0082449916 0 -3.4672244e-007 0 0)
(-0.0012550701 0.0082446456 0 -1.8916452e-007 0 0)
(-0.0012551 0.0082444423 0 -1.4533801e-007 0 0)
(-0.0012551329 0.0082443452 0 -6.8363806e-008 0 0)
(-0.0012551744 0.0082442957 0 -1.461772e-008 0 0)
(-0.0012551818 0.0082442835 0 -2.1521152e-009 0 0)
(-0.001255182 0.0082442773 0 -4.0350135e-010 0 0)
(-0.0012551824 0.0082442784 0 -1.9122419e-010 0 0)
(-0.0012551802 0.0082442618 0 6.69298e-011 0 0)
(-0.0012551816 0.0082442723 0 4.835656e-010 0 0)
(-0.001255183 0.0082442768 0 7.7788677e-010 0 0)
(-0.0012551817 0.0082442781 0 -7.3940678e-010 0 0)
(-0.0012551795 0.008244263 0 -9.6229022e-010 0 0)
(-0.0012551814 0.0082442709 0 -1.4550517e-010 0 0)
(-0.001255182 0.008244272 0 2.178857e-010 0 0)
(-0.0012551752 0.0082442641 0 -5.822443e-009 0 0)
(-0.0012551776 0.0082442872 0 -7.3461299e-009 0 0)
(-0.011637352 0.0030406962 0 0.0081031382 0 0)
(-0.0055838899 0.0074951374 0 0.0039093968 0 0)
(-0.0038914116 0.010506556 0 0.0013816483 0 0)
(-0.0031236546 0.011983812 0 0.00033361658 0 0)
(-0.003028036 0.012291459 0 5.5254796e-005 0 0)
(-0.0029687216 0.012348448 0 -6.4614009e-006 0 0)
(-0.0029672281 0.012335517 0 -8.114811e-006 0 0)
(-0.0029676443 0.012327544 0 -2.9440437e-006 0 0)
(-0.0029690323 0.012324012 0 -5.2868817e-007 0 0)
(-0.002968992 0.012323475 0 -1.0512907e-007 0 0)
(-0.002968992 0.012323243 0 -5.5714828e-008 0 0)
(-0.0029689517 0.012323144 0 -2.8420265e-008 0 0)
(-0.0029689508 0.01232309 0 -8.010453e-009 0 0)
(-0.002968949 0.012323077 0 -1.3867231e-009 0 0)
(-0.0029689477 0.012323071 0 -4.3416314e-011 0 0)
(-0.0029689473 0.012323072 0 -2.8361283e-010 0 0)
(-0.0029689469 0.012323064 0 2.197596e-010 0 0)
(-0.0029689483 0.012323066 0 1.3193678e-009 0 0)
(-0.0029689481 0.01232307 0 3.752652e-010 0 0)
(-0.0029689431 0.012323057 0 -1.255848e-009 0 0)
(-0.0029689445 0.012323065 0 -1.0214545e-009 0 0)
(-0.0029689476 0.012323071 0 1.0133356e-010 0 0)
(-0.0029689501 0.012323071 0 1.069226e-009 0 0)
(-0.0029689482 0.012323054 0 -7.1030301e-009 0 0)
(-0.0029689526 0.012323079 0 -1.0979609e-008 0 0)
(-0.0094664246 0.0044336044 0 0.0063048338 0 0)
(-0.0049112857 0.011397254 0 0.0019833446 0 0)
(-0.0053540961 0.014138626 0 0.00084023187 0 0)
(-0.0055685173 0.01602585 0 0.00021502462 0 0)
(-0.0057404259 0.016388588 0 6.5689282e-005 0 0)
(-0.0057033257 0.01644541 0 1.4909781e-005 0 0)
(-0.0056854443 0.016432376 0 -1.686883e-006 0 0)
(-0.0056786097 0.016424174 0 -2.0955979e-006 0 0)
(-0.0056783876 0.01641991 0 -5.331147e-007 0 0)
(-0.0056782951 0.016419258 0 1.3857065e-008 0 0)
(-0.0056782407 0.016419045 0 3.0409877e-008 0 0)
(-0.0056781336 0.01641897 0 6.4358836e-009 0 0)
(-0.0056780973 0.016418921 0 -1.3645512e-009 0 0)
(-0.005678087 0.016418909 0 -3.4482203e-010 0 0)
(-0.0056780835 0.016418903 0 2.1089053e-010 0 0)
(-0.0056780839 0.016418904 0 -7.3851656e-011 0 0)
(-0.0056780836 0.016418902 0 1.8241567e-010 0 0)
(-0.0056780848 0.016418903 0 1.0124995e-009 0 0)
(-0.0056780806 0.016418895 0 -6.3853147e-011 0 0)
(-0.005678081 0.0164189 0 -9.0667142e-010 0 0)
(-0.005678083 0.016418903 0 -2.0481867e-010 0 0)
(-0.0056780845 0.016418905 0 4.065626e-011 0 0)
(-0.0056780868 0.016418901 0 1.5517288e-009 0 0)
(-0.0056780982 0.016418892 0 -2.2537131e-009 0 0)
(-0.005678097 0.016418888 0 -7.0400512e-009 0 0)
(-0.0058468326 0.0076827138 0 0.0028053763 0 0)
(-0.0053004391 0.014178104 0 0.00050406924 0 0)
(-0.0077347057 0.018034936 0 4.3413305e-005 0 0)
(-0.0089011352 0.019661113 0 9.3465169e-005 0 0)
(-0.0093021454 0.02000232 0 8.2144171e-005 0 0)
(-0.0092762952 0.020068806 0 3.1367628e-005 0 0)
(-0.0092478582 0.020059908 0 4.2491136e-006 0 0)
(-0.0092344978 0.020052734 0 -9.3407495e-007 0 0)
(-0.0092326215 0.020048402 0 -3.4694185e-007 0 0)
(-0.0092323401 0.020047813 0 1.3097751e-007 0 0)
(-0.0092322508 0.020047666 0 9.7994794e-008 0 0)
(-0.0092320997 0.020047634 0 2.984194e-008 0 0)
(-0.0092320455 0.0200476 0 3.4211497e-009 0 0)
(-0.009232031 0.020047592 0 4.3291325e-010 0 0)
(-0.0092320291 0.02004759 0 3.3825801e-010 0 0)
(-0.009232029 0.02004759 0 3.3615746e-010 0 0)
(-0.009232028 0.02004759 0 -1.1240226e-010 0 0)
(-0.0092320258 0.020047586 0 -7.7717184e-011 0 0)
(-0.0092320272 0.020047588 0 -2.8101385e-010 0 0)
(-0.0092320287 0.02004759 0 2.7987923e-010 0 0)
(-0.0092320286 0.020047589 0 5.61811e-010 0 0)
(-0.0092320285 0.020047588 0 5.4882116e-011 0 0)
(-0.0092320306 0.020047586 0 1.4488451e-009 0 0)
(-0.009232054 0.020047589 0 4.7333152e-009 0 0)
(-0.0092320487 0.02004756 0 2.0773432e-009 0 0)
(-0.0043257012 0.010521125 0 0.00017864526 0 0)
(-0.0065060508 0.01849365 0 -0.0014985683 0 0)
(-0.0113129 0.021584422 0 -0.0005319147 0 0)
(-0.012860773 0.022687023 0 -3.068937e-006 0 0)
(-0.013376319 0.022936845 0 8.5267183e-005 0 0)
(-0.013353236 0.023006435 0 3.8660097e-005 0 0)
(-0.01332288 0.023003386 0 8.2664518e-006 0 0)
(-0.013305519 0.022999005 0 1.508835e-007 0 0)
(-0.013302767 0.022995471 0 -7.1983852e-008 0 0)
(-0.013302326 0.022995161 0 2.0184022e-007 0 0)
(-0.013302266 0.022995111 0 1.3091287e-007 0 0)
(-0.013302119 0.022995133 0 4.1640667e-008 0 0)
(-0.013302062 0.022995118 0 5.5544517e-009 0 0)
(-0.013302049 0.022995115 0 6.7405454e-010 0 0)
(-0.013302046 0.022995113 0 2.9228356e-010 0 0)
(-0.013302047 0.022995115 0 2.7144028e-010 0 0)
(-0.013302046 0.022995114 0 -4.4105873e-010 0 0)
(-0.013302046 0.022995115 0 -7.9775054e-010 0 0)
(-0.013302046 0.022995113 0 3.7693976e-011 0 0)
(-0.013302046 0.022995112 0 9.4688203e-010 0 0)
(-0.013302046 0.022995113 0 6.0174223e-010 0 0)
(-0.013302047 0.022995114 0 -3.0111666e-011 0 0)
(-0.013302049 0.022995113 0 6.0049202e-010 0 0)
(-0.01330207 0.02299512 0 7.9095885e-009 0 0)
(-0.013302078 0.022995095 0 7.6271227e-009 0 0)
(-0.0039169547 0.01462757 0 -0.0029047861 0 0)
(-0.0099216092 0.023119119 0 -0.0029356721 0 0)
(-0.015911127 0.024748731 0 -0.00077029043 0 0)
(-0.017135582 0.025214473 0 -4.6774458e-005 0 0)
(-0.017658764 0.025363188 0 7.9895625e-005 0 0)
(-0.01763 0.025430511 0 3.7463848e-005 0 0)
(-0.017608384 0.025435523 0 9.4366745e-006 0 0)
(-0.017591195 0.025434821 0 8.3761313e-007 0 0)
(-0.017588856 0.025432639 0 1.3860951e-007 0 0)
(-0.017588391 0.025432692 0 1.9380061e-007 0 0)
(-0.017588463 0.025432747 0 1.3032333e-007 0 0)
(-0.017588342 0.025432816 0 3.5257739e-008 0 0)
(-0.017588309 0.025432816 0 4.8815062e-009 0 0)
(-0.017588299 0.025432819 0 1.6172033e-010 0 0)
(-0.0175883 0.025432819 0 9.3046565e-011 0 0)
(-0.0175883 0.02543282 0 3.0987147e-011 0 0)
(-0.0175883 0.02543282 0 -5.6944002e-010 0 0)
(-0.017588299 0.025432819 0 -7.5397063e-010 0 0)
(-0.017588299 0.025432818 0 1.7197856e-010 0 0)
(-0.0175883 0.025432819 0 6.1753495e-010 0 0)
(-0.017588301 0.02543282 0 3.6293107e-010 0 0)
(-0.017588301 0.02543282 0 1.288115e-011 0 0)
(-0.0175883 0.02543282 0 -8.3583965e-010 0 0)
(-0.017588307 0.025432826 0 4.4712267e-009 0 0)
(-0.017588322 0.025432817 0 6.2326873e-009 0 0)
(-0.0086525788 0.02298416 0 -0.0057754074 0 0)
(-0.015783786 0.027814239 0 -0.0037139791 0 0)
(-0.020956359 0.027481882 0 -0.00065577743 0 0)
(-0.021312689 0.027374614 0 -7.0777902e-005 0 0)
(-0.021754993 0.027450134 0 7.112739e-005 0 0)
(-0.021734563 0.027522522 0 2.5620205e-005 0 0)
(-0.021739013 0.027536905 0 9.4447943e-006 0 0)
(-0.021723085 0.027539023 0 4.9768507e-007 0 0)
(-0.021723634 0.027538444 0 3.3172565e-007 0 0)
(-0.021723032 0.027538663 0 1.1224401e-007 0 0)
(-0.021723369 0.027538831 0 1.0893298e-007 0 0)
(-0.021723277 0.027538913 0 1.7306155e-008 0 0)
(-0.021723285 0.027538924 0 3.3752597e-009 0 0)
(-0.021723279 0.027538927 0 -5.9645153e-010 0 0)
(-0.021723281 0.027538927 0 -1.3419726e-010 0 0)
(-0.021723282 0.027538928 0 -1.6431253e-010 0 0)
(-0.021723281 0.027538927 0 -2.3452552e-010 0 0)
(-0.02172328 0.027538927 0 -3.0527052e-010 0 0)
(-0.02172328 0.027538926 0 -6.8420647e-011 0 0)
(-0.021723281 0.027538927 0 1.2409001e-010 0 0)
(-0.021723282 0.027538927 0 1.7545956e-010 0 0)
(-0.021723283 0.027538928 0 6.9980822e-011 0 0)
(-0.021723281 0.027538928 0 -1.8092154e-009 0 0)
(-0.021723269 0.027538931 0 3.9168913e-011 0 0)
(-0.021723273 0.027538934 0 2.7339693e-009 0 0)
(-0.029480826 0.039206802 0 -0.0096458677 0 0)
(-0.024772485 0.031364497 0 -0.0022312199 0 0)
(-0.031253267 0.032091971 0 -0.00034718176 0 0)
(-0.029271498 0.030871217 0 -3.0503023e-005 0 0)
(-0.030250017 0.031277273 0 3.4214194e-005 0 0)
(-0.030060878 0.031246434 0 1.0966796e-005 0 0)
(-0.030157565 0.031304508 0 4.259933e-006 0 0)
(-0.030130859 0.031296994 0 3.7339942e-008 0 0)
(-0.030139301 0.031300838 0 2.0052815e-007 0 0)
(-0.030137407 0.031300068 0 1.1014492e-008 0 0)
(-0.030138358 0.031300579 0 4.0151707e-008 0 0)
(-0.030138227 0.031300554 0 8.6753974e-010 0 0)
(-0.030138279 0.031300584 0 2.598325e-010 0 0)
(-0.030138269 0.031300578 0 -1.0117536e-009 0 0)
(-0.030138272 0.031300578 0 -2.0963158e-010 0 0)
(-0.030138272 0.031300577 0 -1.6984344e-010 0 0)
(-0.030138271 0.031300577 0 1.0224094e-011 0 0)
(-0.030138271 0.031300577 0 -2.2464645e-011 0 0)
(-0.030138271 0.031300577 0 -5.5397653e-011 0 0)
(-0.030138271 0.031300577 0 -6.6709878e-011 0 0)
(-0.030138271 0.031300577 0 -2.7375411e-012 0 0)
(-0.03013827 0.031300577 0 -7.8719461e-011 0 0)
(-0.030138266 0.031300578 0 -1.5027012e-009 0 0)
(-0.030138241 0.031300569 0 -3.0163144e-009 0 0)
(-0.030138205 0.031300579 0 -1.2677619e-009 0 0)
(-0.00012520359 0.00024435219 0 0.00015717215 0 0)
(-0.00025148127 -6.2035354e-006 0 0.00019952634 0 0)
(-0.00014120729 -6.3743006e-005 0 0.00017506224 0 0)
(-0.0001526981 -5.7729167e-005 0 0.00013001426 0 0)
(-9.4873051e-005 -5.711249e-005 0 0.00010487011 0 0)
(-8.3785948e-005 -3.7846585e-005 0 7.8689463e-005 0 0)
(-6.4571221e-005 -2.678684e-005 0 6.5629931e-005 0 0)
(-5.6963708e-005 -8.3277431e-006 0 5.5767507e-005 0 0)
(-5.3530692e-005 9.5890617e-006 0 5.3147294e-005 0 0)
(-5.5917615e-005 3.0938059e-005 0 5.5223279e-005 0 0)
(-6.4676146e-005 5.8298446e-005 0 6.4079933e-005 0 0)
(-7.8241625e-005 8.9011253e-005 0 7.7201571e-005 0 0)
(-0.00010226215 0.0001353149 0 0.00010081397 0 0)
(-0.00013485047 0.00019573971 0 0.00013257902 0 0)
(-0.00018039825 0.00028068488 0 0.00017620904 0 0)
(-0.00024199154 0.00040253375 0 0.0002348371 0 0)
(-0.00032342351 0.00058540583 0 0.00031124346 0 0)
(-0.00042085724 0.00082984828 0 0.00039427292 0 0)
(-0.0005368948 0.0012636167 0 0.00049993441 0 0)
(-0.00066103767 0.0018228873 0 0.00054626643 0 0)
(-0.00061476617 0.0030375009 0 0.00048351558 0 0)
(-0.00067507919 0.0045518062 0 -2.4286575e-005 0 0)
(0.00084113538 0.0070477631 0 -0.0013794462 0 0)
(0.0015202421 0.0075431787 0 -0.0036812303 0 0)
(0.0098596289 0.0047785786 0 -0.011689675 0 0)
(-0.00013710495 0.00030049913 0 0.00017428234 0 0)
(-0.00027891002 -1.212697e-005 0 0.00021774046 0 0)
(-0.00014996404 -9.1587466e-005 0 0.00018764144 0 0)
(-0.0001525711 -8.5702286e-005 0 0.00012694639 0 0)
(-8.756619e-005 -7.5419111e-005 0 9.7571197e-005 0 0)
(-7.106215e-005 -5.2411484e-005 0 6.6612662e-005 0 0)
(-5.1321274e-005 -3.4063738e-005 0 5.2163269e-005 0 0)
(-4.1715137e-005 -1.1921107e-005 0 4.1109682e-005 0 0)
(-3.6918151e-005 1.0320974e-005 0 3.6763144e-005 0 0)
(-3.6581788e-005 3.5957827e-005 0 3.6247178e-005 0 0)
(-4.0177924e-005 6.6102021e-005 0 4.0098587e-005 0 0)
(-4.7284875e-005 0.00010165733 0 4.6846114e-005 0 0)
(-5.9797968e-005 0.00015235868 0 5.9015498e-005 0 0)
(-7.6899711e-005 0.00022048796 0 7.5668651e-005 0 0)
(-9.8376143e-005 0.00031138396 0 9.568081e-005 0 0)
(-0.0001251214 0.00044006795 0 0.00011966461 0 0)
(-0.00015335118 0.00062838025 0 0.0001439816 0 0)
(-0.0001778739 0.0008749009 0 0.0001556071 0 0)
(-0.00017296079 0.0012697019 0 0.00013806209 0 0)
(-0.00012350482 0.0017706886 0 2.7688334e-005 0 0)
(0.00015721484 0.0026986541 0 -0.00030948478 0 0)
(0.00065520454 0.0036166114 0 -0.0012254849 0 0)
(0.0025899969 0.0046747061 0 -0.0032162964 0 0)
(0.0049892359 0.0021852704 0 -0.0069372756 0 0)
(0.0062231553 -0.0030185497 0 -0.0093580853 0 0)
(-0.00016673274 0.00036415573 0 0.00020384747 0 0)
(-0.00031131088 -2.8814093e-005 0 0.00024980458 0 0)
(-0.00015871238 -0.00013427838 0 0.00019497391 0 0)
(-0.00014704339 -0.0001243943 0 0.00012252265 0 0)
(-7.4768465e-005 -0.00010167378 0 8.2002731e-005 0 0)
(-5.3787251e-005 -7.1450935e-005 0 5.0635717e-005 0 0)
(-3.4162356e-005 -4.6000072e-005 0 3.4222149e-005 0 0)
(-2.3448589e-005 -1.9445421e-005 0 2.3218063e-005 0 0)
(-1.7647058e-005 6.1191692e-006 0 1.7504399e-005 0 0)
(-1.4653597e-005 3.3922714e-005 0 1.4383104e-005 0 0)
(-1.3547672e-005 6.6145268e-005 0 1.3518093e-005 0 0)
(-1.3818564e-005 0.00010507023 0 1.360304e-005 0 0)
(-1.4957779e-005 0.00015557742 0 1.4200094e-005 0 0)
(-1.5569937e-005 0.00022571823 0 1.4421698e-005 0 0)
(-1.4218318e-005 0.00031773674 0 1.206579e-005 0 0)
(-8.265725e-006 0.00044281325 0 3.4352605e-006 0 0)
(1.0622018e-005 0.00062186474 0 -1.8879849e-005 0 0)
(4.9435439e-005 0.00085251193 0 -6.7940611e-005 0 0)
(0.0001401089 0.0011914762 0 -0.00016979919 0 0)
(0.00030029438 0.0016187637 0 -0.00037127169 0 0)
(0.00070311373 0.0022927752 0 -0.00081174342 0 0)
(0.0013958852 0.0029267245 0 -0.0017209179 0 0)
(0.0029902411 0.0032417447 0 -0.0032942875 0 0)
(0.0046439934 0.0010655268 0 -0.0052902316 0 0)