/*--------------------------------*- C++ -*----------------------------------*\
| =========                 |                                                 |
| \\      /  F ield         | OpenFOAM: The Open Source CFD Toolbox           |
|  \\    /   O peration     | Version:  5.x                                   |
|   \\  /    A nd           | Web:      www.OpenFOAM.org                      |
|    \\/     M anipulation  |                                                 |
\*---------------------------------------------------------------------------*/
/*   Windows 32 and 64 bit porting by blueCAPE: http://www.bluecape.com.pt   *\
|  Based on Windows porting (2.0.x v4) by Symscape: http://www.symscape.com   |
\*---------------------------------------------------------------------------*/
FoamFile
{
    version     2.0;
    format      ascii;
    class       volVectorField;
    location    "0.08";
    object      U;
}
// * * * * * * * * * * * * * * * * * * * * * * * * * * * * * * * * * * * * * //

dimensions      [0 1 -1 0 0 0 0];

internalField   nonuniform List<vector> 
750
(
(0.039044914 -7.7007943e-005 0)
(0.039712936 -8.6514758e-005 0)
(0.040418521 -8.0280033e-005 0)
(0.041001745 -6.4887609e-005 0)
(0.041459729 -5.5399281e-005 0)
(0.041882591 -4.7105793e-005 0)
(0.042216334 -4.0320459e-005 0)
(0.042524191 -3.6315137e-005 0)
(0.042797582 -3.4669648e-005 0)
(0.043076999 -3.6345262e-005 0)
(0.043377638 -4.153412e-005 0)
(0.043739663 -5.1520827e-005 0)
(0.044199857 -6.7456564e-005 0)
(0.044815305 -9.1631826e-005 0)
(0.045660432 -0.00012783288 0)
(0.046855118 -0.00018113367 0)
(0.048544347 -0.00026131553 0)
(0.05102185 -0.0003821343 0)
(0.054632208 -0.00056512296 0)
(0.059994483 -0.00086262331 0)
(0.068449624 -0.001329447 0)
(0.080953185 -0.0022131733 0)
(0.10421491 -0.0034426819 0)
(0.13468447 -0.0049297186 0)
(0.1836651 -0.0059594779 0)
(0.039045026 -0.00022921001 0)
(0.039714053 -0.00026313223 0)
(0.040421063 -0.00023867477 0)
(0.041006165 -0.0001957365 0)
(0.041463698 -0.00016564957 0)
(0.041886106 -0.00014119682 0)
(0.042218776 -0.0001207081 0)
(0.042525292 -0.0001086459 0)
(0.042797269 -0.00010368987 0)
(0.04307488 -0.0001086521 0)
(0.043373458 -0.00012416334 0)
(0.043732906 -0.00015396768 0)
(0.044189472 -0.00020152623 0)
(0.044799699 -0.00027372753 0)
(0.04563769 -0.00038169666 0)
(0.046821263 -0.00054077464 0)
(0.048493646 -0.00077958985 0)
(0.050944864 -0.0011396443 0)
(0.054508984 -0.0016837874 0)
(0.059801859 -0.002569186 0)
(0.068138609 -0.0039741002 0)
(0.080522104 -0.0065717484 0)
(0.10348073 -0.010279606 0)
(0.1333193 -0.014516474 0)
(0.18103829 -0.017601951 0)
(0.039044289 -0.00038064453 0)
(0.039716346 -0.00044196258 0)
(0.040426747 -0.00039647414 0)
(0.041015019 -0.00032727729 0)
(0.041472092 -0.00027561331 0)
(0.041893442 -0.0002350215 0)
(0.042224056 -0.00020069051 0)
(0.042527914 -0.00018047626 0)
(0.042797062 -0.00017215616 0)
(0.04307115 -0.00018027384 0)
(0.043365585 -0.0002060038 0)
(0.043719804 -0.00025533129 0)
(0.044169168 -0.0003340483 0)
(0.044769132 -0.00045365636 0)
(0.045592591 -0.00063235986 0)
(0.046754255 -0.00089560555 0)
(0.048392952 -0.0012901289 0)
(0.050790328 -0.0018847517 0)
(0.054266663 -0.0027824989 0)
(0.05941369 -0.0042408154 0)
(0.067520269 -0.0065769715 0)
(0.079607739 -0.010843099 0)
(0.10197333 -0.016979363 0)
(0.13050405 -0.023716244 0)
(0.17593946 -0.028687315 0)
(0.039042575 -0.00053252962 0)
(0.039720076 -0.00062152285 0)
(0.040435778 -0.000555681 0)
(0.041028476 -0.00045904133 0)
(0.04148506 -0.00038552676 0)
(0.041904675 -0.00032830237 0)
(0.042232261 -0.00027997613 0)
(0.042532144 -0.00025143868 0)
(0.042797038 -0.00023964065 0)
(0.043065951 -0.00025070108 0)
(0.043354193 -0.0002863727 0)
(0.043700479 -0.00035474071 0)
(0.044139181 -0.0004638514 0)
(0.044724071 -0.00062970402 0)
(0.045525703 -0.00087729774 0)
(0.046654855 -0.0012417703 0)
(0.048244044 -0.0017869751 0)
(0.050560674 -0.0026077865 0)
(0.053910378 -0.0038445611 0)
(0.058836984 -0.005854969 0)
(0.066615218 -0.0091019055 0)
(0.078206761 -0.014980208 0)
(0.099703706 -0.023395988 0)
(0.12617873 -0.032346263 0)
(0.16863271 -0.03881176 0)
(0.039040633 -0.00068493944 0)
(0.039725804 -0.00080228187 0)
(0.04044829 -0.00071662518 0)
(0.041046819 -0.00059117226 0)
(0.041502636 -0.00049521016 0)
(0.041919801 -0.00042083447 0)
(0.04224336 -0.00035825426 0)
(0.042537932 -0.00032119909 0)
(0.042797151 -0.00030575174 0)
(0.043059235 -0.00031948736 0)
(0.043339313 -0.00036465779 0)
(0.043675029 -0.00045144012 0)
(0.044099714 -0.00058993277 0)
(0.044664884 -0.00080042045 0)
(0.045437805 -0.0011143559 0)
(0.0465243 -0.0015760585 0)
(0.048049295 -0.0022650174 0)
(0.050260181 -0.0033008246 0)
(0.053445808 -0.0048569822 0)
(0.05808524 -0.0073877411 0)
(0.065426072 -0.011497865 0)
(0.076271458 -0.018902054 0)
(0.096522405 -0.029384796 0)
(0.12025273 -0.040248853 0)
(0.15944175 -0.04774823 0)
(0.039039533 -0.00083803899 0)
(0.039734338 -0.00098491983 0)
(0.040464636 -0.00087946637 0)
(0.041070487 -0.00072386259 0)
(0.041525005 -0.00060448416 0)
(0.041938966 -0.000512421 0)
(0.042257479 -0.00043521469 0)
(0.042545364 -0.00038942 0)
(0.042797506 -0.00037010468 0)
(0.043051129 -0.00038617242 0)
(0.043321122 -0.00044032468 0)
(0.043643757 -0.00054470605 0)
(0.044051182 -0.0007112961 0)
(0.044592137 -0.00096439114 0)
(0.045329945 -0.0013414874 0)
(0.046364249 -0.0018954641 0)
(0.04781118 -0.0027196424 0)
(0.049893117 -0.0039559736 0)
(0.0528795 -0.0058066428 0)
(0.057169094 -0.0088187204 0)
(0.063948941 -0.013723338 0)
(0.073790697 -0.022529764 0)
(0.09236272 -0.034780393 0)
(0.11267092 -0.047340423 0)
(0.14871026 -0.055291054 0)
(0.039040315 -0.00099236317 0)
(0.039746586 -0.0011697971 0)
(0.040485339 -0.0010445323 0)
(0.041100001 -0.00085719283 0)
(0.041552384 -0.00071316971 0)
(0.041962363 -0.00060284259 0)
(0.04227476 -0.00051055017 0)
(0.042554544 -0.00045575443 0)
(0.042798226 -0.00043232411 0)
(0.043041787 -0.00045031414 0)
(0.043299871 -0.000512839 0)
(0.043607001 -0.00063383639 0)
(0.04399404 -0.00082701904 0)
(0.044506538 -0.0011202811 0)
(0.045203184 -0.0015567812 0)
(0.046176424 -0.0021971234 0)
(0.047531627 -0.0031462256 0)
(0.049465279 -0.0045664113 0)
(0.052219887 -0.0066823628 0)
(0.056106785 -0.010125474 0)
(0.062229675 -0.015734734 0)
(0.070827452 -0.025800566 0)
(0.087391599 -0.039526543 0)
(0.10340625 -0.053599058 0)
(0.13721764 -0.061757327 0)
(0.039044075 -0.0011488967 0)
(0.039763402 -0.0013568585 0)
(0.040510922 -0.0012122343 0)
(0.041135847 -0.0009911583 0)
(0.041584974 -0.00082106199 0)
(0.041990152 -0.00069185311 0)
(0.042295284 -0.00058395237 0)
(0.042565526 -0.00051985246 0)
(0.042799395 -0.00049203691 0)
(0.043031261 -0.00051150868 0)
(0.043275792 -0.00058165957 0)
(0.04356512 -0.00071812906 0)
(0.043928776 -0.00093614962 0)
(0.04440872 -0.0012668075 0)
(0.045058651 -0.001758339 0)
(0.045962466 -0.0024782783 0)
(0.047214303 -0.0035410514 0)
(0.048983885 -0.0051261066 0)
(0.051478883 -0.0074750561 0)
(0.054922826 -0.011289878 0)
(0.060291454 -0.017481768 0)
(0.067423397 -0.028615874 0)
(0.081530147 -0.043375234 0)
(0.092742506 -0.058807132 0)
(0.12498168 -0.066527445 0)
(0.03905208 -0.0013092349 0)
(0.039785396 -0.0015455332 0)
(0.040541619 -0.0013834216 0)
(0.041178428 -0.0011255396 0)
(0.041622813 -0.00092806016 0)
(0.042022327 -0.00077915234 0)
(0.042318947 -0.00065510571 0)
(0.042578188 -0.0005813459 0)
(0.042800932 -0.00054885832 0)
(0.043019482 -0.00056934884 0)
(0.043248915 -0.00064628575 0)
(0.04351839 -0.00079691139 0)
(0.043855869 -0.0010378248 0)
(0.044299443 -0.0014028155 0)
(0.044897847 -0.0019444961 0)
(0.045724986 -0.0027362912 0)
(0.046863736 -0.0039008724 0)
(0.048455987 -0.0056304713 0)
(0.050667571 -0.0081743635 0)
(0.053632343 -0.012298485 0)
(0.058184744 -0.018920375 0)
(0.063619621 -0.030874161 0)
(0.074847774 -0.046264302 0)
(0.081046462 -0.063267351 0)
(0.11132167 -0.069809268 0)
(0.039065279 -0.0014736248 0)
(0.039812602 -0.0017383099 0)
(0.04057719 -0.0015566697 0)
(0.04122817 -0.0012608432 0)
(0.041665691 -0.0010337384 0)
(0.042058684 -0.0008644626 0)
(0.042345448 -0.00072365853 0)
(0.042592211 -0.000639896 0)
(0.042802541 -0.00060245954 0)
(0.043006392 -0.00062340999 0)
(0.043219015 -0.00070636355 0)
(0.043466825 -0.00086972795 0)
(0.043775825 -0.0011313885 0)
(0.044179785 -0.0015274306 0)
(0.04472246 -0.002114174 0)
(0.045467123 -0.0029701278 0)
(0.046484239 -0.0042231491 0)
(0.047885595 -0.0060750058 0)
(0.049801887 -0.0087772545 0)
(0.052263015 -0.013136728 0)
(0.055963777 -0.020073058 0)
(0.059669349 -0.032509132 0)
(0.067699131 -0.048322253 0)
(0.068217584 -0.066630893 0)
(0.091989261 -0.0702056 0)
(0.22626129 -0.0039720008 0)
(0.24612542 -0.0020742554 0)
(0.25614946 -0.00078173477 0)
(0.25831116 -0.00014938253 0)
(0.25820429 6.0620195e-005 0)
(0.25754432 6.1500272e-005 0)
(0.25729061 2.1366969e-005 0)
(0.25724118 2.4801723e-006 0)
(0.25724958 -7.4106743e-007 0)
(0.2572522 -1.6626445e-007 0)
(0.25725163 1.0058161e-007 0)
(0.25725085 6.1389907e-008 0)
(0.25725073 7.3957095e-009 0)
(0.25725075 -2.6490074e-009 0)
(0.25725077 -1.0618913e-009 0)
(0.25725077 -1.3252948e-010 0)
(0.25725077 -6.9152648e-010 0)
(0.25725078 6.5873634e-011 0)
(0.25725077 1.0131676e-009 0)
(0.25725077 -1.4738396e-009 0)
(0.25725079 -8.6478024e-010 0)
(0.25725078 8.4891714e-010 0)
(0.25725077 2.3318166e-009 0)
(0.25725075 2.2381e-008 0)
(0.25725047 2.1315779e-008 0)
(0.22103514 -0.011148625 0)
(0.23731536 -0.0057595039 0)
(0.24590066 -0.0021243656 0)
(0.24763848 -0.0004333296 0)
(0.24764866 0.00015151275 0)
(0.24712409 0.00016087267 0)
(0.24692703 5.77177e-005 0)
(0.24688477 6.9951702e-006 0)
(0.24689061 -1.7654813e-006 0)
(0.24689239 -4.4846901e-007 0)
(0.24689203 2.6557502e-007 0)
(0.24689142 1.5696804e-007 0)
(0.24689133 2.2802041e-008 0)
(0.24689134 -7.6149898e-009 0)
(0.24689136 -3.5986195e-009 0)
(0.24689136 -1.3935922e-009 0)
(0.24689137 -1.3899189e-009 0)
(0.24689136 1.0917611e-009 0)
(0.24689136 1.2396047e-009 0)
(0.24689136 -3.1334551e-009 0)
(0.24689137 -1.5979004e-009 0)
(0.24689136 2.1859652e-009 0)
(0.24689136 6.533536e-009 0)
(0.24689134 5.2836406e-008 0)
(0.24689118 5.0577525e-008 0)
(0.21119047 -0.01720764 0)
(0.22109631 -0.0086376632 0)
(0.22724731 -0.0031527451 0)
(0.22805451 -0.00066416833 0)
(0.22821239 0.00021085133 0)
(0.22791493 0.00022625017 0)
(0.22781563 8.3694084e-005 0)
(0.22778714 1.0559132e-005 0)
(0.22778985 -2.244334e-006 0)
(0.22779034 -6.4557229e-007 0)
(0.22779029 3.756874e-007 0)
(0.22778995 2.1600508e-007 0)
(0.22778992 3.3737141e-008 0)
(0.22778992 -1.0844258e-008 0)
(0.22778994 -5.3757774e-009 0)
(0.22778993 -2.3167822e-009 0)
(0.22778994 -2.1537943e-009 0)
(0.22778994 1.060388e-009 0)
(0.22778994 5.2127773e-010 0)
(0.22778995 -2.7174547e-009 0)
(0.22778993 -1.8428187e-010 0)
(0.22778994 2.9860825e-009 0)
(0.22778993 7.5833141e-009 0)
(0.22778994 6.4231409e-008 0)
(0.22778995 6.2814661e-008 0)
(0.19762484 -0.021588707 0)
(0.19994793 -0.010253031 0)
(0.2030187 -0.0036530513 0)
(0.20254179 -0.00077688327 0)
(0.20279443 0.00022754111 0)
(0.20274594 0.00024584445 0)
(0.20275554 9.3733276e-005 0)
(0.20274455 1.238848e-005 0)
(0.20274513 -2.1660107e-006 0)
(0.20274436 -7.1419646e-007 0)
(0.20274461 4.0666881e-007 0)
(0.20274455 2.2979171e-007 0)
(0.20274459 3.6614151e-008 0)
(0.20274459 -1.2033149e-008 0)
(0.20274459 -6.4378952e-009 0)
(0.20274459 -2.6648588e-009 0)
(0.20274459 -2.3066589e-009 0)
(0.20274459 -3.9217784e-010 0)
(0.2027446 -7.2640381e-010 0)
(0.2027446 -3.6282468e-010 0)
(0.20274458 1.4679652e-009 0)
(0.20274459 2.8324621e-009 0)
(0.20274459 5.4157187e-009 0)
(0.20274462 4.8690377e-008 0)
(0.20274479 4.8946761e-008 0)
(0.1811706 -0.023906272 0)
(0.17654566 -0.010643256 0)
(0.1759616 -0.0034535123 0)
(0.17441117 -0.00074964733 0)
(0.1746777 0.000201803 0)
(0.1748052 0.00022414497 0)
(0.17490612 8.8167949e-005 0)
(0.174912 1.2088867e-005 0)
(0.17491204 -1.751456e-006 0)
(0.17491034 -6.7083201e-007 0)
(0.17491082 3.6844965e-007 0)
(0.17491098 2.0332257e-007 0)
(0.17491107 3.1941752e-008 0)
(0.17491107 -1.2143171e-008 0)
(0.17491106 -6.2413716e-009 0)
(0.17491106 -1.9080113e-009 0)
(0.17491105 -2.3247771e-009 0)
(0.17491106 -2.4598005e-009 0)
(0.17491107 -1.2154967e-009 0)
(0.17491106 1.8220519e-009 0)
(0.17491105 2.5742575e-009 0)
(0.17491106 1.7197496e-009 0)
(0.17491107 2.6588214e-010 0)
(0.1749111 1.4258442e-008 0)
(0.17491137 1.7362185e-008 0)
(0.16314544 -0.024549356 0)
(0.15147122 -0.0096390175 0)
(0.1483088 -0.0027743004 0)
(0.14614503 -0.00059635059 0)
(0.14638277 0.00016236723 0)
(0.1465803 0.00017635124 0)
(0.14673857 7.1149444e-005 0)
(0.1467561 9.8249871e-006 0)
(0.14675675 -1.2605785e-006 0)
(0.14675451 -5.5989234e-007 0)
(0.14675513 2.8842657e-007 0)
(0.14675539 1.4997632e-007 0)
(0.14675551 2.2428073e-008 0)
(0.1467555 -1.1346651e-008 0)
(0.14675549 -5.2074326e-009 0)
(0.14675549 -1.1289067e-009 0)
(0.14675549 -1.7923591e-009 0)
(0.14675549 -3.3591537e-009 0)
(0.14675549 -5.8750425e-010 0)
(0.14675548 2.6514002e-009 0)
(0.14675549 1.6865736e-009 0)
(0.14675549 1.5903835e-010 0)
(0.1467555 -5.2243164e-009 0)
(0.14675552 -2.4064655e-008 0)
(0.14675576 -1.8566261e-008 0)
(0.14292576 -0.023418502 0)
(0.12432029 -0.0075604038 0)
(0.12101139 -0.0018455204 0)
(0.11853264 -0.00038470513 0)
(0.11877476 0.00012782987 0)
(0.11897126 0.00012096018 0)
(0.11915019 4.8763511e-005 0)
(0.11917087 6.3625057e-006 0)
(0.11917242 -8.3059406e-007 0)
(0.11916992 -4.1965323e-007 0)
(0.11917063 1.9297888e-007 0)
(0.11917087 8.9691186e-008 0)
(0.11917099 1.241983e-008 0)
(0.11917097 -9.3684262e-009 0)
(0.11917096 -3.6109742e-009 0)
(0.11917096 -8.0413474e-010 0)
(0.11917096 -1.3450898e-009 0)
(0.11917095 -2.5517918e-009 0)
(0.11917095 -1.7145537e-011 0)
(0.11917095 1.8852653e-009 0)
(0.11917096 4.2552035e-010 0)
(0.11917096 -1.164847e-009 0)
(0.11917097 -8.8498505e-009 0)
(0.11917098 -4.896194e-008 0)
(0.11917107 -4.2294247e-008 0)
(0.11734207 -0.019678156 0)
(0.094964157 -0.0050979994 0)
(0.092864797 -0.00096962074 0)
(0.090481264 -0.00017949672 0)
(0.090813941 9.4257196e-005 0)
(0.090970151 6.8721623e-005 0)
(0.091135765 2.685119e-005 0)
(0.091150847 2.9413694e-006 0)
(0.091153098 -4.5768161e-007 0)
(0.091150565 -2.7751614e-007 0)
(0.09115129 1.0528331e-007 0)
(0.091151417 3.9520424e-008 0)
(0.09115153 4.9427308e-009 0)
(0.0911515 -6.6399492e-009 0)
(0.091151494 -2.0289541e-009 0)
(0.091151492 -5.8186126e-010 0)
(0.091151491 -6.5578928e-010 0)
(0.091151487 -1.4066237e-009 0)
(0.091151484 -5.9387479e-011 0)
(0.091151486 9.0211447e-010 0)
(0.091151489 -8.3852979e-012 0)
(0.09115149 -1.629284e-009 0)
(0.09115149 -9.2995748e-009 0)
(0.09115148 -4.946843e-008 0)
(0.091151412 -4.3034815e-008 0)
(0.084375054 -0.013691052 0)
(0.061730502 -0.0026292767 0)
(0.0613192 -0.00030524628 0)
(0.059504655 -5.2063316e-005 0)
(0.059942818 5.6033358e-005 0)
(0.060032794 2.593467e-005 0)
(0.060158016 1.0377539e-005 0)
(0.060161824 5.5076356e-007 0)
(0.060164773 -1.0221664e-007 0)
(0.060162349 -1.407824e-007 0)
(0.060163033 4.435042e-008 0)
(0.060163011 7.6799784e-009 0)
(0.060163107 1.1806654e-009 0)
(0.060163071 -3.3146966e-009 0)
(0.06016307 -7.3780776e-010 0)
(0.060163067 -2.9158841e-010 0)
(0.060163067 -1.9860972e-010 0)
(0.060163064 -5.424506e-010 0)
(0.060163062 3.2678569e-011 0)
(0.060163064 2.993854e-010 0)
(0.060163065 -1.2227699e-010 0)
(0.060163065 -1.2700474e-009 0)
(0.060163059 -6.0395506e-009 0)
(0.060163034 -2.9075805e-008 0)
(0.060162869 -2.4888342e-008 0)
(0.039350979 -0.0069249621 0)
(0.022791943 -1.991016e-005 0)
(0.024165661 3.9745848e-005 0)
(0.02310431 3.2963243e-005 0)
(0.023530354 -1.5036174e-006 0)
(0.023506988 1.4558894e-006 0)
(0.023576828 -1.0533765e-006 0)
(0.023569123 -7.8176265e-008 0)
(0.023572675 -7.1616558e-008 0)
(0.023570822 -8.6520196e-009 0)
(0.023571328 -1.0231484e-008 0)
(0.023571208 -2.0993375e-009 0)
(0.023571267 -6.8200461e-010 0)
(0.023571241 -2.0982391e-010 0)
(0.023571243 1.8778965e-011 0)
(0.023571241 -3.0003868e-011 0)
(0.023571241 2.9445503e-011 0)
(0.02357124 -6.3094733e-011 0)
(0.023571239 -2.2092429e-011 0)
(0.02357124 2.7265723e-011 0)
(0.02357124 -4.7175024e-011 0)
(0.02357124 -4.8391923e-010 0)
(0.023571233 -1.1243494e-009 0)
(0.023571213 -6.3164803e-009 0)
(0.023571099 -5.6448838e-009 0)
(0.039095389 -0.0018060349 0)
(0.039875818 -0.0021438352 0)
(0.04065972 -0.0019010481 0)
(0.041341241 -0.0015341159 0)
(0.041762015 -0.001242359 0)
(0.042138956 -0.001029909 0)
(0.042403529 -0.00085534036 0)
(0.04262226 -0.00075047832 0)
(0.042805216 -0.00070274712 0)
(0.042976965 -0.00072355638 0)
(0.043153031 -0.00081695758 0)
(0.043353904 -0.001002741 0)
(0.043602022 -0.0013012666 0)
(0.043920929 -0.0017526667 0)
(0.044344826 -0.0024184585 0)
(0.044914504 -0.0033859959 0)
(0.045673803 -0.0047879512 0)
(0.046675659 -0.006835669 0)
(0.047991641 -0.0097845213 0)
(0.049480132 -0.014430573 0)
(0.051450055 -0.021756337 0)
(0.05220317 -0.034371676 0)
(0.053763862 -0.050005159 0)
(0.042442327 -0.067034011 0)
(0.03687316 -0.05428011 0)
(0.039132914 -0.0023386388 0)
(0.040011262 -0.0028293417 0)
(0.040860585 -0.0024320333 0)
(0.041568677 -0.0019449314 0)
(0.041959564 -0.0015410646 0)
(0.042293403 -0.0012482506 0)
(0.042510662 -0.0010224699 0)
(0.042675 -0.00088202364 0)
(0.042804954 -0.00081675822 0)
(0.042917711 -0.00083200586 0)
(0.043027742 -0.00093236728 0)
(0.043145225 -0.0011372562 0)
(0.043286736 -0.0014693839 0)
(0.0434604 -0.0019695514 0)
(0.043681773 -0.0027010123 0)
(0.04396303 -0.0037550334 0)
(0.044310888 -0.0052584288 0)
(0.04470541 -0.0074108463 0)
(0.045149376 -0.01043615 0)
(0.045397434 -0.014954785 0)
(0.045327324 -0.021771948 0)
(0.043363649 -0.032430715 0)
(0.039400773 -0.044057808 0)
(0.025720185 -0.051224085 0)
(0.010503988 -0.028456408 0)
(0.039203782 -0.0029521261 0)
(0.040233424 -0.003588395 0)
(0.0411809 -0.0030038629 0)
(0.041893887 -0.002343871 0)
(0.042234407 -0.0018082417 0)
(0.042500444 -0.0014249196 0)
(0.042652528 -0.0011453413 0)
(0.042750147 -0.00096945854 0)
(0.042815899 -0.00088436337 0)
(0.042862258 -0.00088972226 0)
(0.042898151 -0.00098852758 0)
(0.042926011 -0.0011963948 0)
(0.042952161 -0.0015377798 0)
(0.042975471 -0.0020510684 0)
(0.042987682 -0.0027951885 0)
(0.04297862 -0.0038572029 0)
(0.042924273 -0.0053516799 0)
(0.042753513 -0.0074480621 0)
(0.042402345 -0.010338277 0)
(0.041583974 -0.014446388 0)
(0.040009451 -0.020367823 0)
(0.036282164 -0.028853617 0)
(0.029607829 -0.037545253 0)
(0.016538794 -0.040572556 0)
(0.0022061046 -0.022059712 0)
(0.03938973 -0.0037084984 0)
(0.040685423 -0.0044633038 0)
(0.041770282 -0.0036119165 0)
(0.04245012 -0.0027098918 0)
(0.04269711 -0.0020210046 0)
(0.042863188 -0.0015429315 0)
(0.042928129 -0.0012115337 0)
(0.04294576 -0.0010041653 0)
(0.042938579 -0.00090024077 0)
(0.042913357 -0.00089232554 0)
(0.04287048 -0.0009812448 0)
(0.042808735 -0.0011786819 0)
(0.042720254 -0.0015053859 0)
(0.04259311 -0.0019971509 0)
(0.042404695 -0.0027058554 0)
(0.042122467 -0.0037063993 0)
(0.041697401 -0.0050980028 0)
(0.041029916 -0.0070115157 0)
(0.040003877 -0.0095972344 0)
(0.038347639 -0.01312183 0)
(0.035735629 -0.017969798 0)
(0.031110197 -0.024385148 0)
(0.023637947 -0.030307756 0)
(0.012530282 -0.030664324 0)
(-7.2818384e-006 -0.016556079 0)
(0.039873407 -0.0047984253 0)
(0.041636949 -0.0055456913 0)
(0.042870006 -0.0042410035 0)
(0.043433076 -0.003007076 0)
(0.043515969 -0.002144096 0)
(0.043538245 -0.0015797687 0)
(0.043491006 -0.0012077631 0)
(0.043415667 -0.00097792127 0)
(0.043329675 -0.00085946169 0)
(0.043229385 -0.00083837674 0)
(0.043108912 -0.00091082927 0)
(0.042959416 -0.0010842197 0)
(0.042762566 -0.001376609 0)
(0.042493018 -0.0018156232 0)
(0.042121261 -0.0024460321 0)
(0.041594972 -0.003327939 0)
(0.040844161 -0.0045400416 0)
(0.039758136 -0.0061779741 0)
(0.038187489 -0.0083484575 0)
(0.035891739 -0.011217039 0)
(0.032548348 -0.015003609 0)
(0.027439813 -0.01967872 0)
(0.019918253 -0.023556492 0)
(0.010432144 -0.02268381 0)
(-9.216368e-005 -0.012574009 0)
(0.040842338 -0.0066250614 0)
(0.043165713 -0.0069201468 0)
(0.044348754 -0.0048283609 0)
(0.044624746 -0.0031597341 0)
(0.044446975 -0.0021255702 0)
(0.044274952 -0.001506927 0)
(0.04409145 -0.0011199515 0)
(0.043914191 -0.00088434913 0)
(0.043747036 -0.00076012352 0)
(0.043573309 -0.00072736261 0)
(0.043381792 -0.00077975284 0)
(0.043150365 -0.0009179521 0)
(0.042855343 -0.0011571727 0)
(0.042463 -0.0015174409 0)
(0.041932761 -0.0020335554 0)
(0.041199424 -0.0027501276 0)
(0.040180927 -0.0037242182 0)
(0.038760854 -0.005020671 0)
(0.036781023 -0.0067082139 0)
(0.03402442 -0.0088837755 0)
(0.030205889 -0.011666242 0)
(0.024835208 -0.014925643 0)
(0.017497499 -0.017297517 0)
(0.0092186804 -0.015957745 0)
(0.0002048974 -0.0088166574 0)
(0.041989035 -0.0096638498 0)
(0.044327994 -0.0083912158 0)
(0.044742755 -0.0051575793 0)
(0.044458453 -0.0030453841 0)
(0.043931203 -0.0019076734 0)
(0.043531305 -0.0012981759 0)
(0.04320131 -0.00093800464 0)
(0.042925123 -0.00072097019 0)
(0.042684047 -0.00060372104 0)
(0.042450931 -0.00056401804 0)
(0.04220224 -0.00059326984 0)
(0.04191078 -0.00068958036 0)
(0.041545599 -0.00086073382 0)
(0.041069513 -0.0011228519 0)
(0.04043107 -0.0014959948 0)
(0.039562288 -0.0020111686 0)
(0.038376229 -0.0027094587 0)
(0.036754706 -0.003623362 0)
(0.034549351 -0.0047930657 0)
(0.031571451 -0.0062700045 0)
(0.027585702 -0.0081170599 0)
(0.022238621 -0.010191565 0)
(0.015290046 -0.011475099 0)
(0.0080157591 -0.010077299 0)
(0.0002851208 -0.0053552589 0)
(0.041824049 -0.013528721 0)
(0.04264615 -0.0090758582 0)
(0.040960728 -0.0048289187 0)
(0.039869602 -0.0025316576 0)
(0.03897502 -0.0014620044 0)
(0.038368285 -0.00095234517 0)
(0.037917757 -0.00066963572 0)
(0.037570461 -0.00049994751 0)
(0.037284298 -0.00040481735 0)
(0.037023389 -0.00036606045 0)
(0.036755073 -0.00037308725 0)
(0.036450976 -0.00042469838 0)
(0.036076797 -0.00052282652 0)
(0.035594666 -0.00067747264 0)
(0.034952275 -0.00089763325 0)
(0.034091842 -0.001201239 0)
(0.032926093 -0.0016084083 0)
(0.031349865 -0.0021370495 0)
(0.029242417 -0.0028034225 0)
(0.026450351 -0.0036304725 0)
(0.022797646 -0.004645948 0)
(0.018028894 -0.0057391835 0)
(0.01201671 -0.0062355848 0)
(0.0061431578 -0.0050449855 0)
(0.000107082 -0.0024056028 0)
(0.037111195 -0.014187115 0)
(0.03527573 -0.0067371757 0)
(0.030286601 -0.0032123047 0)
(0.028527599 -0.0015160738 0)
(0.027390818 -0.00082195644 0)
(0.026697109 -0.00051790023 0)
(0.026216817 -0.00035747319 0)
(0.025866632 -0.00026083703 0)
(0.025595143 -0.00020546257 0)
(0.02536156 -0.00018066513 0)
(0.025134696 -0.00017937422 0)
(0.024888107 -0.00019988767 0)
(0.024593626 -0.00024311921 0)
(0.024219081 -0.00031217729 0)
(0.02372558 -0.00041162556 0)
(0.023067226 -0.00054899993 0)
(0.022180847 -0.00072690081 0)
(0.020994899 -0.00095763213 0)
(0.019423562 -0.0012426605 0)
(0.017367977 -0.0015862111 0)
(0.014717232 -0.0019974725 0)
(0.011313887 -0.0024126527 0)
(0.0070965799 -0.0024889891 0)
(0.0034000658 -0.0017606901 0)
(-0.00020633896 -0.00069807426 0)
(0.022238755 -0.012207494 0)
(0.018863078 -0.002745154 0)
(0.013096767 -0.0005518995 0)
(0.012156178 -0.00024246411 0)
(0.011293757 -9.7936623e-005 0)
(0.010834217 -5.5482089e-005 0)
(0.010519561 -3.5684077e-005 0)
(0.010296661 -2.1956919e-005 0)
(0.010132034 -1.2542828e-005 0)
(0.0099976967 -6.1309607e-006 0)
(0.0098746396 -1.4420754e-006 0)
(0.0097473306 2.3918754e-006 0)
(0.0096002519 5.7413601e-006 0)
(0.0094170866 9.5376402e-006 0)
(0.0091788115 1.3819352e-005 0)
(0.0088629986 1.9908769e-005 0)
(0.0084438502 2.8211051e-005 0)
(0.0078903804 3.9561361e-005 0)
(0.0071681485 5.7033886e-005 0)
(0.0062440832 8.16312e-005 0)
(0.0050822988 0.0001151434 0)
(0.0036434778 0.00016981303 0)
(0.0018911182 0.00026612235 0)
(0.00077189066 0.00042732207 0)
(-0.00017631916 0.00024512108 0)
)
;

boundaryField
{
    inlet
    {
        type            fixedValue;
        value           uniform (0.03876 0 0);
    }
    walls
    {
        type            fixedValue;
        value           uniform (0 0 0);
    }
    outlet
    {
        type            zeroGradient;
    }
    centreline
    {
        type            symmetryPlane;
    }
    frontAndBack
    {
        type            empty;
    }
}


// ************************************************************************* //
