/*--------------------------------*- C++ -*----------------------------------*\
| =========                 |                                                 |
| \\      /  F ield         | OpenFOAM: The Open Source CFD Toolbox           |
|  \\    /   O peration     | Version:  5.x                                   |
|   \\  /    A nd           | Web:      www.OpenFOAM.org                      |
|    \\/     M anipulation  |                                                 |
\*---------------------------------------------------------------------------*/
/*   Windows 32 and 64 bit porting by blueCAPE: http://www.bluecape.com.pt   *\
|  Based on Windows porting (2.0.x v4) by Symscape: http://www.symscape.com   |
\*---------------------------------------------------------------------------*/
FoamFile
{
    version     2.0;
    format      ascii;
    class       volVectorField;
    location    "0.08";
    object      U_0;
}
// * * * * * * * * * * * * * * * * * * * * * * * * * * * * * * * * * * * * * //

dimensions      [0 1 -1 0 0 0 0];

internalField   nonuniform List<vector> 
750
(
(0.039044143 -7.6859586e-005 0)
(0.039711215 -8.6276229e-005 0)
(0.040414169 -8.004987e-005 0)
(0.040996125 -6.4697374e-005 0)
(0.041452454 -5.5248474e-005 0)
(0.041874474 -4.6994764e-005 0)
(0.042207328 -4.0232858e-005 0)
(0.04251465 -3.6252543e-005 0)
(0.042787589 -3.462344e-005 0)
(0.043066713 -3.6313472e-005 0)
(0.043367143 -4.151223e-005 0)
(0.043729028 -5.1505244e-005 0)
(0.044189112 -6.7443528e-005 0)
(0.044804465 -9.1617501e-005 0)
(0.04564946 -0.00012781123 0)
(0.046843932 -0.0001810963 0)
(0.048532795 -0.00026124724 0)
(0.05100956 -0.00038201762 0)
(0.054618884 -0.00056492883 0)
(0.05997905 -0.00086225193 0)
(0.068430362 -0.0013285558 0)
(0.080923562 -0.0022116685 0)
(0.10417261 -0.003441235 0)
(0.13463307 -0.0049302448 0)
(0.18363415 -0.0059632537 0)
(0.039044258 -0.00022876143 0)
(0.03971234 -0.00026242443 0)
(0.040416704 -0.00023797308 0)
(0.04100053 -0.00019516819 0)
(0.041456407 -0.00016519509 0)
(0.041877975 -0.0001408638 0)
(0.042209758 -0.00012044616 0)
(0.04251574 -0.00010845804 0)
(0.042787269 -0.00010355196 0)
(0.043064588 -0.00010855699 0)
(0.04336296 -0.00012409828 0)
(0.043722269 -0.00015392104 0)
(0.044178727 -0.00020148743 0)
(0.044788863 -0.00027368535 0)
(0.045626725 -0.00038163236 0)
(0.046810089 -0.0005406643 0)
(0.048482115 -0.00077938733 0)
(0.050932624 -0.0011393063 0)
(0.054495755 -0.0016832084 0)
(0.059786535 -0.0025680595 0)
(0.068119384 -0.0039714742 0)
(0.080493061 -0.00656739 0)
(0.10344017 -0.010275714 0)
(0.13327294 -0.014518517 0)
(0.18101303 -0.01761356 0)
(0.039043516 -0.00037989649 0)
(0.039714639 -0.00044078515 0)
(0.040422371 -0.00039529592 0)
(0.041009354 -0.00032633008 0)
(0.041464769 -0.00027485516 0)
(0.041885281 -0.00023446685 0)
(0.042215015 -0.00020025539 0)
(0.042518342 -0.00018016359 0)
(0.042787046 -0.0001719275 0)
(0.043060846 -0.00018011609 0)
(0.04335508 -0.00020589638 0)
(0.043709164 -0.00025525405 0)
(0.044158422 -0.00033398454 0)
(0.044758302 -0.00045358764 0)
(0.045581639 -0.0006322544 0)
(0.046743106 -0.00089542518 0)
(0.048381465 -0.0012897982 0)
(0.050778181 -0.001884206 0)
(0.054253609 -0.0027815442 0)
(0.059398595 -0.0042389305 0)
(0.067501223 -0.0065726878 0)
(0.079579674 -0.010836215 0)
(0.10193588 -0.016973782 0)
(0.13046588 -0.023720328 0)
(0.17592297 -0.028706735 0)
(0.039041778 -0.00053148432 0)
(0.039718358 -0.00061986824 0)
(0.040431369 -0.00055402645 0)
(0.041022761 -0.00045771092 0)
(0.041477688 -0.00038446682 0)
(0.041896468 -0.00032752691 0)
(0.042223182 -0.00027936954 0)
(0.042522541 -0.00025100254 0)
(0.042786999 -0.00023932264 0)
(0.043055629 -0.0002504819 0)
(0.043343675 -0.00028622414 0)
(0.043689833 -0.0003546341 0)
(0.044128435 -0.00046376415 0)
(0.044713247 -0.00062961083 0)
(0.045514771 -0.00087715408 0)
(0.04664374 -0.0012415247 0)
(0.048232626 -0.0017865266 0)
(0.05054865 -0.0026070504 0)
(0.05389755 -0.0038432559 0)
(0.058822223 -0.0058523246 0)
(0.066596502 -0.0090960713 0)
(0.078179917 -0.014971164 0)
(0.099670242 -0.02338978 0)
(0.12614942 -0.032353134 0)
(0.16862422 -0.038837911 0)
(0.039039784 -0.00068359118 0)
(0.039724051 -0.00080014626 0)
(0.040443824 -0.00071449174 0)
(0.041041034 -0.0005894557 0)
(0.041495198 -0.0004938495 0)
(0.041911532 -0.00041983975 0)
(0.042234231 -0.0003574783 0)
(0.042528286 -0.00032064154 0)
(0.04278708 -0.00030534629 0)
(0.043048889 -0.00031920836 0)
(0.043328778 -0.00036446977 0)
(0.043664374 -0.00045130599 0)
(0.044088966 -0.00058982388 0)
(0.044654067 -0.00080030556 0)
(0.045426897 -0.001114178 0)
(0.046513227 -0.0015757542 0)
(0.048037963 -0.0022644641 0)
(0.050248302 -0.003299917 0)
(0.053433231 -0.0048553567 0)
(0.058070885 -0.0073843614 0)
(0.065407829 -0.011490613 0)
(0.076246323 -0.018891326 0)
(0.096492873 -0.02937878 0)
(0.1202314 -0.040258984 0)
(0.15943909 -0.047779598 0)
(0.039038607 -0.00083637371 0)
(0.039732523 -0.00098230216 0)
(0.040460087 -0.00087685026 0)
(0.041064612 -0.00072175912 0)
(0.041517482 -0.00060282373 0)
(0.041930617 -0.00051120937 0)
(0.042248286 -0.00043427199 0)
(0.042535663 -0.00038874378 0)
(0.042787394 -0.0003696142 0)
(0.043040751 -0.00038583575 0)
(0.043310564 -0.00044009927 0)
(0.043633088 -0.00054454652 0)
(0.044040431 -0.00071116808 0)
(0.044581328 -0.00096425806 0)
(0.045319064 -0.0013412803 0)
(0.046353226 -0.0018951093 0)
(0.047799947 -0.002718998 0)
(0.049881402 -0.003954916 0)
(0.052867189 -0.0058047287 0)
(0.057155217 -0.0088146546 0)
(0.063931417 -0.013714802 0)
(0.073767559 -0.022517808 0)
(0.092337276 -0.034774951 0)
(0.11265642 -0.047353855 0)
(0.14871288 -0.055324697 0)
(0.039039292 -0.0009903604 0)
(0.039744688 -0.0011666966 0)
(0.040480681 -0.00104143 0)
(0.041094015 -0.00085470294 0)
(0.041544758 -0.00071121098 0)
(0.041953917 -0.000601417 0)
(0.04226549 -0.00050944412 0)
(0.042544778 -0.00045496286 0)
(0.042788064 -0.00043175159 0)
(0.043031371 -0.00044992244 0)
(0.043289285 -0.00051257867 0)
(0.043596315 -0.00063365403 0)
(0.043983284 -0.00082687473 0)
(0.044495736 -0.0011201337 0)
(0.045192333 -0.0015565511 0)
(0.046165456 -0.0021967275 0)
(0.047520506 -0.0031455056 0)
(0.049453744 -0.004565227 0)
(0.052207878 -0.0066801991 0)
(0.056093441 -0.010120796 0)
(0.062213126 -0.015725168 0)
(0.070806456 -0.025787982 0)
(0.087371171 -0.039522863 0)
(0.10339753 -0.053616112 0)
(0.13722492 -0.061790141 0)
(0.039042945 -0.0011465322 0)
(0.03976141 -0.0013532713 0)
(0.040506131 -0.0012086432 0)
(0.041129733 -0.00098828237 0)
(0.041577229 -0.00081880704 0)
(0.041981594 -0.0006902172 0)
(0.042285926 -0.00058268721 0)
(0.042555686 -0.0005189494 0)
(0.042789177 -0.00049138599 0)
(0.043020803 -0.00051106497 0)
(0.043265176 -0.00058136698 0)
(0.043554415 -0.00071792704 0)
(0.043918016 -0.00093599237 0)
(0.044397928 -0.0012666504 0)
(0.045047833 -0.0017580929 0)
(0.045951566 -0.0024778522 0)
(0.047203301 -0.0035402734 0)
(0.048972547 -0.0051248188 0)
(0.051467223 -0.007472696 0)
(0.054910038 -0.011284676 0)
(0.06027604 -0.017471373 0)
(0.067404707 -0.028602805 0)
(0.081513642 -0.043373466 0)
(0.092736529 -0.058827733 0)
(0.12499393 -0.066559732 0)
(0.039050838 -0.0013064877 0)
(0.039783307 -0.001541445 0)
(0.040536678 -0.0013793453 0)
(0.041172173 -0.0011222755 0)
(0.041614934 -0.00092551246 0)
(0.042013646 -0.00077731077 0)
(0.042309496 -0.00065368644 0)
(0.04256827 -0.00058033583 0)
(0.042790657 -0.00054813338 0)
(0.043008985 -0.00056885643 0)
(0.043238272 -0.00064596378 0)
(0.043507669 -0.00079669309 0)
(0.043845108 -0.0010376586 0)
(0.044288667 -0.0014026532 0)
(0.04488707 -0.0019442406 0)
(0.045714162 -0.0027358446 0)
(0.046852859 -0.0039000496 0)
(0.048444871 -0.0056291116 0)
(0.050656288 -0.008171859 0)
(0.053620148 -0.012292858 0)
(0.05817043 -0.018909345 0)
(0.063603079 -0.030861058 0)
(0.074832784 -0.04626361 0)
(0.081041572 -0.063290717 0)
(0.1113367 -0.069841643 0)
(0.039063922 -0.0014704763 0)
(0.039810413 -0.0017337053 0)
(0.04057209 -0.0015521071 0)
(0.041221768 -0.0012571933 0)
(0.041657664 -0.0010309 0)
(0.042049875 -0.00086242109 0)
(0.042335902 -0.00072209098 0)
(0.042582215 -0.00063878366 0)
(0.042792212 -0.00060166545 0)
(0.042995858 -0.00062287302 0)
(0.043208351 -0.00070601546 0)
(0.043456094 -0.00086949661 0)
(0.043765071 -0.0011312173 0)
(0.044169035 -0.0015272684 0)
(0.044711732 -0.0021139171 0)
(0.045456384 -0.002969672 0)
(0.046473509 -0.0042223037 0)
(0.047874735 -0.0060736034 0)
(0.049790961 -0.008774633 0)
(0.052251519 -0.01313078 0)
(0.055950758 -0.020061502 0)
(0.059654842 -0.032496112 0)
(0.067685521 -0.048323035 0)
(0.068213627 -0.066658342 0)
(0.092002707 -0.070237732 0)
(0.22626949 -0.0039765351 0)
(0.24617215 -0.0020769925 0)
(0.25620459 -0.00078050932 0)
(0.25834425 -0.00014659436 0)
(0.25822054 6.1944372e-005 0)
(0.25755842 6.1502974e-005 0)
(0.25730671 2.114104e-005 0)
(0.25725839 2.3988227e-006 0)
(0.25726686 -7.395379e-007 0)
(0.25726939 -1.5745466e-007 0)
(0.25726879 1.026928e-007 0)
(0.25726801 6.0946823e-008 0)
(0.25726789 7.1412205e-009 0)
(0.25726791 -2.647007e-009 0)
(0.25726793 -1.0341974e-009 0)
(0.25726793 -1.0469009e-010 0)
(0.25726793 -6.6993643e-010 0)
(0.25726794 6.1383026e-011 0)
(0.25726793 1.0032112e-009 0)
(0.25726793 -1.4635692e-009 0)
(0.25726795 -8.4730947e-010 0)
(0.25726794 8.5592512e-010 0)
(0.25726794 2.3414551e-009 0)
(0.25726791 2.2392523e-008 0)
(0.25726763 2.1321106e-008 0)
(0.22104878 -0.011162859 0)
(0.23736974 -0.0057686756 0)
(0.24596576 -0.0021217604 0)
(0.24769001 -0.00042646054 0)
(0.24768759 0.00015504526 0)
(0.24716138 0.00016092758 0)
(0.24696573 5.7149407e-005 0)
(0.24692429 6.782437e-006 0)
(0.24693019 -1.7629818e-006 0)
(0.24693191 -4.2591784e-007 0)
(0.24693152 2.7095793e-007 0)
(0.24693091 1.5598303e-007 0)
(0.24693083 2.2148202e-008 0)
(0.24693083 -7.6112872e-009 0)
(0.24693085 -3.5180967e-009 0)
(0.24693085 -1.3429957e-009 0)
(0.24693086 -1.3567466e-009 0)
(0.24693086 1.0917714e-009 0)
(0.24693086 1.2305728e-009 0)
(0.24693086 -3.1115534e-009 0)
(0.24693086 -1.5758532e-009 0)
(0.24693086 2.1833861e-009 0)
(0.24693085 6.5627863e-009 0)
(0.24693084 5.2945855e-008 0)
(0.24693068 5.0664659e-008 0)
(0.2112091 -0.0172317 0)
(0.22115287 -0.0086539918 0)
(0.22731683 -0.0031502312 0)
(0.22812336 -0.00065514143 0)
(0.22827624 0.00021550579 0)
(0.22797777 0.00022638155 0)
(0.22787898 8.2927427e-005 0)
(0.22785086 1.0264068e-005 0)
(0.22785361 -2.2424897e-006 0)
(0.22785406 -6.1447236e-007 0)
(0.227854 3.8322307e-007 0)
(0.22785366 2.1470644e-007 0)
(0.22785364 3.2830946e-008 0)
(0.22785363 -1.0844652e-008 0)
(0.22785365 -5.2643561e-009 0)
(0.22785365 -2.2558011e-009 0)
(0.22785365 -2.117938e-009 0)
(0.22785365 1.0642767e-009 0)
(0.22785366 5.0991476e-010 0)
(0.22785366 -2.7001371e-009 0)
(0.22785365 -1.6240545e-010 0)
(0.22785365 2.982419e-009 0)
(0.22785364 7.617876e-009 0)
(0.22785366 6.4476145e-008 0)
(0.22785366 6.3046103e-008 0)
(0.19764175 -0.021620744 0)
(0.19998535 -0.010275457 0)
(0.20307194 -0.0036535751 0)
(0.20260429 -0.00076823458 0)
(0.20285967 0.00023232299 0)
(0.20281105 0.00024601876 0)
(0.2028204 9.2939873e-005 0)
(0.20280933 1.2076748e-005 0)
(0.2028099 -2.1651292e-006 0)
(0.20280914 -6.8139911e-007 0)
(0.20280939 4.1485621e-007 0)
(0.20280934 2.2840243e-007 0)
(0.20280938 3.5658954e-008 0)
(0.20280937 -1.2039201e-008 0)
(0.20280937 -6.3213717e-009 0)
(0.20280938 -2.6067406e-009 0)
(0.20280937 -2.2837149e-009 0)
(0.20280937 -3.8836739e-010 0)
(0.20280939 -7.3093474e-010 0)
(0.20280938 -3.486486e-010 0)
(0.20280936 1.4839089e-009 0)
(0.20280937 2.8283534e-009 0)
(0.20280937 5.4538628e-009 0)
(0.2028094 4.9054619e-008 0)
(0.20280957 4.9296507e-008 0)
(0.18117889 -0.023942092 0)
(0.17654184 -0.010667862 0)
(0.17597521 -0.0034582713 0)
(0.17443645 -0.00074355032 0)
(0.17471074 0.00020594655 0)
(0.17483924 0.00022434126 0)
(0.17493945 8.7486554e-005 0)
(0.17494492 1.1813713e-005 0)
(0.17494494 -1.7512582e-006 0)
(0.17494327 -6.421488e-007 0)
(0.17494376 3.758203e-007 0)
(0.17494392 2.0209556e-007 0)
(0.17494401 3.1093439e-008 0)
(0.174944 -1.2151605e-008 0)
(0.174944 -6.1426519e-009 0)
(0.174944 -1.8648919e-009 0)
(0.17494399 -2.3193525e-009 0)
(0.174944 -2.4579062e-009 0)
(0.174944 -1.2112945e-009 0)
(0.17494399 1.8331675e-009 0)
(0.17494399 2.5844043e-009 0)
(0.174944 1.7315695e-009 0)
(0.174944 2.9156705e-010 0)
(0.17494404 1.4590244e-008 0)
(0.1749443 1.7699719e-008 0)
(0.16313681 -0.024580846 0)
(0.151429 -0.0096629773 0)
(0.14827278 -0.0027812806 0)
(0.14611796 -0.00059308096 0)
(0.14636489 0.00016513836 0)
(0.14656395 0.00017646413 0)
(0.14672136 7.0647434e-005 0)
(0.14673833 9.6193628e-006 0)
(0.14673895 -1.2606938e-006 0)
(0.14673674 -5.3845997e-007 0)
(0.14673739 2.9408065e-007 0)
(0.14673764 1.4901584e-007 0)
(0.14673776 2.1770338e-008 0)
(0.14673775 -1.1359092e-008 0)
(0.14673774 -5.1393595e-009 0)
(0.14673774 -1.108319e-009 0)
(0.14673774 -1.7967823e-009 0)
(0.14673774 -3.3570123e-009 0)
(0.14673774 -5.7645713e-010 0)
(0.14673773 2.6606688e-009 0)
(0.14673774 1.6947616e-009 0)
(0.14673774 1.8720376e-010 0)
(0.14673775 -5.2168299e-009 0)
(0.14673777 -2.3943018e-008 0)
(0.14673801 -1.8419152e-008 0)
(0.14290678 -0.023441101 0)
(0.12426112 -0.0075791552 0)
(0.12094072 -0.001852883 0)
(0.11846557 -0.00038348748 0)
(0.11871565 0.00012929525 0)
(0.11891351 0.00012096212 0)
(0.11909167 4.8442697e-005 0)
(0.11911181 6.2330602e-006 0)
(0.11911333 -8.3055703e-007 0)
(0.11911086 -4.0602982e-007 0)
(0.11911159 1.9668089e-007 0)
(0.11911182 8.8951557e-008 0)
(0.11911195 1.1974475e-008 0)
(0.11911193 -9.3828e-009 0)
(0.11911192 -3.5736228e-009 0)
(0.11911192 -8.03826e-010 0)
(0.11911191 -1.3552606e-009 0)
(0.11911191 -2.542685e-009 0)
(0.11911191 -8.4614993e-012 0)
(0.11911191 1.8850653e-009 0)
(0.11911191 4.2964241e-010 0)
(0.11911191 -1.1294069e-009 0)
(0.11911192 -8.8618045e-009 0)
(0.11911193 -4.9124478e-008 0)
(0.11911203 -4.2422019e-008 0)
(0.11732959 -0.019693034 0)
(0.094909319 -0.0051092429 0)
(0.092790682 -0.00097475955 0)
(0.090406439 -0.00017932006 0)
(0.090744395 9.4793572e-005 0)
(0.090901398 6.8654046e-005 0)
(0.091066421 2.6684052e-005 0)
(0.09108107 2.8756598e-006 0)
(0.0910833 -4.5721889e-007 0)
(0.091080791 -2.7046538e-007 0)
(0.091081532 1.0723906e-007 0)
(0.091081658 3.9005078e-008 0)
(0.091081769 4.6913872e-009 0)
(0.091081739 -6.6543541e-009 0)
(0.091081733 -2.0152683e-009 0)
(0.091081731 -5.8967856e-010 0)
(0.09108173 -6.6264859e-010 0)
(0.091081726 -1.3944146e-009 0)
(0.091081723 -6.0013757e-011 0)
(0.091081725 8.9477448e-010 0)
(0.091081728 -6.3146095e-012 0)
(0.091081729 -1.5948469e-009 0)
(0.091081729 -9.3201245e-009 0)
(0.091081719 -4.9779495e-008 0)
(0.091081651 -4.3309351e-008 0)
(0.084370634 -0.013697814 0)
(0.061695616 -0.0026334516 0)
(0.061268064 -0.00030736008 0)
(0.05945126 -5.2170403e-005 0)
(0.059891966 5.6096518e-005 0)
(0.059982035 2.5863454e-005 0)
(0.060106887 1.0319103e-005 0)
(0.060110421 5.2809184e-007 0)
(0.060113361 -1.0142144e-007 0)
(0.06011095 -1.3826706e-007 0)
(0.060111645 4.498721e-008 0)
(0.060111622 7.4346139e-009 0)
(0.060111718 1.0866116e-009 0)
(0.060111681 -3.3245166e-009 0)
(0.06011168 -7.3819303e-010 0)
(0.060111677 -2.9790263e-010 0)
(0.060111677 -2.019395e-010 0)
(0.060111674 -5.3371297e-010 0)
(0.060111672 3.0232369e-011 0)
(0.060111674 2.9246725e-010 0)
(0.060111675 -1.2284568e-010 0)
(0.060111675 -1.2504486e-009 0)
(0.060111668 -6.0523193e-009 0)
(0.060111644 -2.9307626e-008 0)
(0.060111478 -2.5104471e-008 0)
(0.039350584 -0.006925654 0)
(0.022779814 -1.9536155e-005 0)
(0.024147314 3.9600836e-005 0)
(0.023084063 3.2919434e-005 0)
(0.023510681 -1.5704295e-006 0)
(0.023487043 1.4497963e-006 0)
(0.023556773 -1.0508266e-006 0)
(0.023548971 -7.7783213e-008 0)
(0.023552526 -7.1652363e-008 0)
(0.023550675 -8.7411736e-009 0)
(0.023551186 -1.027584e-008 0)
(0.023551065 -2.1467394e-009 0)
(0.023551125 -6.8080433e-010 0)
(0.023551098 -2.1811347e-010 0)
(0.0235511 1.560759e-011 0)
(0.023551098 -3.2274892e-011 0)
(0.023551098 2.8400868e-011 0)
(0.023551097 -6.1168284e-011 0)
(0.023551096 -2.5152759e-011 0)
(0.023551097 2.5599782e-011 0)
(0.023551097 -4.7919925e-011 0)
(0.023551097 -4.7985098e-010 0)
(0.02355109 -1.1312382e-009 0)
(0.02355107 -6.421516e-009 0)
(0.023550955 -5.7475754e-009 0)
(0.039093762 -0.0018020488 0)
(0.039873419 -0.0021381662 0)
(0.040654284 -0.001895497 0)
(0.041334515 -0.0015297044 0)
(0.041753672 -0.0012389494 0)
(0.042129877 -0.0010274728 0)
(0.042393788 -0.00085349228 0)
(0.042612107 -0.00074916991 0)
(0.042794783 -0.00070182524 0)
(0.042966367 -0.00072293807 0)
(0.043142336 -0.00081656411 0)
(0.043343172 -0.0010024898 0)
(0.043591297 -0.0013010943 0)
(0.04391025 -0.0017525154 0)
(0.044334219 -0.0024182153 0)
(0.044903964 -0.0033855441 0)
(0.045663402 -0.0047871137 0)
(0.04666533 -0.0068342308 0)
(0.047981425 -0.0097817802 0)
(0.049470183 -0.014424239 0)
(0.051439793 -0.021744104 0)
(0.052192986 -0.034358135 0)
(0.053754883 -0.050009195 0)
(0.042439588 -0.067069052 0)
(0.036879148 -0.054313778 0)
(0.039130878 -0.0023332232 0)
(0.040008449 -0.0028218762 0)
(0.040854477 -0.0024249341 0)
(0.041561208 -0.0019393913 0)
(0.041950572 -0.0015368817 0)
(0.042283777 -0.0012452626 0)
(0.04250052 -0.0010202814 0)
(0.042664545 -0.00088048168 0)
(0.04279432 -0.00081569724 0)
(0.042906982 -0.00083131016 0)
(0.043016978 -0.0009319446 0)
(0.043134479 -0.0011370109 0)
(0.043276044 -0.0014692517 0)
(0.043449822 -0.0019694688 0)
(0.043671349 -0.0027008721 0)
(0.043952802 -0.0037547038 0)
(0.044300956 -0.0052577673 0)
(0.044695877 -0.0074096151 0)
(0.045140286 -0.010433836 0)
(0.045389535 -0.014949158 0)
(0.045321069 -0.021760808 0)
(0.043361028 -0.032418485 0)
(0.03940076 -0.044063122 0)
(0.025719708 -0.051258981 0)
(0.010499062 -0.028488217 0)
(0.03920125 -0.0029450438 0)
(0.040229675 -0.0035788394 0)
(0.041173359 -0.002995125 0)
(0.04188492 -0.0023372103 0)
(0.042224105 -0.0018033775 0)
(0.042489682 -0.0014214966 0)
(0.042641449 -0.0011429122 0)
(0.042738898 -0.00096777373 0)
(0.042804591 -0.00088323347 0)
(0.042850936 -0.00088900529 0)
(0.042886876 -0.00098812022 0)
(0.042914802 -0.0011962017 0)
(0.042941081 -0.0015377318 0)
(0.042964545 -0.0020511034 0)
(0.042976992 -0.0027952238 0)
(0.042968252 -0.0038571111 0)
(0.042914338 -0.0053513493 0)
(0.04274424 -0.0074472807 0)
(0.042393815 -0.01033668 0)
(0.041577073 -0.014442281 0)
(0.040005309 -0.02035941 0)
(0.036283452 -0.028844387 0)
(0.02961404 -0.037550541 0)
(0.016542817 -0.040603667 0)
(0.0022016659 -0.022093767 0)
(0.039385957 -0.0036990272 0)
(0.040679315 -0.0044510469 0)
(0.041759652 -0.0036013649 0)
(0.042438143 -0.0027021722 0)
(0.042684149 -0.0020156323 0)
(0.04285008 -0.0015392555 0)
(0.042914973 -0.001209004 0)
(0.042932622 -0.0010024524 0)
(0.042925524 -0.00089912957 0)
(0.042900396 -0.00089164755 0)
(0.042857641 -0.00098090542 0)
(0.042796032 -0.0011785838 0)
(0.042707739 -0.0015054637 0)
(0.042580801 -0.001997358 0)
(0.042392702 -0.0027061275 0)
(0.042110914 -0.0037066478 0)
(0.04168643 -0.0050981357 0)
(0.041019841 -0.007011392 0)
(0.039994878 -0.0095965972 0)
(0.038340543 -0.01311959 0)
(0.035731621 -0.017964788 0)
(0.031111836 -0.024380278 0)
(0.023645859 -0.030314853 0)
(0.012537674 -0.030692251 0)
(-7.6945536e-006 -0.016588957 0)
(0.039867294 -0.0047846993 0)
(0.04162741 -0.005529746 0)
(0.04285567 -0.004228454 0)
(0.043417793 -0.002998535 0)
(0.043500295 -0.0021385293 0)
(0.043522909 -0.0015761066 0)
(0.043475965 -0.0012053225 0)
(0.043400873 -0.00097631856 0)
(0.043315119 -0.0008584655 0)
(0.043215048 -0.0008378197 0)
(0.043094763 -0.00091061143 0)
(0.042945482 -0.0010842668 0)
(0.042748844 -0.0013768639 0)
(0.042479588 -0.0018160624 0)
(0.042108207 -0.0024466167 0)
(0.041582441 -0.0033286344 0)
(0.040832348 -0.0045407951 0)
(0.039747378 -0.0061787226 0)
(0.038178117 -0.0083490505 0)
(0.035884502 -0.011216791 0)
(0.032544393 -0.015001917 0)
(0.027441123 -0.019678331 0)
(0.019925955 -0.023566306 0)
(0.010441135 -0.022709614 0)
(-8.8981855e-005 -0.012602852 0)
(0.040834561 -0.0066047129 0)
(0.043155781 -0.0069001058 0)
(0.044335745 -0.0048141043 0)
(0.044611826 -0.0031508866 0)
(0.044434459 -0.0021202851 0)
(0.044263359 -0.001503633 0)
(0.044080536 -0.0011178313 0)
(0.04390376 -0.00088301062 0)
(0.043736983 -0.00075934445 0)
(0.043563571 -0.00072699397 0)
(0.043372292 -0.00077970795 0)
(0.043141095 -0.00091818475 0)
(0.042846296 -0.0011576412 0)
(0.042454247 -0.0015181506 0)
(0.041924354 -0.0020345063 0)
(0.041191503 -0.0027513324 0)
(0.040173691 -0.0037256877 0)
(0.038754597 -0.0050224278 0)
(0.036776087 -0.006710207 0)
(0.034021434 -0.0088856025 0)
(0.030205862 -0.011667727 0)
(0.024839456 -0.014929368 0)
(0.017506749 -0.017310262 0)
(0.00922825 -0.015982294 0)
(0.00020925791 -0.0088402853 0)
(0.041984234 -0.0096376471 0)
(0.044326137 -0.0083701414 0)
(0.044742618 -0.0051433549 0)
(0.04446027 -0.0030371608 0)
(0.0439343 -0.0019032314 0)
(0.043535831 -0.0012956196 0)
(0.04320683 -0.00093643226 0)
(0.042931287 -0.00072003116 0)
(0.042690676 -0.00060323268 0)
(0.042457878 -0.0005638675 0)
(0.042209401 -0.00059340072 0)
(0.041918087 -0.00068996108 0)
(0.041553024 -0.00086136771 0)
(0.041077047 -0.0011237497 0)
(0.040438719 -0.0014971885 0)
(0.039570099 -0.0020127287 0)
(0.038384287 -0.0027114229 0)
(0.036763154 -0.0036258171 0)
(0.034558355 -0.0047960516 0)
(0.031581351 -0.0062733396 0)
(0.027597104 -0.0081207808 0)
(0.022252085 -0.010197806 0)
(0.0153053 -0.011488801 0)
(0.0080274341 -0.010099199 0)
(0.00028895487 -0.0053732579 0)
(0.041827475 -0.013503725 0)
(0.042658816 -0.0090598573 0)
(0.040980968 -0.0048172468 0)
(0.039893628 -0.0025251376 0)
(0.039001073 -0.0014588436 0)
(0.038395979 -0.00095075584 0)
(0.037946492 -0.00066874644 0)
(0.037599847 -0.00049946252 0)
(0.037314103 -0.00040462228 0)
(0.03705342 -0.00036609583 0)
(0.036785191 -0.0003733201 0)
(0.036481065 -0.00042512784 0)
(0.036106774 -0.0005234657 0)
(0.035624429 -0.00067835257 0)
(0.034981756 -0.0008987922 0)
(0.034120925 -0.0012027466 0)
(0.032954665 -0.0016103463 0)
(0.031377849 -0.0021395198 0)
(0.029269656 -0.0028064985 0)
(0.026476793 -0.0036340703 0)
(0.022823373 -0.0046501996 0)
(0.018053656 -0.0057455276 0)
(0.012039191 -0.0062470354 0)
(0.0061574357 -0.005061178 0)
(0.00010966959 -0.0024174158 0)
(0.03712304 -0.014172341 0)
(0.035295332 -0.0067287469 0)
(0.030317588 -0.0032050628 0)
(0.028562704 -0.0015122134 0)
(0.027428335 -0.00082023653 0)
(0.02673606 -0.00051717709 0)
(0.026256503 -0.00035713149 0)
(0.025906751 -0.00026067413 0)
(0.025635498 -0.0002054311 0)
(0.025401984 -0.00018074604 0)
(0.025175055 -0.00017955502 0)
(0.024928284 -0.00020017963 0)
(0.024633499 -0.00024353457 0)
(0.024258513 -0.00031273848 0)
(0.023764425 -0.00041236511 0)
(0.023105293 -0.00054994634 0)
(0.022217917 -0.00072813616 0)
(0.021030702 -0.00095922349 0)
(0.019457722 -0.0012446465 0)
(0.017400185 -0.0015886015 0)
(0.014747263 -0.0020003342 0)
(0.011341011 -0.0024166493 0)
(0.0071192131 -0.0024953512 0)
(0.0034132981 -0.0017688982 0)
(-0.00020527233 -0.00070386726 0)
(0.022250158 -0.012205804 0)
(0.018875063 -0.0027464648 0)
(0.013117401 -0.00055129424 0)
(0.01217994 -0.00024211055 0)
(0.011319638 -9.7925833e-005 0)
(0.01086079 -5.5584412e-005 0)
(0.010546375 -3.5797654e-005 0)
(0.01032358 -2.2035931e-005 0)
(0.010158986 -1.2597318e-005 0)
(0.010024602 -6.1748532e-006 0)
(0.0099014263 -1.4829183e-006 0)
(0.0097739311 2.3534012e-006 0)
(0.0096265815 5.6971381e-006 0)
(0.0094430516 9.4889696e-006 0)
(0.009204292 1.3758434e-005 0)
(0.0088878548 1.9833696e-005 0)
(0.0084678995 2.8114285e-005 0)
(0.0079133821 3.944532e-005 0)
(0.0071898164 5.6896805e-005 0)
(0.0062640987 8.1466194e-005 0)
(0.0051004427 0.00011498109 0)
(0.0036590664 0.00016958977 0)
(0.0019034116 0.00026615764 0)
(0.00077914852 0.00042776048 0)
(-0.00017572227 0.00024501626 0)
)
;

boundaryField
{
    inlet
    {
        type            fixedValue;
        value           uniform (0.03876 0 0);
    }
    walls
    {
        type            fixedValue;
        value           uniform (0 0 0);
    }
    outlet
    {
        type            zeroGradient;
    }
    centreline
    {
        type            symmetryPlane;
    }
    frontAndBack
    {
        type            empty;
    }
}


// ************************************************************************* //
