# vtk DataFile Version 2.0
track0
ASCII
DATASET POLYDATA
POINTS 11930 float
-0.0205 0.001 1e-005
-0.020385 0.00100536 1.50248e-005
-0.0202701 0.00101047 1.9665e-005
-0.0201551 0.00101535 2.39734e-005
-0.02004 0.00102 2.79451e-005
-0.0198623 0.00102682 3.35545e-005
-0.0196933 0.00103276 3.81006e-005
-0.0195242 0.00103809 4.16153e-005
-0.0193551 0.00104281 4.41076e-005
-0.019186 0.00104692 4.55867e-005
-0.0190172 0.00105041 4.60612e-005
-0.0187132 0.00105592 4.60612e-005
-0.0184093 0.00106078 4.60612e-005
-0.0181054 0.00106511 4.60612e-005
-0.0178014 0.00106893 4.60612e-005
-0.0174976 0.00107221 4.60612e-005
-0.0172058 0.00107508 4.60612e-005
-0.016914 0.00107786 4.60612e-005
-0.0166222 0.00108057 4.60612e-005
-0.0163305 0.00108322 4.60612e-005
-0.0160387 0.00108581 4.60612e-005
-0.0157586 0.00108819 4.60612e-005
-0.0154784 0.00109051 4.60612e-005
-0.0151983 0.00109275 4.60612e-005
-0.0149182 0.0010949 4.60612e-005
-0.0146381 0.00109698 4.60612e-005
-0.0143692 0.00109885 4.60612e-005
-0.0141002 0.00110063 4.60612e-005
-0.0138313 0.00110234 4.60612e-005
-0.0135624 0.00110397 4.60612e-005
-0.0132934 0.00110552 4.60612e-005
-0.0130353 0.00110694 4.60612e-005
-0.0127771 0.0011083 4.60612e-005
-0.0125189 0.00110962 4.60612e-005
-0.0122607 0.00111091 4.60612e-005
-0.0120025 0.00111215 4.60612e-005
-0.0117547 0.00111331 4.60612e-005
-0.0115068 0.00111445 4.60612e-005
-0.0112589 0.00111556 4.60612e-005
-0.0110111 0.00111666 4.60612e-005
-0.0107632 0.00111774 4.60612e-005
-0.0105252 0.00111876 4.60612e-005
-0.0102873 0.00111976 4.60612e-005
-0.0100493 0.00112075 4.60612e-005
-0.00981133 0.00112173 4.60612e-005
-0.00957337 0.0011227 4.60612e-005
-0.00934491 0.00112361 4.60612e-005
-0.00911645 0.00112451 4.60612e-005
-0.00888799 0.0011254 4.60612e-005
-0.00865954 0.00112628 4.60612e-005
-0.00843108 0.00112716 4.60612e-005
-0.00821175 0.00112799 4.60612e-005
-0.00799242 0.00112881 4.60612e-005
-0.00777309 0.00112963 4.60612e-005
-0.00755376 0.00113044 4.60612e-005
-0.00733443 0.00113125 4.60612e-005
-0.00712387 0.00113202 4.60612e-005
-0.0069133 0.00113278 4.60612e-005
-0.00670273 0.00113354 4.60612e-005
-0.00649216 0.0011343 4.60612e-005
-0.0062816 0.00113505 4.60612e-005
-0.00607944 0.00113578 4.60612e-005
-0.00587729 0.00113649 4.60612e-005
-0.00567514 0.00113721 4.60612e-005
-0.00547298 0.00113793 4.60612e-005
-0.00527083 0.00113864 4.60612e-005
-0.00507675 0.00113933 4.60612e-005
-0.00488267 0.00114001 4.60612e-005
-0.0046886 0.00114069 4.60612e-005
-0.00449452 0.00114137 4.60612e-005
-0.00430044 0.00114205 4.60612e-005
-0.00411412 0.00114271 4.60612e-005
-0.0039278 0.00114336 4.60612e-005
-0.00374147 0.00114401 4.60612e-005
-0.00355515 0.00114466 4.60612e-005
-0.00336883 0.00114531 4.60612e-005
-0.00318995 0.00114594 4.60612e-005
-0.00301107 0.00114657 4.60612e-005
-0.00283219 0.00114719 4.60612e-005
-0.00265331 0.00114782 4.60612e-005
-0.00247443 0.00114844 4.60612e-005
-0.0023027 0.00114906 4.60612e-005
-0.00213097 0.00114966 4.60612e-005
-0.00195924 0.00115026 4.60612e-005
-0.0017875 0.00115087 4.60612e-005
-0.00161577 0.00115148 4.60612e-005
-0.0014509 0.00115208 4.60612e-005
-0.00128603 0.00115267 4.60612e-005
-0.00112116 0.00115325 4.60612e-005
-0.000956289 0.00115384 4.60612e-005
-0.000791418 0.00115444 4.60612e-005
-0.000633135 0.00115503 4.60612e-005
-0.000474851 0.00115561 4.60612e-005
-0.000316567 0.00115619 4.60612e-005
-0.000158284 0.00115677 4.60612e-005
0 0.00115736 4.60612e-005
0.000105677 0.00115776 4.60612e-005
0.000211355 0.00115816 4.60612e-005
0.000317032 0.00115855 4.60612e-005
0.00042271 0.00115895 4.60612e-005
0.000528387 0.00115936 4.60612e-005
0.000634886 0.00115978 4.60612e-005
0.000741385 0.0011602 4.60612e-005
0.000847885 0.00116062 4.60612e-005
0.000954384 0.00116105 4.60612e-005
0.00106088 0.00116148 4.60612e-005
0.00116821 0.00116193 4.60612e-005
0.00127554 0.00116238 4.60612e-005
0.00138286 0.00116283 4.60612e-005
0.00149019 0.00116328 4.60612e-005
0.00159752 0.00116375 4.60612e-005
0.00170568 0.00116422 4.60612e-005
0.00181384 0.0011647 4.60612e-005
0.001922 0.00116517 4.60612e-005
0.00203016 0.00116565 4.60612e-005
0.00213833 0.00116613 4.60612e-005
0.00224733 0.00116661 4.60612e-005
0.00235633 0.00116711 4.60612e-005
0.00246533 0.0011676 4.60612e-005
0.00257434 0.00116809 4.60612e-005
0.00268334 0.00116858 4.60612e-005
0.00279319 0.00116908 4.60612e-005
0.00290304 0.00116958 4.60612e-005
0.00301289 0.00117009 4.60612e-005
0.00312274 0.00117059 4.60612e-005
0.00323259 0.00117109 4.60612e-005
0.00334329 0.0011716 4.60612e-005
0.003454 0.00117211 4.60612e-005
0.0035647 0.00117263 4.60612e-005
0.0036754 0.00117315 4.60612e-005
0.00378611 0.00117366 4.60612e-005
0.00389767 0.00117417 4.60612e-005
0.00400924 0.00117469 4.60612e-005
0.0041208 0.00117522 4.60612e-005
0.00423237 0.00117575 4.60612e-005
0.00434393 0.00117627 4.60612e-005
0.00445636 0.00117678 4.60612e-005
0.00456879 0.00117732 4.60612e-005
0.00468123 0.00117785 4.60612e-005
0.00479366 0.00117839 4.60612e-005
0.00490609 0.00117892 4.60612e-005
0.0050194 0.00117943 4.60612e-005
0.0051327 0.00117997 4.60612e-005
0.00524601 0.00118051 4.60612e-005
0.00535931 0.00118105 4.60612e-005
0.00547262 0.00118158 4.60612e-005
0.00558681 0.0011821 4.60612e-005
0.005701 0.00118264 4.60612e-005
0.00581518 0.00118318 4.60612e-005
0.00592937 0.00118372 4.60612e-005
0.00604356 0.00118426 4.60612e-005
0.00615863 0.00118478 4.60612e-005
0.00627371 0.00118533 4.60612e-005
0.00638878 0.00118587 4.60612e-005
0.00650386 0.00118641 4.60612e-005
0.00661893 0.00118695 4.60612e-005
0.0067349 0.00118748 4.60612e-005
0.00685087 0.00118802 4.60612e-005
0.00696684 0.00118856 4.60612e-005
0.00708281 0.0011891 4.60612e-005
0.00719878 0.00118964 4.60612e-005
0.00731565 0.00119016 4.60612e-005
0.00743252 0.0011907 4.60612e-005
0.00754939 0.00119123 4.60612e-005
0.00766626 0.00119177 4.60612e-005
0.00778313 0.0011923 4.60612e-005
0.00790091 0.00119282 4.60612e-005
0.00801869 0.00119336 4.60612e-005
0.00813647 0.00119389 4.60612e-005
0.00825425 0.00119442 4.60612e-005
0.00837203 0.00119494 4.60612e-005
0.00849073 0.00119546 4.60612e-005
0.00860942 0.00119599 4.60612e-005
0.00872812 0.00119652 4.60612e-005
0.00884682 0.00119704 4.60612e-005
0.00896551 0.00119756 4.60612e-005
0.00908513 0.00119808 4.60612e-005
0.00920475 0.0011986 4.60612e-005
0.00932437 0.00119911 4.60612e-005
0.00944398 0.00119963 4.60612e-005
0.0095636 0.00120015 4.60612e-005
0.00968415 0.00120066 4.60612e-005
0.0098047 0.00120117 4.60612e-005
0.00992525 0.00120168 4.60612e-005
0.0100458 0.00120219 4.60612e-005
0.0101663 0.0012027 4.60612e-005
0.0102878 0.0012032 4.60612e-005
0.0104093 0.00120371 4.60612e-005
0.0105308 0.00120421 4.60612e-005
0.0106523 0.00120471 4.60612e-005
0.0107738 0.00120521 4.60612e-005
0.0108962 0.0012057 4.60612e-005
0.0110186 0.0012062 4.60612e-005
0.0111411 0.0012067 4.60612e-005
0.0112635 0.00120719 4.60612e-005
0.0113859 0.00120768 4.60612e-005
0.0115093 0.00120816 4.60612e-005
0.0116327 0.00120865 4.60612e-005
0.0117561 0.00120914 4.60612e-005
0.0118795 0.00120962 4.60612e-005
0.0120028 0.0012101 4.60612e-005
0.0121272 0.00121058 4.60612e-005
0.0122515 0.00121106 4.60612e-005
0.0123759 0.00121153 4.60612e-005
0.0125002 0.001212 4.60612e-005
0.0126245 0.00121247 4.60612e-005
0.0127498 0.00121294 4.60612e-005
0.0128752 0.0012134 4.60612e-005
0.0130005 0.00121387 4.60612e-005
0.0131258 0.00121433 4.60612e-005
0.0132511 0.00121478 4.60612e-005
0.0133774 0.00121523 4.60612e-005
0.0135036 0.00121569 4.60612e-005
0.0136299 0.00121614 4.60612e-005
0.0137562 0.00121659 4.60612e-005
0.0138825 0.00121703 4.60612e-005
0.0140098 0.00121746 4.60612e-005
0.014137 0.0012179 4.60612e-005
0.0142643 0.00121834 4.60612e-005
0.0143915 0.00121877 4.60612e-005
0.0145188 0.00121919 4.60612e-005
0.0146471 0.00121961 4.60612e-005
0.0147753 0.00122003 4.60612e-005
0.0149036 0.00122045 4.60612e-005
0.0150318 0.00122086 4.60612e-005
0.0151601 0.00122127 4.60612e-005
0.0152893 0.00122166 4.60612e-005
0.0154186 0.00122207 4.60612e-005
0.0155478 0.00122246 4.60612e-005
0.0156771 0.00122285 4.60612e-005
0.0158063 0.00122324 4.60612e-005
0.0159366 0.00122361 4.60612e-005
0.0160668 0.00122399 4.60612e-005
0.0161971 0.00122436 4.60612e-005
0.0163274 0.00122473 4.60612e-005
0.0164576 0.00122509 4.60612e-005
0.0165889 0.00122544 4.60612e-005
0.0167201 0.00122579 4.60612e-005
0.0168514 0.00122613 4.60612e-005
0.0169827 0.00122647 4.60612e-005
0.0171139 0.0012268 4.60612e-005
0.0172015 0.00122702 4.60612e-005
0.017289 0.00122723 4.60612e-005
0.0173766 0.00122744 4.60612e-005
0.0174641 0.00122765 4.60612e-005
0.0175489 0.00122785 4.60612e-005
0.0175942 0.00122795 4.60612e-005
0.0176395 0.00122806 4.60612e-005
0.0176848 0.00122816 4.60612e-005
0.0177301 0.00122826 4.60612e-005
0.0177754 0.00122836 4.60612e-005
0.0179087 0.00122866 4.60612e-005
0.018042 0.00122895 4.60612e-005
0.0181753 0.00122923 4.60612e-005
0.0183087 0.0012295 4.60612e-005
0.018442 0.00122977 4.60612e-005
0.0185763 0.00123002 4.60612e-005
0.0187107 0.00123027 4.60612e-005
0.018845 0.00123052 4.60612e-005
0.0189794 0.00123075 4.60612e-005
0.0191137 0.00123098 4.60612e-005
0.0192491 0.0012312 4.60612e-005
0.0193845 0.00123141 4.60612e-005
0.0195199 0.00123161 4.60612e-005
0.0196553 0.00123181 4.60612e-005
0.0197907 0.00123199 4.60612e-005
0.0199272 0.00123217 4.60612e-005
0.0200636 0.00123234 4.60612e-005
0.0202001 0.00123249 4.60612e-005
0.0203365 0.00123264 4.60612e-005
0.020473 0.00123279 4.60612e-005
0.0206105 0.00123292 4.60612e-005
0.020748 0.00123304 4.60612e-005
0.0208855 0.00123315 4.60612e-005
0.021023 0.00123325 4.60612e-005
0.0211606 0.00123335 4.60612e-005
0.0212991 0.00123343 4.60612e-005
0.0214377 0.0012335 4.60612e-005
0.0215763 0.00123356 4.60612e-005
0.0217149 0.00123362 4.60612e-005
0.0218535 0.00123366 4.60612e-005
0.0219931 0.00123369 4.60612e-005
0.0221328 0.00123371 4.60612e-005
0.0222724 0.00123372 4.60612e-005
0.0224121 0.00123372 4.60612e-005
0.0225517 0.00123371 4.60612e-005
0.0226925 0.00123369 4.60612e-005
[...]
POINT_DATA 11930
 FIELD attributes 2
p 1 11930 float
-1547.89 -1535.32 -1521.53 -1507.9 -1494.41 -1473.81 -1459.17 -1444.45 -1429.66 -1414.8 -1394.07 -1346 -1297.98 -1250.02 -1202.14 -1159.66 -1128.01 -1102.53 -1077.06 -1051.6 -1034.74 -1022.95 -1013.45 -1003.94 -994.442 -986.796 -980.005 -972.079 -964.154 -956.227 -947.177 -938.711 -930.058 -921.401 -912.762 -904.35 -896.372 -889.181 -882.081 -875.132 -869.099 -863.321 -858.124 -853.048 -848.128 -843.804 -839.646 -835.714 -831.852 -828.08 -824.558 -821.163 -817.896 -814.683 -811.543 -808.559 -805.675 -802.915 -800.219 -797.604 -795.129 -792.726 -790.433 -788.211 -786.071 -784.048 -782.071 -780.176 -778.343 -776.583 -774.908 -773.252 -771.658 -770.121 -768.649 -767.243 -765.829 -764.461 -763.144 -761.891 -760.693 -759.457 -758.264 -757.125 -756.057 -755.041 -753.957 -752.902 -751.89 -750.952 -750.06 -749.075 -748.139 -747.29 -746.559 -745.892 -745.139 -744.446 -743.864 -743.421 -743.063 -742.522 -742.022 -741.579 -741.235 -740.968 -740.518 -740.177 -739.957 -739.86 -739.884 -739.724 -739.656 -739.672 -739.754 -739.918 -740.034 -740.14 -740.239 -740.328 -740.402 -740.681 -740.852 -740.962 -741.012 -740.946 -741.332 -741.545 -741.678 -741.728 -741.571 -742.037 -742.278 -742.439 -742.514 -742.306 -742.801 -743.025 -743.179 -743.258 -743.006 -743.461 -743.63 -743.746 -743.812 -743.539 -743.918 -744.04 -744.131 -744.197 -743.958 -744.262 -744.359 -744.445 -744.524 -744.352 -744.583 -744.659 -744.735 -744.81 -744.709 -744.863 -744.921 -744.979 -745.037 -744.997 -745.089 -745.138 -745.188 -745.237 -745.249 -745.309 -745.36 -745.412 -745.464 -745.517 -745.564 -745.621 -745.677 -745.734 -745.812 -745.859 -745.92 -745.981 -746.043 -746.133 -746.192 -746.26 -746.328 -746.397 -746.489 -746.57 -746.648 -746.726 -746.804 -746.895 -747.002 -747.093 -747.185 -747.276 -747.366 -747.501 -747.607 -747.714 -747.82 -747.91 -748.07 -748.19 -748.311 -748.432 -748.525 -748.704 -748.838 -748.973 -749.107 -749.206 -749.4 -749.547 -749.694 -749.842 -749.952 -750.156 -750.316 -750.477 -750.637 -750.764 -750.973 -751.146 -751.319 -751.491 -751.637 -751.851 -752.038 -752.225 -752.412 -752.581 -752.8 -753.003 -753.205 -753.408 -753.604 -753.752 -753.895 -754.038 -754.18 -754.318 -754.392 -754.466 -754.54 -754.613 -754.699 -754.914 -755.14 -755.366 -755.593 -755.865 -756.061 -756.299 -756.537 -756.774 -757.089 -757.272 -757.521 -757.77 -758.019 -758.37 -758.545 -758.806 -759.066 -759.327 -759.706 -759.881 -760.153 -760.424 -760.696 -761.095 -761.277 -761.56 -761.843 -762.125 -762.536 -762.733 -763.026 -763.319 -763.613 -764.025 -764.245 -764.548 -764.851 -765.155 -765.561 -765.809 -766.122 -766.435 -766.749 -767.141 -767.423 -767.745 -768.067 -768.389 -768.761 -769.08 -769.411 -769.742 -770.073 -770.42 -770.778 -771.117 -771.457 -771.796 -772.116 -772.511 -772.861 -773.209 -773.55 -773.849 -774.273 -774.64 -774.996 -775.336 -775.62 -776.068 -776.455 -776.819 -777.154 -777.428 -777.893 -778.301 -778.673 -779.001 -779.272 -779.749 -780.178 -780.559 -780.881 -781.154 -781.643 -782.093 -782.482 -782.797 -783.073 -783.57 -784.041 -784.436 -784.741 -785.019 -785.52 -786.006 -786.404 -786.699 -786.98 -787.477 -787.971 -788.37 -788.658 -788.945 -789.434 -789.922 -790.317 -790.614 -790.911 -791.388 -791.864 -792.258 -792.567 -792.875 -793.338 -793.8 -794.193 -794.513 -794.833 -795.28 -795.727 -796.117 -796.449 -796.78 -797.211 -797.643 -798.03 -798.371 -798.713 -799.129 -799.545 -799.927 -800.278 -800.628 -801.027 -801.428 -801.805 -802.162 -802.518 -802.902 -803.287 -803.659 -804.019 -804.379 -804.748 -805.117 -805.483 -805.845 -806.206 -806.562 -806.918 -807.277 -807.636 -807.995 -808.337 -808.683 -809.033 -809.386 -809.741 -810.07 -810.405 -810.746 -811.089 -811.438 -811.753 -812.078 -812.407 -812.739 -813.078 -813.379 -813.694 -814.011 -814.328 -814.654 -814.941 -815.242 -815.544 -815.846 -816.157 -816.428 -816.713 -816.998 -817.283 -817.578 -817.832 -818.1 -818.367 -818.635 -818.911 -819.148 -819.396 -819.644 -819.893 -820.147 -820.367 -820.594 -820.821 -821.048 -821.278 -821.478 -821.681 -821.885 -822.089 -822.292 -822.298 -822.303 -822.308 -822.313 -822.318 -822.491 -822.665 -822.838 -823.012 -823.184 -823.336 -823.486 -823.636 -823.786 -823.932 -824.057 -824.176 -824.295 -824.414 -824.527 -824.622 -824.707 -824.793 -824.878 -824.954 -825.018 -825.066 -825.115 -825.164 -825.198 -825.228 -825.237 -825.245 -825.252 -825.244 -825.233 -825.205 -825.171 -825.132 -825.08 -825.026 -824.959 -824.881 -824.792 -824.693 -824.594 -824.486 -824.36 -824.219 -824.071 -823.924 -823.774 -823.598 -823.4 -823.201 -823.003 -822.805 -822.578 -822.324 -822.071 -821.819 -821.568 -821.287 -820.977 -820.668 -820.36 -820.053 -819.716 -819.347 -818.979 -818.613 -818.247 -817.851 -817.422 -816.992 -816.565 -816.135 -815.677 -815.189 -814.696 -814.205 -813.703 -813.18 -812.636 -812.077 -811.52 -810.944 -810.353 -809.751 -809.124 -808.499 -807.844 -807.183 -806.522 -805.824 -805.124 -804.391 -803.658 -802.925 -802.165 -801.381 -800.573 -799.766 -798.958 -798.135 -797.265 -796.38 -795.495 -794.611 -793.723 -793.466 -793.206 -792.946 -792.686 -792.431 -791.731 -791.03 -790.33 -789.63 -788.918 -787.891 -786.852 -785.814 -784.776 -783.71 -782.617 -781.496 -780.375 -779.254 -778.087 -776.929 -775.723 -774.517 -773.304 -772.041 -770.799 -769.523 -768.231 -766.912 -765.561 -764.232 -762.887 -761.507 -760.079 -758.639 -757.22 -755.802 -754.329 -752.798 -751.266 -749.757 -748.248 -746.683 -745.059 -743.436 -741.834 -740.233 -738.573 -736.857 -735.14 -733.445 -731.738 -729.979 -728.183 -726.372 -724.583 -722.757 -720.901 -719.033 -717.127 -715.243 -713.296 -711.344 -709.394 -707.402 -705.4 -703.352 -701.304 -699.257 -697.193 -695.647 -694.082 -692.517 -690.952 -689.462 -688.872 -688.281 -687.692 -687.102 -686.504 -684.283 -682.056 -679.83 -677.604 -675.342 -673.05 -670.728 -668.406 -666.084 -663.698 -661.324 -658.918 -656.502 -654.054 -651.573 -649.104 -646.629 -644.119 -641.547 -638.972 -636.409 -633.847 -631.233 -628.566 -625.899 -623.243 -620.588 -617.874 -615.118 -612.359 -609.612 -606.837 -604.028 -601.207 -598.359 -595.522 -592.624 -589.725 -586.827 -583.904 -581.109 -578.284 -575.459 -572.634 -569.968 -569.775 -569.582 -569.389 -569.197 -569.002 -565.936 -562.87 -559.804 -556.739 -553.649 -550.513 -547.363 -544.213 -541.059 -537.868 -534.654 -531.43 -528.199 -524.941 -521.669 -518.374 -515.079 -511.761 -508.41 -505.059 -501.684 -498.31 -494.904 -491.476 -488.048 -484.597 -481.131 -477.643 -474.151 -470.648 -467.121 -463.559 -459.997 -456.436 -452.867 -450.562 -448.244 -445.926 -443.608 -441.369 -440.039 -438.71 -437.38 -436.05 -434.712 -431.017 -427.318 -423.619 -419.922 -416.19 -412.437 -408.672 -404.906 -401.123 -397.318 -393.498 -389.678 -385.842 -381.974 -378.106 -374.221 -370.336 -366.424 -362.494 -358.563 -354.616 -350.655 -346.675 -342.692 -338.701 -334.691 -330.652 -326.613 -322.574 -318.532 -317.136 -315.732 -314.328 -312.925 -311.545 -308.85 -306.156 -303.462 -300.768 -298.058 -293.917 -289.77 -285.624 -281.474 -277.294 -273.103 -268.909 -264.712 -260.488 -256.257 -252.016 -247.775 -243.515 -239.238 -234.96 -230.67 -226.373 -222.056 -217.738 -213.414 -209.078 -204.717 -200.357 -195.997 -191.634 -190.224 -188.808 -187.392 -185.977 -184.583 -181.593 -178.604 -175.614 -172.625 -169.622 -165.186 -160.747 -156.308 -151.864 -147.399 -142.928 -138.456 -133.982 -129.486 -124.988 -120.483 -115.978 -111.457 -106.929 -102.4 -97.8623 -93.3147 -88.7605 -84.2068 -79.6513 -76.308 -72.9576 -69.6074 -66.2575 -63.0177 -61.7688 -60.52 -59.2712 -58.0224 -56.7701 -52.1716 -47.5738 -42.9766 -38.3793 -33.7649 -29.1465 -24.5295 -19.9143 -15.2877 -10.6572 -6.02192 -1.38724 3.25288 7.89225 12.5338 17.1808 21.8309 26.4836 31.1358 35.7849 38.9336 42.0844 45.2349 48.3851 51.4465 52.9736 54.5007 56.0277 57.5547 59.0836 63.7527 68.4182 73.0833 77.7484 82.4182 87.091 91.7613 96.4245 101.087 105.753 110.421 115.09 119.755 124.411 129.068 133.729 138.385 143.04 147.694 152.346 153.479 154.611 155.742 156.874 157.994 161.514 165.033 168.553 172.071 175.587 180.234 184.87 189.504 194.133 198.76 203.388 208.016 212.632 217.235 221.84 226.447 231.045 235.637 240.229 244.812 247.135 249.451 251.766 254.082 256.357 258.621 260.886 263.15 265.414 267.673 272.234 276.783 281.332 285.873 290.409 294.941 299.474 303.989 308.488 312.99 317.489 321.979 326.457 330.936 335.403 337.678 339.941 342.205 344.468 346.696 348.889 351.082 353.275 355.468 357.652 362.084 366.502 370.92 375.327 379.726 384.119 388.512 392.886 397.24 401.597 405.947 410.282 414.607 418.933 423.252 424.48 425.702 426.922 428.143 429.354 432.429 435.504 438.579 441.653 444.712 448.98 453.237 457.489 461.721 465.951 470.17 474.388 478.583 482.766 486.946 490.535 494.104 497.671 501.237 504.734 505.327 505.92 506.513 507.106 507.695 511.811 515.922 520.033 524.137 528.225 532.297 536.37 540.421 544.452 548.485 552.502 556.503 560.493 564.482 568.465 569.422 570.374 571.324 572.274 573.221 576.221 579.221 582.22 585.216 588.195 592.107 596.014 599.906 603.771 607.638 611.487 615.327 619.146 622.964 626.766 628.289 629.801 631.311 632.821 634.325 636.584 638.844 641.103 643.358 645.599 649.329 653.047 656.757 660.433 664.109 667.767 671.416 675.033 678.648 682.24 683.813 685.375 686.935 688.494 690.06 692.058 694.057 696.056 698.051 700.033 703.557 707.047 710.517 713.901 717.279 720.636 724.021 727.522 731.029 734.589 736.195 737.501 738.711 739.921 741.158 742.853 744.549 746.244 747.834 749.072 751.31 754.148 757.257 761.867 766.655 771.327 775.373 777.83 780.29 782.434 782.581 782.76 782.99 783.22 783.451 785.302 787.154 789.007 791.358 794.03 796.996 799.951 802.77 805.59 808.349 808.862 809.364 809.848 810.331 810.822 813.071 815.318 817.564 819.737 821.864 824.488 827.11 829.634 832.146 834.602 835.188 835.761 836.309 836.856 837.421 839.291 841.158 843.023 844.816 846.563 848.847 851.128 853.242 855.283 857.268 857.918 858.538 859.11 859.682 860.287 861.568 862.846 864.121 865.312 866.437 868.078 869.713 871.148 872.372 873.587 874.231 874.79 875.249 875.706 876.221 876.666 877.109 877.55 877.932 878.244 878.881 879.413 879.814 879.874 879.925 879.84 879.542 879.019 878.489 877.875 877.767 877.622 877.456 877.289 877.118 876.152 875.173 874.182 873.053 871.635 869.808 867.969 865.69 862.994 860.287 857.32 853.946 850.329 846.705 842.918 842.069 841.108 840.129 839.15 838.108 834.4 830.681 826.95 823.168 818.934 813.24 807.265 800.999 793.971 786.855 779.268 771.668 763.48 754.837 746.119 736.877 726.437 715.728 705.017 693.829 689.336 684.834 680.331 675.827 670.741 663.013 655.28 647.542 639.8 632.013 618.195 602.445 586.663 569.877 550.507 530.163 510.362 492.763 478.79 464.837 450.134 435.432 407.94 368.119 328.265 286.616 253.954 237.497 228.544 231.403 234.008 176.961 119.604 61.9532 0