# vtk DataFile Version 2.0
track0
ASCII
DATASET POLYDATA
POINTS 11930 float
-0.0205 0.001 1e-005
-0.0203851 0.00100536 1.50237e-005
-0.0202701 0.00101047 1.96629e-005
-0.0201551 0.00101536 2.39704e-005
-0.0200401 0.00102 2.79414e-005
-0.0198625 0.00102682 3.3547e-005
-0.0196934 0.00103276 3.80952e-005
-0.0195243 0.0010381 4.16113e-005
-0.0193552 0.00104282 4.41044e-005
-0.019186 0.00104694 4.55839e-005
-0.0190172 0.00105044 4.60582e-005
-0.0187132 0.00105596 4.60582e-005
-0.0184093 0.00106083 4.60582e-005
-0.0181054 0.00106518 4.60582e-005
-0.0178014 0.001069 4.60582e-005
-0.0174976 0.0010723 4.60582e-005
-0.0172058 0.00107517 4.60582e-005
-0.016914 0.00107796 4.60582e-005
-0.0166222 0.00108068 4.60582e-005
-0.0163305 0.00108334 4.60582e-005
-0.0160387 0.00108593 4.60582e-005
-0.0157586 0.00108832 4.60582e-005
-0.0154784 0.00109064 4.60582e-005
-0.0151983 0.00109287 4.60582e-005
-0.0149182 0.00109503 4.60582e-005
-0.0146381 0.0010971 4.60582e-005
-0.0143692 0.00109896 4.60582e-005
-0.0141002 0.00110073 4.60582e-005
-0.0138313 0.00110242 4.60582e-005
-0.0135624 0.00110403 4.60582e-005
-0.0132934 0.00110557 4.60582e-005
-0.0130353 0.00110696 4.60582e-005
-0.0127771 0.0011083 4.60582e-005
-0.0125189 0.00110961 4.60582e-005
-0.0122607 0.00111087 4.60582e-005
-0.0120025 0.0011121 4.60582e-005
-0.0117547 0.00111325 4.60582e-005
-0.0115068 0.00111437 4.60582e-005
-0.0112589 0.00111548 4.60582e-005
-0.0110111 0.00111657 4.60582e-005
-0.0107632 0.00111764 4.60582e-005
-0.0105252 0.00111865 4.60582e-005
-0.0102873 0.00111965 4.60582e-005
-0.0100493 0.00112063 4.60582e-005
-0.00981133 0.00112161 4.60582e-005
-0.00957337 0.00112257 4.60582e-005
-0.00934491 0.00112348 4.60582e-005
-0.00911645 0.00112437 4.60582e-005
-0.00888799 0.00112526 4.60582e-005
-0.00865954 0.00112614 4.60582e-005
-0.00843108 0.00112702 4.60582e-005
-0.00821175 0.00112784 4.60582e-005
-0.00799242 0.00112866 4.60582e-005
-0.00777309 0.00112948 4.60582e-005
-0.00755376 0.00113028 4.60582e-005
-0.00733443 0.00113109 4.60582e-005
-0.00712387 0.00113185 4.60582e-005
-0.0069133 0.00113261 4.60582e-005
-0.00670273 0.00113337 4.60582e-005
-0.00649216 0.00113412 4.60582e-005
-0.0062816 0.00113487 4.60582e-005
-0.00607944 0.00113559 4.60582e-005
-0.00587729 0.0011363 4.60582e-005
-0.00567514 0.00113701 4.60582e-005
-0.00547298 0.00113772 4.60582e-005
-0.00527083 0.00113843 4.60582e-005
-0.00507675 0.00113911 4.60582e-005
-0.00488267 0.00113979 4.60582e-005
-0.0046886 0.00114046 4.60582e-005
-0.00449452 0.00114114 4.60582e-005
-0.00430044 0.00114181 4.60582e-005
-0.00411412 0.00114246 4.60582e-005
-0.0039278 0.00114311 4.60582e-005
-0.00374147 0.00114376 4.60582e-005
-0.00355515 0.0011444 4.60582e-005
-0.00336883 0.00114505 4.60582e-005
-0.00318995 0.00114568 4.60582e-005
-0.00301107 0.0011463 4.60582e-005
-0.00283219 0.00114692 4.60582e-005
-0.00265331 0.00114755 4.60582e-005
-0.00247443 0.00114818 4.60582e-005
-0.0023027 0.00114879 4.60582e-005
-0.00213097 0.00114939 4.60582e-005
-0.00195924 0.00115 4.60582e-005
-0.0017875 0.00115061 4.60582e-005
-0.00161577 0.00115122 4.60582e-005
-0.0014509 0.00115182 4.60582e-005
-0.00128603 0.00115241 4.60582e-005
-0.00112116 0.001153 4.60582e-005
-0.000956289 0.00115359 4.60582e-005
-0.000791418 0.0011542 4.60582e-005
-0.000633135 0.00115479 4.60582e-005
-0.000474851 0.00115538 4.60582e-005
-0.000316567 0.00115597 4.60582e-005
-0.000158284 0.00115656 4.60582e-005
0 0.00115716 4.60582e-005
0.000105677 0.00115757 4.60582e-005
0.000211355 0.00115798 4.60582e-005
0.000317032 0.00115839 4.60582e-005
0.00042271 0.0011588 4.60582e-005
0.000528387 0.00115922 4.60582e-005
0.000634886 0.00115965 4.60582e-005
0.000741385 0.00116008 4.60582e-005
0.000847885 0.00116051 4.60582e-005
0.000954384 0.00116094 4.60582e-005
0.00106088 0.00116139 4.60582e-005
0.00116821 0.00116185 4.60582e-005
0.00127554 0.00116231 4.60582e-005
0.00138286 0.00116276 4.60582e-005
0.00149019 0.00116323 4.60582e-005
0.00159752 0.00116369 4.60582e-005
0.00170568 0.00116418 4.60582e-005
0.00181384 0.00116466 4.60582e-005
0.001922 0.00116515 4.60582e-005
0.00203016 0.00116563 4.60582e-005
0.00213833 0.00116612 4.60582e-005
0.00224733 0.00116662 4.60582e-005
0.00235633 0.00116712 4.60582e-005
0.00246533 0.00116762 4.60582e-005
0.00257434 0.00116812 4.60582e-005
0.00268334 0.00116862 4.60582e-005
0.00279319 0.00116912 4.60582e-005
0.00290304 0.00116964 4.60582e-005
0.00301289 0.00117015 4.60582e-005
0.00312274 0.00117066 4.60582e-005
0.00323259 0.00117117 4.60582e-005
0.00334329 0.00117168 4.60582e-005
0.003454 0.00117221 4.60582e-005
0.0035647 0.00117273 4.60582e-005
0.0036754 0.00117326 4.60582e-005
0.00378611 0.00117378 4.60582e-005
0.00389767 0.00117429 4.60582e-005
0.00400924 0.00117482 4.60582e-005
0.0041208 0.00117536 4.60582e-005
0.00423237 0.00117589 4.60582e-005
0.00434393 0.00117642 4.60582e-005
0.00445636 0.00117694 4.60582e-005
0.00456879 0.00117747 4.60582e-005
0.00468123 0.00117801 4.60582e-005
0.00479366 0.00117856 4.60582e-005
0.00490609 0.00117909 4.60582e-005
0.0050194 0.00117961 4.60582e-005
0.0051327 0.00118015 4.60582e-005
0.00524601 0.0011807 4.60582e-005
0.00535931 0.00118124 4.60582e-005
0.00547262 0.00118178 4.60582e-005
0.00558681 0.00118231 4.60582e-005
0.005701 0.00118285 4.60582e-005
0.00581518 0.0011834 4.60582e-005
0.00592937 0.00118394 4.60582e-005
0.00604356 0.00118449 4.60582e-005
0.00615863 0.00118502 4.60582e-005
0.00627371 0.00118556 4.60582e-005
0.00638878 0.00118611 4.60582e-005
0.00650386 0.00118666 4.60582e-005
0.00661893 0.0011872 4.60582e-005
0.0067349 0.00118773 4.60582e-005
0.00685087 0.00118828 4.60582e-005
0.00696684 0.00118882 4.60582e-005
0.00708281 0.00118937 4.60582e-005
0.00719878 0.00118991 4.60582e-005
0.00731565 0.00119044 4.60582e-005
0.00743252 0.00119098 4.60582e-005
0.00754939 0.00119152 4.60582e-005
0.00766626 0.00119206 4.60582e-005
0.00778313 0.0011926 4.60582e-005
0.00790091 0.00119313 4.60582e-005
0.00801869 0.00119367 4.60582e-005
0.00813647 0.0011942 4.60582e-005
0.00825425 0.00119474 4.60582e-005
0.00837203 0.00119527 4.60582e-005
0.00849073 0.00119579 4.60582e-005
0.00860942 0.00119633 4.60582e-005
0.00872812 0.00119686 4.60582e-005
0.00884682 0.00119738 4.60582e-005
0.00896551 0.00119791 4.60582e-005
0.00908513 0.00119843 4.60582e-005
0.00920475 0.00119895 4.60582e-005
0.00932437 0.00119948 4.60582e-005
0.00944398 0.0012 4.60582e-005
0.0095636 0.00120052 4.60582e-005
0.00968415 0.00120103 4.60582e-005
0.0098047 0.00120155 4.60582e-005
0.00992525 0.00120207 4.60582e-005
0.0100458 0.00120258 4.60582e-005
0.0101663 0.00120309 4.60582e-005
0.0102878 0.0012036 4.60582e-005
0.0104093 0.00120411 4.60582e-005
0.0105308 0.00120462 4.60582e-005
0.0106523 0.00120512 4.60582e-005
0.0107738 0.00120562 4.60582e-005
0.0108962 0.00120612 4.60582e-005
0.0110186 0.00120663 4.60582e-005
0.0111411 0.00120712 4.60582e-005
0.0112635 0.00120762 4.60582e-005
0.0113859 0.00120811 4.60582e-005
0.0115093 0.0012086 4.60582e-005
0.0116327 0.00120909 4.60582e-005
0.0117561 0.00120958 4.60582e-005
0.0118795 0.00121007 4.60582e-005
0.0120028 0.00121055 4.60582e-005
0.0121272 0.00121103 4.60582e-005
0.0122515 0.00121151 4.60582e-005
0.0123759 0.00121198 4.60582e-005
0.0125002 0.00121246 4.60582e-005
0.0126245 0.00121293 4.60582e-005
0.0127498 0.00121339 4.60582e-005
0.0128752 0.00121386 4.60582e-005
0.0130005 0.00121432 4.60582e-005
0.0131258 0.00121478 4.60582e-005
0.0132511 0.00121523 4.60582e-005
0.0133774 0.00121568 4.60582e-005
0.0135036 0.00121613 4.60582e-005
0.0136299 0.00121658 4.60582e-005
0.0137562 0.00121702 4.60582e-005
0.0138825 0.00121746 4.60582e-005
0.0140098 0.00121789 4.60582e-005
0.014137 0.00121832 4.60582e-005
0.0142643 0.00121875 4.60582e-005
0.0143915 0.00121918 4.60582e-005
0.0145188 0.0012196 4.60582e-005
0.0146471 0.00122001 4.60582e-005
0.0147753 0.00122042 4.60582e-005
0.0149036 0.00122083 4.60582e-005
0.0150318 0.00122124 4.60582e-005
0.0151601 0.00122164 4.60582e-005
0.0152893 0.00122203 4.60582e-005
0.0154186 0.00122242 4.60582e-005
0.0155478 0.0012228 4.60582e-005
0.0156771 0.00122319 4.60582e-005
0.0158063 0.00122356 4.60582e-005
0.0159366 0.00122393 4.60582e-005
0.0160668 0.0012243 4.60582e-005
0.0161971 0.00122466 4.60582e-005
0.0163274 0.00122502 4.60582e-005
0.0164576 0.00122537 4.60582e-005
0.0165889 0.00122571 4.60582e-005
0.0167201 0.00122605 4.60582e-005
0.0168514 0.00122638 4.60582e-005
0.0169827 0.00122671 4.60582e-005
0.0171139 0.00122703 4.60582e-005
0.0172059 0.00122725 4.60582e-005
0.0172978 0.00122747 4.60582e-005
0.0173897 0.00122769 4.60582e-005
0.0174816 0.0012279 4.60582e-005
0.0175706 0.0012281 4.60582e-005
0.0176115 0.00122819 4.60582e-005
0.0176525 0.00122828 4.60582e-005
0.0176935 0.00122837 4.60582e-005
0.0177344 0.00122846 4.60582e-005
0.0177754 0.00122855 4.60582e-005
0.0179087 0.00122883 4.60582e-005
0.018042 0.00122911 4.60582e-005
0.0181753 0.00122938 4.60582e-005
0.0183087 0.00122964 4.60582e-005
0.018442 0.0012299 4.60582e-005
0.0185763 0.00123015 4.60582e-005
0.0187107 0.00123039 4.60582e-005
0.018845 0.00123062 4.60582e-005
0.0189794 0.00123085 4.60582e-005
0.0191137 0.00123107 4.60582e-005
0.0192491 0.00123128 4.60582e-005
0.0193845 0.00123148 4.60582e-005
0.0195199 0.00123167 4.60582e-005
0.0196553 0.00123186 4.60582e-005
0.0197907 0.00123203 4.60582e-005
0.0199272 0.0012322 4.60582e-005
0.0200636 0.00123236 4.60582e-005
0.0202001 0.00123251 4.60582e-005
0.0203365 0.00123265 4.60582e-005
0.020473 0.00123279 4.60582e-005
0.0206105 0.00123291 4.60582e-005
0.020748 0.00123302 4.60582e-005
0.0208855 0.00123313 4.60582e-005
0.021023 0.00123322 4.60582e-005
0.0211606 0.00123331 4.60582e-005
0.0212991 0.00123338 4.60582e-005
0.0214377 0.00123345 4.60582e-005
0.0215763 0.0012335 4.60582e-005
0.0217149 0.00123355 4.60582e-005
0.0218535 0.00123358 4.60582e-005
0.0219931 0.00123361 4.60582e-005
0.0221328 0.00123363 4.60582e-005
0.0222724 0.00123363 4.60582e-005
0.0224121 0.00123362 4.60582e-005
0.0225517 0.00123361 4.60582e-005
0.0226925 0.00123358 4.60582e-005
[...]
POINT_DATA 11930
 FIELD attributes 2
p 1 11930 float
-1548.34 -1535.76 -1521.98 -1508.34 -1494.85 -1474.26 -1459.61 -1444.89 -1430.09 -1415.22 -1394.48 -1346.41 -1298.43 -1250.51 -1202.65 -1160.24 -1128.64 -1103.22 -1077.82 -1052.43 -1035.65 -1023.87 -1014.37 -1004.88 -995.385 -987.748 -980.909 -972.956 -965.003 -957.049 -948.024 -939.55 -930.889 -922.224 -913.578 -905.175 -897.215 -890.007 -882.886 -875.911 -869.824 -864.036 -858.801 -853.682 -848.708 -844.303 -840.113 -836.146 -832.247 -828.431 -824.852 -821.435 -818.152 -814.923 -811.765 -808.759 -805.865 -803.1 -800.402 -797.785 -795.311 -792.9 -790.603 -788.379 -786.24 -784.224 -782.232 -780.326 -778.485 -776.722 -775.054 -773.376 -771.765 -770.215 -768.739 -767.339 -765.9 -764.514 -763.185 -761.928 -760.735 -759.479 -758.27 -757.123 -756.054 -755.044 -753.947 -752.882 -751.865 -750.93 -750.047 -749.056 -748.119 -747.274 -746.557 -745.908 -745.166 -744.488 -743.927 -743.508 -743.177 -742.66 -742.189 -741.781 -741.472 -741.241 -740.82 -740.511 -740.326 -740.262 -740.316 -740.181 -740.139 -740.179 -740.283 -740.466 -740.598 -740.719 -740.831 -740.931 -741.013 -741.297 -741.475 -741.591 -741.647 -741.587 -741.975 -742.19 -742.328 -742.382 -742.233 -742.696 -742.938 -743.101 -743.178 -742.98 -743.466 -743.692 -743.848 -743.932 -743.694 -744.139 -744.312 -744.434 -744.507 -744.255 -744.624 -744.751 -744.85 -744.924 -744.708 -745 -745.102 -745.192 -745.276 -745.127 -745.343 -745.421 -745.499 -745.577 -745.496 -745.634 -745.693 -745.753 -745.812 -745.791 -745.871 -745.921 -745.971 -746.021 -746.049 -746.099 -746.15 -746.202 -746.253 -746.317 -746.355 -746.41 -746.465 -746.521 -746.607 -746.647 -746.707 -746.767 -746.828 -746.924 -746.98 -747.048 -747.116 -747.185 -747.282 -747.364 -747.444 -747.524 -747.604 -747.697 -747.809 -747.904 -747.998 -748.092 -748.183 -748.323 -748.432 -748.541 -748.649 -748.737 -748.902 -749.023 -749.144 -749.265 -749.354 -749.536 -749.668 -749.8 -749.932 -750.025 -750.22 -750.363 -750.507 -750.651 -750.754 -750.956 -751.11 -751.265 -751.42 -751.537 -751.742 -751.907 -752.071 -752.236 -752.371 -752.579 -752.757 -752.936 -753.114 -753.273 -753.484 -753.678 -753.872 -754.066 -754.252 -754.402 -754.546 -754.689 -754.833 -754.972 -755.036 -755.1 -755.164 -755.228 -755.303 -755.51 -755.728 -755.946 -756.164 -756.427 -756.617 -756.846 -757.076 -757.306 -757.611 -757.789 -758.031 -758.273 -758.515 -758.857 -759.029 -759.284 -759.539 -759.794 -760.165 -760.339 -760.607 -760.875 -761.143 -761.535 -761.72 -762.001 -762.282 -762.563 -762.967 -763.171 -763.465 -763.758 -764.052 -764.457 -764.687 -764.993 -765.299 -765.605 -766.003 -766.265 -766.583 -766.9 -767.217 -767.6 -767.898 -768.225 -768.553 -768.88 -769.242 -769.579 -769.916 -770.253 -770.59 -770.927 -771.304 -771.649 -771.995 -772.34 -772.65 -773.059 -773.416 -773.769 -774.115 -774.407 -774.84 -775.212 -775.572 -775.914 -776.195 -776.646 -777.037 -777.403 -777.74 -778.015 -778.482 -778.892 -779.265 -779.593 -779.864 -780.342 -780.771 -781.151 -781.469 -781.737 -782.221 -782.667 -783.05 -783.357 -783.623 -784.108 -784.566 -784.951 -785.245 -785.513 -785.992 -786.457 -786.842 -787.128 -787.401 -787.869 -788.336 -788.719 -789.005 -789.291 -789.747 -790.204 -790.586 -790.887 -791.188 -791.634 -792.079 -792.463 -792.78 -793.097 -793.533 -793.968 -794.353 -794.685 -795.018 -795.443 -795.868 -796.254 -796.6 -796.947 -797.362 -797.778 -798.164 -798.523 -798.881 -799.287 -799.693 -800.08 -800.448 -800.816 -801.213 -801.61 -801.997 -802.372 -802.748 -803.136 -803.524 -803.909 -804.29 -804.671 -805.049 -805.428 -805.81 -806.193 -806.576 -806.944 -807.316 -807.693 -808.073 -808.455 -808.813 -809.176 -809.547 -809.92 -810.298 -810.644 -810.999 -811.36 -811.724 -812.094 -812.427 -812.772 -813.122 -813.473 -813.832 -814.151 -814.485 -814.82 -815.157 -815.502 -815.805 -816.123 -816.442 -816.76 -817.087 -817.372 -817.67 -817.968 -818.266 -818.571 -818.834 -819.109 -819.384 -819.658 -819.94 -820.179 -820.428 -820.677 -820.926 -821.18 -821.394 -821.615 -821.837 -822.058 -822.281 -822.47 -822.661 -822.852 -823.044 -823.235 -823.239 -823.242 -823.245 -823.248 -823.251 -823.408 -823.565 -823.722 -823.88 -824.034 -824.162 -824.285 -824.409 -824.533 -824.652 -824.745 -824.83 -824.915 -825 -825.076 -825.133 -825.178 -825.222 -825.267 -825.298 -825.318 -825.32 -825.322 -825.324 -825.307 -825.288 -825.245 -825.203 -825.158 -825.095 -825.031 -824.948 -824.861 -824.766 -824.657 -824.547 -824.424 -824.29 -824.144 -823.988 -823.83 -823.665 -823.483 -823.283 -823.079 -822.872 -822.664 -822.433 -822.178 -821.924 -821.667 -821.411 -821.129 -820.823 -820.517 -820.209 -819.902 -819.569 -819.211 -818.853 -818.493 -818.134 -817.749 -817.338 -816.927 -816.514 -816.101 -815.664 -815.199 -814.734 -814.267 -813.797 -813.303 -812.787 -812.266 -811.742 -811.209 -810.659 -810.094 -809.516 -808.935 -808.338 -807.73 -807.115 -806.48 -805.84 -805.177 -804.51 -803.844 -803.151 -802.448 -801.721 -800.994 -800.267 -799.521 -798.749 -797.959 -797.17 -796.381 -795.581 -794.736 -793.881 -793.027 -792.173 -791.317 -791.188 -791.058 -790.928 -790.797 -790.668 -789.88 -789.092 -788.305 -787.517 -786.719 -785.743 -784.756 -783.769 -782.782 -781.77 -780.737 -779.677 -778.618 -777.558 -776.458 -775.366 -774.231 -773.097 -771.954 -770.769 -769.602 -768.405 -767.192 -765.955 -764.689 -763.443 -762.183 -760.89 -759.553 -758.205 -756.876 -755.548 -754.168 -752.734 -751.301 -749.887 -748.474 -747.008 -745.486 -743.964 -742.464 -740.964 -739.407 -737.795 -736.183 -734.592 -732.991 -731.338 -729.647 -727.943 -726.26 -724.543 -722.795 -721.032 -719.232 -717.455 -715.616 -713.771 -711.927 -710.038 -708.144 -706.201 -704.257 -702.315 -700.35 -698.604 -696.833 -695.062 -693.292 -691.623 -691.332 -691.041 -690.75 -690.459 -690.164 -688.037 -685.906 -683.776 -681.646 -679.483 -677.28 -675.048 -672.816 -670.585 -668.288 -666.003 -663.675 -661.341 -658.98 -656.575 -654.187 -651.786 -649.349 -646.851 -644.343 -641.852 -639.362 -636.814 -634.203 -631.592 -628.999 -626.406 -623.75 -621.037 -618.324 -615.629 -612.911 -610.144 -607.357 -604.544 -601.748 -598.891 -596.025 -593.158 -590.254 -587.332 -584.365 -581.399 -578.434 -575.462 -574.917 -574.365 -573.814 -573.262 -572.716 -570.209 -567.702 -565.195 -562.689 -560.16 -557.023 -553.871 -550.719 -547.569 -544.369 -541.149 -537.91 -534.666 -531.396 -528.102 -524.79 -521.478 -518.138 -514.755 -511.371 -507.968 -504.567 -501.128 -497.657 -494.186 -490.696 -487.195 -483.662 -480.118 -476.563 -472.988 -469.377 -465.76 -462.144 -458.513 -455.347 -452.16 -448.973 -445.786 -442.752 -442.213 -441.673 -441.134 -440.595 -440.051 -436.285 -432.517 -428.749 -424.982 -421.183 -417.358 -413.515 -409.674 -405.819 -401.934 -398.037 -394.137 -390.224 -386.273 -382.32 -378.353 -374.387 -370.393 -366.375 -362.357 -358.324 -354.281 -350.214 -346.142 -342.061 -337.966 -333.838 -329.71 -325.583 -321.45 -319.443 -317.426 -315.409 -313.392 -311.425 -309.249 -307.073 -304.897 -302.721 -300.533 -296.301 -292.066 -287.831 -283.595 -279.327 -275.049 -270.767 -266.481 -262.174 -257.858 -253.531 -249.205 -244.863 -240.504 -236.144 -231.772 -227.396 -223 -218.603 -214.202 -209.789 -205.355 -200.92 -196.487 -192.05 -190.372 -188.688 -187.004 -185.32 -183.666 -180.874 -178.082 -175.291 -172.499 -169.696 -165.195 -160.693 -156.192 -151.686 -147.163 -142.632 -138.101 -133.571 -129.023 -124.474 -119.916 -115.359 -110.788 -106.216 -101.642 -97.0587 -92.4687 -87.8741 -83.2801 -78.6875 -75.3348 -71.9779 -68.6213 -65.2649 -62.0145 -60.7398 -59.4652 -58.1906 -56.9161 -55.6389 -51.012 -46.3871 -41.7626 -37.1381 -32.5011 -27.8587 -23.2195 -18.5839 -13.9412 -9.29528 -4.64348 0.00773503 4.66094 9.30907 13.9593 18.6162 23.274 27.9324 32.5904 37.2428 40.2395 43.2361 46.2326 49.2288 52.1477 53.8273 55.5068 57.1863 58.8657 60.5462 65.2129 69.8745 74.5356 79.1964 83.8592 88.5256 93.1897 97.8441 102.496 107.15 111.808 116.465 121.117 125.76 130.402 135.048 139.687 144.325 148.963 153.599 154.543 155.484 156.426 157.368 158.302 161.992 165.682 169.372 173.062 176.747 181.374 185.99 190.602 195.208 199.813 204.42 209.026 213.619 218.198 222.779 227.361 231.936 236.503 241.071 245.629 247.776 249.915 252.055 254.194 256.299 258.714 261.129 263.543 265.958 268.366 272.902 277.426 281.949 286.464 290.974 295.481 299.988 304.478 308.951 313.427 317.9 322.364 326.817 331.27 335.713 337.856 339.989 342.122 344.255 346.357 348.655 350.953 353.251 355.549 357.838 362.246 366.639 371.033 375.415 379.79 384.16 388.528 392.879 397.21 401.544 405.87 410.182 414.486 418.789 423.087 424.241 425.388 426.536 427.683 428.822 431.949 435.076 438.203 441.329 444.44 448.687 452.924 457.155 461.367 465.577 469.776 473.974 478.15 482.314 486.475 490.025 493.555 497.082 500.61 504.068 504.682 505.296 505.91 506.523 507.133 511.232 515.325 519.419 523.506 527.576 531.632 535.687 539.722 543.737 547.754 551.755 555.74 559.714 563.688 567.655 568.622 569.583 570.542 571.502 572.457 575.433 578.408 581.384 584.355 587.31 591.207 595.099 598.977 602.828 606.68 610.515 614.341 618.145 621.949 625.737 627.296 628.844 630.388 631.933 633.472 635.682 637.893 640.103 642.309 644.5 648.217 651.921 655.617 659.281 662.943 666.587 670.224 673.828 677.429 681.007 682.638 684.257 685.873 687.489 689.112 691.04 692.968 694.897 696.821 698.733 702.244 705.719 709.175 712.549 715.914 719.258 722.627 726.115 729.614 733.161 734.848 736.218 737.488 738.758 740.057 741.669 743.281 744.892 746.405 747.579 749.806 752.687 755.785 760.327 765.104 769.766 773.871 776.317 778.768 780.829 781.008 781.227 781.508 781.789 782.072 783.873 785.674 787.476 789.765 792.369 795.325 798.275 801.085 803.895 806.639 807.209 807.768 808.305 808.843 809.39 811.572 813.752 815.932 818.041 820.105 822.721 825.334 827.854 830.353 832.803 833.441 834.066 834.663 835.26 835.877 837.686 839.494 841.299 843.035 844.727 847.006 849.281 851.398 853.427 855.408 856.101 856.763 857.372 857.982 858.63 859.865 861.096 862.325 863.473 864.559 866.199 867.833 869.267 870.492 871.709 872.38 872.963 873.442 873.919 874.459 874.88 875.299 875.717 876.078 876.375 877.017 877.539 877.958 878.028 878.087 878.011 877.736 877.223 876.703 876.085 875.958 875.786 875.589 875.393 875.188 874.257 873.314 872.359 871.272 869.903 868.092 866.269 864.005 861.329 858.641 855.695 852.359 848.764 845.162 841.38 840.44 839.377 838.294 837.21 836.049 832.465 828.87 825.265 821.609 817.516 811.851 805.883 799.647 792.668 785.583 778.028 770.46 762.318 753.694 745.011 735.804 725.426 714.752 704.075 692.897 688.183 683.46 678.735 674.009 668.641 661.181 653.718 646.249 638.777 631.262 617.427 601.717 585.974 569.276 549.941 529.635 509.918 492.355 478.376 464.462 449.8 435.138 407.674 367.876 328.045 286.419 253.572 237.159 228.458 231.366 234.083 177.342 119.948 62.2592 0