/*--------------------------------*- C++ -*----------------------------------*\
| =========                 |                                                 |
| \\      /  F ield         | OpenFOAM: The Open Source CFD Toolbox           |
|  \\    /   O peration     | Version:  5.x                                   |
|   \\  /    A nd           | Web:      www.OpenFOAM.org                      |
|    \\/     M anipulation  |                                                 |
\*---------------------------------------------------------------------------*/
/*   Windows 32 and 64 bit porting by blueCAPE: http://www.bluecape.com.pt   *\
|  Based on Windows porting (2.0.x v4) by Symscape: http://www.symscape.com   |
\*---------------------------------------------------------------------------*/
FoamFile
{
    version     2.0;
    format      ascii;
    class       surfaceScalarField;
    location    "2700";
    object      phi;
}
// * * * * * * * * * * * * * * * * * * * * * * * * * * * * * * * * * * * * * //

dimensions      [0 3 -1 0 0 0 0];

internalField   nonuniform List<scalar> 
7780
(
4.99612e-005
3.87879e-008
4.98433e-005
1.17922e-007
4.96896e-005
1.53697e-007
4.95176e-005
1.71964e-007
4.93358e-005
1.81776e-007
4.91484e-005
1.87469e-007
4.8958e-005
1.90327e-007
4.87659e-005
1.92113e-007
4.85734e-005
1.92535e-007
4.83811e-005
1.92316e-007
4.81892e-005
1.91947e-007
4.79976e-005
1.91571e-007
4.78065e-005
1.91121e-007
4.76159e-005
1.90575e-007
4.7426e-005
1.89872e-007
4.72369e-005
1.89046e-007
4.70488e-005
1.88185e-007
4.68614e-005
1.87314e-007
4.6675e-005
1.86412e-007
4.64895e-005
1.85488e-007
4.6305e-005
1.84577e-007
4.61213e-005
1.83651e-007
4.59386e-005
1.82706e-007
4.57569e-005
1.81749e-007
4.55761e-005
1.80782e-007
4.53963e-005
1.79802e-007
4.52175e-005
1.78802e-007
4.50397e-005
1.7779e-007
4.48629e-005
1.76787e-007
4.46871e-005
1.75791e-007
4.45123e-005
1.74791e-007
4.43386e-005
1.73774e-007
4.41658e-005
1.72751e-007
4.39941e-005
1.71736e-007
4.38233e-005
1.7073e-007
4.36536e-005
1.69727e-007
4.34849e-005
1.68722e-007
4.33172e-005
1.67713e-007
4.31505e-005
1.66701e-007
4.29848e-005
1.65686e-007
4.28201e-005
1.64666e-007
4.26565e-005
1.63643e-007
4.24939e-005
1.62618e-007
4.23323e-005
1.61597e-007
4.21717e-005
1.6059e-007
4.20121e-005
1.59574e-007
4.18536e-005
1.5855e-007
4.1696e-005
1.57536e-007
4.15395e-005
1.56526e-007
4.1384e-005
1.55514e-007
4.12295e-005
1.54495e-007
4.1076e-005
1.53468e-007
4.09236e-005
1.52434e-007
4.07722e-005
1.51394e-007
4.06219e-005
1.50342e-007
4.04726e-005
1.49276e-007
4.03244e-005
1.48197e-007
4.01773e-005
1.47111e-007
4.00312e-005
1.46021e-007
3.98863e-005
1.44924e-007
3.97425e-005
1.4382e-007
3.95998e-005
1.42707e-007
3.94582e-005
1.41583e-007
3.93177e-005
1.40448e-007
3.91784e-005
1.39303e-007
3.90403e-005
1.38152e-007
3.89033e-005
1.36996e-007
3.87675e-005
1.35831e-007
3.86328e-005
1.34656e-007
3.84993e-005
1.3347e-007
3.83671e-005
1.32277e-007
3.8236e-005
1.31078e-007
3.81061e-005
1.29878e-007
3.79774e-005
1.28685e-007
3.78499e-005
1.27508e-007
3.77236e-005
1.2636e-007
3.75983e-005
1.25279e-007
3.7474e-005
1.24327e-007
3.73504e-005
1.23568e-007
3.72274e-005
1.22986e-007
3.71049e-005
1.22492e-007
3.69829e-005
1.22029e-007
3.68613e-005
1.21576e-007
3.67402e-005
1.2112e-007
3.66195e-005
1.20649e-007
3.64994e-005
1.20158e-007
3.63797e-005
1.19645e-007
3.62606e-005
1.19111e-007
3.61421e-005
1.18556e-007
3.60241e-005
1.17982e-007
3.59067e-005
1.17389e-007
3.57899e-005
1.16778e-007
3.56738e-005
1.16151e-007
3.55583e-005
1.15507e-007
3.54434e-005
1.1485e-007
3.53292e-005
1.1418e-007
3.52157e-005
1.13494e-007
3.51029e-005
1.12791e-007
3.49909e-005
1.12076e-007
3.48795e-005
1.11344e-007
3.47689e-005
1.10597e-007
3.46591e-005
1.0984e-007
3.455e-005
1.0907e-007
3.44417e-005
1.08288e-007
3.43342e-005
1.07496e-007
3.42275e-005
1.06697e-007
3.41216e-005
1.0589e-007
3.40166e-005
1.05073e-007
3.39123e-005
1.04248e-007
3.38089e-005
1.03415e-007
3.37063e-005
1.02575e-007
3.36046e-005
1.01728e-007
3.35037e-005
1.00873e-007
3.34037e-005
1.00011e-007
3.33046e-005
9.91424e-008
3.32063e-005
9.82677e-008
3.31089e-005
9.73868e-008
3.30124e-005
9.64987e-008
3.29168e-005
9.56047e-008
3.28221e-005
9.4707e-008
3.27283e-005
9.38049e-008
3.26354e-005
9.28955e-008
3.25434e-005
9.1979e-008
3.24524e-005
9.10588e-008
3.23622e-005
9.01384e-008
3.2273e-005
8.92166e-008
3.21847e-005
8.82895e-008
3.20974e-005
8.73557e-008
3.2011e-005
8.64165e-008
3.19255e-005
8.54742e-008
3.1841e-005
8.45303e-008
3.17574e-005
8.35845e-008
3.16747e-005
8.26356e-008
3.1593e-005
8.1683e-008
3.15123e-005
8.07277e-008
3.14325e-005
7.97717e-008
3.13537e-005
7.8815e-008
3.12759e-005
7.78565e-008
3.1199e-005
7.68952e-008
3.11231e-005
7.59337e-008
3.10481e-005
7.49742e-008
3.09741e-005
7.40148e-008
3.0901e-005
7.3051e-008
3.08289e-005
7.20828e-008
3.07578e-005
7.11151e-008
3.06877e-005
7.01512e-008
3.06185e-005
6.91892e-008
3.05502e-005
6.82259e-008
3.0483e-005
6.72606e-008
3.04167e-005
6.62954e-008
3.03514e-005
6.53328e-008
3.0287e-005
6.43741e-008
3.02236e-005
6.34182e-008
3.01611e-005
6.24634e-008
3.00996e-005
6.15085e-008
3.0039e-005
6.05548e-008
2.99794e-005
5.96048e-008
2.99208e-005
5.86578e-008
2.98631e-005
5.77115e-008
2.98063e-005
5.67651e-008
2.97505e-005
5.58205e-008
2.96956e-005
5.48805e-008
2.96417e-005
5.3947e-008
2.95886e-005
5.30192e-008
2.95365e-005
5.20939e-008
2.94854e-005
5.11691e-008
2.94351e-005
5.02458e-008
2.93858e-005
4.93287e-008
2.93374e-005
4.84184e-008
2.92899e-005
4.75116e-008
2.92433e-005
4.66063e-008
2.91976e-005
4.57045e-008
2.91527e-005
4.48094e-008
2.91088e-005
4.39219e-008
2.90658e-005
4.30405e-008
2.90236e-005
4.21641e-008
2.89823e-005
4.12929e-008
2.89419e-005
4.04271e-008
2.89023e-005
3.95663e-008
2.88636e-005
3.87112e-008
2.88258e-005
3.78641e-008
2.87887e-005
3.70265e-008
2.87525e-005
3.61969e-008
2.87172e-005
3.53743e-008
2.86826e-005
3.45597e-008
2.86488e-005
3.37561e-008
2.86159e-005
3.29656e-008
2.85837e-005
3.21894e-008
2.85523e-005
3.1428e-008
2.85216e-005
3.06853e-008
2.84916e-005
2.99636e-008
2.84623e-005
2.92736e-008
2.84337e-005
2.85975e-008
2.84057e-005
2.79909e-008
2.83784e-005
2.73207e-008
2.83515e-005
2.69189e-008
2.83254e-005
2.61108e-008
2.82989e-005
2.64612e-008
2.82733e-005
2.56106e-008
2.91303e-008
5.00493e-005
-1.05521e-008
5.01077e-005
5.95632e-008
5.01578e-005
1.03586e-007
5.01966e-005
1.3316e-007
5.02256e-005
1.52761e-007
5.02466e-005
1.6654e-007
5.02611e-005
1.75835e-007
5.02706e-005
1.82598e-007
5.02759e-005
1.872e-007
5.02776e-005
1.90649e-007
5.0276e-005
1.93515e-007
5.02714e-005
1.96161e-007
5.02642e-005
1.98329e-007
5.02547e-005
2.00072e-007
5.02434e-005
2.01216e-007
5.02305e-005
2.01891e-007
5.02163e-005
2.02388e-007
5.02009e-005
2.02754e-007
5.01843e-005
2.02943e-007
5.01668e-005
2.02994e-007
5.01484e-005
2.02984e-007
5.01292e-005
2.02848e-007
5.01093e-005
2.02612e-007
5.00888e-005
2.02293e-007
5.00677e-005
2.01899e-007
5.0046e-005
2.01439e-007
5.00239e-005
2.00901e-007
5.00014e-005
2.0031e-007
4.99785e-005
1.99704e-007
4.99552e-005
1.99078e-007
4.99316e-005
1.98413e-007
4.99077e-005
1.97701e-007
4.98835e-005
1.96962e-007
4.9859e-005
1.96218e-007
4.98342e-005
1.95471e-007
4.98092e-005
1.94719e-007
4.9784e-005
1.93957e-007
4.97586e-005
1.9318e-007
4.97329e-005
1.92389e-007
4.9707e-005
1.91582e-007
4.96809e-005
1.9076e-007
4.96546e-005
1.89928e-007
4.96281e-005
1.89084e-007
4.96015e-005
1.88231e-007
4.95747e-005
1.87372e-007
4.95478e-005
1.865e-007
4.95207e-005
1.85626e-007
4.94935e-005
1.84763e-007
4.94661e-005
1.83904e-007
4.94386e-005
1.8304e-007
4.94109e-005
1.82168e-007
4.93831e-005
1.81295e-007
4.93551e-005
1.80423e-007
4.93269e-005
1.79541e-007
4.92986e-005
1.78641e-007
4.92702e-005
1.77724e-007
4.92416e-005
1.76799e-007
4.92128e-005
1.75876e-007
4.91839e-005
1.7495e-007
4.91548e-005
1.7402e-007
4.91255e-005
1.73084e-007
4.90961e-005
1.72142e-007
4.90665e-005
1.7119e-007
4.90367e-005
1.70225e-007
4.90067e-005
1.6925e-007
4.89766e-005
1.68275e-007
4.89463e-005
1.67299e-007
4.89158e-005
1.66318e-007
4.88852e-005
1.65323e-007
4.88543e-005
1.64314e-007
4.88233e-005
1.63297e-007
4.87921e-005
1.62279e-007
4.87607e-005
1.61268e-007
4.87291e-005
1.60268e-007
4.86974e-005
1.59284e-007
4.86654e-005
1.58324e-007
4.86333e-005
1.57413e-007
4.8601e-005
1.56558e-007
4.85689e-005
1.55705e-007
4.8537e-005
1.54871e-007
4.85054e-005
1.54107e-007
4.8474e-005
1.53388e-007
4.84429e-005
1.52698e-007
4.8412e-005
1.52028e-007
4.83813e-005
1.51367e-007
4.83507e-005
1.50709e-007
4.83203e-005
1.50049e-007
4.82901e-005
1.49384e-007
4.82599e-005
1.48713e-007
4.82298e-005
1.48038e-007
4.81999e-005
1.47359e-007
4.817e-005
1.46674e-007
4.81401e-005
1.45981e-007
4.81104e-005
1.45283e-007
4.80806e-005
1.44583e-007
4.80509e-005
1.43879e-007
4.80213e-005
1.43168e-007
4.79916e-005
1.42448e-007
4.7962e-005
1.41727e-007
4.79323e-005
1.40988e-007
4.79027e-005
1.40222e-007
4.78731e-005
1.39453e-007
4.78435e-005
1.38678e-007
4.78139e-005
1.379e-007
4.77842e-005
1.37121e-007
4.77546e-005
1.36339e-007
4.77249e-005
1.35548e-007
4.76952e-005
1.3475e-007
4.76655e-005
1.33946e-007
4.76358e-005
1.33136e-007
4.76061e-005
1.32319e-007
4.75763e-005
1.31495e-007
4.75465e-005
1.30664e-007
4.75167e-005
1.29827e-007
4.74869e-005
1.28987e-007
4.7457e-005
1.28142e-007
4.74271e-005
1.2729e-007
4.73972e-005
1.2643e-007
4.73672e-005
1.25562e-007
4.73372e-005
1.24688e-007
4.73072e-005
1.2381e-007
4.72772e-005
1.22927e-007
4.72471e-005
1.22038e-007
4.7217e-005
1.21144e-007
4.71869e-005
1.20245e-007
4.71568e-005
1.19342e-007
4.71267e-005
1.18435e-007
4.70965e-005
1.17521e-007
4.70663e-005
1.16601e-007
4.70361e-005
1.15675e-007
4.70059e-005
1.14747e-007
4.69757e-005
1.13815e-007
4.69454e-005
1.12879e-007
4.69152e-005
1.11939e-007
4.68849e-005
1.10994e-007
4.68546e-005
1.10045e-007
4.68243e-005
1.09092e-007
4.67941e-005
1.08135e-007
4.67638e-005
1.07176e-007
4.67335e-005
1.06215e-007
4.67032e-005
1.05253e-007
4.6673e-005
1.04287e-007
4.66427e-005
1.03315e-007
4.66124e-005
1.0234e-007
4.65822e-005
1.01364e-007
4.6552e-005
1.00387e-007
4.65217e-005
9.94085e-008
4.64915e-005
9.84292e-008
4.64613e-005
9.74483e-008
4.64312e-005
9.64641e-008
4.6401e-005
9.54776e-008
4.63709e-005
9.4491e-008
4.63408e-005
9.35053e-008
4.63108e-005
9.25194e-008
4.62807e-005
9.15334e-008
4.62508e-005
9.05476e-008
4.62208e-005
8.95608e-008
4.61909e-005
8.85712e-008
4.6161e-005
8.75797e-008
4.61312e-005
8.65894e-008
4.61014e-005
8.56027e-008
4.60717e-005
8.46185e-008
4.6042e-005
8.36342e-008
4.60124e-005
8.26486e-008
4.59828e-005
8.16628e-008
4.59533e-005
8.06786e-008
4.59238e-005
7.96972e-008
4.58944e-005
7.87198e-008
4.58651e-005
7.77453e-008
4.58358e-005
7.67716e-008
4.58067e-005
7.5797e-008
4.57775e-005
7.48225e-008
4.57485e-005
7.38513e-008
4.57195e-005
7.28859e-008
4.56906e-005
7.19259e-008
4.56618e-005
7.097e-008
4.56331e-005
7.00178e-008
4.56045e-005
6.90691e-008
4.55759e-005
6.81238e-008
4.55474e-005
6.71822e-008
4.55191e-005
6.62457e-008
4.54908e-005
6.53157e-008
4.54626e-005
6.4393e-008
4.54345e-005
6.34779e-008
4.54065e-005
6.25711e-008
4.53785e-005
6.16755e-008
4.53507e-005
6.07955e-008
4.5323e-005
5.99338e-008
4.52953e-005
5.90916e-008
4.52677e-005
5.82727e-008
4.52402e-005
5.74809e-008
4.52127e-005
5.67312e-008
4.51853e-005
5.60061e-008
4.51579e-005
5.5371e-008
4.51306e-005
5.4688e-008
4.51032e-005
5.43228e-008
4.50753e-005
5.39345e-008
4.50478e-005
5.40232e-008
4.50187e-005
5.47109e-008
5.55262e-008
5.00365e-005
-4.7083e-008
5.00887e-005
7.39156e-009
5.01422e-005
5.0066e-008
5.0193e-005
8.23853e-008
5.02393e-005
1.06461e-007
5.02812e-005
1.24603e-007
5.03189e-005
1.3813e-007
5.03534e-005
1.48139e-007
5.03845e-005
1.56084e-007
5.04125e-005
1.62628e-007
5.04381e-005
1.67957e-007
5.04616e-005
1.72655e-007
5.04833e-005
1.76626e-007
5.05034e-005
1.79917e-007
5.05224e-005
1.82306e-007
5.05401e-005
1.84169e-007
5.05566e-005
1.85905e-007
5.05719e-005
1.87428e-007
5.05863e-005
1.88517e-007
5.06e-005
1.89359e-007
5.06128e-005
1.90143e-007
5.0625e-005
1.90624e-007
5.06367e-005
1.90939e-007
5.06479e-005
1.9112e-007
5.06586e-005
1.91191e-007
5.06688e-005
1.91172e-007
5.06787e-005
1.9102e-007
5.06882e-005
1.90775e-007
5.06975e-005
1.90497e-007
5.07064e-005
1.90166e-007
5.0715e-005
1.8978e-007
5.07234e-005
1.8933e-007
5.07315e-005
1.88841e-007
5.07394e-005
1.88329e-007
5.07471e-005
1.87797e-007
5.07545e-005
1.8726e-007
5.07618e-005
1.86719e-007
5.07688e-005
1.86162e-007
5.07756e-005
1.85582e-007
5.07822e-005
1.8497e-007
5.07886e-005
1.84339e-007
5.07949e-005
1.83695e-007
5.08009e-005
1.83014e-007
5.08069e-005
1.82308e-007
5.08126e-005
1.816e-007
5.08183e-005
1.80889e-007
5.08237e-005
1.80183e-007
5.0829e-005
1.79481e-007
5.08341e-005
1.78777e-007
5.08391e-005
1.78067e-007
5.08439e-005
1.77356e-007
5.08485e-005
1.76651e-007
5.0853e-005
1.75947e-007
5.08573e-005
1.75226e-007
5.08615e-005
1.7448e-007
5.08655e-005
1.7372e-007
5.08693e-005
1.7296e-007
5.0873e-005
1.72204e-007
5.08765e-005
1.71449e-007
5.08798e-005
1.70692e-007
5.0883e-005
1.69931e-007
5.08859e-005
1.69165e-007
5.08887e-005
1.68386e-007
5.08914e-005
1.67597e-007
5.08938e-005
1.66805e-007
5.08961e-005
1.66019e-007
5.08981e-005
1.6524e-007
5.09e-005
1.64456e-007
5.09017e-005
1.63655e-007
5.09031e-005
1.62839e-007
5.09044e-005
1.62015e-007
5.09055e-005
1.61194e-007
5.09064e-005
1.60385e-007
5.09071e-005
1.59588e-007
5.09076e-005
1.58805e-007
5.09078e-005
1.58039e-007
5.09079e-005
1.57297e-007
5.09079e-005
1.56578e-007
5.09078e-005
1.55853e-007
5.09075e-005
1.55126e-007
5.09072e-005
1.54423e-007
5.09068e-005
1.53749e-007
5.09064e-005
1.53099e-007
5.0906e-005
1.52468e-007
5.09055e-005
1.51849e-007
5.0905e-005
1.51237e-007
5.09044e-005
1.50624e-007
5.09038e-005
1.50011e-007
5.09031e-005
1.49397e-007
5.09024e-005
1.48782e-007
5.09016e-005
1.48167e-007
5.09007e-005
1.47551e-007
5.08997e-005
1.46933e-007
5.08987e-005
1.46314e-007
5.08976e-005
1.45693e-007
5.08964e-005
1.4507e-007
5.08951e-005
1.44443e-007
5.08938e-005
1.43812e-007
5.08923e-005
1.43184e-007
5.08907e-005
1.42541e-007
5.08891e-005
1.41874e-007
5.08874e-005
1.412e-007
5.08855e-005
1.40523e-007
5.08836e-005
1.39846e-007
5.08815e-005
1.3917e-007
5.08794e-005
1.38491e-007
5.08771e-005
1.37806e-007
5.08747e-005
1.37116e-007
5.08723e-005
1.36422e-007
5.08697e-005
1.35721e-007
5.0867e-005
1.35013e-007
5.08642e-005
1.34299e-007
5.08613e-005
1.33582e-007
5.08582e-005
1.32861e-007
5.08551e-005
1.32138e-007
5.08518e-005
1.31412e-007
5.08484e-005
1.30681e-007
5.08449e-005
1.29943e-007
5.08413e-005
1.29199e-007
5.08375e-005
1.2845e-007
5.08336e-005
1.27696e-007
5.08296e-005
1.26939e-007
5.08255e-005
1.26179e-007
5.08212e-005
1.25413e-007
5.08168e-005
1.24642e-007
5.08123e-005
1.23866e-007
5.08076e-005
1.23087e-007
5.08028e-005
1.22304e-007
5.07979e-005
1.21516e-007
5.07929e-005
1.20724e-007
5.07877e-005
1.19928e-007
5.07824e-005
1.19128e-007
5.07769e-005
1.18326e-007
5.07713e-005
1.1752e-007
5.07656e-005
1.16711e-007
5.07598e-005
1.15898e-007
5.07538e-005
1.1508e-007
5.07477e-005
1.14258e-007
5.07414e-005
1.13435e-007
5.0735e-005
1.1261e-007
5.07285e-005
1.11783e-007
5.07218e-005
1.1095e-007
5.0715e-005
1.10115e-007
5.07081e-005
1.09278e-007
5.0701e-005
1.08439e-007
5.06938e-005
1.07598e-007
5.06865e-005
1.06755e-007
5.0679e-005
1.05911e-007
5.06714e-005
1.05065e-007
5.06636e-005
1.04217e-007
5.06557e-005
1.03366e-007
5.06477e-005
1.02515e-007
5.06395e-005
1.01662e-007
5.06312e-005
1.00809e-007
5.06228e-005
9.99535e-008
5.06143e-005
9.90976e-008
5.06056e-005
9.82412e-008
5.05968e-005
9.73848e-008
5.05878e-005
9.65284e-008
5.05788e-005
9.56718e-008
5.05695e-005
9.48146e-008
5.05602e-005
9.3957e-008
5.05507e-005
9.30994e-008
5.05411e-005
9.22417e-008
5.05314e-005
9.1384e-008
5.05216e-005
9.0527e-008
5.05116e-005
8.96712e-008
5.05015e-005
8.88172e-008
5.04913e-005
8.79646e-008
5.04809e-005
8.71128e-008
5.04705e-005
8.62606e-008
5.04599e-005
8.5408e-008
5.04492e-005
8.45568e-008
5.04384e-005
8.37087e-008
5.04274e-005
8.28644e-008
5.04164e-005
8.20233e-008
5.04052e-005
8.11848e-008
5.03939e-005
8.03498e-008
5.03825e-005
7.95197e-008
5.0371e-005
7.86938e-008
5.03594e-005
7.78705e-008
5.03477e-005
7.70503e-008
5.03358e-005
7.62355e-008
5.03239e-005
7.54284e-008
5.03118e-005
7.46312e-008
5.02996e-005
7.38478e-008
5.02873e-005
7.30813e-008
5.02749e-005
7.23327e-008
5.02624e-005
7.16029e-008
5.02498e-005
7.08971e-008
5.02371e-005
7.0224e-008
5.02242e-005
6.95967e-008
5.02112e-005
6.90208e-008
5.0198e-005
6.85215e-008
5.01846e-005
6.81357e-008
5.01711e-005
6.78072e-008
5.01572e-005
6.78475e-008
5.01435e-005
6.7717e-008
5.01296e-005
6.8634e-008
6.84143e-008
5.00312e-005
-7.83233e-008
5.00728e-005
-3.41871e-008
5.01189e-005
3.93205e-009
5.0166e-005
3.53081e-008
5.02119e-005
6.05497e-008
5.02558e-005
8.07268e-008
5.02972e-005
9.67747e-008
5.03358e-005
1.0954e-007
5.03719e-005
1.19983e-007
5.04058e-005
1.28713e-007
5.04377e-005
1.36003e-007
5.04682e-005
1.42241e-007
5.04972e-005
1.47595e-007
5.05251e-005
1.52033e-007
5.05518e-005
1.5553e-007
5.05775e-005
1.58519e-007
5.06021e-005
1.61267e-007
5.06258e-005
1.6376e-007
5.06488e-005
1.65547e-007
5.06713e-005
1.66855e-007
5.06933e-005
1.68148e-007
5.07148e-005
1.69109e-007
5.07359e-005
1.69853e-007
5.07566e-005
1.7041e-007
5.07769e-005
1.70845e-007
5.07969e-005
1.71182e-007
5.08167e-005
1.71269e-007
5.08362e-005
1.71261e-007
5.08554e-005
1.7125e-007
5.08745e-005
1.71143e-007
5.08933e-005
1.70953e-007
5.0912e-005
1.70663e-007
5.09305e-005
1.70328e-007
5.09488e-005
1.69971e-007
5.0967e-005
1.69585e-007
5.09851e-005
1.69199e-007
5.1003e-005
1.68815e-007
5.10208e-005
1.68419e-007
5.10383e-005
1.67997e-007
5.10558e-005
1.67518e-007
5.10731e-005
1.66998e-007
5.10904e-005
1.66463e-007
5.11075e-005
1.65886e-007
5.11245e-005
1.65279e-007
5.11414e-005
1.64672e-007
5.11583e-005
1.64077e-007
5.11749e-005
1.63499e-007
5.11915e-005
1.62923e-007
5.12079e-005
1.6234e-007
5.12243e-005
1.61752e-007
5.12404e-005
1.61169e-007
5.12565e-005
1.60595e-007
5.12724e-005
1.60016e-007
5.12882e-005
1.59415e-007
5.13039e-005
1.58784e-007
5.13195e-005
1.5814e-007
5.1335e-005
1.57497e-007
5.13503e-005
1.56861e-007
5.13655e-005
1.56231e-007
5.13806e-005
1.55604e-007
5.13956e-005
1.54976e-007
5.14104e-005
1.54343e-007
5.14251e-005
1.53697e-007
5.14396e-005
1.53041e-007
5.1454e-005
1.52386e-007
5.14683e-005
1.51741e-007
5.14825e-005
1.51106e-007
5.14965e-005
1.50469e-007
5.15103e-005
1.49818e-007
5.1524e-005
1.4915e-007
5.15375e-005
1.48473e-007
5.15509e-005
1.478e-007
5.15642e-005
1.47138e-007
5.15773e-005
1.46487e-007
5.15902e-005
1.45849e-007
5.1603e-005
1.45222e-007
5.16157e-005
1.44612e-007
5.16283e-005
1.44019e-007
5.16407e-005
1.43429e-007
5.1653e-005
1.42836e-007
5.16652e-005
1.42253e-007
5.16772e-005
1.41689e-007
5.16892e-005
1.41142e-007
5.1701e-005
1.40611e-007
5.17128e-005
1.40087e-007
5.17245e-005
1.39566e-007
5.17361e-005
1.39044e-007
5.17475e-005
1.38521e-007
5.17589e-005
1.37997e-007
5.17703e-005
1.37474e-007
5.17815e-005
1.3695e-007
5.17926e-005
1.36427e-007
5.18036e-005
1.35904e-007
5.18146e-005
1.35381e-007
5.18254e-005
1.34856e-007
5.18361e-005
1.34329e-007
5.18468e-005
1.33798e-007
5.18573e-005
1.33258e-007
5.18678e-005
1.32712e-007
5.18782e-005
1.3216e-007
5.18885e-005
1.31603e-007
5.18986e-005
1.31043e-007
5.19087e-005
1.30477e-007
5.19186e-005
1.29908e-007
5.19284e-005
1.29337e-007
5.19382e-005
1.28763e-007
5.19478e-005
1.28184e-007
5.19573e-005
1.27602e-007
5.19667e-005
1.27016e-007
5.1976e-005
1.26423e-007
5.19852e-005
1.25822e-007
5.19943e-005
1.25214e-007
5.20032e-005
1.24606e-007
5.20121e-005
1.23998e-007
5.20209e-005
1.23391e-007
5.20295e-005
1.2278e-007
5.2038e-005
1.22162e-007
5.20464e-005
1.21539e-007
5.20547e-005
1.20912e-007
5.20629e-005
1.20281e-007
5.20709e-005
1.19646e-007
5.20789e-005
1.19009e-007
5.20867e-005
1.1837e-007
5.20943e-005
1.17725e-007
5.21019e-005
1.17074e-007
5.21094e-005
1.16421e-007
5.21167e-005
1.15767e-007
5.21239e-005
1.15109e-007
5.21309e-005
1.14445e-007
5.21379e-005
1.13778e-007
5.21447e-005
1.13109e-007
5.21514e-005
1.12437e-007
5.2158e-005
1.11762e-007
5.21644e-005
1.11084e-007
5.21707e-005
1.10405e-007
5.21769e-005
1.09722e-007
5.21829e-005
1.09034e-007
5.21888e-005
1.08342e-007
5.21946e-005
1.07651e-007
5.22003e-005
1.06959e-007
5.22058e-005
1.06266e-007
5.22112e-005
1.05569e-007
5.22164e-005
1.04868e-007
5.22215e-005
1.04165e-007
5.22265e-005
1.03459e-007
5.22314e-005
1.02752e-007
5.22361e-005
1.02044e-007
5.22407e-005
1.01336e-007
5.22451e-005
1.00626e-007
5.22494e-005
9.99156e-008
5.22536e-005
9.92036e-008
5.22576e-005
9.84897e-008
5.22615e-005
9.77734e-008
5.22652e-005
9.70548e-008
5.22688e-005
9.63353e-008
5.22723e-005
9.56163e-008
5.22757e-005
9.48978e-008
5.22789e-005
9.41794e-008
5.22819e-005
9.34607e-008
5.22849e-005
9.27419e-008
5.22877e-005
9.20232e-008
5.22903e-005
9.13042e-008
5.22928e-005
9.05844e-008
5.22952e-005
8.98641e-008
5.22975e-005
8.91438e-008
5.22996e-005
8.84242e-008
5.23015e-005
8.77057e-008
5.23033e-005
8.69887e-008
5.2305e-005
8.62731e-008
5.23066e-005
8.55583e-008
5.2308e-005
8.48437e-008
5.23093e-005
8.41291e-008
5.23104e-005
8.34157e-008
5.23114e-005
8.27047e-008
5.23123e-005
8.19968e-008
5.2313e-005
8.12912e-008
5.23136e-005
8.05871e-008
5.23141e-005
7.98854e-008
5.23144e-005
7.91877e-008
5.23146e-005
7.84944e-008
5.23147e-005
7.78053e-008
5.23146e-005
7.71207e-008
5.23144e-005
7.64419e-008
5.23141e-005
7.57704e-008
5.23136e-005
7.51085e-008
5.2313e-005
7.44595e-008
5.23122e-005
7.38266e-008
5.23114e-005
7.32122e-008
5.23103e-005
7.26188e-008
5.23092e-005
7.20509e-008
5.23079e-005
7.15184e-008
5.23065e-005
7.10307e-008
5.23049e-005
7.06088e-008
5.23031e-005
7.02476e-008
5.23012e-005
7.00474e-008
5.22992e-005
6.98428e-008
5.2297e-005
7.00212e-008
5.22948e-005
6.99571e-008
5.22927e-005
7.07366e-008
7.04772e-008
5.00288e-005
-1.07165e-007
5.00651e-005
-7.04195e-008
5.01056e-005
-3.66389e-008
5.01481e-005
-7.1753e-009
5.01908e-005
1.78589e-008
5.02327e-005
3.88517e-008
5.02731e-005
5.63315e-008
5.03118e-005
7.08623e-008
5.03487e-005
8.30687e-008
5.0384e-005
9.34291e-008
5.04178e-005
1.02242e-007
5.04502e-005
1.09803e-007
5.04815e-005
1.16294e-007
5.05117e-005
1.21801e-007
5.05409e-005
1.26387e-007
5.05691e-005
1.30293e-007
5.05966e-005
1.33752e-007
5.06235e-005
1.36856e-007
5.06498e-005
1.39275e-007
5.06756e-005
1.41081e-007
5.0701e-005
1.42685e-007
5.07261e-005
1.44005e-007
5.07509e-005
1.45064e-007
5.07755e-005
1.45888e-007
5.07997e-005
1.46636e-007
5.08235e-005
1.47337e-007
5.08472e-005
1.47596e-007
5.08708e-005
1.47648e-007
5.08943e-005
1.47767e-007
5.09176e-005
1.4784e-007
5.09408e-005
1.47785e-007
5.09638e-005
1.47587e-007
5.09868e-005
1.47376e-007
5.10096e-005
1.47139e-007
5.10324e-005
1.4684e-007
5.1055e-005
1.46562e-007
5.10775e-005
1.46297e-007
5.10999e-005
1.46018e-007
5.11222e-005
1.45702e-007
5.11444e-005
1.45311e-007
5.11666e-005
1.44862e-007
5.11886e-005
1.44386e-007
5.12106e-005
1.43877e-007
5.12326e-005
1.43353e-007
5.12544e-005
1.42826e-007
5.12762e-005
1.4232e-007
5.12978e-005
1.41839e-007
5.13194e-005
1.41356e-007
5.13409e-005
1.4087e-007
5.13622e-005
1.40384e-007
5.13835e-005
1.39911e-007
5.14046e-005
1.39447e-007
5.14257e-005
1.38971e-007
5.14466e-005
1.38459e-007
5.14675e-005
1.3791e-007
5.14883e-005
1.37352e-007
5.1509e-005
1.36798e-007
5.15296e-005
1.36255e-007
5.15501e-005
1.35724e-007
5.15705e-005
1.35201e-007
5.15908e-005
1.34682e-007
5.1611e-005
1.34163e-007
5.16311e-005
1.33633e-007
5.1651e-005
1.33093e-007
5.16708e-005
1.32551e-007
5.16906e-005
1.32015e-007
5.17102e-005
1.31493e-007
5.17297e-005
1.30973e-007
5.17491e-005
1.30444e-007
5.17683e-005
1.299e-007
5.17874e-005
1.29346e-007
5.18064e-005
1.28794e-007
5.18253e-005
1.28248e-007
5.18441e-005
1.27712e-007
5.18628e-005
1.27183e-007
5.18813e-005
1.26663e-007
5.18998e-005
1.26156e-007
5.19181e-005
1.25665e-007
5.19364e-005
1.25183e-007
5.19545e-005
1.24705e-007
5.19725e-005
1.24235e-007
5.19904e-005
1.23775e-007
5.20083e-005
1.23325e-007
5.2026e-005
1.22884e-007
5.20436e-005
1.22449e-007
5.20612e-005
1.22015e-007
5.20786e-005
1.21582e-007
5.2096e-005
1.21148e-007
5.21133e-005
1.20715e-007
5.21305e-005
1.20284e-007
5.21476e-005
1.19855e-007
5.21646e-005
1.19426e-007
5.21815e-005
1.18996e-007
5.21983e-005
1.18566e-007
5.2215e-005
1.18135e-007
5.22316e-005
1.17703e-007
5.22482e-005
1.17263e-007
5.22646e-005
1.16814e-007
5.2281e-005
1.1636e-007
5.22972e-005
1.15902e-007
5.23134e-005
1.15443e-007
5.23295e-005
1.14981e-007
5.23454e-005
1.14515e-007
5.23613e-005
1.14045e-007
5.2377e-005
1.13573e-007
5.23927e-005
1.131e-007
5.24083e-005
1.12625e-007
5.24237e-005
1.12148e-007
5.24391e-005
1.11665e-007
5.24543e-005
1.11173e-007
5.24695e-005
1.10671e-007
5.24845e-005
1.10165e-007
5.24995e-005
1.0966e-007
5.25143e-005
1.0916e-007
5.2529e-005
1.08661e-007
5.25437e-005
1.08158e-007
5.25582e-005
1.07646e-007
5.25726e-005
1.07129e-007
5.25869e-005
1.06608e-007
5.26011e-005
1.06086e-007
5.26152e-005
1.05561e-007
5.26291e-005
1.05035e-007
5.2643e-005
1.04505e-007
5.26568e-005
1.0397e-007
5.26704e-005
1.03431e-007
5.26839e-005
1.02892e-007
5.26973e-005
1.02353e-007
5.27106e-005
1.0181e-007
5.27238e-005
1.01261e-007
5.27369e-005
1.00708e-007
5.27499e-005
1.00153e-007
5.27627e-005
9.95963e-008
5.27754e-005
9.90373e-008
5.2788e-005
9.8478e-008
5.28005e-005
9.79175e-008
5.28129e-005
9.73517e-008
5.28251e-005
9.67801e-008
5.28373e-005
9.62068e-008
5.28493e-005
9.56358e-008
5.28612e-005
9.50668e-008
5.2873e-005
9.44966e-008
5.28846e-005
9.39218e-008
5.28961e-005
9.33416e-008
5.29075e-005
9.27574e-008
5.29188e-005
9.21719e-008
5.293e-005
9.15873e-008
5.2941e-005
9.10037e-008
5.29519e-005
9.04194e-008
5.29627e-005
8.98335e-008
5.29734e-005
8.92463e-008
5.2984e-005
8.86576e-008
5.29944e-005
8.80669e-008
5.30047e-005
8.74739e-008
5.30149e-005
8.68792e-008
5.30249e-005
8.62841e-008
5.30348e-005
8.56898e-008
5.30446e-005
8.5096e-008
5.30543e-005
8.45018e-008
5.30639e-005
8.39073e-008
5.30733e-005
8.33137e-008
5.30826e-005
8.27212e-008
5.30918e-005
8.21279e-008
5.31008e-005
8.15328e-008
5.31098e-005
8.09367e-008
5.31186e-005
8.0341e-008
5.31272e-005
7.97462e-008
5.31358e-005
7.91525e-008
5.31442e-005
7.85602e-008
5.31525e-005
7.79692e-008
5.31607e-005
7.73792e-008
5.31687e-005
7.67898e-008
5.31767e-005
7.6201e-008
5.31845e-005
7.56133e-008
5.31922e-005
7.50272e-008
5.31997e-005
7.4443e-008
5.32071e-005
7.38603e-008
5.32144e-005
7.32791e-008
5.32216e-005
7.27004e-008
5.32287e-005
7.21255e-008
5.32356e-005
7.15548e-008
5.32425e-005
7.0988e-008
5.32491e-005
7.04258e-008
5.32557e-005
6.98693e-008
5.32622e-005
6.932e-008
5.32685e-005
6.87797e-008
5.32747e-005
6.82511e-008
5.32808e-005
6.77376e-008
5.32868e-005
6.72421e-008
5.32926e-005
6.67683e-008
5.32983e-005
6.63205e-008
5.3304e-005
6.59071e-008
5.33095e-005
6.55348e-008
5.33148e-005
6.52267e-008
5.33201e-005
6.49712e-008
5.33253e-005
6.48559e-008
5.33304e-005
6.47423e-008
5.33355e-005
6.49159e-008
5.33406e-005
6.49144e-008
5.33458e-005
6.54686e-008
6.53725e-008
5.00276e-005
-1.34798e-007
5.00605e-005
-1.03326e-007
5.00971e-005
-7.32468e-008
5.01358e-005
-4.58703e-008
5.01753e-005
-2.1626e-008
5.02147e-005
-5.05777e-010
5.02533e-005
1.77143e-008
5.02908e-005
3.33557e-008
5.03271e-005
4.68035e-008
5.03621e-005
5.83984e-008
5.0396e-005
6.83958e-008
5.04287e-005
7.70309e-008
5.04605e-005
8.44818e-008
5.04915e-005
9.08721e-008
5.05215e-005
9.63062e-008
5.05509e-005
1.00954e-007
5.05797e-005
1.04977e-007
5.0608e-005
1.08465e-007
5.0636e-005
1.11355e-007
5.06634e-005
1.13691e-007
5.06904e-005
1.15648e-007
5.07171e-005
1.17262e-007
5.07436e-005
1.18571e-007
5.07699e-005
1.19623e-007
5.0796e-005
1.20564e-007
5.08219e-005
1.21412e-007
5.08476e-005
1.21852e-007
5.08733e-005
1.22032e-007
5.08988e-005
1.22213e-007
5.09243e-005
1.22352e-007
5.09497e-005
1.22364e-007
5.0975e-005
1.22279e-007
5.10002e-005
1.22223e-007
5.10252e-005
1.22088e-007
5.10503e-005
1.21801e-007
5.10753e-005
1.2154e-007
5.11002e-005
1.21347e-007
5.11251e-005
1.21158e-007
5.11499e-005
1.20919e-007
5.11746e-005
1.20607e-007
5.11992e-005
1.20228e-007
5.12238e-005
1.19804e-007
5.12484e-005
1.19329e-007
5.12729e-005
1.1883e-007
5.12973e-005
1.1837e-007
5.13217e-005
1.17978e-007
5.13459e-005
1.17607e-007
5.137e-005
1.17215e-007
5.13941e-005
1.16812e-007
5.14181e-005
1.16413e-007
5.1442e-005
1.16032e-007
5.14657e-005
1.15657e-007
5.14895e-005
1.15265e-007
5.15131e-005
1.14816e-007
5.15367e-005
1.14317e-007
5.15602e-005
1.13819e-007
5.15837e-005
1.13332e-007
5.16071e-005
1.12868e-007
5.16304e-005
1.12429e-007
5.16535e-005
1.12003e-007
5.16766e-005
1.11584e-007
5.16996e-005
1.11167e-007
5.17225e-005
1.10742e-007
5.17453e-005
1.10306e-007
5.1768e-005
1.09864e-007
5.17906e-005
1.09429e-007
5.18131e-005
1.09015e-007
5.18355e-005
1.086e-007
5.18577e-005
1.08172e-007
5.18799e-005
1.07725e-007
5.1902e-005
1.07272e-007
5.1924e-005
1.06818e-007
5.19458e-005
1.0637e-007
5.19676e-005
1.05932e-007
5.19893e-005
1.055e-007
5.20109e-005
1.05075e-007
5.20324e-005
1.04663e-007
5.20538e-005
1.04264e-007
5.20751e-005
1.03876e-007
5.20963e-005
1.03498e-007
5.21174e-005
1.03124e-007
5.21384e-005
1.02753e-007
5.21594e-005
1.02387e-007
5.21802e-005
1.02025e-007
5.2201e-005
1.01668e-007
5.22217e-005
1.01315e-007
5.22423e-005
1.00964e-007
5.22628e-005
1.00618e-007
5.22833e-005
1.00274e-007
5.23036e-005
9.99327e-008
5.23239e-005
9.95923e-008
5.23441e-005
9.92518e-008
5.23642e-005
9.89111e-008
5.23842e-005
9.85706e-008
5.24041e-005
9.82284e-008
5.24239e-005
9.78839e-008
5.24436e-005
9.75329e-008
5.24633e-005
9.71714e-008
5.24828e-005
9.68047e-008
5.25023e-005
9.6439e-008
5.25216e-005
9.60756e-008
5.25409e-005
9.57105e-008
5.25601e-005
9.53403e-008
5.25792e-005
9.49639e-008
5.25982e-005
9.45842e-008
5.26171e-005
9.42065e-008
5.26359e-005
9.38313e-008
5.26545e-005
9.3455e-008
5.26731e-005
9.30704e-008
5.26916e-005
9.26742e-008
5.271e-005
9.22701e-008
5.27283e-005
9.18641e-008
5.27465e-005
9.14618e-008
5.27646e-005
9.10654e-008
5.27826e-005
9.06701e-008
5.28005e-005
9.02685e-008
5.28183e-005
8.98592e-008
5.2836e-005
8.94438e-008
5.28536e-005
8.90254e-008
5.28711e-005
8.86058e-008
5.28884e-005
8.81854e-008
5.29057e-005
8.7763e-008
5.29229e-005