# vtk DataFile Version 2.0
track0
ASCII
DATASET POLYDATA
POINTS 11980 float
-0.0205 0.001 1e-005
-0.0202034 0.00100022 1e-005
-0.0199069 0.00100067 1e-005
-0.0196103 0.00100132 1e-005
-0.0193137 0.00100219 1e-005
-0.0190172 0.00100326 1e-005
-0.0187132 0.00100466 1e-005
-0.0184093 0.00100588 1e-005
-0.0181054 0.0010071 1e-005
-0.0178015 0.00100832 1e-005
-0.0174976 0.00100953 1e-005
-0.0172058 0.00101083 1e-005
-0.016914 0.00101193 1e-005
-0.0166222 0.00101303 1e-005
-0.0163305 0.00101413 1e-005
-0.0160387 0.00101522 1e-005
-0.0157586 0.00101636 1e-005
-0.0154784 0.00101744 1e-005
-0.0151983 0.00101856 1e-005
-0.0149182 0.00101971 1e-005
-0.0146381 0.0010209 1e-005
-0.0143744 0.00102208 1e-005
-0.0141106 0.00102327 1e-005
-0.0138469 0.00102449 1e-005
-0.0135832 0.00102574 1e-005
-0.0133604 0.00102682 1e-005
-0.013347 0.00102688 1e-005
-0.0133336 0.00102695 1e-005
-0.0133202 0.00102702 1e-005
-0.0133068 0.00102708 1e-005
-0.0132934 0.00102715 1e-005
-0.0130353 0.00102844 1e-005
-0.0127771 0.00102974 1e-005
-0.0125189 0.00103106 1e-005
-0.0122607 0.00103239 1e-005
-0.0120025 0.00103374 1e-005
-0.0117547 0.00103505 1e-005
-0.0115068 0.00103636 1e-005
-0.0112589 0.00103768 1e-005
-0.0110111 0.00103901 1e-005
-0.0107632 0.00104034 1e-005
-0.0105252 0.00104161 1e-005
-0.0102873 0.00104289 1e-005
-0.0100493 0.00104417 1e-005
-0.00981133 0.00104544 1e-005
-0.00957337 0.00104672 1e-005
-0.00934491 0.00104794 1e-005
-0.00911645 0.00104916 1e-005
-0.00888799 0.00105038 1e-005
-0.00865954 0.00105159 1e-005
-0.00843108 0.00105281 1e-005
-0.00821175 0.00105396 1e-005
-0.00799242 0.00105512 1e-005
-0.00777309 0.00105627 1e-005
-0.00755376 0.00105742 1e-005
-0.00733443 0.00105856 1e-005
-0.00712387 0.00105965 1e-005
-0.0069133 0.00106074 1e-005
-0.00670273 0.00106182 1e-005
-0.00649216 0.0010629 1e-005
-0.0062816 0.00106398 1e-005
-0.00607944 0.001065 1e-005
-0.00587729 0.00106603 1e-005
-0.00567514 0.00106704 1e-005
-0.00547298 0.00106806 1e-005
-0.00527083 0.00106907 1e-005
-0.00507675 0.00107003 1e-005
-0.00488267 0.00107099 1e-005
-0.0046886 0.00107195 1e-005
-0.00449452 0.0010729 1e-005
-0.00430044 0.00107385 1e-005
-0.00411412 0.00107475 1e-005
-0.0039278 0.00107566 1e-005
-0.00374147 0.00107656 1e-005
-0.00355515 0.00107745 1e-005
-0.00336883 0.00107835 1e-005
-0.00318995 0.00107919 1e-005
-0.00301107 0.00108004 1e-005
-0.00283219 0.00108089 1e-005
-0.00265331 0.00108173 1e-005
-0.00247443 0.00108258 1e-005
-0.0023027 0.00108338 1e-005
-0.00213097 0.00108418 1e-005
-0.00195924 0.00108498 1e-005
-0.0017875 0.00108577 1e-005
-0.00161577 0.00108657 1e-005
-0.0014509 0.00108732 1e-005
-0.00128603 0.00108808 1e-005
-0.00112116 0.00108884 1e-005
-0.000956289 0.00108959 1e-005
-0.000791418 0.00109035 1e-005
-0.000633135 0.00109106 1e-005
-0.000474851 0.00109179 1e-005
-0.000316567 0.00109251 1e-005
-0.000158284 0.00109322 1e-005
0 0.00109394 1e-005
0.000105677 0.00109441 1e-005
0.000211355 0.00109488 1e-005
0.000317032 0.00109534 1e-005
0.00042271 0.00109581 1e-005
0.000528387 0.00109627 1e-005
0.000634886 0.00109672 1e-005
0.000741385 0.00109718 1e-005
0.000847885 0.00109763 1e-005
0.000954384 0.00109808 1e-005
0.00106088 0.00109853 1e-005
0.00116821 0.00109897 1e-005
0.00127554 0.00109942 1e-005
0.00138286 0.00109985 1e-005
0.00149019 0.00110028 1e-005
0.00159752 0.00110071 1e-005
0.00170568 0.00110113 1e-005
0.00181384 0.00110154 1e-005
0.001922 0.00110195 1e-005
0.00203016 0.00110235 1e-005
0.00213833 0.00110274 1e-005
0.00224733 0.00110312 1e-005
0.00235633 0.0011035 1e-005
0.00246533 0.00110387 1e-005
0.00257434 0.00110423 1e-005
0.00268334 0.00110459 1e-005
0.00279319 0.00110493 1e-005
0.00290304 0.00110527 1e-005
0.00301289 0.0011056 1e-005
0.00312274 0.00110593 1e-005
0.00323259 0.00110624 1e-005
0.00334329 0.00110655 1e-005
0.003454 0.00110685 1e-005
0.0035647 0.00110715 1e-005
0.0036754 0.00110744 1e-005
0.00378611 0.00110772 1e-005
0.00389767 0.00110799 1e-005
0.00400924 0.00110826 1e-005
0.0041208 0.00110852 1e-005
0.00423237 0.00110877 1e-005
0.00434393 0.00110901 1e-005
0.00445636 0.00110925 1e-005
0.00456879 0.00110948 1e-005
0.00468123 0.0011097 1e-005
0.00479366 0.00110992 1e-005
0.00490609 0.00111013 1e-005
0.0050194 0.00111033 1e-005
0.0051327 0.00111052 1e-005
0.00524601 0.00111071 1e-005
0.00535932 0.00111089 1e-005
0.00547262 0.00111106 1e-005
0.00558681 0.00111122 1e-005
0.005701 0.00111138 1e-005
0.00581518 0.00111153 1e-005
0.00592937 0.00111167 1e-005
0.00604356 0.00111181 1e-005
0.00615863 0.00111193 1e-005
0.00627371 0.00111205 1e-005
0.00638878 0.00111217 1e-005
0.00650386 0.00111227 1e-005
0.00661893 0.00111237 1e-005
0.0067349 0.00111246 1e-005
0.00685087 0.00111255 1e-005
0.00696684 0.00111263 1e-005
0.00708281 0.0011127 1e-005
0.00719878 0.00111276 1e-005
0.00726199 0.00111279 1e-005
0.0073252 0.00111281 1e-005
0.00738841 0.00111284 1e-005
0.00745162 0.00111286 1e-005
0.00751299 0.00111288 1e-005
0.00756702 0.0011129 1e-005
0.00762105 0.00111291 1e-005
0.00767508 0.00111293 1e-005
0.00772911 0.00111294 1e-005
0.00778313 0.00111295 1e-005
0.00790091 0.00111296 1e-005
0.00801869 0.00111297 1e-005
0.00813647 0.00111297 1e-005
0.00825425 0.00111297 1e-005
0.00837203 0.00111295 1e-005
0.00849073 0.00111293 1e-005
0.00860942 0.0011129 1e-005
0.00872812 0.00111286 1e-005
0.00884682 0.00111282 1e-005
0.00896551 0.00111276 1e-005
0.00908513 0.00111269 1e-005
0.00920475 0.00111263 1e-005
0.00932437 0.00111255 1e-005
0.00944398 0.00111246 1e-005
0.0095636 0.00111237 1e-005
0.00968415 0.00111226 1e-005
0.0098047 0.00111215 1e-005
0.00992525 0.00111203 1e-005
0.0100458 0.00111191 1e-005
0.0101663 0.00111177 1e-005
0.0102878 0.00111162 1e-005
0.0104093 0.00111147 1e-005
0.0105308 0.00111131 1e-005
0.0106523 0.00111114 1e-005
0.0107738 0.00111097 1e-005
0.0108962 0.00111077 1e-005
0.0110186 0.00111057 1e-005
0.0111411 0.00111037 1e-005
0.0112635 0.00111016 1e-005
0.0113859 0.00110994 1e-005
0.0115093 0.0011097 1e-005
0.0116327 0.00110946 1e-005
0.0117561 0.00110922 1e-005
0.0118795 0.00110896 1e-005
0.0120028 0.0011087 1e-005
0.0121272 0.00110841 1e-005
0.0122515 0.00110813 1e-005
0.0123759 0.00110784 1e-005
0.0125002 0.00110754 1e-005
0.0126245 0.00110724 1e-005
0.0127498 0.00110691 1e-005
0.0128752 0.00110658 1e-005
0.0130005 0.00110624 1e-005
0.0131258 0.0011059 1e-005
0.0132511 0.00110555 1e-005
0.0133774 0.00110517 1e-005
0.0135036 0.00110479 1e-005
0.0136299 0.00110441 1e-005
0.0137562 0.00110402 1e-005
0.0138825 0.00110362 1e-005
0.0140098 0.0011032 1e-005
0.014137 0.00110278 1e-005
0.0142643 0.00110235 1e-005
0.0143915 0.00110191 1e-005
0.0145188 0.00110146 1e-005
0.0146471 0.00110099 1e-005
0.0147753 0.00110052 1e-005
0.0149036 0.00110004 1e-005
0.0150318 0.00109956 1e-005
0.0151601 0.00109906 1e-005
0.0152893 0.00109854 1e-005
0.0154186 0.00109802 1e-005
0.0155478 0.0010975 1e-005
0.0156771 0.00109696 1e-005
0.0158063 0.00109641 1e-005
0.0159366 0.00109585 1e-005
0.0160668 0.00109528 1e-005
0.0161971 0.00109471 1e-005
0.0163274 0.00109412 1e-005
0.0164576 0.00109353 1e-005
0.0165889 0.00109292 1e-005
0.0167201 0.0010923 1e-005
0.0168514 0.00109167 1e-005
0.0169827 0.00109104 1e-005
0.0171139 0.00109039 1e-005
0.0172462 0.00108974 1e-005
0.0173785 0.00108907 1e-005
0.0175108 0.00108839 1e-005
0.0176431 0.00108771 1e-005
0.0177754 0.00108702 1e-005
0.0179087 0.00108631 1e-005
0.018042 0.0010856 1e-005
0.0181753 0.00108487 1e-005
0.0183087 0.00108413 1e-005
0.018442 0.00108339 1e-005
0.0185763 0.00108264 1e-005
0.0187107 0.00108188 1e-005
0.018845 0.0010811 1e-005
0.0189794 0.00108031 1e-005
0.0191137 0.00107952 1e-005
0.0192491 0.00107873 1e-005
0.0193845 0.00107791 1e-005
0.0195199 0.00107708 1e-005
0.0196553 0.00107624 1e-005
0.0197907 0.0010754 1e-005
0.0199272 0.00107456 1e-005
0.0200636 0.0010737 1e-005
0.0202001 0.00107282 1e-005
0.0203365 0.00107192 1e-005
0.020473 0.00107104 1e-005
0.0206105 0.00107015 1e-005
0.020748 0.00106924 1e-005
0.0208855 0.0010683 1e-005
0.021023 0.00106736 1e-005
0.0211606 0.00106643 1e-005
0.0212991 0.00106549 1e-005
0.0214377 0.00106453 1e-005
0.0215763 0.00106355 1e-005
0.0217149 0.00106256 1e-005
0.0218535 0.00106157 1e-005
0.0219931 0.00106059 1e-005
0.0221328 0.00105958 1e-005
0.0222724 0.00105855 1e-005
0.0224121 0.00105751 1e-005
0.0225517 0.00105647 1e-005
0.0226925 0.00105544 1e-005
0.0228332 0.00105438 1e-005
0.022974 0.0010533 1e-005
0.0231147 0.00105221 1e-005
0.0232555 0.00105113 1e-005
0.0233973 0.00105004 1e-005
0.0235391 0.00104894 1e-005
0.023681 0.0010478 1e-005
0.0238228 0.00104666 1e-005
0.0239647 0.00104553 1e-005
0.0241076 0.0010444 1e-005
0.0242505 0.00104324 1e-005
0.0243935 0.00104206 1e-005
0.0245364 0.00104086 1e-005
0.0246794 0.00103968 1e-005
0.0248234 0.0010385 1e-005
0.0249675 0.00103729 1e-005
0.0251115 0.00103606 1e-005
0.0252556 0.00103482 1e-005
0.0253996 0.00103358 1e-005
0.0255448 0.00103235 1e-005
0.02569 0.00103109 1e-005
0.0258351 0.00102981 1e-005
0.0259803 0.00102852 1e-005
0.0261255 0.00102724 1e-005
0.0262718 0.00102595 1e-005
0.0264181 0.00102464 1e-005
0.0265644 0.00102331 1e-005
0.0267107 0.00102197 1e-005
0.026857 0.00102063 1e-005
0.0270044 0.0010193 1e-005
0.0271519 0.00101793 1e-005
0.0272993 0.00101655 1e-005
0.0274468 0.00101516 1e-005
0.0275942 0.00101377 1e-005
0.0277428 0.00101238 1e-005
0.0278914 0.00101096 1e-005
0.0280399 0.00100952 1e-005
0.0281885 0.00100808 1e-005
0.0283371 0.00100664 1e-005
0.0284869 0.00100519 1e-005
0.0286366 0.00100372 1e-005
0.0287863 0.00100223 1e-005
0.0289361 0.00100073 1e-005
0.0290858 0.000999233 1e-005
0.0292367 0.00099773 1e-005
0.0293876 0.000996199 1e-005
0.0295385 0.000994656 1e-005
0.0296894 0.000993104 1e-005
0.0298403 0.000991546 1e-005
0.0299924 0.000989985 1e-005
0.0301445 0.000988394 1e-005
0.0302966 0.000986795 1e-005
0.0304486 0.000985187 1e-005
0.0306007 0.00098357 1e-005
0.030754 0.000981948 1e-005
0.0309072 0.000980299 1e-005
0.0310605 0.000978641 1e-005
0.0312138 0.000976974 1e-005
0.031367 0.000975298 1e-005
0.0315215 0.000973613 1e-005
[...]
POINT_DATA 11980
 FIELD attributes 1
U 3 11980 float
10.0004 	0.00731845 	0 10.0024 	0.015169 	0 10.0045 	0.0221882 	0 10.0065 	0.029163 	0 10.0085 	0.036094 	0 10.0135 	0.0463094 	0 10.0163 	0.0402082 	0 10.0207 	0.0401657 	0 10.0252 	0.0401234 	0 10.0296 	0.0400813 	0 10.0356 	0.0445407 	0 10.0385 	0.0378986 	0 10.0424 	0.0378531 	0 10.0464 	0.0378075 	0 10.0504 	0.0377619 	0 10.0545 	0.040862 	0 10.0567 	0.0387828 	0 10.0592 	0.0400908 	0 10.0616 	0.0414005 	0 10.0641 	0.0427118 	0 10.0662 	0.0451693 	0 10.0677 	0.0452796 	0 10.0691 	0.0464816 	0 10.0704 	0.0476847 	0 10.0718 	0.0488889 	0 10.0729 	0.049907 	0 10.073 	0.0499687 	0 10.073 	0.0500303 	0 10.0731 	0.050092 	0 10.0732 	0.0501536 	0 10.0732 	0.050206 	0 10.0738 	0.0508314 	0 10.0743 	0.0514508 	0 10.0748 	0.0520708 	0 10.0753 	0.0526913 	0 10.0758 	0.0531479 	0 10.0757 	0.0534421 	0 10.0754 	0.0536309 	0 10.075 	0.0538199 	0 10.0747 	0.054009 	0 10.0742 	0.0539597 	0 10.0737 	0.0541029 	0 10.0727 	0.0540778 	0 10.0716 	0.0540527 	0 10.0705 	0.0540275 	0 10.069 	0.0537332 	0 10.0686 	0.0538112 	0 10.067 	0.0536756 	0 10.0653 	0.0535399 	0 10.0637 	0.0534042 	0 10.0612 	0.052982 	0 10.0612 	0.0530332 	0 10.0592 	0.0528357 	0 10.0572 	0.0526382 	0 10.0552 	0.0524406 	0 10.0516 	0.0519438 	0 10.0522 	0.0519927 	0 10.0499 	0.0517679 	0 10.0476 	0.051543 	0 10.0453 	0.051318 	0 10.0407 	0.0507857 	0 10.0422 	0.0508529 	0 10.0397 	0.0506214 	0 10.0372 	0.05039 	0 10.0347 	0.0501584 	0 10.029 	0.0496058 	0 10.0314 	0.0496966 	0 10.0288 	0.0494739 	0 10.0262 	0.0492512 	0 10.0235 	0.0490284 	0 10.0167 	0.0484769 	0 10.0203 	0.0485996 	0 10.0176 	0.048386 	0 10.0149 	0.0481723 	0 10.0122 	0.0479586 	0 10.0041 	0.0473977 	0 10.009 	0.0475484 	0 10.0063 	0.0473761 	0 10.0035 	0.0472038 	0 10.0008 	0.0470315 	0 9.99162 	0.0465201 	0 9.9978 	0.0467253 	0 9.99513 	0.0465538 	0 9.99246 	0.0463823 	0 9.98979 	0.0462107 	0 9.97939 	0.0456481 	0 9.98694 	0.0458489 	0 9.98434 	0.0457879 	0 9.98175 	0.0457269 	0 9.97916 	0.0456659 	0 9.96758 	0.045266 	0 9.97658 	0.045518 	9.22826e-022 9.97457 	0.0453256 	5.95659e-021 9.97256 	0.0451332 	1.09906e-020 9.97054 	0.0449408 	1.60247e-020 9.95847 	0.0442975 	1.36194e-020 9.96867 	0.0443772 	9.34374e-020 9.96684 	0.0440436 	8.67097e-020 9.96501 	0.04371 	7.99782e-020 9.96317 	0.0433763 	7.32427e-020 9.95089 	0.0426825 	-1.48542e-020 9.96092 	0.0426409 	-4.02551e-020 9.95913 	0.0423514 	-4.47899e-020 9.95735 	0.0420619 	-4.93232e-020 9.95556 	0.0417723 	-5.3855e-020 9.94348 	0.0412066 	-2.12763e-020 9.95305 	0.041011 	-1.87127e-020 9.95113 	0.0404615 	-1.3031e-020 9.94921 	0.0399118 	-7.34974e-021 9.94728 	0.0393621 	-1.66889e-021 9.93545 	0.0385874 	6.95612e-021 9.94461 	0.0382726 	-5.72905e-021 9.9425 	0.0374705 	-2.41944e-020 9.94039 	0.0366683 	-4.26617e-020 9.93827 	0.035866 	-6.1131e-020 9.92655 	0.0348021 	-8.71274e-020 9.93513 	0.0345475 	-1.22712e-019 9.93268 	0.0337298 	-1.10437e-019 9.93022 	0.0329119 	-9.81539e-020 9.92775 	0.0320938 	-8.58636e-020 9.91604 	0.030897 	-2.97134e-020 9.92389 	0.0307656 	3.36078e-020 9.92104 	0.0300258 	4.69774e-020 9.91818 	0.0292857 	6.03378e-020 9.91533 	0.0285454 	7.36889e-020 9.9037 	0.0273244 	3.65285e-020 9.91071 	0.0272377 	-4.51935e-020 9.90748 	0.0265359 	-5.12015e-020 9.90425 	0.0258338 	-5.71954e-020 9.90102 	0.0251315 	-6.31751e-020 9.88957 	0.0239205 	-3.39307e-022 9.89562 	0.0237968 	5.8829e-020 9.892 	0.0231019 	4.94922e-020 9.88836 	0.0224067 	4.01413e-020 9.88472 	0.0217112 	3.07761e-020 9.87353 	0.0205465 	-2.85678e-020 9.87844 	0.0203575 	-8.22454e-020 9.87437 	0.0196693 	-1.04228e-019 9.87028 	0.0189807 	-1.26205e-019 9.86619 	0.018292 	-1.48177e-019 9.85536 	0.0172068 	-1.35829e-019 9.8589 	0.0169477 	-1.54183e-019 9.85435 	0.0162707 	-1.41856e-019 9.84979 	0.0155934 	-1.29525e-019 9.84523 	0.0149159 	-1.17189e-019 9.83491 	0.0139274 	-8.31264e-020 9.83682 	0.013605 	-6.97216e-020 9.83179 	0.0129451 	-5.14037e-020 9.82676 	0.0122849 	-3.30874e-020 9.82172 	0.0116244 	-1.47729e-020 9.81216 	0.0107371 	1.94488e-021 9.81214 	0.0103467 	0 9.80665 	0.00969985 	0 9.80116 	0.00905272 	0 9.79565 	0.0084053 	0 9.78714 	0.00761468 	0 9.78483 	0.00714231 	-1.66148e-020 9.77889 	0.0065024 	-3.53904e-020 9.77294 	0.00586219 	-5.41677e-020 9.76698 	0.00522167 	-7.29466e-020 9.75986 	0.00452763 	-9.22241e-020 9.7578 	0.00424905 	-9.5232e-020 9.75434 	0.00390662 	-9.56305e-020 9.75088 	0.0035641 	-9.60275e-020 9.74742 	0.00322148 	-9.6423e-020 9.74406 	0.00288873 	-9.68056e-020 9.74107 	0.00259411 	-9.76601e-020 9.73807 	0.0022994 	-9.85148e-020 9.73507 	0.00200463 	-9.93699e-020 9.73207 	0.00170977 	-1.00225e-019 9.72613 	0.00128335 	-1.00214e-019 9.72195 	0.000775174 	-7.53867e-020 9.71504 	0.000146232 	-4.6577e-020 9.70812 	-0.00048309 	-1.77767e-020 9.70119 	-0.00111279 	1.10144e-020 9.68493 	-0.00215088 	4.9257e-020 9.68619 	-0.0024028 	5.01181e-020 9.67885 	-0.00302483 	5.12529e-020 9.67151 	-0.00364727 	5.23854e-020 9.66415 	-0.00427012 	5.35159e-020 9.64121 	-0.00555112 	5.68332e-020 9.64778 	-0.00557676 	4.47598e-020 9.64004 	-0.00619208 	3.26838e-020 9.63228 	-0.00680784 	2.06067e-020 9.62451 	-0.00742405 	8.52844e-021 9.59523 	-0.00890484 	-1.10104e-021 9.60682 	-0.00874668 	-8.02278e-021 9.59868 	-0.00935572 	-1.95478e-020 9.59054 	-0.00996524 	-3.10718e-020 9.58238 	-0.0105752 	-4.25946e-020 9.54723 	-0.0122045 	-5.41331e-020 9.56343 	-0.0119123 	-5.381e-020 9.55494 	-0.0125171 	-6.11219e-020 9.54643 	-0.0131224 	-6.84308e-020 9.53791 	-0.0137282 	-7.57366e-020 9.49749 	-0.015452 	-9.4682e-020 9.51781 	-0.0150765 	-1.50835e-019 9.50898 	-0.0156773 	-1.41438e-019 9.50014 	-0.0162787 	-1.32053e-019 9.49128 	-0.0168807 	-1.2268e-019 9.44626 	-0.0186394 	-4.13516e-020 9.47013 	-0.0182318 	-2.6325e-020 9.46099 	-0.0188282 	-1.8433e-020 9.45184 	-0.0194252 	-1.05401e-020 9.44267 	-0.0200229 	-2.64655e-021 9.39377 	-0.0217588 	0 9.4206 	-0.0213671 	0 9.41117 	-0.02196 	0 9.40173 	-0.0225536 	0 9.39227 	-0.0231478 	0 9.34026 	-0.0248109 	0 9.36945 	-0.0244813 	1.52219e-021 9.35976 	-0.0250728 	8.86748e-021 9.35006 	-0.025665 	1.6212e-020 9.34034 	-0.0262578 	2.35558e-020 9.28595 	-0.027801 	4.1532e-020 9.31691 	-0.0275824 	1.60976e-019 9.30699 	-0.0281731 	1.63883e-019 9.29705 	-0.0287645 	1.66803e-019 9.28709 	-0.0293565 	1.69737e-019 9.23105 	-0.0307287 	4.17225e-020 9.26301 	-0.0306677 	2.22637e-020 9.25309 	-0.031253 	1.5635e-020 9.24294 	-0.0318424 	9.07195e-021 9.22974 	-0.032469 	3.91055e-021 9.17574 	-0.0335872 	1.76314e-020 9.20417 	-0.0337611 	1.04447e-019 9.1983 	-0.0342996 	1.15493e-019 9.18797 	-0.0348862 	1.16699e-019 9.17059 	-0.03552 	1.00728e-019 9.12019 	-0.0363727 	4.02038e-021 9.14526 	-0.0367635 	-9.87557e-020 9.14286 	-0.0373027 	-1.29988e-019 9.13236 	-0.0378861 	-1.40177e-019 9.11151 	-0.0384766 	-1.2848e-019 9.06458 	-0.0390839 	-6.15753e-020 9.08648 	-0.0396721 	-1.7791e-019 9.08698 	-0.0402546 	-2.19171e-019 9.07634 	-0.0408345 	-2.21408e-019 9.05268 	-0.0413373 	-1.73061e-019 9.00904 	-0.0417211 	-4.70477e-020 9.02798 	-0.0424864 	-2.4912e-020 9.03087 	-0.0431495 	-1.08262e-020 9.02011 	-0.0437259 	-3.5751e-021 8.99426 	-0.0441029 	0 8.95372 	-0.0442858 	0 8.96992 	-0.0452079 	0 8.97472 	-0.0459831 	0 8.96387 	-0.0465561 	0 8.93637 	-0.0467757 	2.05094e-021 8.89874 	-0.0467803 	5.35113e-021 8.91242 	-0.0478395 	2.20422e-021 8.91871 	-0.0487525 	0 8.90779 	-0.0493219 	0 8.87914 	-0.0493592 	2.43825e-021 8.84421 	-0.0492074 	5.74254e-021 8.85558 	-0.0503849 	2.59509e-021 8.86301 	-0.0514559 	1.15458e-021 8.85202 	-0.052022 	7.73852e-021 8.82267 	-0.0518578 	2.44481e-020 8.79023 	-0.0515709 	4.28579e-020 8.7995 	-0.0528484 	1.6789e-019 8.80775 	-0.0540921 	2.86966e-019 8.79673 	-0.054655 	2.90397e-019 8.76703 	-0.0542763 	1.68397e-019 8.73688 	-0.0538747 	4.33658e-020 8.74426 	-0.0552358 	2.52195e-020 8.7516 	-0.0565983 	7.07442e-021 8.74035 	-0.057118 	3.12841e-022 8.7123 	-0.0566205 	3.4924e-021 8.68426 	-0.0561226 	6.67181e-021 8.68993 	-0.0575512 	3.65283e-021 8.69556 	-0.0589812 	6.34628e-022 8.68467 	-0.0594706 	2.01362e-021 8.65854 	-0.0588953 	-1.90643e-021 8.63242 	-0.0583197 	-5.82553e-021 8.63656 	-0.059802 	-4.90946e-020 8.64065 	-0.0612859 	-9.23673e-020 8.63017 	-0.0617454 	-9.37327e-020 8.6058 	-0.0611083 	-5.41416e-020 8.58144 	-0.0604706 	-1.45485e-020 8.58421 	-0.0619961 	8.43846e-020 8.58694 	-0.0635232 	1.83312e-019 8.57689 	-0.063954 	1.9186e-019 8.55412 	-0.0632675 	1.09469e-019 8.53136 	-0.0625805 	2.70789e-020 8.53292 	-0.0641411 	1.5736e-020 8.53443 	-0.0657033 	4.38978e-021 8.52486 	-0.0661068 	4.44663e-022 8.50353 	-0.0653819 	5.04741e-021 8.48223 	-0.0646565 	9.65195e-021 8.48273 	-0.0662433 	4.14149e-021 8.48317 	-0.0678317 	-1.37393e-021 8.47409 	-0.068209 	-2.07708e-020 8.45407 	-0.0674567 	-7.07146e-020 8.43407 	-0.0667038 	-1.20661e-019 8.43364 	-0.0683022 	-2.514e-019 8.43315 	-0.0699021 	-3.82134e-019 8.42457 	-0.0702543 	-3.67012e-019 8.40574 	-0.0694905 	-2.17157e-019 8.38692 	-0.0687263 	-6.73048e-020 8.38566 	-0.0703238 	5.64305e-020 8.38433 	-0.0719192 	1.79828e-019 8.37598 	-0.0722175 	1.77449e-019 8.35853 	-0.071494 	9.03525e-020 8.34079 	-0.0707349 	3.50115e-022 8.3388 	-0.0723274 	-8.8982e-020 8.33591 	-0.0737422 	-1.67209e-019 8.32771 	-0.0740464 	-1.76495e-019 8.31244 	-0.0734868 	-1.14287e-019 8.29567 	-0.0727413 	-3.67376e-020 8.29305 	-0.0743247 	-2.55086e-020 8.28889 	-0.0755576 	-1.43786e-020 8.28084 	-0.0758692 	-3.50209e-021 8.26747 	-0.075478 	1.39385e-020 8.25159 	-0.0747525 	3.44983e-020 8.24839 	-0.076324 	1.27318e-020 8.24322 	-0.0773766 	-2.4051e-021 8.23531 	-0.0776972 	-8.19828e-021 8.22358 	-0.0774762 	-3.00583e-021 8.20851 	-0.076776 	1.18992e-020 8.20481 	-0.0783346 	-4.5941e-021 8.19883 	-0.0792113 	-1.54757e-020 8.19106 	-0.0795425 	-2.18673e-020 8.18076 	-0.0794912 	-3.40761e-020 8.16642 	-0.0788202 	-5.57059e-020 8.16228 	-0.0803655 	5.27029e-020 8.15569 	-0.0810721 	8.72038e-020 8.14803 	-0.0814153 	8.96683e-020 8.13898 	-0.0815322 	7.01457e-020 8.12531 	-0.0808937 	-2.26751e-020 8.12077 	-0.0824259 	6.88757e-020 8.11372 	-0.0829691 	8.61711e-020 8.10619 	-0.0833258 	8.94426e-020 8.09821 	-0.0836081 	8.65328e-020 8.08515 	-0.0830045 	1.03543e-020 8.08026 	-0.0845242 	-5.65923e-022 8.07289 	-0.0849112 	-4.84802e-022 8.06546 	-0.0852827 	-2.51408e-022 8.05802 	-0.0856545 	-1.80363e-023 8.04592 	-0.0851604 	1.83591e-020 8.04044 	-0.0865192 	0 8.03314 	-0.0869067 	0 8.02581 	-0.0872944 	0 8.01847 	-0.0876824 	0 8.00758 	-0.0873689 	1.53574e-020 8.00163 	-0.0885589 	0 7.99442 	-0.0889639 	0 7.98719 	-0.0893691 	0 7.97995 	-0.0897745 	0 7.97011 	-0.0896379 	0 7.9638 	-0.090667 	0 7.95668 	-0.0910907 	0 7.94954 	-0.0915146 	0 7.94239 	-0.0919388 	0 7.93348 	-0.0919751 	-8.67199e-021 7.92691 	-0.0928511 	0 7.91987 	-0.0932947 	0 7.91281 	-0.0937386 	0 7.90574 	-0.0941827 	0 7.89763 	-0.0943878 	-1.09722e-020 7.8909 	-0.0951185 	0 7.88393 	-0.0955831 	0 7.87695 	-0.0960479 	0 7.86994 	-0.0965131 	0 7.86254 	-0.0968828 	-4.46544e-021 7.85786 	-0.097324 	-6.00722e-021 7.85311 	-0.097659 	-1.31296e-020 7.84835 	-0.0979942 	-2.02526e-020 7.84359 	-0.0983295 	-2.73762e-020 7.83894 	-0.0986557 	-3.43053e-020 7.83669 	-0.0988099 	-3.73544e-020 7.83443 	-0.0989641 	-4.04034e-020 7.83218 	-0.0991184 	-4.34522e-020 7.82992 	-0.0992726 	-4.65009e-020 7.82791 	-0.099378 	-4.95518e-020 7.82079 	-0.0999334 	-4.83972e-020 7.81375 	-0.100445 	-4.77783e-020 7.80668 	-0.100957 	-4.71567e-020 7.7996 	-0.101469 	-4.65325e-020 7.79353 	-0.101781 	-4.81823e-020 7.78616 	-0.102498 	-3.77471e-020 7.77916 	-0.103033 	-2.73003e-020 7.77214 	-0.103569 	-1.68523e-020 7.7651 	-0.104106 	-6.40282e-021 7.75985 	-0.104297 	0 7.75222 	-0.10517 	-2.82012e-021 7.74526 	-0.105732 	-7.6331e-021 7.73828 	-0.106294 	-1.24454e-020 7.73128 	-0.106855 	-1.72569e-020 7.72682 	-0.106932 	-2.20333e-020 7.71892 	-0.10796 	-5.0742e-020 7.71199 	-0.108548 	-7.04926e-020 7.70504 	-0.109136 	-9.02447e-020 7.69807 	-0.109725 	-1.09998e-019 7.69438 	-0.109694 	-1.0331e-019 7.68621 	-0.110871 	-8.12323e-020 7.67931 	-0.111488 	-7.01319e-020 7.67238 	-0.112104 	-5.90254e-020 7.66543 	-0.112721 	-4.79128e-020 7.66248 	-0.112589 	-6.89238e-020 7.65403 	-0.113914 	-8.21522e-020 7.64715 	-0.11456 	-6.36784e-020 7.64024 	-0.115206 	-4.52094e-020 7.63367 	-0.115784 	-2.54847e-020 7.63108 	-0.115625 	7.82899e-021 7.62262 	-0.116981 	1.22244e-020 7.61547 	-0.117771 	8.75664e-021 7.60857 	-0.118448 	3.70835e-021 7.60278 	-0.118917 	0 7.60012 	-0.118809 	0 7.59169 	-0.120178 	0 7.58424 	-0.121126 	0 7.57733 	-0.121835 	0 7.5723 	-0.122201 	0 7.56956 	-0.122145 	0 7.56115 	-0.123529 	0 7.55339 	-0.124633 	-7.71814e-021 7.54648 	-0.125374 	-2.54433e-020 7.54217 	-0.125642 	-4.32176e-020 7.53936 	-0.125639 	-6.10211e-020 7.53096 	-0.12704 	-4.18453e-020 7.52287 	-0.128296 	-2.16912e-020 7.51594 	-0.129071 	1.7068e-021 7.51234 	-0.129248 	9.21219e-021 7.50944 	-0.129298 	1.33352e-020 7.50105 	-0.130717 	4.59216e-020 7.49264 	-0.132123 	7.82121e-020 7.48575 	-0.132921 	9.68314e-020 7.48277 	-0.133024 	8.18996e-020 7.47977 	-0.133127 	6.69666e-020 7.47137 	-0.134566 	4.29696e-020 7.46292 	-0.136005 	1.89643e-020 7.45649 	-0.136818 	2.00788e-021 7.4534 	-0.136974 	1.13777e-020 7.4503 	-0.137131 	2.07483e-020 7.44189 	-0.138591 	8.42059e-020 7.43343 	-0.140052 	1.47667e-019 7.42738 	-0.140894 	1.48313e-019 7.42418 	-0.141104 	8.54668e-020 7.42097 	-0.141314 	2.26192e-020 7.41254 	-0.142798 	1.4028e-020 7.40406 	-0.144282 	5.44025e-021 7.39839 	-0.145155 	5.62852e-021 7.39507 	-0.145418 	1.4779e-020 7.39173 	-0.145681 	2.39304e-020 7.38328 	-0.147189 	8.59421e-020 7.37477 	-0.148698 	1.47957e-019 7.36945 	-0.149603 	1.48637e-019 7.366 	-0.149919 	8.72652e-020 7.36253 	-0.150235 	2.58922e-020 7.35404 	-0.151769 	1.75455e-020 7.34563 	-0.153281 	9.19845e-021 7.34064 	-0.154195 	7.55918e-022 7.33692 	-0.154612 	0 7.33332 	-0.154982 	0 7.32478 	-0.156543 	0 7.31708 	-0.157949 	0 7.31199 	-0.158904 	0 7.3078 	-0.1595 	0 7.30404 	-0.159923 	0 7.29544 	-0.161511 	0 7.28845 	-0.162818 	0 7.28323 	-0.163814 	0 7.27856 	-0.164586 	6.83665e-021 7.27464 	-0.165061 	2.27766e-020 7.26598 	-0.166678 	5.23674e-021 7.25966 	-0.167888 	6.0441e-021 7.25431 	-0.168925 	1.4662e-020 7.24917 	-0.169871 	2.40463e-020 7.24507 	-0.170398 	3.69505e-020 7.23634 	-0.172045 	1.23547e-019 7.23066 	-0.173162 	1.33749e-019 7.22518 	-0.17424 	1.38371e-019 7.21966 	-0.175319 	1.42971e-019 7.21528 	-0.175937 	4.60237e-020 7.20701 	-0.17752 	1.3415e-019 7.20142 	-0.17864 	1.22316e-019 7.19578 	-0.179759 	1.1046e-019 7.19011 	-0.180879 	9.85823e-020 7.18522 	-0.181678 	3.81267e-020 7.17762 	-0.183161 	3.14794e-020 7.17187 	-0.184322 	3.19514e-020 7.16607 	-0.185483 	3.24284e-020 7.16024 	-0.186645 	3.29105e-020 7.15483 	-0.187621 	4.80515e-020 7.14788 	-0.189008 	5.40096e-020 7.14196 	-0.19021 	5.1527e-020 7.136 	-0.191412 	4.90289e-020 7.12999 	-0.192615 	4.65152e-020 7.12407 	-0.193768 	3.96837e-020 7.12157 	-0.194272 	3.32971e-020 7.11934 	-0.194728 	3.11666e-020 7.11712 	-0.195183 	2.90378e-020 7.11488 	-0.195639 	2.69108e-020 7.11269 	-0.196084 	2.48368e-020 7.10868 	-0.196872 	2.0622e-020 7.10466 	-0.197661 	1.64104e-020 7.10062 	-0.198449 	1.22022e-020 7.09656 	-0.199238 	7.99721e-021 7.09321 	-0.19995 	3.77071e-022 7.08637 	-0.201309 	-2.41959e-022 7.0799 	-0.202591 	-1.73989e-022 7.0734 	-0.203872 	-1.05994e-022 7.06685 	-0.205154 	-3.79769e-023 7.06215 	-0.20624 	0 7.05442 	-0.20776 	-6.98592e-021 7.04776 	-0.209081 	-2.08109e-020 7.04106 	-0.210402 	-3.46302e-020 7.0343 	-0.211724 	-4.84438e-020 7.03058 	-0.212732 	-5.95162e-020 7.02194 	-0.214411 	-4.6825e-020 7.01507 	-0.215771 	-3.15628e-020 7.00816 	-0.217132 	-1.62948e-020 7.00121 	-0.21849 	-1.05702e-021 6.99846 	-0.219422 	6.30266e-021 6.98918 	-0.221208 	-1.34581e-022 6.98179 	-0.222659 	1.11287e-020 6.97466 	-0.224057 	2.51288e-020 6.96872 	-0.225331 	4.12655e-020 6.96573 	-0.226307 	6.25052e-020 6.95624 	-0.228125 	4.04057e-020 6.94787 	-0.22974 	2.18847e-020 6.94051 	-0.231176 	6.52069e-021 6.93559 	-0.232364 	-1.71415e-021 6.93236 	-0.233383 	-5.06143e-021 6.92264 	-0.235232 	-5.68998e-020 6.91326 	-0.237011 	-9.97805e-020 6.90566 	-0.238483 	-1.03376e-019 6.90178 	-0.239585 	-6.71313e-020 6.89829 	-0.240646 	-2.63584e-020 6.88833 	-0.242525 	-6.77082e-020 6.8783 	-0.244404 	-1.09066e-019 6.87095 	-0.245889 	-1.09404e-019 6.86723 	-0.246989 	-6.59675e-020 6.86348 	-0.24809 	-2.25297e-020 6.85328 	-0.249998 	-6.61027e-020 6.843 	-0.251905 	-1.09681e-019 6.8359 	-0.253432 	-1.06882e-019 6.83192 	-0.25457 	-5.76181e-020 6.8279 	-0.255708 	-8.35031e-021 6.81744 	-0.257644 	-5.54272e-021 6.80691 	-0.25958 	-2.73727e-021 6.80005 	-0.261147 	0 6.79579 	-0.262321 	0 6.79149 	-0.263496 	0 6.78077 	-0.265459 	0 6.77077 	-0.267345 	0 6.76404 	-0.268917 	0 6.75882 	-0.270237 	0 6.75423 	-0.271446 	0 6.74323 	-0.273434 	0 6.73438 	-0.275213 	-1.69925e-021 6.72737 	-0.276813 	-4.85079e-021 6.72095 	-0.278309 	-4.66009e-021 6.71608 	-0.279551 	3.61785e-021 6.70479 	-0.281562 	-5.47183e-020 6.6971 	-0.283231 	-5.8218e-020 6.6898 	-0.284858 	-5.50555e-020 6.68244 	-0.286486 	-5.18712e-020 6.67699 	-0.287802 	-2.28498e-021 6.66645 	-0.28974 	-8.13603e-021 6.65891 	-0.291392 	6.48575e-022 6.65131 	-0.293044 	9.43449e-021 6.64366 	-0.294697 	1.82217e-020 6.63694 	-0.296192 	2.09753e-020 6.62761 	-0.298011 	4.11541e-020 6.61977 	-0.299687 	4.14146e-020 6.61187 	-0.301362 	4.16579e-020 6.60391 	-0.303037 	4.18839e-020 6.59589 	-0.304712 	4.20336e-020 6.59587 	-0.304717 	4.20361e-020 6.59584 	-0.304722 	4.20311e-020 6.59582 	-0.304726 	4.20262e-020 6.5958 	-0.304731 	4.20212e-020 6.59578 	-0.304736 	4.20163e-020 6.5872 	-0.306425 	3.97867e-020 6.57856 	-0.308114 	3.75621e-020 6.56986 	-0.309803 	3.53425e-020 6.5611 	-0.311491 	3.31279e-020 6.55336 	-0.313051 	2.26404e-020 6.54385 	-0.314908 	2.92505e-020 6.53484 	-0.31662 	2.30425e-020 6.52577 	-0.318332 	1.68462e-020 6.51663 	-0.320044 	1.06617e-020 6.50966 	-0.321498 	-1.46527e-020 6.4992 	-0.323516 	-7.40514e-021 6.48983 	-0.325247 	-9.34926e-021 6.48039 	-0.326975 	-1.13309e-020 6.47161 	-0.328622 	-1.26293e-020 6.46475 	-0.330043 	-1.20527e-020 6.45392 	-0.332072 	-1.07168e-020 6.44355 	-0.333969 	-7.35872e-021 6.43375 	-0.335712 	-1.65418e-021 6.42582 	-0.337238 	3.77986e-021 6.41862 	-0.338675 	9.10589e-021 6.40739 	-0.340713 	4.75036e-021 6.39609 	-0.34275 	3.98791e-022 6.38626 	-0.344481 	0 6.37877 	-0.345931 	0 6.37121 	-0.347382 	0 6.3596 	-0.349426 	0 6.34791 	-0.351471 	0 6.33829 	-0.353231 	0 6.33043 	-0.354691 	0 6.32252 	-0.356152 	0 6.31051 	-0.358202 	0 6.29873 	-0.360217 	5.18382e-022 6.28933 	-0.361964 	5.14587e-021 6.28079 	-0.363506 	9.78631e-021 6.27251 	-0.364975 	1.44339e-020 6.26009 	-0.367026 	1.07188e-020 6.24928 	-0.368895 	9.74036e-021 6.23951 	-0.370645 	1.05608e-020 6.22981 	-0.372362 	1.16117e-020 6.22115 	-0.373835 	1.42998e-020 6.20863 	-0.375854 	-2.54827e-021 6.19854 	-0.377604 	-8.70665e-021 6.18838 	-0.379354 	-1.48522e-020 6.17814 	-0.381104 	-2.09849e-020 6.16844 	-0.382722 	-1.91246e-020 6.15982 	-0.384103 	-1.57494e-020 6.15223 	-0.385371 	-1.33462e-020 6.1446 	-0.386639 	-1.09447e-020 6.13693 	-0.387906 	-8.5449e-021 6.1296 	-0.389111 	-6.26345e-021 6.12671 	-0.389604 	-6.06103e-021 6.12381 	-0.390097 	-5.86018e-021 6.12091 	-0.39059 	-5.66091e-021 6.11801 	-0.391083 	-5.46323e-021 6.11514 	-0.391531 	-2.05147e-021 6.10487 	-0.393329 	5.11976e-021 6.0944 	-0.395075 	5.81508e-021 6.08387 	-0.39682 	6.53543e-021 6.07326 	-0.398565 	7.28094e-021 6.06279 	-0.400107 	-1.99238e-020 6.05256 	-0.402081 	-6.08872e-020 6.0417 	-0.403818 	-7.02962e-020 6.03076 	-0.405555 	-7.97408e-020 6.01982 	-0.407231 	-7.57764e-020 6.00906 	-0.408663 	-1.75944e-020 5.99853 	-0.410667 	-1.51844e-020 5.98762 	-0.41254 	-1.02032e-020 5.97628 	-0.414265 	-2.31646e-021 5.96511 	-0.415765 	7.88846e-021 5.95394 	-0.417187 	1.88984e-020 5.94301 	-0.419174 	3.62787e-020 5.932 	-0.42116 	5.36675e-020 5.9205 	-0.422848 	5.48055e-020 5.909 	-0.424256 	3.92355e-020 5.89742 	-0.425664 	2.36678e-