# vtk DataFile Version 2.0
track0
ASCII
DATASET POLYDATA
POINTS 11980 float
-0.0205 0.001 1e-005
-0.0202034 0.00100022 1e-005
-0.0199069 0.00100067 1e-005
-0.0196103 0.00100132 1e-005
-0.0193137 0.00100219 1e-005
-0.0190172 0.00100326 1e-005
-0.0187132 0.00100466 1e-005
-0.0184093 0.00100588 1e-005
-0.0181054 0.0010071 1e-005
-0.0178015 0.00100832 1e-005
-0.0174976 0.00100953 1e-005
-0.0172058 0.00101083 1e-005
-0.016914 0.00101193 1e-005
-0.0166222 0.00101303 1e-005
-0.0163305 0.00101413 1e-005
-0.0160387 0.00101522 1e-005
-0.0157586 0.00101636 1e-005
-0.0154784 0.00101744 1e-005
-0.0151983 0.00101856 1e-005
-0.0149182 0.00101971 1e-005
-0.0146381 0.0010209 1e-005
-0.0143744 0.00102208 1e-005
-0.0141106 0.00102327 1e-005
-0.0138469 0.00102449 1e-005
-0.0135832 0.00102574 1e-005
-0.0133604 0.00102682 1e-005
-0.013347 0.00102688 1e-005
-0.0133336 0.00102695 1e-005
-0.0133202 0.00102702 1e-005
-0.0133068 0.00102708 1e-005
-0.0132934 0.00102715 1e-005
-0.0130353 0.00102844 1e-005
-0.0127771 0.00102974 1e-005
-0.0125189 0.00103106 1e-005
-0.0122607 0.00103239 1e-005
-0.0120025 0.00103374 1e-005
-0.0117547 0.00103505 1e-005
-0.0115068 0.00103636 1e-005
-0.0112589 0.00103768 1e-005
-0.0110111 0.00103901 1e-005
-0.0107632 0.00104034 1e-005
-0.0105252 0.00104161 1e-005
-0.0102873 0.00104289 1e-005
-0.0100493 0.00104417 1e-005
-0.00981133 0.00104544 1e-005
-0.00957337 0.00104672 1e-005
-0.00934491 0.00104794 1e-005
-0.00911645 0.00104916 1e-005
-0.00888799 0.00105038 1e-005
-0.00865954 0.00105159 1e-005
-0.00843108 0.00105281 1e-005
-0.00821175 0.00105396 1e-005
-0.00799242 0.00105512 1e-005
-0.00777309 0.00105627 1e-005
-0.00755376 0.00105742 1e-005
-0.00733443 0.00105856 1e-005
-0.00712387 0.00105965 1e-005
-0.0069133 0.00106074 1e-005
-0.00670273 0.00106182 1e-005
-0.00649216 0.0010629 1e-005
-0.0062816 0.00106398 1e-005
-0.00607944 0.001065 1e-005
-0.00587729 0.00106603 1e-005
-0.00567514 0.00106704 1e-005
-0.00547298 0.00106806 1e-005
-0.00527083 0.00106907 1e-005
-0.00507675 0.00107003 1e-005
-0.00488267 0.00107099 1e-005
-0.0046886 0.00107195 1e-005
-0.00449452 0.0010729 1e-005
-0.00430044 0.00107385 1e-005
-0.00411412 0.00107475 1e-005
-0.0039278 0.00107566 1e-005
-0.00374147 0.00107656 1e-005
-0.00355515 0.00107745 1e-005
-0.00336883 0.00107835 1e-005
-0.00318995 0.00107919 1e-005
-0.00301107 0.00108004 1e-005
-0.00283219 0.00108089 1e-005
-0.00265331 0.00108173 1e-005
-0.00247443 0.00108258 1e-005
-0.0023027 0.00108338 1e-005
-0.00213097 0.00108418 1e-005
-0.00195924 0.00108498 1e-005
-0.0017875 0.00108577 1e-005
-0.00161577 0.00108657 1e-005
-0.0014509 0.00108732 1e-005
-0.00128603 0.00108808 1e-005
-0.00112116 0.00108884 1e-005
-0.000956289 0.00108959 1e-005
-0.000791418 0.00109035 1e-005
-0.000633135 0.00109106 1e-005
-0.000474851 0.00109179 1e-005
-0.000316567 0.00109251 1e-005
-0.000158284 0.00109322 1e-005
0 0.00109394 1e-005
0.000105677 0.00109441 1e-005
0.000211355 0.00109488 1e-005
0.000317032 0.00109534 1e-005
0.00042271 0.00109581 1e-005
0.000528387 0.00109627 1e-005
0.000634886 0.00109672 1e-005
0.000741385 0.00109718 1e-005
0.000847885 0.00109763 1e-005
0.000954384 0.00109808 1e-005
0.00106088 0.00109853 1e-005
0.00116821 0.00109897 1e-005
0.00127554 0.00109942 1e-005
0.00138286 0.00109985 1e-005
0.00149019 0.00110028 1e-005
0.00159752 0.00110071 1e-005
0.00170568 0.00110113 1e-005
0.00181384 0.00110154 1e-005
0.001922 0.00110195 1e-005
0.00203016 0.00110235 1e-005
0.00213833 0.00110274 1e-005
0.00224733 0.00110312 1e-005
0.00235633 0.0011035 1e-005
0.00246533 0.00110387 1e-005
0.00257434 0.00110423 1e-005
0.00268334 0.00110459 1e-005
0.00279319 0.00110493 1e-005
0.00290304 0.00110527 1e-005
0.00301289 0.0011056 1e-005
0.00312274 0.00110593 1e-005
0.00323259 0.00110624 1e-005
0.00334329 0.00110655 1e-005
0.003454 0.00110685 1e-005
0.0035647 0.00110715 1e-005
0.0036754 0.00110744 1e-005
0.00378611 0.00110772 1e-005
0.00389767 0.00110799 1e-005
0.00400924 0.00110826 1e-005
0.0041208 0.00110852 1e-005
0.00423237 0.00110877 1e-005
0.00434393 0.00110901 1e-005
0.00445636 0.00110925 1e-005
0.00456879 0.00110948 1e-005
0.00468123 0.0011097 1e-005
0.00479366 0.00110992 1e-005
0.00490609 0.00111013 1e-005
0.0050194 0.00111033 1e-005
0.0051327 0.00111052 1e-005
0.00524601 0.00111071 1e-005
0.00535932 0.00111089 1e-005
0.00547262 0.00111106 1e-005
0.00558681 0.00111122 1e-005
0.005701 0.00111138 1e-005
0.00581518 0.00111153 1e-005
0.00592937 0.00111167 1e-005
0.00604356 0.00111181 1e-005
0.00615863 0.00111193 1e-005
0.00627371 0.00111205 1e-005
0.00638878 0.00111217 1e-005
0.00650386 0.00111227 1e-005
0.00661893 0.00111237 1e-005
0.0067349 0.00111246 1e-005
0.00685087 0.00111255 1e-005
0.00696684 0.00111263 1e-005
0.00708281 0.0011127 1e-005
0.00719878 0.00111276 1e-005
0.00726199 0.00111279 1e-005
0.0073252 0.00111281 1e-005
0.00738841 0.00111284 1e-005
0.00745162 0.00111286 1e-005
0.00751299 0.00111288 1e-005
0.00756702 0.0011129 1e-005
0.00762105 0.00111291 1e-005
0.00767508 0.00111293 1e-005
0.00772911 0.00111294 1e-005
0.00778313 0.00111295 1e-005
0.00790091 0.00111296 1e-005
0.00801869 0.00111297 1e-005
0.00813647 0.00111297 1e-005
0.00825425 0.00111297 1e-005
0.00837203 0.00111295 1e-005
0.00849073 0.00111293 1e-005
0.00860942 0.0011129 1e-005
0.00872812 0.00111286 1e-005
0.00884682 0.00111282 1e-005
0.00896551 0.00111276 1e-005
0.00908513 0.00111269 1e-005
0.00920475 0.00111263 1e-005
0.00932437 0.00111255 1e-005
0.00944398 0.00111246 1e-005
0.0095636 0.00111237 1e-005
0.00968415 0.00111226 1e-005
0.0098047 0.00111215 1e-005
0.00992525 0.00111203 1e-005
0.0100458 0.00111191 1e-005
0.0101663 0.00111177 1e-005
0.0102878 0.00111162 1e-005
0.0104093 0.00111147 1e-005
0.0105308 0.00111131 1e-005
0.0106523 0.00111114 1e-005
0.0107738 0.00111097 1e-005
0.0108962 0.00111077 1e-005
0.0110186 0.00111057 1e-005
0.0111411 0.00111037 1e-005
0.0112635 0.00111016 1e-005
0.0113859 0.00110994 1e-005
0.0115093 0.0011097 1e-005
0.0116327 0.00110946 1e-005
0.0117561 0.00110922 1e-005
0.0118795 0.00110896 1e-005
0.0120028 0.0011087 1e-005
0.0121272 0.00110841 1e-005
0.0122515 0.00110813 1e-005
0.0123759 0.00110784 1e-005
0.0125002 0.00110754 1e-005
0.0126245 0.00110724 1e-005
0.0127498 0.00110691 1e-005
0.0128752 0.00110658 1e-005
0.0130005 0.00110624 1e-005
0.0131258 0.0011059 1e-005
0.0132511 0.00110555 1e-005
0.0133774 0.00110517 1e-005
0.0135036 0.00110479 1e-005
0.0136299 0.00110441 1e-005
0.0137562 0.00110402 1e-005
0.0138825 0.00110362 1e-005
0.0140098 0.0011032 1e-005
0.014137 0.00110278 1e-005
0.0142643 0.00110235 1e-005
0.0143915 0.00110191 1e-005
0.0145188 0.00110146 1e-005
0.0146471 0.00110099 1e-005
0.0147753 0.00110052 1e-005
0.0149036 0.00110004 1e-005
0.0150318 0.00109956 1e-005
0.0151601 0.00109906 1e-005
0.0152893 0.00109854 1e-005
0.0154186 0.00109802 1e-005
0.0155478 0.0010975 1e-005
0.0156771 0.00109696 1e-005
0.0158063 0.00109641 1e-005
0.0159366 0.00109585 1e-005
0.0160668 0.00109528 1e-005
0.0161971 0.00109471 1e-005
0.0163274 0.00109412 1e-005
0.0164576 0.00109353 1e-005
0.0165889 0.00109292 1e-005
0.0167201 0.0010923 1e-005
0.0168514 0.00109167 1e-005
0.0169827 0.00109104 1e-005
0.0171139 0.00109039 1e-005
0.0172462 0.00108974 1e-005
0.0173785 0.00108907 1e-005
0.0175108 0.00108839 1e-005
0.0176431 0.00108771 1e-005
0.0177754 0.00108702 1e-005
0.0179087 0.00108631 1e-005
0.018042 0.0010856 1e-005
0.0181753 0.00108487 1e-005
0.0183087 0.00108413 1e-005
0.018442 0.00108339 1e-005
0.0185763 0.00108264 1e-005
0.0187107 0.00108188 1e-005
0.018845 0.0010811 1e-005
0.0189794 0.00108031 1e-005
0.0191137 0.00107952 1e-005
0.0192491 0.00107873 1e-005
0.0193845 0.00107791 1e-005
0.0195199 0.00107708 1e-005
0.0196553 0.00107624 1e-005
0.0197907 0.0010754 1e-005
0.0199272 0.00107456 1e-005
0.0200636 0.0010737 1e-005
0.0202001 0.00107282 1e-005
0.0203365 0.00107192 1e-005
0.020473 0.00107104 1e-005
0.0206105 0.00107015 1e-005
0.020748 0.00106924 1e-005
0.0208855 0.0010683 1e-005
0.021023 0.00106736 1e-005
0.0211606 0.00106643 1e-005
0.0212991 0.00106549 1e-005
0.0214377 0.00106453 1e-005
0.0215763 0.00106355 1e-005
0.0217149 0.00106256 1e-005
0.0218535 0.00106157 1e-005
0.0219931 0.00106059 1e-005
0.0221328 0.00105958 1e-005
0.0222724 0.00105855 1e-005
0.0224121 0.00105751 1e-005
0.0225517 0.00105647 1e-005
0.0226925 0.00105544 1e-005
0.0228332 0.00105438 1e-005
0.022974 0.0010533 1e-005
0.0231147 0.00105221 1e-005
0.0232555 0.00105113 1e-005
0.0233973 0.00105004 1e-005
0.0235391 0.00104894 1e-005
0.023681 0.0010478 1e-005
0.0238228 0.00104666 1e-005
0.0239647 0.00104553 1e-005
0.0241076 0.0010444 1e-005
0.0242505 0.00104324 1e-005
0.0243935 0.00104206 1e-005
0.0245364 0.00104086 1e-005
0.0246794 0.00103968 1e-005
0.0248234 0.0010385 1e-005
0.0249675 0.00103729 1e-005
0.0251115 0.00103606 1e-005
0.0252556 0.00103482 1e-005
0.0253996 0.00103358 1e-005
0.0255448 0.00103235 1e-005
0.02569 0.00103109 1e-005
0.0258351 0.00102981 1e-005
0.0259803 0.00102852 1e-005
0.0261255 0.00102724 1e-005
0.0262718 0.00102595 1e-005
0.0264181 0.00102464 1e-005
0.0265644 0.00102331 1e-005
0.0267107 0.00102197 1e-005
0.026857 0.00102063 1e-005
0.0270044 0.0010193 1e-005
0.0271519 0.00101793 1e-005
0.0272993 0.00101655 1e-005
0.0274468 0.00101516 1e-005
0.0275942 0.00101377 1e-005
0.0277428 0.00101238 1e-005
0.0278914 0.00101096 1e-005
0.0280399 0.00100952 1e-005
0.0281885 0.00100808 1e-005
0.0283371 0.00100664 1e-005
0.0284869 0.00100519 1e-005
0.0286366 0.00100372 1e-005
0.0287863 0.00100223 1e-005
0.0289361 0.00100073 1e-005
0.0290858 0.000999233 1e-005
0.0292367 0.00099773 1e-005
0.0293876 0.000996199 1e-005
0.0295385 0.000994656 1e-005
0.0296894 0.000993104 1e-005
0.0298403 0.000991546 1e-005
0.0299924 0.000989985 1e-005
0.0301445 0.000988394 1e-005
0.0302966 0.000986795 1e-005
0.0304486 0.000985187 1e-005
0.0306007 0.00098357 1e-005
0.030754 0.000981948 1e-005
0.0309072 0.000980299 1e-005
0.0310605 0.000978641 1e-005
0.0312138 0.000976974 1e-005
0.031367 0.000975298 1e-005
0.0315215 0.000973613 1e-005
[...]
POINT_DATA 11980
 FIELD attributes 2
p 1 11980 float
-4.8344 -4.8337 -4.83008 -4.82639 -4.82262 -4.81425 -4.82812 -4.8431 -4.85809 -4.87308 -4.89752 -4.91932 -4.94928 -4.97924 -5.0092 -5.04197 -5.05767 -5.0794 -5.10114 -5.12288 -5.14624 -5.16519 -5.18615 -5.20711 -5.22808 -5.2458 -5.24686 -5.24792 -5.24898 -5.25004 -5.2511 -5.27282 -5.29453 -5.31625 -5.33796 -5.35941 -5.37824 -5.39687 -5.41551 -5.43415 -5.45222 -5.46792 -5.48334 -5.49877 -5.5142 -5.52907 -5.54294 -5.55656 -5.57018 -5.58381 -5.59699 -5.6098 -5.62237 -5.63493 -5.64749 -5.65963 -5.67156 -5.68319 -5.69483 -5.70646 -5.71767 -5.7288 -5.73965 -5.75051 -5.76136 -5.77186 -5.78238 -5.79264 -5.8029 -5.81316 -5.8231 -5.83315 -5.84301 -5.85288 -5.86274 -5.87239 -5.88215 -5.89165 -5.90115 -5.91065 -5.91994 -5.92949 -5.93919 -5.94888 -5.95858 -5.96839 -5.9784 -5.98817 -5.99795 -6.00772 -6.01729 -6.02729 -6.03805 -6.04881 -6.05958 -6.07045 -6.08021 -6.09058 -6.10095 -6.11132 -6.12122 -6.13022 -6.13872 -6.14721 -6.15571 -6.16344 -6.17042 -6.17849 -6.18657 -6.19464 -6.20348 -6.21159 -6.22019 -6.22878 -6.23738 -6.2461 -6.25416 -6.26125 -6.26834 -6.27543 -6.28169 -6.28832 -6.29367 -6.29903 -6.30439 -6.30872 -6.3143 -6.31885 -6.3234 -6.32795 -6.33156 -6.33642 -6.34038 -6.34434 -6.3483 -6.35145 -6.35534 -6.35848 -6.36162 -6.36476 -6.36729 -6.37015 -6.37247 -6.37478 -6.37709 -6.37903 -6.38114 -6.3829 -6.38466 -6.38642 -6.38799 -6.38972 -6.39125 -6.39278 -6.39431 -6.39576 -6.39729 -6.39872 -6.40015 -6.40158 -6.40298 -6.40374 -6.40446 -6.40518 -6.40591 -6.40661 -6.40722 -6.40784 -6.40846 -6.40908 -6.40974 -6.41095 -6.41222 -6.41348 -6.41475 -6.41621 -6.41724 -6.4185 -6.41976 -6.42102 -6.4227 -6.42352 -6.42482 -6.42611 -6.42741 -6.42942 -6.43003 -6.43143 -6.43282 -6.43421 -6.43668 -6.4371 -6.43861 -6.44013 -6.44165 -6.44458 -6.44478 -6.44639 -6.44801 -6.44962 -6.453 -6.45298 -6.4547 -6.45642 -6.45814 -6.46199 -6.46183 -6.46369 -6.46554 -6.4674 -6.4717 -6.47145 -6.47345 -6.47545 -6.47746 -6.48213 -6.48182 -6.48397 -6.48611 -6.48825 -6.49325 -6.49294 -6.49522 -6.4975 -6.49998 -6.50507 -6.50508 -6.50723 -6.50967 -6.51256 -6.51762 -6.51797 -6.52005 -6.52263 -6.52591 -6.53091 -6.53161 -6.53365 -6.53639 -6.54 -6.54494 -6.546 -6.54805 -6.55094 -6.55483 -6.55971 -6.56111 -6.56321 -6.56625 -6.57039 -6.5752 -6.57695 -6.57913 -6.58232 -6.58666 -6.59141 -6.59348 -6.59578 -6.59912 -6.60362 -6.60832 -6.6107 -6.61314 -6.61662 -6.62125 -6.62591 -6.62859 -6.63126 -6.63491 -6.63954 -6.64417 -6.64712 -6.65006 -6.65384 -6.65846 -6.66309 -6.66628 -6.66948 -6.67339 -6.67803 -6.68266 -6.68611 -6.68956 -6.6936 -6.69823 -6.70286 -6.70655 -6.71024 -6.7144 -6.71902 -6.72364 -6.72754 -6.73145 -6.7357 -6.74031 -6.74492 -6.74899 -6.75305 -6.7574 -6.76202 -6.76664 -6.77084 -6.77504 -6.77948 -6.78412 -6.78877 -6.79308 -6.79742 -6.80193 -6.80659 -6.81128 -6.81569 -6.82015 -6.82473 -6.82942 -6.83416 -6.83864 -6.8432 -6.84784 -6.85257 -6.85735 -6.8619 -6.86654 -6.87125 -6.876 -6.88083 -6.88544 -6.89014 -6.8949 -6.89968 -6.90455 -6.9092 -6.91396 -6.91876 -6.92356 -6.92846 -6.93313 -6.93794 -6.94276 -6.94757 -6.95248 -6.95719 -6.96202 -6.96685 -6.97168 -6.97658 -6.98132 -6.98615 -6.99098 -6.99581 -7.0007 -7.00544 -7.01027 -7.01509 -7.01991 -7.02477 -7.02951 -7.03431 -7.0391 -7.0439 -7.04872 -7.05345 -7.0582 -7.06296 -7.06772 -7.07249 -7.07571 -7.07895 -7.08219 -7.08543 -7.08858 -7.09006 -7.09155 -7.09303 -7.09452 -7.09601 -7.10065 -7.10529 -7.10993 -7.11457 -7.11923 -7.12378 -7.12834 -7.13289 -7.13745 -7.14203 -7.14649 -7.15095 -7.15541 -7.15987 -7.16435 -7.16871 -7.17305 -7.1774 -7.18174 -7.18611 -7.19035 -7.19456 -7.19877 -7.20298 -7.20719 -7.2113 -7.21535 -7.2194 -7.22345 -7.22749 -7.23145 -7.23533 -7.23921 -7.24308 -7.24693 -7.25071 -7.25442 -7.2581 -7.26175 -7.26539 -7.26896 -7.27249 -7.27594 -7.27935 -7.28274 -7.28608 -7.2894 -7.2926 -7.29573 -7.29885 -7.30195 -7.30504 -7.30797 -7.3108 -7.31362 -7.31644 -7.31926 -7.3219 -7.32441 -7.32692 -7.32943 -7.33195 -7.33428 -7.33644 -7.3386 -7.34078 -7.34296 -7.34496 -7.34675 -7.34854 -7.35036 -7.35218 -7.35382 -7.3552 -7.35659 -7.35802 -7.35944 -7.36068 -7.36166 -7.36261 -7.36362 -7.36458 -7.36537 -7.36596 -7.36645 -7.36701 -7.36746 -7.36778 -7.36796 -7.36796 -7.36804 -7.36794 -7.36775 -7.36751 -7.36699 -7.36656 -7.36586 -7.36514 -7.36442 -7.36338 -7.36235 -7.36106 -7.35978 -7.3585 -7.35697 -7.35527 -7.35339 -7.35151 -7.34963 -7.3476 -7.3452 -7.34268 -7.34016 -7.33765 -7.3351 -7.33397 -7.3328 -7.33163 -7.33047 -7.32933 -7.32734 -7.32536 -7.32337 -7.32139 -7.31933 -7.3156 -7.31177 -7.30795 -7.30413 -7.30012 -7.29581 -7.29126 -7.28672 -7.28218 -7.27729 -7.2724 -7.2671 -7.2618 -7.2565 -7.2507 -7.24513 -7.23911 -7.23302 -7.22678 -7.22017 -7.2138 -7.20714 -7.20024 -7.193 -7.18555 -7.17834 -7.17104 -7.16329 -7.15501 -7.14668 -7.13861 -7.13055 -7.12189 -7.11265 -7.10342 -7.09445 -7.0855 -7.07594 -7.06577 -7.0556 -7.04571 -7.03583 -7.02535 -7.01422 -7.00309 -6.99225 -6.98128 -6.96978 -6.95785 -6.94574 -6.93392 -6.92173 -6.90922 -6.89653 -6.8834 -6.87058 -6.85711 -6.84358 -6.83004 -6.81596 -6.80191 -6.78732 -6.77272 -6.75814 -6.74327 -6.72788 -6.71221 -6.69654 -6.68088 -6.66522 -6.66518 -6.66513 -6.66509 -6.66504 -6.66499 -6.64841 -6.63183 -6.61525 -6.59869 -6.58185 -6.56438 -6.54664 -6.52891 -6.51119 -6.4929 -6.47458 -6.45572 -6.43687 -6.41783 -6.39828 -6.37882 -6.35911 -6.33912 -6.31861 -6.29789 -6.27728 -6.25667 -6.23545 -6.21355 -6.19166 -6.16988 -6.1481 -6.12567 -6.10259 -6.07951 -6.05654 -6.0335 -6.00978 -5.98565 -5.96137 -5.93722 -5.91259 -5.88766 -5.86267 -5.8372 -5.81176 -5.78561 -5.75947 -5.73334 -5.70694 -5.68739 -5.66754 -5.64769 -5.62785 -5.60897 -5.6013 -5.59363 -5.58595 -5.57828 -5.57053 -5.5421 -5.51361 -5.48514 -5.45667 -5.42782 -5.3984 -5.3687 -5.33901 -5.30922 -5.27895 -5.24837 -5.21764 -5.18675 -5.15542 -5.12395 -5.09215 -5.06037 -5.02818 -4.99549 -4.96281 -4.92981 -4.89682 -4.86332 -4.82944 -4.79555 -4.76136 -4.7269 -4.69213 -4.65729 -4.62222 -4.58681 -4.55085 -4.5149 -4.47896 -4.44289 -4.42327 -4.40346 -4.38365 -4.36385 -4.3447 -4.32731 -4.30991 -4.29252 -4.27513 -4.25756 -4.2195 -4.18133 -4.14317 -4.10502 -4.06629 -4.02728 -3.98805 -3.94877 -3.90916 -3.86925 -3.82912 -3.789 -3.74853 -3.70753 -3.66652 -3.6253 -3.58409 -3.54237 -3.50031 -3.45825 -3.41596 -3.37339 -3.33053 -3.28765 -3.24455 -3.20112 -3.15724 -3.11336 -3.06949 -3.02558 -3.01918 -3.01273 -3.00628 -2.99983 -2.99343 -2.95507 -2.91671 -2.87836 -2.84002 -2.8013 -2.75574 -2.71 -2.66427 -2.61838 -2.57205 -2.52559 -2.4791 -2.43245 -2.38525 -2.33803 -2.29067 -2.24332 -2.19555 -2.1475 -2.09944 -2.05123 -2.00277 -1.95406 -1.90535 -1.85648 -1.81019 -1.76355 -1.71693 -1.67031 -1.62608 -1.62273 -1.61939 -1.61605 -1.61271 -1.60934 -1.55915 -1.50896 -1.45878 -1.40862 -1.358 -1.30722 -1.25636 -1.20549 -1.15434 -1.10297 -1.05152 -1.00008 -0.948412 -0.896463 -0.844487 -0.792418 -0.740269 -0.687814 -0.635344 -0.582811 -0.530159 -0.477157 -0.424164 -0.371181 -0.318162 -0.31193 -0.305664 -0.299398 -0.293132 -0.286903 -0.239664 -0.192432 -0.145208 -0.0979908 -0.0504643 0.00346264 0.0573994 0.111329 0.165448 0.219737 0.274085 0.328422 0.382861 0.437433 0.492039 0.546717 0.601466 0.656367 0.711251 0.766134 0.812656 0.859331 0.905999 0.95266 0.997448 1.00632 1.01519 1.02406 1.03293 1.04184 1.09727 1.15268 1.20809 1.26349 1.31914 1.37479 1.43041 1.48598 1.54169 1.59746 1.65324 1.70902 1.7649 1.82069 1.87651 1.93237 1.98828 2.0442 2.10011 2.15602 2.16705 2.17809 2.18912 2.20016 2.2111 2.25607 2.30104 2.346 2.39096 2.43599 2.49208 2.54805 2.60398 2.65992 2.71592 2.77191 2.82789 2.88383 2.93962 2.99545 3.05129 3.10708 3.16284 3.2186 3.27432 3.28892 3.30349 3.31806 3.33263 3.34705 3.38816 3.42927 3.47037 3.51148 3.55256 3.60817 3.66363 3.71903 3.77435 3.82969 3.885 3.94029 3.99547 4.0504 4.10537 4.16032 4.21511 4.26986 4.32461 4.37936 4.38427 4.38917 4.39406 4.39896 4.40384 4.45346 4.50309 4.55271 4.60231 4.65178 4.70609 4.76031 4.81437 4.86819 4.92206 4.97588 5.02966 5.08319 5.13662 5.18994 5.22881 5.26748 5.30613 5.34477 5.38261 5.39717 5.41173 5.42629 5.44084 5.45534 5.5081 5.56073 5.61335 5.66586 5.71823 5.7705 5.82276 5.87472 5.9264 5.97811 6.02972 6.08111 6.13237 6.18362 6.23479 6.24566 6.25646 6.26725 6.27805 6.28879 6.32878 6.36878 6.40877 6.44873 6.48848 6.53885 6.58912 6.63921 6.68895 6.73872 6.78834 6.8379 6.88713 6.93628 6.98526 7.01407 7.04267 7.07123 7.09979 7.12815 7.1482 7.16824 7.18828 7.20829 7.22816 7.27637 7.32431 7.37225 7.41988 7.46738 7.51477 7.56216 7.60913 7.65583 7.70248 7.73749 7.77222 7.80687 7.84152 7.87611 7.88761 7.89911 7.91061 7.92208 7.93346 7.97914 8.02467 8.07019 8.11545 8.16048 8.20538 8.25028 8.2948 8.33892 8.38302 8.41962 8.45588 8.49205 8.52821 8.56471 8.57201 8.5793 8.5866 8.59388 8.60109 8.6441 8.68701 8.72991 8.77259 8.81496 8.85718 8.89941 8.94124 8.98266 9.02406 9.06096 9.0975 9.13392 9.17035 9.20761 9.21177 9.21594 9.22011 9.22427 9.22839 9.26858 9.3087 9.34882 9.38877 9.42834 9.46773 9.50713 9.54613 9.58474 9.6233 9.66169 9.69968 9.73754 9.77541 9.81323 9.81393 9.81462 9.81531 9.81601 9.8167 9.85322 9.88974 9.92626 9.96269 9.99868 10.0351 10.0716 10.1077 10.1434 10.179 10.2144 10.2496 10.2845 10.3194 10.3541 10.3638 10.3733 10.3829 10.3924 10.4021 10.4266 10.4512 10.4758 10.5003 10.5245 10.5579 10.5912 10.6244 10.6571 10.6898 10.7221 10.7545 10.7864 10.8182 10.8498 10.8752 10.9003 10.9254 10.9504 10.9773 10.9828 10.9883 10.9938 10.9993 11.0047 11.0349 11.065 11.0952 11.1252 11.1549 11.1842 11.2135 11.2425 11.2713 11.3 11.3284 11.3566 11.3843 11.4117 11.4385 11.4633 11.489 11.5147 11.5404 11.5705 11.5715 11.5725 11.5736 11.5746 11.5757 11.5992 11.6225 11.6457 11.6689 11.6867 11.7032 11.7253 11.7495 11.7814 11.8174 11.8527 11.8881 11.9087 11.9146 11.9205 11.9249 11.9335 11.9433 11.953 11.9642 11.9651 11.966 11.9669 11.9678 11.9693 11.9825 11.9955 12.0085 12.0212 12.0333 12.0445 12.0556 12.065 12.0727 12.0803 12.0869 12.0925 12.0976 12.1026 12.107 12.1077 12.1079 12.1082 12.1084 12.1086 12.1101 12.1116 12.113 12.1144 12.1146 12.1133 12.1111 12.1083 12.1038 12.099 12.0925 12.0858 12.0772 12.0667 12.056 12.0434 12.0285 12.0131 11.9977 11.9816 11.9774 11.9726 11.9677 11.9629 11.9578 11.9413 11.9247 11.9081 11.8915 11.8729 11.8461 11.8171 11.7877 11.7565 11.7239 11.6881 11.6523 11.6132 11.5709 11.5286 11.4828 11.4358 11.3857 11.3344 11.281 11.2236 11.1617 11.0998 11.0378 10.9745 10.9509 10.926 10.9012 10.8763 10.8489 10.8002 10.7514 10.7026 10.6537 10.6025 10.517 10.4286 10.3402 10.251 10.157 10.0573 9.95476 9.8492 9.73836 9.62564 9.50675 9.38779 9.26309 9.133 9.00279 8.86588 8.72891 8.58112 8.42245 8.26361 8.09712 7.92969 7.761 7.5916 7.42086 7.24216 7.03541 6.82592 6.61648 6.38767 6.15329 5.93715 5.72097 5.50473 5.29384 5.18394 5.0506 4.91736 4.7842 4.62806 4.45267 4.27712 4.10141 3.92554 3.72232 3.41138 3.15005 2.88801 2.6253 2.49435 2.3631 1.92796 1.49787 0.941046 0