/*--------------------------------*- C++ -*----------------------------------*\
| =========                 |                                                 |
| \\      /  F ield         | OpenFOAM: The Open Source CFD Toolbox           |
|  \\    /   O peration     | Version:  5.x                                   |
|   \\  /    A nd           | Web:      www.OpenFOAM.org                      |
|    \\/     M anipulation  |                                                 |
\*---------------------------------------------------------------------------*/
/*   Windows 32 and 64 bit porting by blueCAPE: http://www.bluecape.com.pt   *\
|  Based on Windows porting (2.0.x v4) by Symscape: http://www.symscape.com   |
\*---------------------------------------------------------------------------*/
FoamFile
{
    version     2.0;
    format      ascii;
    class       volScalarField;
    location    "0.14";
    object      p;
}
// * * * * * * * * * * * * * * * * * * * * * * * * * * * * * * * * * * * * * //

dimensions      [0 2 -2 0 0 0 0];

internalField   nonuniform List<scalar> 
750
(
0.38587167
0.38606387
0.38578441
0.38562459
0.38534007
0.38504322
0.3847106
0.38435842
0.38399159
0.38361602
0.38322909
0.38283782
0.38244019
0.38202547
0.3816002
0.38115248
0.38064967
0.38010371
0.37943237
0.37851117
0.37756513
0.37498481
0.37381745
0.36491432
0.36085088
0.3858778
0.38606496
0.38579128
0.38562656
0.38534298
0.38504484
0.3847119
0.38435924
0.38399221
0.38361642
0.3832295
0.38283826
0.38244055
0.38202639
0.38160153
0.38115401
0.3806534
0.38010866
0.3794393
0.37853291
0.37756476
0.37507503
0.37378851
0.3651449
0.36101975
0.38588643
0.38607343
0.38580024
0.38563226
0.38534807
0.38504828
0.38471447
0.38436104
0.3839935
0.3836174
0.38323042
0.38283928
0.38244181
0.38202844
0.38160464
0.38115872
0.38066154
0.38012132
0.3794598
0.37857056
0.3776153
0.37519366
0.37389186
0.36539078
0.36161063
0.38589887
0.38608737
0.3858128
0.38564116
0.3853556
0.38505344
0.38471828
0.38436376
0.38399544
0.38361889
0.3832318
0.3828408
0.38244382
0.38203144
0.38160926
0.3811662
0.38067343
0.38014061
0.37949245
0.37862357
0.37770479
0.37534391
0.37410839
0.36569398
0.36240097
0.38591565
0.38610599
0.3858296
0.38565302
0.38536562
0.3850603
0.38472329
0.38436736
0.38399798
0.38362084
0.38323362
0.38284276
0.38244645
0.38203533
0.38161521
0.38117603
0.3806888
0.38016586
0.37953591
0.37869148
0.37782303
0.37553563
0.37442505
0.36612099
0.36343266
0.38593682
0.38612935
0.38585072
0.38566778
0.38537801
0.38506888
0.38472951
0.38437181
0.38400112
0.38362324
0.38323586
0.38284507
0.38244968
0.38204012
0.38162236
0.38118783
0.38070745
0.38019633
0.37958758
0.37877641
0.37796908
0.37576487
0.37484817
0.36662135
0.36506935
0.38596235
0.3861578
0.38587613
0.38568545
0.38539262
0.38507926
0.38473688
0.38437707
0.38400482
0.38362605
0.38323846
0.38284779
0.3824535
0.38204572
0.38163073
0.38120154
0.38072917
0.38023176
0.37964674
0.37887715
0.37815109
0.37603336
0.37543359
0.36724096
0.36754849
0.38599204
0.38619167
0.38590579
0.38570601
0.38540949
0.3850913
0.38474538
0.3843831
0.38400905
0.38362924
0.38324145
0.38285099
0.38245777
0.38205206
0.38164038
0.38121726
0.38075376
0.38027177
0.37971325
0.37898935
0.37837018
0.37635344
0.37619004
0.36820747
0.3714045
0.38602652
0.38622971
0.38594037
0.38572936
0.3854288
0.38510475
0.38475499
0.38438987
0.38401376
0.38363278
0.38324476
0.38285454
0.3824624
0.38205915
0.38165122
0.3812346
0.38078096
0.38031605
0.37978745
0.37910877
0.37861184
0.37675831
0.37706383
0.36950611
0.37622673
0.38606978
0.38626676
0.38598295
0.38575533
0.38545037
0.38511945
0.38476552
0.38439724
0.38401887
0.38363644
0.38324821
0.38285825
0.38246722
0.38206663
0.38166253
0.3812525
0.38081036
0.3803626
0.37986615
0.37923852
0.37881824
0.37728243
0.37784447
0.37130624
0.3811553
0.33912724
0.32854972
0.31303492
0.29991916
0.28570478
0.27184619
0.25782569
0.24389026
0.22994222
0.21600758
0.20207099
0.18813538
0.17419933
0.16026338
0.14632743
0.13239148
0.11845553
0.10451959
0.090583641
0.076647696
0.062711751
0.048775809
0.034839871
0.020903922
0.0069679847
0.33897285
0.32845632
0.31295726
0.29989253
0.28568976
0.27182065
0.25782295
0.24388791
0.22994271
0.21600673
0.202071
0.18813537
0.17419933
0.16026338
0.14632743
0.13239148
0.11845553
0.10451959
0.09058364
0.076647696
0.062711751
0.048775809
0.034839869
0.020903923
0.0069679827
0.33852282
0.32854334
0.31267312
0.29976618
0.28566393
0.27179409
0.25781718
0.24388559
0.22994312
0.21600674
0.20207106
0.18813537
0.17419932
0.16026338
0.14632743
0.13239148
0.11845553
0.10451959
0.090583639
0.076647695
0.062711752
0.048775809
0.034839868
0.020903924
0.0069679809
0.33794305
0.3285912
0.31244196
0.29962584
0.28561905
0.2717755
0.25781165
0.24388332
0.22994297
0.21600725
0.20207121
0.18813538
0.17419932
0.16026337
0.14632742
0.13239148
0.11845553
0.10451958
0.090583639
0.076647695
0.062711751
0.04877581
0.034839868
0.020903926
0.0069679791
0.33743446
0.32846771
0.31234874
0.29950266
0.28555898
0.27176092
0.25780654
0.24388155
0.2299427
0.21600771
0.20207135
0.1881354
0.17419932
0.16026337
0.14632742
0.13239148
0.11845553
0.10451958
0.09058364
0.076647695
0.062711751
0.048775809
0.034839867
0.020903929
0.006967978
0.33673721
0.3284645
0.31221101
0.29939304
0.28550206
0.27174729
0.2578016
0.24388054
0.22994278
0.21600806
0.20207145
0.18813541
0.17419931
0.16026337
0.14632742
0.13239148
0.11845553
0.10451958
0.090583639
0.076647695
0.062711752
0.048775809
0.034839867
0.020903931
0.0069679781
0.33569423
0.32854935
0.31197831
0.29931847
0.28545863
0.27173637
0.2577975
0.24388057
0.22994323
0.21600828
0.2020715
0.18813541
0.17419931
0.16026337
0.14632742
0.13239148
0.11845553
0.10451958
0.090583639
0.076647695
0.062711752
0.04877581
0.034839866
0.020903932
0.0069679794
0.3348216
0.32843602
0.31170132
0.29928666
0.2854299
0.2717304
0.25779517
0.24388172
0.22994392
0.21600847
0.20207149
0.18813539
0.1741993
0.16026337
0.14632742
0.13239148
0.11845553
0.10451958
0.090583639
0.076647695
0.062711752
0.04877581
0.034839867
0.020903935
0.0069679819
0.33353723
0.32828607
0.31159563
0.29929047
0.28541323
0.27172941
0.25779528
0.24388339
0.22994464
0.21600872
0.20207146
0.18813536
0.17419929
0.16026337
0.14632742
0.13239148
0.11845553
0.10451958
0.090583639
0.076647695
0.062711752
0.048775811
0.034839868
0.020903937
0.0069679849
0.3291567
0.32880414
0.31157862
0.2993621
0.28538342
0.27172898
0.25779153
0.24388426
0.2299448
0.21600898
0.20207146
0.18813536
0.17419928
0.16026337
0.14632742
0.13239148
0.11845553
0.10451958
0.090583639
0.076647695
0.062711752
0.048775811
0.034839868
0.020903936
0.0069679835
0.3861781
0.38633852
0.38608499
0.38581342
0.38549679
0.38515121
0.38478774
0.38441276
0.38402958
0.38364357
0.3832551
0.38286558
0.38247672
0.38208165
0.38168462
0.38128792
0.38087259
0.38045588
0.38002443
0.37952468
0.37914391
0.37842085
0.37906931
0.37631866
0.39392647
0.3863592
0.38653786
0.38625354
0.38593232
0.38558347
0.38521153
0.38482896
0.38444099
0.38404896
0.38365785
0.38326838
0.38287861
0.38249278
0.38210813
0.38172253
0.38134791
0.38097279
0.38060104
0.38025671
0.37988828
0.37962059
0.37927566
0.37944874
0.37777086
0.38356523
0.38659404
0.38681316
0.38645661
0.38607517
0.38568327
0.38527882
0.38487339
0.38446993
0.38406877
0.38367251
0.3832806
0.38289083
0.38250709
0.38213284
0.38176091
0.38140289
0.38106319
0.38073521
0.3804585
0.38020163
0.38006523
0.37998654
0.38023199
0.38005594
0.3826801
0.3869121
0.38716129
0.38669555
0.38623509
0.38578933
0.38534749
0.38491719
0.38449686
0.3840864
0.38368427
0.38328931
0.3829008
0.38251995
0.38215067
0.38179282
0.38144825
0.38113419
0.38084498
0.38061748
0.38044057
0.38037364
0.38041992
0.38070746
0.38114888
0.38204247
0.38737265
0.38756879
0.38696396
0.38640218
0.38589187
0.38541079
0.38495572
0.38451831
0.38409916
0.38369143
0.38329428
0.38290606
0.38252772
0.38216072
0.38181179
0.38148021
0.38118134
0.38091987
0.38072354
0.38060001
0.38057401
0.38067924
0.38101055
0.38164793
0.38189908
0.3880825
0.3880004
0.38724787
0.38656323
0.38597955
0.38546031
0.38498367
0.3845321
0.38410496
0.38369304
0.38329335
0.38290433
0.38252663
0.38216225
0.38181545
0.38149102
0.38119931
0.38095103
0.38076579
0.38066316
0.3806565
0.38078509
0.38109162
0.38175854
0.38177098
0.38919539
0.38842729
0.38751079
0.38669567
0.38604386
0.38548984
0.38499477
0.3845354
0.38410225
0.38368729
0.38328493
0.38289465
0.38251531
0.38214962
0.38180055
0.38147436
0.38118025
0.3809296
0.38073958
0.38063031
0.38061641
0.38073234
0.38099453
0.38162941
0.3815819
0.39110719
0.38869636
0.38768191
0.38675219
0.38606133
0.38549007
0.38498529
0.38452456
0.38408981
0.3836732
0.38326912
0.38287605
0.38249302
0.38212149
0.38176504
0.3814289
0.38112157
0.38085398
0.380642
0.38050318
0.38045942
0.38054181
0.38076494
0.38134298
0.38132439
0.39477144
0.38848719
0.38776474
0.38670497
0.38600833
0.38544595
0.38494933
0.38449387
0.38406256
0.38364693
0.38324168
0.38284456
0.38245473
0.3820727
0.38170137
0.38134515
0.3810112
0.38070976
0.38045475
0.38026618
0.3801682
0.38020422
0.38040327
0.38093754
0.38099098
0.39634055
0.3874442
0.38820544
0.38677611
0.38607068
0.38547218
0.38496264
0.38449996
0.384065
0.38364707
0.38324026
0.38284182
0.38245072
0.38206709
0.38169367
0.38133441
0.380996
0.38068762
0.38042269
0.3802223
0.38010737
0.38012567
0.38027594
0.38076278
0.38084866
)
;

boundaryField
{
    inlet
    {
        type            zeroGradient;
    }
    walls
    {
        type            zeroGradient;
    }
    outlet
    {
        type            fixedValue;
        value           uniform 0;
    }
    centreline
    {
        type            symmetryPlane;
    }
    frontAndBack
    {
        type            empty;
    }
}


// ************************************************************************* //
