/*--------------------------------*- C++ -*----------------------------------*\
| =========                 |                                                 |
| \\      /  F ield         | OpenFOAM: The Open Source CFD Toolbox           |
|  \\    /   O peration     | Version:  5.x                                   |
|   \\  /    A nd           | Web:      www.OpenFOAM.org                      |
|    \\/     M anipulation  |                                                 |
\*---------------------------------------------------------------------------*/
/*   Windows 32 and 64 bit porting by blueCAPE: http://www.bluecape.com.pt   *\
|  Based on Windows porting (2.0.x v4) by Symscape: http://www.symscape.com   |
\*---------------------------------------------------------------------------*/
FoamFile
{
    version     2.0;
    format      ascii;
    class       surfaceScalarField;
    location    "0.14";
    object      phi;
}
// * * * * * * * * * * * * * * * * * * * * * * * * * * * * * * * * * * * * * //

dimensions      [0 3 -1 0 0 0 0];

internalField   nonuniform List<scalar> 
1430
(
5.1178225e-006
-1.1654215e-007
5.2635444e-006
-1.457219e-007
5.404956e-006
-1.4141159e-007
5.524308e-006
-1.1935207e-007
5.6232157e-006
-9.8907696e-008
5.7024198e-006
-7.9204116e-008
5.7666312e-006
-6.421133e-008
5.8200459e-006
-5.3414721e-008
5.8670925e-006
-4.7046592e-008
5.9121716e-006
-4.5079129e-008
5.9600683e-006
-4.7896672e-008
6.0167584e-006
-5.6690111e-008
6.0892461e-006
-7.2487641e-008
6.1871426e-006
-9.789657e-008
6.3243274e-006
-1.3718478e-007
6.5202741e-006
-1.9594672e-007
6.805193e-006
-2.849189e-007
7.2269991e-006
-4.2180607e-007
7.8665074e-006
-6.3950835e-007
8.8770368e-006
-1.0105294e-006
1.045659e-005
-1.5795536e-006
1.2936135e-005
-2.4795443e-006
1.6455223e-005
-3.5190888e-006
2.0964533e-005
-4.5093093e-006
-4.9729717e-006
2.5937504e-005
5.1170621e-006
-2.3232393e-007
5.2654585e-006
-2.9411828e-007
5.4056494e-006
-2.8160249e-007
5.5256692e-006
-2.3937187e-007
5.6242546e-006
-1.974931e-007
5.7033397e-006
-1.5828918e-007
5.7672873e-006
-1.2815895e-007
5.8204377e-006
-1.0656515e-007
5.8671826e-006
-9.379148e-008
5.9119659e-006
-8.9862384e-008
5.9594795e-006
-9.541029e-008
6.0156802e-006
-1.1289078e-007
6.0875576e-006
-1.4436508e-007
6.1845331e-006
-1.9487208e-007
6.3203462e-006
-2.7299788e-007
6.5143171e-006
-3.8991761e-007
6.7959099e-006
-5.6651169e-007
7.212556e-006
-8.3845227e-007
7.8441441e-006
-1.2710964e-006
8.8374146e-006
-2.0038e-006
1.0398866e-005
-3.1410046e-006
1.2811463e-005
-4.892142e-006
1.6285974e-005
-6.9935992e-006
2.0659762e-005
-8.8830974e-006
-9.9608401e-006
2.564763e-005
5.1179908e-006
-3.4903441e-007
5.2670995e-006
-4.4322698e-007
5.4079229e-006
-4.2242586e-007
5.5280081e-006
-3.5945715e-007
5.6264244e-006
-2.9590941e-007
5.7051378e-006
-2.3700254e-007
5.7686026e-006
-1.9162372e-007
5.8212243e-006
-1.5918691e-007
5.8674012e-006
-1.3996831e-007
5.9115569e-006
-1.3401809e-007
5.9583359e-006
-1.4218935e-007
6.0136006e-006
-1.6815542e-007
6.0842051e-006
-2.1496958e-007
6.1793915e-006
-2.9005854e-007
6.3125452e-006
-4.0615155e-007
6.5024166e-006
-5.7978907e-007
6.7776691e-006
-8.4176415e-007
7.184111e-006
-1.2448942e-006
7.7989149e-006
-1.8859003e-006
8.7631118e-006
-2.967997e-006
1.0270349e-005
-4.6482416e-006
1.2593646e-005
-7.215439e-006
1.5918846e-005
-1.0318799e-005
2.0134013e-005
-1.3098264e-005
-1.4788671e-005
2.4961844e-005
5.1193276e-006
-4.6708172e-007
5.2696023e-006
-5.9350165e-007
5.4113109e-006
-5.6413449e-007
5.5315312e-006
-4.7967748e-007
5.6296693e-006
-3.9404751e-007
5.7078233e-006
-3.1515654e-007
5.7705617e-006
-2.5436215e-007
5.8223924e-006
-2.1101756e-007
5.8677184e-006
-1.8529434e-007
5.9109356e-006
-1.7723533e-007
5.956618e-006
-1.878717e-007
6.0104933e-006
-2.2203077e-007
6.0792175e-006
-2.8369373e-007
6.1717308e-006
-3.8257186e-007
6.3009407e-006
-5.3536148e-007
6.4847741e-006
-7.6362248e-007
6.7506182e-006
-1.1076082e-006
7.1420284e-006
-1.6363044e-006
7.7316373e-006
-2.4755092e-006
8.6512456e-006
-3.8876053e-006
1.0079622e-005
-6.0766176e-006
1.2272146e-005
-9.4079632e-006
1.5380818e-005
-1.3427472e-005
1.934848e-005
-1.7065926e-005
-1.9346142e-005
2.3905951e-005
5.1211079e-006
-5.8690927e-007
5.2729232e-006
-7.4531697e-007
5.4158282e-006
-7.0703952e-007
5.5362263e-006
-6.0007561e-007
5.6339675e-006
-4.9178867e-007
5.7113577e-006
-3.9254676e-007
5.7731224e-006
-3.1612688e-007
5.8238965e-006
-2.6179161e-007
5.8680907e-006
-2.2948854e-007
5.9100641e-006
-2.1920871e-007
5.954297e-006
-2.3210461e-007
6.0063439e-006
-2.7407772e-007
6.0726066e-006
-3.4995642e-007
6.1616097e-006
-4.7157493e-007
6.2856595e-006
-6.5941127e-007
6.4616245e-006
-9.3958756e-007
6.7151568e-006
-1.3611405e-006
7.0869051e-006
-2.0080527e-006
7.643095e-006
-3.0316991e-006
8.5054685e-006
-4.7499789e-006
9.8308405e-006
-7.4019896e-006
1.1850955e-005
-1.1428077e-005
1.4675479e-005
-1.6251996e-005
1.8310649e-005
-2.0701096e-005
-2.3528103e-005
2.249261e-005
5.123363e-006
-7.0899196e-007
5.2770566e-006
-8.9901052e-007
5.4214937e-006
-8.5147664e-007
5.5421138e-006
-7.206957e-007
5.639314e-006
-5.8898897e-007
5.7157253e-006
-4.6895803e-007
5.7762629e-006
-3.7666449e-007
5.8257127e-006
-3.1124134e-007
5.8684934e-006
-2.7226932e-007
5.9089251e-006
-2.5964039e-007
5.9513753e-006
-2.7455474e-007
6.0011661e-006
-3.2386852e-007
6.0644042e-006
-4.1319453e-007
6.149093e-006
-5.5626374e-007
6.2668268e-006
-7.7714505e-007
6.4332119e-006
-1.1059727e-006
6.6717473e-006
-1.599676e-006
7.019622e-006
-2.3559274e-006
7.5353646e-006
-3.5474418e-006
8.3280495e-006
-5.5426638e-006
9.5272644e-006
-8.6012045e-006
1.1336758e-005
-1.3237571e-005
1.3813145e-005
-1.8728383e-005
1.7036278e-005
-2.3924229e-005
-2.72533e-005
2.0761475e-005
5.126129e-006
-8.3384064e-007
5.2820211e-006
-1.0549026e-006
5.4283538e-006
-9.9780933e-007
5.5492491e-006
-8.4159108e-007
5.6457378e-006
-6.8547764e-007
5.7209413e-006
-5.4416154e-007
5.7799857e-006
-4.357089e-007
5.8278418e-006
-3.5909737e-007
5.8689317e-006
-3.1335923e-007
5.9075297e-006
-2.9823841e-007
5.9478794e-006
-3.1490447e-007
5.9950039e-006
-3.7099303e-007
6.0546703e-006
-4.7286094e-007
6.1343012e-006
-6.358946e-007
6.2446426e-006
-8.8748644e-007
6.3998845e-006
-1.2612146e-006
6.6210694e-006
-1.8208609e-006
6.9411973e-006
-2.6760554e-006
7.4102308e-006
-4.0164753e-006
8.121708e-006
-6.2541411e-006
9.1742349e-006
-9.6537313e-006
1.0738207e-005
-1.4801542e-005
1.2798714e-005
-2.078889e-005
1.5564075e-005
-2.6689591e-005
-3.0340629e-005
1.8651404e-005
5.1295032e-006
-9.6206348e-007
5.2879e-006
-1.2132994e-006
5.4365323e-006
-1.1464417e-006
5.5577492e-006
-9.6280797e-007
5.6533366e-006
-7.8106506e-007
5.7270734e-006
-6.1789827e-007
5.7843393e-006
-4.929748e-007
5.8303285e-006
-4.0508658e-007
5.8694669e-006
-3.5249768e-007
5.9059488e-006
-3.3472027e-007
5.9438775e-006
-3.5283318e-007
5.9879537e-006
-4.1506918e-007
6.04355e-006
-5.2845729e-007
6.11746e-006
-7.0980455e-007
6.219401e-006
-9.8942752e-007
6.362125e-006
-1.4039385e-006
6.5639835e-006
-2.0227194e-006
6.8530343e-006
-2.9651062e-006
7.2705026e-006
-4.4339437e-006
7.8909836e-006
-6.8746221e-006
8.77846e-006
-1.0541208e-005
1.0065289e-005
-1.6088372e-005
1.1669917e-005
-2.2393518e-005
1.3942072e-005
-2.8961746e-005
-3.2447469e-005
1.6048912e-005
5.1336931e-006
-1.0944763e-006
5.2948596e-006
-1.3744659e-006
5.446255e-006
-1.297837e-006
5.5678136e-006
-1.0843666e-006
5.6622888e-006
-8.7554029e-007
5.7342506e-006
-6.8986009e-007
5.7894373e-006
-5.4816145e-007
5.8332852e-006
-4.4893451e-007
5.8702116e-006
-3.8942404e-007
5.9043105e-006
-3.6881917e-007
5.9395274e-006
-3.8805007e-007
5.9802155e-006
-4.5575735e-007
6.0312756e-006
-5.7951737e-007
6.0988725e-006
-7.7740144e-007
6.1915619e-006
-1.0821169e-006
6.3205738e-006
-1.5329505e-006
6.5014032e-006
-2.2035488e-006
6.7567962e-006
-3.2204993e-006
7.1184171e-006
-4.7955647e-006
7.640834e-006
-7.397039e-006
8.3492831e-006
-1.1249657e-005
9.3354455e-006
-1.7074534e-005
1.0445195e-005
-2.3503267e-005
1.2174808e-005
-3.0691359e-005
-3.3189059e-005
1.2916399e-005
5.1381493e-006
-1.2313453e-006
5.3038829e-006
-1.5401995e-006
5.4577232e-006
-1.4516773e-006
5.5798163e-006
-1.2064597e-006
5.6728452e-006
-9.6856918e-007
5.7426846e-006
-7.596995e-007
5.7954795e-006
-6.009563e-007
5.8369066e-006
-4.9036163e-007
5.8713531e-006
-4.2387052e-007
5.9028365e-006
-4.0030256e-007
5.9350776e-006
-4.2029112e-007
5.972053e-006
-4.927328e-007
6.0181644e-006
-6.2562872e-007
6.0789207e-006
-8.3815778e-007
6.1616705e-006
-1.1648667e-006
6.2758671e-006
-1.6471471e-006
6.4340984e-006
-2.3617801e-006
6.6542089e-006
-3.4406098e-006
6.9568417e-006
-5.0981974e-006
7.3758335e-006
-7.8160308e-006
7.9062215e-006
-1.1780045e-005
8.5588855e-006
-1.7727198e-005
9.1254012e-006
-2.4069782e-005
9.9786641e-006
-3.1544622e-005
8.7274817e-006
-3.1937877e-005
2.8516515e-005
-2.579011e-006
2.9237265e-005
-7.2075001e-007
2.9170736e-005
6.6529627e-008
2.8995868e-005
1.748675e-007
2.8899241e-005
9.6627048e-008
2.887189e-005
2.7350859e-008
2.8878853e-005
-6.9623184e-009
2.8886114e-005
-7.2618242e-009
2.888768e-005
-1.5655103e-009
2.8886856e-005
8.2441007e-010
2.888626e-005
5.9572126e-010
2.8886173e-005
8.6630264e-011
2.888625e-005
-7.662696e-011
2.888629e-005
-4.0568323e-011
2.8886294e-005
-3.6690434e-012
2.8886291e-005
3.2827673e-012
2.8886289e-005
1.3517457e-012
2.8886289e-005
6.0477913e-014
2.8886289e-005
-1.06817e-013
2.8886289e-005
1.3314089e-013
2.8886289e-005
6.1056057e-014
2.8886289e-005
2.8730561e-013
2.8886289e-005
-1.2489604e-013
2.8886297e-005
-7.8173303e-012
-8.0033696e-012
2.8023275e-005
-4.9546556e-006
2.875948e-005
-1.4569548e-006
2.8723321e-005
1.026878e-007
2.858897e-005
3.0921882e-007
2.8503788e-005
1.8180917e-007
2.8485285e-005
4.5853933e-008
2.8491332e-005
-1.300986e-008
2.8496828e-005
-1.2757757e-008
2.8497559e-005
-2.2957188e-009
2.8496758e-005
1.6247722e-009
2.8496289e-005
1.0653005e-009
2.8496262e-005
1.1320235e-010
2.8496334e-005
-1.4900571e-010
2.8496366e-005
-7.24802e-011
2.8496368e-005
-5.2389458e-012
2.8496365e-005
6.1625299e-012
2.8496364e-005
2.1751048e-012
2.8496364e-005
2.6189882e-016
2.8496364e-005
-1.8197574e-013
2.8496364e-005
2.4291565e-013
2.8496364e-005
2.7048082e-013
2.8496364e-005
3.8334152e-013
2.8496364e-005
-4.7433675e-013
2.849637e-005
-1.3213966e-011
-1.3828225e-011
2.7081543e-005
-7.0743545e-006
2.7762198e-005
-2.13761e-006
2.7783311e-005
8.1574633e-008
2.7693453e-005
3.9907697e-007
2.764331e-005
2.3195222e-007
2.7639495e-005
4.9669e-008
2.7644063e-005
-1.7577717e-008
2.7646147e-005
-1.4841472e-008
2.7645726e-005
-1.8753032e-009
2.764503e-005
2.3213582e-009
2.7644807e-005
1.2875463e-009
2.7644857e-005
6.2971343e-011
2.7644916e-005
-2.0792661e-010
2.7644933e-005
-8.8675376e-011
2.7644931e-005
-3.7104588e-012
2.7644929e-005
8.1748983e-012
2.7644929e-005
2.2966565e-012
2.7644929e-005
-2.3774095e-013
2.7644929e-005
-2.2824471e-013
2.7644929e-005
2.0494432e-013
2.7644929e-005
3.9589075e-013
2.7644929e-005
5.8040514e-013
2.7644929e-005
-6.1676044e-013
2.7644931e-005
-1.4924177e-011
-1.5800807e-011
2.566771e-005
-8.8361132e-006
2.6214518e-005
-2.6844184e-006
2.6241678e-005
5.4414629e-008
2.6216714e-005
4.2404099e-007
2.6215808e-005
2.3285839e-007
2.6223958e-005
4.1518881e-008
2.6225287e-005
-1.890636e-008
2.6223903e-005
-1.3458034e-008
2.6222598e-005
-5.7005922e-010
2.6222178e-005
2.7408146e-009
2.6222231e-005
1.2355283e-009
2.6222332e-005
-3.8814501e-011
2.6222363e-005
-2.3874725e-010
2.6222361e-005
-8.6991609e-011
2.6222358e-005
1.344597e-013
2.6222357e-005
8.8747707e-012
2.6222357e-005
1.81318e-012
2.6222358e-005
-4.9969269e-013
2.6222358e-005
-1.5437453e-013
2.6222358e-005
4.2928257e-014
2.6222358e-005
2.002976e-013
2.6222358e-005
8.17434e-013
2.6222357e-005
-9.2289381e-014
2.6222355e-005
-1.2844074e-011
-1.411493e-011
2.3744523e-005
-1.0088026e-005
2.4017336e-005
-2.9572322e-006
2.4030689e-005
4.1062238e-008
2.4084448e-005
3.7028198e-007
2.4122705e-005
1.9460115e-007
2.4135593e-005
2.863139e-008
2.4133327e-005
-1.6640361e-008
2.4129657e-005
-9.7884945e-009
2.4128163e-005
9.2362695e-010
2.4128179e-005
2.7256382e-009
2.4128451e-005
9.6350431e-010
2.4128554e-005
-1.420156e-010
2.4128547e-005
-2.3217296e-010
2.4128531e-005
-7.0708151e-011
2.4128527e-005
4.3987402e-012
2.4128527e-005
8.1545254e-012
2.4128528e-005
9.6865578e-013
2.4128528e-005
-6.6054096e-013
2.4128528e-005
-5.3363278e-014
2.4128528e-005
-7.3865818e-014
2.4128529e-005
-1.0902204e-014
2.4128529e-005
8.0259723e-013
2.4128528e-005
8.3858311e-013
2.4128523e-005
-8.3304103e-012
-1.0224049e-011
2.1245703e-005
-1.0572254e-005
2.1124181e-005
-2.8357109e-006
2.1147881e-005
1.7362854e-008
2.1253298e-005
2.6486442e-007
2.1307338e-005
1.405618e-007
2.1319471e-005
1.6498103e-008
2.1314857e-005
-1.2026357e-008
2.131063e-005
-5.5615822e-009
2.1309669e-005
1.885194e-009
2.1310144e-005
2.2497024e-009
2.1310514e-005
5.9358069e-010
2.1310571e-005
-1.9841038e-010
2.1310529e-005
-1.9013162e-010
2.1310505e-005
-4.7104084e-011
2.1310502e-005
7.0597112e-012
2.1310504e-005
6.3093106e-012
2.1310505e-005
2.2287708e-013
2.1310505e-005
-6.5029475e-013
2.1310505e-005
-3.8170433e-014
2.1310505e-005
-1.5832768e-013
2.1310505e-005
-9.2493128e-014
2.1310505e-005
7.4435607e-013
2.1310504e-005
1.6805768e-012
2.13105e-005
-3.5200688e-012
-5.8732242e-012
1.8089481e-005
-1.0010331e-005
1.7583158e-005
-2.3293881e-006
1.7609292e-005
-8.7707654e-009
1.7719966e-005
1.5419084e-007
1.7772096e-005
8.8430946e-008
1.778087e-005
7.7248318e-009
1.7775758e-005
-6.9147003e-009
1.777245e-005
-2.2535575e-009
1.7772397e-005
1.9382798e-009
1.7773175e-005
1.4712318e-009
1.7773507e-005
2.6209624e-010
1.7773495e-005
-1.8634062e-010
1.7773431e-005
-1.265898e-010
1.7773409e-005
-2.4407548e-011
1.7773409e-005
7.0616104e-012
1.7773411e-005
3.9679866e-012
1.7773411e-005
-1.9626029e-013
1.7773411e-005
-4.645399e-013
1.7773411e-005
-2.5183502e-014
1.7773411e-005
-2.1110386e-013
1.7773411e-005
-1.1147337e-013
1.7773411e-005
6.5872719e-013
1.7773411e-005
2.0498412e-012
1.7773408e-005
-1.5649632e-014
-2.3777744e-012
1.4198442e-005
-8.1598598e-006
1.3426583e-005
-1.5575292e-006
1.3435959e-005
-1.8146735e-008
1.3520052e-005
7.0097832e-008
1.3562334e-005
4.6148891e-008
1.3567388e-005
2.6707353e-009
1.3563319e-005
-2.8455766e-009
1.3561572e-005
-5.0732268e-010
1.3562262e-005
1.2487746e-009
1.3563053e-005
6.8029919e-010
1.3563259e-005
5.5984121e-011
1.3563194e-005
-1.2108356e-010
1.3563129e-005
-6.2346576e-011
1.3563113e-005
-8.4694829e-012
1.3563116e-005
4.7863652e-012
1.3563118e-005
1.8455081e-012
1.3563118e-005
-2.6536006e-013
1.3563118e-005
-2.3233482e-013
1.3563118e-005
3.8557813e-015
1.3563118e-005
-1.7662441e-013
1.3563118e-005
-1.0334665e-013
1.3563118e-005
4.641537e-013
1.3563118e-005
1.7617855e-012
1.3563117e-005
1.4974783e-012
-3.3025287e-013
9.560919e-006
-4.8043802e-006
8.6627014e-006
-6.5931159e-007
8.6470007e-006
-2.4460211e-009
8.6993701e-006
1.7728467e-008
8.7293772e-006
1.6141805e-008
8.7317815e-006
2.664125e-010
8.7294183e-006
-4.8230814e-010
8.7289533e-006
-4.2386641e-011
8.7298019e-006
4.0018056e-010
8.730341e-006
1.4127618e-010
8.7304095e-006
-1.2508612e-011
8.730331e-006
-4.2631952e-011
8.7302848e-006
-1.6206669e-011
8.7302774e-006
-1.0544879e-012
8.7302805e-006
1.7480621e-012
8.7302819e-006
4.4526898e-013
8.7302817e-006
-1.2687714e-013
8.7302815e-006
-5.8823368e-014
8.7302815e-006
1.2767493e-014
8.7302814e-006
-7.9368836e-014
8.7302814e-006
-5.2774855e-014
8.7302817e-006
1.8664602e-013
8.7302826e-006
8.5368998e-013
8.730283e-006
1.1284556e-012
2.5170223e-013
3.9231015e-006
3.2637899e-006
3.2613438e-006
3.2790723e-006
3.2952141e-006
3.2954805e-006
3.2949982e-006
3.2949559e-006
3.295356e-006
3.2954973e-006
3.2954848e-006
3.2954422e-006
3.295426e-006
3.2954249e-006
3.2954266e-006
3.2954271e-006
3.295427e-006
3.2954269e-006
3.2954269e-006
3.2954268e-006
3.2954268e-006
3.295427e-006
3.2954279e-006
3.295429e-006
1.5432178e-005
-1.6596823e-006
1.5989936e-005
-2.0979574e-006
1.645708e-005
-1.9188212e-006
1.6825562e-005
-1.5749418e-006
1.7094266e-005
-1.2372736e-006
1.728848e-005
-9.5391271e-007
1.7430449e-005
-7.4292582e-007
1.7538407e-005
-5.9831926e-007
1.7625217e-005
-5.1068114e-007
1.7702635e-005
-4.7772025e-007
1.7780018e-005
-4.9767426e-007
1.7866622e-005
-5.7933707e-007
1.7973371e-005
-7.323774e-007
1.811172e-005
-9.7650638e-007
1.8296002e-005
-1.3491494e-006
1.8545824e-005
-1.8969685e-006
1.8878027e-005
-2.6939831e-006
1.9318207e-005
-3.8807896e-006
1.9875519e-005
-5.6555096e-006
2.0509187e-005
-8.4496992e-006
2.1148863e-005
-1.241972e-005
2.1136363e-005
-1.7714699e-005
1.9673276e-005
-2.2606695e-005
1.4547512e-005
-2.6418859e-005
-1.7390365e-005
1.552327e-005
-2.1791113e-006
1.6163184e-005
-2.7378715e-006
1.666968e-005
-2.4253173e-006
1.7032151e-005
-1.9374127e-006
1.7274551e-005
-1.4796732e-006
1.7434653e-005
-1.1140152e-006
1.7542176e-005
-8.5044859e-007
1.7617594e-005
-6.7373691e-007
1.7673399e-005
-5.6648655e-007
1.7719081e-005
-5.2340203e-007
1.7761591e-005
-5.4018487e-007
1.7806006e-005
-6.2375203e-007
1.7857792e-005
-7.8416268e-007
1.7921674e-005
-1.040389e-006
1.8000802e-005
-1.4282771e-006
1.8099182e-005
-1.9953483e-006
1.8211355e-005
-2.8061562e-006
1.8322801e-005
-3.9922353e-006
1.8385929e-005
-5.7186378e-006
1.8264476e-005
-8.3282466e-006
1.7741736e-005
-1.189698e-005
1.6210538e-005
-1.6183502e-005
1.3066702e-005
-1.9462858e-005
6.838301e-006
-2.0190458e-005
-1.0552064e-005
1.5690106e-005
-2.865376e-006
1.6451407e-005
-3.499173e-006
1.6995646e-005
-2.9695567e-006
1.7337795e-005
-2.2795614e-006
1.7534998e-005
-1.6768762e-006
1.7645363e-005
-1.2243805e-006
1.7707026e-005
-9.1211101e-007
1.7741859e-005
-7.0857044e-007
1.7760963e-005
-5.8559029e-007
1.7770481e-005
-5.3291965e-007
1.77743e-005
-5.4400405e-007
1.7773337e-005
-6.2278959e-007
1.7767298e-005
-7.7812362e-007
1.7753866e-005
-1.0269565e-006
1.772619e-005
-1.4006015e-006
1.7675026e-005
-1.9441838e-006
1.7579107e-005
-2.7102378e-006
1.7394459e-005
-3.8075871e-006
1.7042081e-005
-5.36626e-006
1.6331501e-005
-7.6176664e-006
1.5008007e-005
-1.0573486e-005
1.2611067e-005
-1.3786561e-005
8.8917965e-006
-1.5743588e-005
3.5339724e-006
-1.4832634e-005
-7.0180912e-006
1.596184e-005
-3.8233749e-006
1.6851562e-005
-4.388895e-006
1.7398956e-005
-3.5169505e-006
1.7683894e-005
-2.5644992e-006
1.7807611e-005
-1.800594e-006
1.7848946e-005
-1.2657155e-006
1.7852709e-005
-9.1587334e-007
1.7839548e-005
-6.9541023e-007
1.7817774e-005
-5.6381599e-007
1.778934e-005
-5.0448589e-007
1.7753976e-005
-5.0863995e-007
1.7707438e-005
-5.7625159e-007
1.7644356e-005
-7.1504172e-007
1.7556382e-005
-9.389824e-007
1.7429166e-005
-1.2733854e-006
1.7240671e-005
-1.7556886e-006
1.695992e-005
-2.4294866e-006
1.6524961e-005
-3.3726288e-006
1.5843746e-005
-4.6850449e-006
1.4731622e-005
-6.5055426e-006
1.2954644e-005
-8.7965076e-006
1.0233661e-005
-1.1065579e-005
6.5843444e-006
-1.2094271e-005
2.2842044e-006
-1.0532494e-005
-4.7338868e-006
1.6305396e-005
-5.12493e-006
1.7226861e-005
-5.3103601e-006
1.767509e-005
-3.9651798e-006
1.7833406e-005
-2.7228143e-006
1.784507e-005
-1.8122586e-006
1.7797127e-005
-1.2177726e-006
1.7733186e-005
-8.519321e-007
1.7668101e-005
-6.3032509e-007
1.7604781e-005
-5.0049577e-007
1.7539771e-005
-4.3947659e-007
1.7467539e-005
-4.36408e-007
1.7379705e-005
-4.8841728e-007
1.7266759e-005
-6.0209575e-007
1.7114247e-005
-7.8647021e-007
1.6902506e-005
-1.0616447e-006
1.6601493e-005
-1.4546758e-006
1.6172324e-005
-2.0003169e-006
1.5548998e-005
-2.7493032e-006
1.4636413e-005
-3.77246e-006
1.3273774e-005
-5.1429034e-006
1.127403e-005
-6.7967637e-006
8.5011096e-006
-8.2926587e-006
5.1101938e-006
-8.7033549e-006
1.6814412e-006
-7.1037413e-006
-3.0524456e-006
1.6566904e-005
-6.6879934e-006
1.7258702e-005
-6.0021575e-006
1.7420645e-005
-4.1271236e-006
1.7352418e-005
-2.6545874e-006
1.7209426e-005
-1.669266e-006
1.7057866e-005
-1.0662131e-006
1.692334e-005
-7.1740595e-007
1.6808772e-005
-5.1575637e-007
1.6708631e-005
-4.0035479e-007
1.661324e-005
-3.4408629e-007
1.6512414e-005
-3.3558171e-007
1.6394792e-005
-3.7079518e-007
1.6246089e-005
-4.5339239e-007
1.6048859e-005
-5.8924042e-007
1.5779444e-005
-7.922297e-007
1.5405613e-005
-1.0808454e-006
1.4883714e-005
-1.4784181e-006
1.4151106e-005
-2.0166945e-006
1.311979e-005
-2.7411446e-006
1.1661744e-005
-3.6848567e-006
9.6389048e-006
-4.773925e-006
7.0163762e-006
-5.6701301e-006
4.0341976e-006
-5.7211763e-006
1.2937944e-006
-4.363338e-006
-1.7586511e-006
1.6487518e-005
-8.1716707e-006
1.6513915e-005
-6.0285544e-006
1.6161761e-005
-3.7749698e-006
1.577122e-005
-2.2640459e-006
1.5444333e-005
-1.342379e-006
1.5191563e-005
-8.1344288e-007
1.4998268e-005
-5.2411174e-007
1.4847113e-005
-3.646007e-007
1.4722889e-005
-2.7613108e-007
1.4610617e-005
-2.3181394e-007
1.4496478e-005
-2.2144278e-007
1.4366844e-005
-2.4116135e-007
1.4205239e-005
-2.9178721e-007
1.3993756e-005
-3.7775772e-007
1.3707893e-005
-5.0636697e-007
1.3316079e-005
-6.8903099e-007
1.277672e-005
-9.3905913e-007
1.2034543e-005
-1.2745178e-006
1.1014373e-005
-1.7209741e-006
9.6198483e-006
-2.2903323e-006
7.7660771e-006
-2.9201538e-006
5.4810612e-006
-3.3851143e-006
3.032697e-006
-3.272812e-006
9.4886908e-007
-2.2795101e-006
-8.0978202e-007
1.5663208e-005
-8.8310381e-006
1.453584e-005
-4.9011856e-006
1.3546273e-005
-2.7854036e-006
1.2824545e-005
-1.5423172e-006
1.234325e-005
-8.6108421e-007
1.2024159e-005
-4.9435152e-007
1.1803976e-005
-3.0392942e-007
1.164291e-005
-2.0353444e-007
1.1516526e-005
-1.4974757e-007
1.1407118e-005
-1.2240531e-007
1.1299846e-005
-1.14171e-007
1.1180818e-005
-1.2213369e-007
1.1035011e-005
-1.4598013e-007
1.0845604e-005
-1.8835009e-007
1.0591328e-005
-2.5209117e-007
1.024495e-005
-3.4265347e-007
9.7720328e-006
-4.6614157e-007
9.1288412e-006
-6.3132633e-007
8.2572804e-006
-8.4941336e-007
7.0880975e-006
-1.1211494e-006
5.5804428e-006
-1.412499e-006
3.7952805e-006
-1.599952e-006
1.9951067e-006
-1.4726382e-006
5.9796572e-007
-8.823691e-007
-2.1181629e-007
1.3408377e-005
-7.2355738e-006
1.1009692e-005
-2.5025013e-006
9.4733678e-006
-1.2490791e-006
8.5685542e-006
-6.3750364e-007
8.0467451e-006
-3.3927511e-007
7.7377423e-006
-1.853487e-007
7.5421588e-006
-1.0834597e-007
7.408224e-006
-6.9599563e-008
7.3078611e-006
-4.9384736e-008
7.2244714e-006
-3.90156e-008
7.1456387e-006
-3.5338275e-008
7.0604437e-006
-3.6938721e-008
6.9579681e-006
-4.3504536e-008
6.8255602e-006
-5.5942122e-008
6.6481651e-006
-7.4696077e-008
6.4068734e-006
-1.0136179e-007
6.0781908e-006
-1.3745905e-007
5.6323496e-006
-1.8548517e-007
5.0309929e-006
-2.4805662e-007
4.2333855e-006
-3.2354205e-007
3.2228955e-006
-4.0200903e-007
2.0622408e-006
-4.3929729e-007
9.6661025e-007
-3.7700755e-007
2.3993121e-007
-1.5569002e-007
2.8114953e-008
7.7682671e-006
5.2657658e-006
4.0166867e-006
3.379183e-006
3.0399079e-006
2.8545592e-006
2.7462132e-006
2.6766137e-006
2.6272289e-006
2.5882133e-006
2.5528751e-006
2.5159364e-006
2.4724318e-006
2.4164897e-006
2.3417936e-006
2.2404318e-006
2.1029727e-006
1.9174876e-006
1.6694309e-006
1.3458889e-006
9.4387984e-007
5.0458256e-007
1.2757504e-007
-2.8114953e-008
)
;

boundaryField
{
    inlet
    {
        type            calculated;
        value           nonuniform List<scalar> 
20
(
-5.0012803e-006
-5.0012803e-006
-5.0012803e-006
-5.0012803e-006
-5.0012803e-006
-5.0012803e-006
-5.0012803e-006
-5.0012803e-006
-5.0012803e-006
-5.0012803e-006
-1.5003841e-005
-1.5003841e-005
-1.5003841e-005
-1.5003841e-005
-1.5003841e-005
-1.5003841e-005
-1.5003841e-005
-1.5003841e-005
-1.5003841e-005
-1.5003841e-005
)
;
    }
    walls
    {
        type            calculated;
        value           uniform 0;
    }
    outlet
    {
        type            calculated;
        value           nonuniform List<scalar> 10(2.8886305e-005 2.8496376e-005 2.7644933e-005 2.6222353e-005 2.4128519e-005 2.1310495e-005 1.7773404e-005 1.3563115e-005 8.7302824e-006 3.2954292e-006);
    }
    centreline
    {
        type            symmetryPlane;
        value           uniform 0;
    }
    frontAndBack
    {
        type            empty;
        value           nonuniform 0();
    }
}


// ************************************************************************* //
