/*--------------------------------*- C++ -*----------------------------------*\
| =========                 |                                                 |
| \\      /  F ield         | OpenFOAM: The Open Source CFD Toolbox           |
|  \\    /   O peration     | Version:  5.x                                   |
|   \\  /    A nd           | Web:      www.OpenFOAM.org                      |
|    \\/     M anipulation  |                                                 |
\*---------------------------------------------------------------------------*/
/*   Windows 32 and 64 bit porting by blueCAPE: http://www.bluecape.com.pt   *\
|  Based on Windows porting (2.0.x v4) by Symscape: http://www.symscape.com   |
\*---------------------------------------------------------------------------*/
FoamFile
{
    version     2.0;
    format      ascii;
    class       surfaceScalarField;
    location    "0.14";
    object      phi_0;
}
// * * * * * * * * * * * * * * * * * * * * * * * * * * * * * * * * * * * * * //

dimensions      [0 3 -1 0 0 0 0];

internalField   nonuniform List<scalar> 
1430
(
5.1177136e-006
-1.1643332e-007
5.2632914e-006
-1.4557774e-007
5.4045464e-006
-1.41255e-007
5.5237507e-006
-1.1920427e-007
5.622533e-006
-9.8782306e-008
5.7016452e-006
-7.9112219e-008
5.7657908e-006
-6.4145598e-008
5.8191602e-006
-5.3369446e-008
5.8661763e-006
-4.7016112e-008
5.9112356e-006
-4.5059308e-008
5.9591191e-006
-4.7883461e-008
6.0157998e-006
-5.6680672e-008
6.0882794e-006
-7.2479607e-008
6.186166e-006
-9.788665e-008
6.3233348e-006
-1.3716875e-007
6.519255e-006
-1.9592021e-007
6.8041287e-006
-2.8487368e-007
7.2258367e-006
-4.2170802e-007
7.8651328e-006
-6.3929613e-007
8.875291e-006
-1.0101582e-006
1.0454458e-005
-1.5791673e-006
1.2934028e-005
-2.4795697e-006
1.6453937e-005
-3.5199093e-006
2.0964686e-005
-4.5107491e-006
-4.9743688e-006
2.5939055e-005
5.1169538e-006
-2.3210683e-007
5.2652025e-006
-2.938264e-007
5.4052383e-006
-2.8129083e-007
5.5251093e-006
-2.3907529e-007
5.6235708e-006
-1.972438e-007
5.7025638e-006
-1.5810518e-007
5.7664458e-006
-1.2802755e-007
5.8195514e-006
-1.0647508e-007
5.8662661e-006
-9.373082e-008
5.9110297e-006
-8.9822864e-008
5.9585303e-006
-9.5384091e-008
6.0147216e-006
-1.1287199e-007
6.0865913e-006
-1.4434929e-007
6.1835573e-006
-1.9485266e-007
6.3193546e-006
-2.7296605e-007
6.5132996e-006
-3.8986525e-007
6.7948477e-006
-5.6642178e-007
7.2113975e-006
-8.3825787e-007
7.8427792e-006
-1.2706778e-006
8.8356956e-006
-2.0030747e-006
1.0396781e-005
-3.1402526e-006
1.2809394e-005
-4.8921828e-006
1.6284631e-005
-6.9951462e-006
2.0659724e-005
-8.8858426e-006
-9.963556e-006
2.5648911e-005
5.1178808e-006
-3.4870727e-007
5.2668405e-006
-4.4278612e-007
5.4075077e-006
-4.2195812e-007
5.5274446e-006
-3.5901219e-007
5.6257379e-006
-2.9553706e-007
5.7043596e-006
-2.3672688e-007
5.7677592e-006
-1.914272e-007
5.8203368e-006
-1.5905264e-007
5.8664841e-006
-1.3987809e-007
5.9106205e-006
-1.3395929e-007
5.9573868e-006
-1.4215034e-007
6.0126424e-006
-1.6812768e-007
6.0832397e-006
-2.1494657e-007
6.1784172e-006
-2.9003012e-007
6.3115559e-006
-4.061048e-007
6.5014026e-006
-5.7971193e-007
6.7766118e-006
-8.4163099e-007
7.1829608e-006
-1.2446069e-006
7.7975689e-006
-1.8852861e-006
8.7614426e-006
-2.9669483e-006
1.0268353e-005
-4.6471634e-006
1.2591653e-005
-7.2154829e-006
1.5917419e-005
-1.0320912e-005
2.0133672e-005
-1.3102096e-005
-1.4792527e-005
2.4962643e-005
5.1192153e-006
-4.6664226e-007
5.269339e-006
-5.9290983e-007
5.4108903e-006
-5.6350944e-007
5.5309627e-006
-4.790846e-007
5.6289784e-006
-3.9355273e-007
5.7070416e-006
-3.1479017e-007
5.769716e-006
-2.5410157e-007
5.8215033e-006
-2.1083995e-007
5.8668006e-006
-1.8517537e-007
5.9099992e-006
-1.7715786e-007
5.9556691e-006
-1.878203e-007
6.009536e-006
-2.2199458e-007
6.0782536e-006
-2.8366418e-007
6.1707588e-006
-3.8253524e-007
6.299955e-006
-5.3530104e-007
6.4837653e-006
-7.6352227e-007
6.7495683e-006
-1.107434e-006
7.1408904e-006
-1.635929e-006
7.7303181e-006
-2.4747138e-006
8.6496377e-006
-3.886268e-006
1.007774e-005
-6.0752659e-006
1.227027e-005
-9.4080123e-006
1.5379389e-005
-1.3430031e-005
1.934788e-005
-1.7070586e-005
-1.9350811e-005
2.3906164e-005
5.1209928e-006
-5.8635477e-007
5.2726548e-006
-7.4457183e-007
5.4154008e-006
-7.0625543e-007
5.5356514e-006
-5.9933517e-007
5.6332707e-006
-4.9117205e-007
5.7105715e-006
-3.9209099e-007
5.7722736e-006
-3.158037e-007
5.8230054e-006
-2.6157173e-007
5.8671719e-006
-2.2934186e-007
5.9091275e-006
-2.1911342e-007
5.9533487e-006
-2.3204151e-007
6.0053879e-006
-2.7403377e-007
6.0716448e-006
-3.4992116e-007
6.1606407e-006
-4.7153113e-007
6.2846784e-006
-6.5933868e-007
6.4606226e-006
-9.3946654e-007
6.7141168e-006
-1.3609281e-006
7.0857836e-006
-2.0075959e-006
7.6418106e-006
-3.0307408e-006
8.5039345e-006
-4.748392e-006
9.8290768e-006
-7.4004081e-006
1.184922e-005
-1.1428155e-005
1.4674133e-005
-1.6254945e-005
1.8309875e-005
-2.0706328e-005
-2.3533221e-005
2.2492285e-005
5.1232448e-006
-7.0831929e-007
5.2767823e-006
-8.9810927e-007
5.4210578e-006
-8.50531e-007
5.5415304e-006
-7.1980775e-007
5.6386096e-006
-5.8825126e-007
5.7149332e-006
-4.684146e-007
5.7754099e-006
-3.7628044e-007
5.8248188e-006
-3.1098057e-007
5.8675731e-006
-2.7209616e-007
5.9079881e-006
-2.5952843e-007
5.9504274e-006
-2.7448081e-007
6.0002112e-006
-3.2381757e-007
6.0634446e-006
-4.1315456e-007
6.1481275e-006
-5.5621405e-007
6.265851e-006
-7.7706211e-007
6.4322181e-006
-1.1058337e-006
6.6707194e-006
-1.5994295e-006
7.0185212e-006
-2.3553977e-006
7.5341204e-006
-3.54634e-006
8.3265954e-006
-5.5408671e-006
9.525627e-006
-8.5994397e-006
1.1335184e-005
-1.3237712e-005
1.3811924e-005
-1.8731685e-005
1.7035427e-005
-2.392983e-005
-2.725858e-005
2.0760786e-005
5.1260069e-006
-8.3304588e-007
5.2817393e-006
-1.0538417e-006
5.427907e-006
-9.9669872e-007
5.5486545e-006
-8.4055527e-007
5.6450234e-006
-6.8462015e-007
5.7201412e-006
-5.4353238e-007
5.7791267e-006
-4.3526591e-007
5.8269436e-006
-3.5879749e-007
5.8680084e-006
-3.1316099e-007
5.9065912e-006
-2.9811122e-007
5.9469313e-006
-3.1482086e-007
5.9940496e-006
-3.7093588e-007
6.0537125e-006
-4.7281747e-007
6.133339e-006
-6.3584054e-007
6.2436722e-006
-8.8739539e-007
6.3988996e-006
-1.2610611e-006
6.6200554e-006
-1.8205853e-006
6.9401198e-006
-2.6754622e-006
7.4090292e-006
-4.0152494e-006
8.120334e-006
-6.2521719e-006
9.1727341e-006
-9.6518398e-006
1.073681e-005
-1.4801789e-005
1.2797645e-005
-2.079252e-005
1.5563248e-005
-2.6695433e-005
-3.0345851e-005
1.8650519e-005
5.1293757e-006
-9.6114126e-007
5.2876078e-006
-1.2120738e-006
5.4360708e-006
-1.1451617e-006
5.5571392e-006
-9.6162376e-007
5.6526089e-006
-7.8008984e-007
5.7262616e-006
-6.1718506e-007
5.783471e-006
-4.9247534e-007
5.8294233e-006
-4.0474978e-007
5.8685384e-006
-3.5227602e-007
5.9050064e-006
-3.3457929e-007
5.9429269e-006
-3.527413e-007
5.9869981e-006
-4.1500706e-007
6.0425922e-006
-5.2841158e-007
6.1164994e-006
-7.0974774e-007
6.2184349e-006
-9.8933088e-007
6.3611481e-006
-1.4037743e-006
6.5629839e-006
-2.0224211e-006
6.851981e-006
-2.9644593e-006
7.2693449e-006
-4.4326134e-006
7.8896888e-006
-6.8725158e-006
8.7770915e-006
-1.0539243e-005
1.0064058e-005
-1.6088755e-005
1.166897e-005
-2.2397432e-005
1.3941356e-005
-2.8967819e-005
-3.2452516e-005
1.6048021e-005
5.1335577e-006
-1.0934186e-006
5.2945527e-006
-1.3730688e-006
5.445773e-006
-1.2963821e-006
5.5671826e-006
-1.0830334e-006
5.661542e-006
-8.7444923e-007
5.7334221e-006
-6.890651e-007
5.7885556e-006
-5.4760887e-007
5.8323691e-006
-4.4856323e-007
5.8692739e-006
-3.891809e-007
5.9033605e-006
-3.6866585e-007
5.9385707e-006
-3.879515e-007
5.9792555e-006
-4.5569186e-007
6.0303147e-006
-5.7947072e-007
6.0979105e-006
-7.7734358e-007
6.190597e-006
-1.0820174e-006
6.3196026e-006
-1.5327799e-006
6.5004159e-006
-2.2032345e-006
6.7557651e-006
-3.2198084e-006
7.1173033e-006
-4.7941517e-006
7.6396193e-006
-7.3948318e-006
8.3480436e-006
-1.1247667e-005
9.3343611e-006
-1.7075073e-005
1.0444388e-005
-2.3507458e-005
1.21743e-005
-3.0697731e-005
-3.3193928e-005
1.2915711e-005
5.1380034e-006
-1.2301417e-006
5.3035548e-006
-1.5386201e-006
5.4572141e-006
-1.4500414e-006
5.579157e-006
-1.2049762e-006
5.672072e-006
-9.6736424e-007
5.7418334e-006
-7.5882651e-007
5.7945789e-006
-6.0035437e-007
5.8359743e-006
-4.8995867e-007
5.8704017e-006
-4.2360829e-007
5.9018744e-006
-4.0013851e-007
5.9341104e-006
-4.2018751e-007
5.9710839e-006
-4.9266536e-007
6.0171959e-006
-6.2558267e-007
6.0779532e-006
-8.3810085e-007
6.1607031e-006
-1.1647673e-006
6.2748981e-006
-1.6469749e-006
6.4331192e-006
-2.3614557e-006
6.6531994e-006
-3.4398886e-006
6.955774e-006
-5.0967263e-006
7.3746997e-006
-7.8137574e-006
7.9051018e-006
-1.1778069e-005
8.5579414e-006
-1.7727912e-005
9.1247577e-006
-2.4074274e-005
9.9783165e-006
-3.155129e-005
8.7271149e-006
-3.1942726e-005
2.8518461e-005
-2.5794061e-006
2.9238573e-005
-7.2011208e-007
2.9171401e-005
6.7172109e-008
2.8996689e-005
1.7471202e-007
2.8900783e-005
9.5906026e-008
2.8874005e-005
2.6778026e-008
2.8881144e-005
-7.138664e-009
2.8888363e-005
-7.2195857e-009
2.8889871e-005
-1.5074245e-009
2.8889025e-005
8.4541003e-010
2.8888431e-005
5.9420522e-010
2.8888349e-005
8.266522e-011
2.8888426e-005
-7.7611647e-011
2.8888466e-005
-4.0281941e-011
2.888847e-005
-3.458116e-012
2.8888467e-005
3.2991759e-012
2.8888465e-005
1.3254527e-012
2.8888465e-005
4.487847e-014
2.8888465e-005
-1.1346377e-013
2.8888465e-005
1.3228184e-013
2.8888465e-005
6.1118751e-014
2.8888465e-005
2.9528737e-013
2.8888465e-005
-1.1800933e-013
2.8888473e-005
-7.8772676e-012
-8.0668703e-012
2.8024976e-005
-4.9554709e-006
2.8760965e-005
-1.4561011e-006
2.8724575e-005
1.0356239e-007
2.8590448e-005
3.0883918e-007
2.8505836e-005
1.8051801e-007
2.8487759e-005
4.4854479e-008
2.8493913e-005
-1.3292276e-008
2.8499361e-005
-1.266718e-008
2.8500043e-005
-2.1902008e-009
2.8499229e-005
1.6596831e-009
2.8498762e-005
1.0611286e-009
2.8498739e-005
1.0596916e-010
2.8498812e-005
-1.5058816e-010
2.8498844e-005
-7.1884672e-011
2.8498845e-005
-4.8632593e-012
2.8498842e-005
6.1794766e-012
2.8498841e-005
2.1247622e-012
2.8498841e-005
-2.4559646e-014
2.8498841e-005
-1.8866435e-013
2.8498841e-005
2.4282159e-013
2.8498841e-005
2.7004648e-013
2.8498841e-005
3.965079e-013
2.8498841e-005
-4.5803311e-013
2.8498847e-005
-1.3298977e-011
-1.3922068e-011
2.7082836e-005
-7.0756636e-006
2.7763869e-005
-2.137134e-006
2.7785264e-005
8.2166996e-008
2.7695763e-005
3.983405e-007
2.7645972e-005
2.3030898e-007
2.7642324e-005
4.8501679e-008
2.7646884e-005
-1.7851574e-008
2.7648914e-005
-1.4697259e-008
2.7648466e-005
-1.7419793e-009
2.7647766e-005
2.3591972e-009
2.7647548e-005
1.2793541e-009
2.76476e-005
5.381257e-011
2.7647659e-005
-2.0950334e-010
2.7647675e-005
-8.7790319e-011
2.7647673e-005
-3.2516404e-012
2.7647671e-005
8.1739097e-012
2.7647671e-005
2.2269874e-012
2.7647671e-005
-2.6469201e-013
2.7647671e-005
-2.3010064e-013
2.7647672e-005
2.0506665e-013
2.7647671e-005
3.9382415e-013
2.7647671e-005
5.9376216e-013
2.7647671e-005
-5.9169228e-013
2.7647673e-005
-1.4979918e-011
-1.5871088e-011
2.5668506e-005
-8.838005e-006
2.621608e-005
-2.6847083e-006
2.6243863e-005
5.4384457e-008
2.6219359e-005
4.2284437e-007
2.6218557e-005
2.3111088e-007
2.6226608e-005
4.0450373e-008
2.6227831e-005
-1.9074162e-008
2.6226402e-005
-1.3268877e-008
2.6225093e-005
-4.3236559e-010
2.6224681e-005
2.7711717e-009
2.6224737e-005
1.2232251e-009
2.6224839e-005
-4.8214997e-011
2.6224869e-005
-2.3979567e-010
2.6224867e-005
-8.5916906e-011
2.6224864e-005
5.8210916e-013
2.6224863e-005
8.8441163e-012
2.6224863e-005
1.73566e-012
2.6224864e-005
-5.222295e-013
2.6224864e-005
-1.5273555e-013
2.6224864e-005
4.2062255e-014
2.6224864e-005
1.9777431e-013
2.6224864e-005
8.2750541e-013
2.6224863e-005
-5.8051574e-014
2.6224861e-005
-1.2823762e-011
-1.4117149e-011
2.3744691e-005
-1.0090411e-005
2.4018291e-005
-2.9583079e-006
2.4032351e-005
4.0324492e-008
2.4086462e-005
3.6873276e-007
2.4124577e-005
1.9299561e-007
2.4137191e-005
2.7836302e-008
2.4134784e-005
-1.6666499e-008
2.4131096e-005
-9.5810943e-009
2.412962e-005
1.0439909e-009
2.4129648e-005
2.7427613e-009
2.4129922e-005
9.488775e-010
2.4130024e-005
-1.5007323e-010
2.4130017e-005
-2.3248441e-010
2.4130001e-005
-6.9613686e-011
2.4129997e-005
4.7543556e-012
2.4129997e-005
8.0970548e-012
2.4129998e-005
8.9669297e-013
2.4129998e-005
-6.7564751e-013
2.4129998e-005
-5.0805825e-014
2.4129998e-005
-7.5932268e-014
2.4129999e-005
-1.3669476e-014
2.4129999e-005
8.0787075e-013
2.4129998e-005
8.8242287e-013
2.4129993e-005
-8.2211093e-012
-1.0145675e-011
2.1245121e-005
-1.0574746e-005
2.112406e-005
-2.8372466e-006
2.1148281e-005
1.6103999e-008
2.1253753e-005
2.6326037e-007
2.1307444e-005
1.3930415e-007
2.131925e-005
1.6031015e-008
2.1314525e-005
-1.1941971e-008
2.1310317e-005
-5.3725553e-009
2.1309387e-005
1.9733017e-009
2.1309876e-005
2.2541739e-009
2.1310245e-005
5.7965637e-010
2.1310299e-005
-2.0414313e-010
2.1310257e-005
-1.8984919e-010
2.1310233e-005
-4.6177825e-011
2.1310231e-005
7.2846788e-012
2.1310232e-005
6.240989e-012
2.1310233e-005
1.6691636e-013
2.1310233e-005
-6.5865256e-013
2.1310233e-005
-3.542938e-014
2.1310233e-005
-1.6083784e-013
2.1310233e-005
-9.5287776e-014
2.1310233e-005
7.4590802e-013
2.1310233e-005
1.7282909e-012
2.1310228e-005
-3.3503121e-012
-5.7362264e-012
1.8088219e-005
-1.0012446e-005
1.7581874e-005
-2.3309013e-006
1.760805e-005
-1.007235e-008
1.7718451e-005
1.5285939e-007
1.7770131e-005
8.762446e-008
1.7778629e-005
7.5327994e-009
1.7773477e-005
-6.789751e-009
1.7770219e-005
-2.1144549e-009
1.7770202e-005
1.9898771e-009
1.7770988e-005
1.4681185e-009
1.7771316e-005
2.5163379e-010
1.7771302e-005
-1.8960177e-010
1.7771238e-005
-1.2606896e-010
1.7771215e-005
-2.3777745e-011
1.7771215e-005
7.1665074e-012
1.7771218e-005
3.9084819e-012
1.7771218e-005
-2.3142425e-013
1.7771218e-005
-4.678738e-013
1.7771218e-005
-2.2905935e-014
1.7771218e-005
-2.1314169e-013
1.7771218e-005
-1.1420789e-013
1.7771218e-005
6.5826933e-013
1.7771218e-005
2.0928086e-012
1.7771214e-005
1.591226e-013
-2.228932e-012
1.4196791e-005
-8.1612163e-006
1.3424454e-005
-1.5585648e-006
1.3433461e-005
-1.9078679e-008
1.3517009e-005
6.9311043e-008
1.3558864e-005
4.5770045e-008
1.3563756e-005
2.6401149e-009
1.3559714e-005
-2.7479462e-009
1.3558032e-005
-4.3182061e-010
1.3558751e-005
1.2702847e-009
1.3559544e-005
6.7574032e-010
1.3559745e-005
5.0227488e-011
1.3559678e-005
-1.2241414e-010
1.3559614e-005
-6.1926117e-011
1.3559598e-005
-8.1556084e-012
1.3559601e-005
4.8144957e-012
1.3559603e-005
1.8087838e-012
1.3559603e-005
-2.8157252e-013
1.3559602e-005
-2.3290617e-013
1.3559602e-005
5.595121e-015
1.3559602e-005
-1.7772027e-013
1.3559602e-005
-1.0527433e-013
1.3559603e-005
4.6301569e-013
1.3559603e-005
1.790959e-012
1.3559602e-005
1.6220831e-012
-2.1880411e-013
9.5593587e-006
-4.8048637e-006
8.660496e-006
-6.5970211e-007
8.6442152e-006
-2.797846e-009
8.6960492e-006
1.747703e-008
8.7257665e-006
1.6052832e-008
8.7281234e-006
2.8321927e-010
8.7258196e-006
-4.4420059e-010
8.7254079e-006
-2.0105875e-011
8.7262737e-006
4.044886e-010
8.7268104e-006
1.3910408e-010
8.7268748e-006
-1.4216798e-011
8.7267953e-006
-4.288995e-011
8.7267494e-006
-1.604478e-011
8.7267422e-006
-9.7215879e-013
8.7267453e-006
1.7474616e-012
8.7267467e-006
4.3297035e-013
8.7267465e-006
-1.3064936e-013
8.7267463e-006
-5.8686006e-014
8.7267463e-006
1.3846645e-014
8.7267462e-006
-7.9471139e-014
8.7267462e-006
-5.2912662e-014
8.7267465e-006
1.860662e-013
8.7267475e-006
8.648221e-013
8.7267479e-006
1.1771662e-012
2.9830793e-013
3.9222513e-006
3.2625491e-006
3.2597513e-006
3.2772283e-006
3.2932812e-006
3.2935644e-006
3.2931202e-006
3.2931001e-006
3.2935046e-006
3.2936437e-006
3.2936295e-006
3.2935866e-006
3.2935706e-006
3.2935696e-006
3.2935713e-006
3.2935718e-006
3.2935716e-006
3.2935716e-006
3.2935716e-006
3.2935715e-006
3.2935715e-006
3.2935717e-006
3.2935725e-006
3.2935737e-006
1.5431674e-005
-1.6579743e-006
1.5988771e-005
-2.0957172e-006
1.6455346e-005
-1.9166164e-006
1.6823366e-005
-1.5729963e-006
1.7091747e-005
-1.2357451e-006
1.7285755e-005
-9.5283501e-007
1.7427601e-005
-7.4219981e-007
1.7535482e-005
-5.9784007e-007
1.7622252e-005
-5.1037798e-007
1.7699649e-005
-4.7753533e-007
1.7777026e-005
-4.9756534e-007
1.7863635e-005
-5.7927383e-007
1.7970394e-005
-7.3234179e-007
1.810876e-005
-9.764669e-007
1.8293062e-005
-1.3490693e-006
1.8542904e-005
-1.8968172e-006
1.8875124e-005
-2.693675e-006
1.9315307e-005
-3.8800717e-006
1.9872598e-005
-5.6540175e-006
2.0506267e-005
-8.4474264e-006
2.1146156e-005
-1.2417958e-005
2.1134257e-005
-1.7716014e-005
1.967219e-005
-2.2612207e-005
1.4547302e-005
-2.6426402e-005
-1.7395424e-005
1.5522508e-005
-2.1766416e-006
1.6161593e-005
-2.7348021e-006
1.666745e-005
-2.422473e-006
1.7029468e-005
-1.9350144e-006
1.7271589e-005
-1.477867e-006
1.7431546e-005
-1.1127912e-006
1.7538995e-005
-8.4964951e-007
1.7614378e-005
-6.7322306e-007
1.7670171e-005
-5.6617097e-007
1.7715857e-005
-5.2322054e-007
1.7758382e-005
-5.4009096e-007
1.780282e-005
-6.237117e-007
1.7854633e-005
-7.8415425e-007
1.7918553e-005
-1.0403871e-006
1.7997733e-005
-1.4282495e-006
1.8096181e-005
-1.995265e-006
1.8208453e-005
-2.8059472e-006
1.8320047e-005
-3.9916658e-006
1.8383406e-005
-5.7173769e-006
1.8262285e-005
-8.3263054e-006
1.7739951e-005
-1.1895624e-005
1.6209284e-005
-1.6185346e-005
1.3066139e-005
-1.9469063e-005
6.8382278e-006
-2.019849e-005
-1.0557196e-005
1.5689017e-005
-2.8618179e-006
1.6449395e-005
-3.4951795e-006
1.699301e-005
-2.9660884e-006
1.7334763e-005
-2.2767672e-006
1.7531762e-005
-1.6748659e-006
1.7642055e-005
-1.2230846e-006
1.770371e-005
-9.1130422e-007
1.7738559e-005
-7.0807267e-007
1.7757689e-005
-5.8530044e-007
1.7767237e-005
-5.3276856e-007
1.777109e-005
-5.4394372e-007
1.7770166e-005
-6.2278813e-007
1.7764174e-005
-7.7816175e-007
1.7750801e-005
-1.0270149e-006
1.772321e-005
-1.4006581e-006
1.7672157e-005
-1.9442118e-006
1.7576403e-005
-2.7101932e-006
1.7392016e-005
-3.8072795e-006
1.7040061e-005
-5.3654216e-006
1.6330085e-005
-7.6163298e-006
1.500725e-005
-1.0572788e-005
1.2610818e-005
-1.3788915e-005
8.8918719e-006
-1.5750116e-005
3.5340978e-006
-1.4840716e-005
-7.0230986e-006
1.5960634e-005
-3.8186114e-006
1.6849668e-005
-4.3842126e-006
1.7396666e-005
-3.5130873e-006
1.7681371e-005
-2.5614721e-006
1.7804997e-005
-1.7984918e-006
1.7846351e-005
-1.2644382e-006
1.7850179e-005
-9.1513273e-007
1.7837091e-005
-6.9498404e-007
1.7815377e-005
-5.6358708e-007
1.7786996e-005
-5.0438683e-007
1.775168e-005
-5.0862846e-007
1.7705193e-005
-5.7630107e-007
1.7642172e-005
-7.1514053e-007
1.7554273e-005
-9.3911577e-007
1.7427155e-005
-1.2735406e-006
1.7238793e-005
-1.7558491e-006
1.6958228e-005
-2.4296288e-006
1.6523582e-005
-3.3726331e-006
1.5842871e-005
-4.6847107e-006
1.473148e-005
-6.504939e-006
1.2955282e-005
-8.7965911e-006
1.0234688e-005
-1.1068321e-005
6.5851427e-006
-1.210057e-005
2.2844151e-006
-1.0539989e-005
-4.7386835e-006
1.6304659e-005
-5.1194298e-006
1.7226168e-005
-5.305721e-006
1.7674514e-005
-3.9614331e-006
1.7832904e-005
-2.7198628e-006
1.7844648e-005
-1.8102356e-006
1.7796828e-005
-1.2166185e-006
1.7733021e-005
-8.5132523e-007
1.7668051e-005
-6.3001402e-007
1.7604817e-005
-5.0035294e-007
1.7539872e-005
-4.3944186e-007
1.7467692e-005
-4.3644906e-007
1.7379908e-005
-4.885164e-007
1.7267013e-005
-6.0224553e-007
1.711456e-005
-7.8666353e-007
1.6902898e-005
-1.0618781e-006
1.6601997e-005
-1.4549485e-006
1.6172981e-005
-2.0006128e-006
1.5549908e-005
-2.7495599e-006
1.4637747e-005
-3.7725501e-006
1.327574e-005
-5.1429321e-006
1.1276636e-005
-6.7974868e-006
8.5038055e-006
-8.2954901e-006
5.112068e-006
-8.7088328e-006
1.6820767e-006
-7.1099973e-006
-3.0566068e-006
1.6567274e-005
-6.6828628e-006
1.7260111e-005
-5.998558e-006
1.7422812e-005
-4.124134e-006
1.7355071e-005
-2.6521221e-006
1.7212386e-005
-1.6675504e-006
1.7061052e-005
-1.0652844e-006
1.6926705e-005
-7.1697866e-007
1.6812273e-005
-5.1558177e-007
1.6712225e-005
-4.0030487e-007
1.6616893e-005
-3.4411026e-007
1.6516103e-005
-3.3565915e-007
1.6398506e-005
-3.7091851e-007
1.6249817e-005
-4.5355676e-007
1.6052601e-005
-5.8944788e-007
1.5783207e-005
-7.924843e-007
1.5409411e-005
-1.0811519e-006
1.4887564e-005
-1.478766e-006
1.4155055e-005
-2.0170511e-006
1.3123951e-005
-2.7414457e-006
1.1666228e-005
-3.6852095e-006
9.6436231e-006
-4.7748818e-006
7.0207126e-006
-5.6725795e-006
4.0371676e-006
-5.7252878e-006
1.294913e-006
-4.3677426e-006
-1.7616938e-006
1.6489015e-005
-8.1680368e-006
1.6517118e-005
-6.026661e-006
1.6166136e-005
-3.7731523e-006
1.577641e-005
-2.2623958e-006
1.5450048e-005
-1.3411889e-006
1.5197589e-005
-8.1282514e-007
1.5004486e-005
-5.23876e-007
1.4853453e-005
-3.6454834e-007
1.4729301e-005
-2.7615239e-007
1.4617062e-005
-2.318719e-007
1.450293e-005
-2.2152746e-007
1.4373283e-005
-2.4127138e-007
1.4211649e-005
-2.919222e-007
1.4000125e-005
-3.7792399e-007
1.3714211e-005
-5.0657062e-007
1.3322334e-005
-6.8927512e-007
1.2782906e-005
-9.3933801e-007
1.2040665e-005
-1.2748093e-006
1.1020463e-005
-1.7212446e-006
9.6259196e-006
-2.2906657e-006
7.7719454e-006
-2.9209076e-006
5.4861256e-006
-3.3867597e-006
3.0361032e-006
-3.2752653e-006
9.5023339e-007
-2.2818727e-006
-8.1146039e-007
1.5665096e-005
-8.8292921e-006
1.4539146e-005
-4.9007109e-006
1.3550695e-005
-2.784701e-006
1.2829853e-005
-1.5415539e-006
1.2349153e-005
-8.6048896e-007
1.2030385e-005
-4.9405704e-007
1.1810357e-005
-3.0384846e-007
1.1649362e-005
-2.0355318e-007
1.1523007e-005
-1.49797e-007
1.1413598e-005
-1.2246351e-007
1.1306306e-005
-1.1423459e-007
1.1187239e-005
-1.2220452e-007
1.1041377e-005
-1.4606008e-007
1.0851897e-005
-1.8844405e-007
1.059753e-005
-2.5220386e-007
1.0251042e-005
-3.4278685e-007
9.7779965e-006
-4.6629301e-007
9.1346661e-006
-6.3147902e-007
8.2629598e-006
-8.4953832e-007
7.0935867e-006
-1.1212926e-006
5.585529e-006
-1.4128499e-006
3.7994731e-006
-1.6007038e-006
1.9978366e-006
-1.4736287e-006
5.9908974e-007
-8.8312589e-007
-2.1237062e-007
1.340967e-005
-7.2351209e-006
1.1011496e-005
-2.5025372e-006
9.475775e-006
-1.2489799e-006
8.5715471e-006
-6.3732596e-007
8.0501683e-006
-3.3911014e-007
7.7413819e-006
-1.8527065e-007
7.5458697e-006
-1.0833632e-007
7.4119414e-006
-6.9624817e-008
7.3115621e-006
-4.9417719e-008
7.2281457e-006
-3.9047132e-008
7.1492789e-006
-3.5367768e-008
7.0640425e-006
-3.6968117e-008
6.9615176e-006
-4.3535242e-008
6.8290502e-006
-5.5976598e-008
6.6515826e-006
-7.4736321e-008
6.4102045e-006
-1.0140874e-007
6.0814236e-006
-1.3751218e-007
5.6354808e-006
-1.8553617e-007
5.0340325e-006
-2.4809008e-007
4.2363115e-006
-3.2357161e-007
3.2255486e-006
-4.0208703e-007
2.0643104e-006
-4.3946557e-007
9.6786027e-007
-3.7717857e-007
2.4044303e-007
-1.557086e-007
2.807244e-008
7.76872e-006
5.2661828e-006
4.0172029e-006
3.3798769e-006
3.0407668e-006
2.8554961e-006
2.7471598e-006
2.677535e-006
2.6281173e-006
2.5890702e-006
2.5537024e-006
2.5167343e-006
2.473199e-006
2.4172224e-006
2.3424861e-006
2.2410773e-006
2.1035652e-006
1.918029e-006
1.6699389e-006
1.3463673e-006
9.4428024e-007
5.0481469e-007
1.2763614e-007
-2.807244e-008
)
;

boundaryField
{
    inlet
    {
        type            calculated;
        value           nonuniform List<scalar> 
20
(
-5.0012803e-006
-5.0012803e-006
-5.0012803e-006
-5.0012803e-006
-5.0012803e-006
-5.0012803e-006
-5.0012803e-006
-5.0012803e-006
-5.0012803e-006
-5.0012803e-006
-1.5003841e-005
-1.5003841e-005
-1.5003841e-005
-1.5003841e-005
-1.5003841e-005
-1.5003841e-005
-1.5003841e-005
-1.5003841e-005
-1.5003841e-005
-1.5003841e-005
)
;
    }
    walls
    {
        type            calculated;
        value           uniform 0;
    }
    outlet
    {
        type            calculated;
        value           nonuniform List<scalar> 10(2.8888481e-005 2.8498853e-005 2.7647675e-005 2.6224859e-005 2.4129989e-005 2.1310223e-005 1.7771211e-005 1.35596e-005 8.7267474e-006 3.293574e-006);
    }
    centreline
    {
        type            symmetryPlane;
        value           uniform 0;
    }
    frontAndBack
    {
        type            empty;
        value           nonuniform 0();
    }
}


// ************************************************************************* //
