/*--------------------------------*- C++ -*----------------------------------*\
| =========                 |                                                 |
| \\      /  F ield         | OpenFOAM: The Open Source CFD Toolbox           |
|  \\    /   O peration     | Version:  5.x                                   |
|   \\  /    A nd           | Web:      www.OpenFOAM.org                      |
|    \\/     M anipulation  |                                                 |
\*---------------------------------------------------------------------------*/
/*   Windows 32 and 64 bit porting by blueCAPE: http://www.bluecape.com.pt   *\
|  Based on Windows porting (2.0.x v4) by Symscape: http://www.symscape.com   |
\*---------------------------------------------------------------------------*/
FoamFile
{
    version     2.0;
    format      ascii;
    class       volSymmTensorField;
    location    "0.14";
    object      sigma;
}
// * * * * * * * * * * * * * * * * * * * * * * * * * * * * * * * * * * * * * //

dimensions      [0 2 -2 0 0 0 0];

internalField   nonuniform List<symmTensor> 
750
(
(-0.00027510236 1.8749714e-005 0 0.0002705859 0 0)
(-0.00035512895 1.7078463e-006 0 0.0003574423 0 0)
(-0.00035101012 -3.984389e-006 0 0.00034464135 0 0)
(-0.00029437183 -5.9728607e-006 0 0.00029324721 0 0)
(-0.00024357764 -5.63131e-006 0 0.00024197994 0 0)
(-0.0001998313 -4.9099423e-006 0 0.00019876292 0 0)
(-0.00016547831 -3.7811753e-006 0 0.00016490453 0 0)
(-0.00014039194 -2.4377629e-006 0 0.00013984962 0 0)
(-0.00012725935 -1.1503114e-006 0 0.00012682798 0 0)
(-0.00012486754 4.7303317e-007 0 0.00012450964 0 0)
(-0.0001358786 2.2609468e-006 0 0.00013539678 0 0)
(-0.00016062085 4.3576853e-006 0 0.00015984495 0 0)
(-0.00020979133 7.4451448e-006 0 0.00020871834 0 0)
(-0.00028081887 1.1434235e-005 0 0.0002786724 0 0)
(-0.00039009499 1.7110926e-005 0 0.00038576637 0 0)
(-0.00056107944 2.6224029e-005 0 0.00055313647 0 0)
(-0.00080618938 3.9393675e-005 0 0.0007883181 0 0)
(-0.0011888729 6.0737946e-005 0 0.001151666 0 0)
(-0.0017943939 9.8813676e-005 0 0.0017152338 0 0)
(-0.0027746295 0.00015507485 0 0.0025715829 0 0)
(-0.0044504742 0.00025974168 0 0.0040198387 0 0)
(-0.0071678267 0.00040294413 0 0.005964868 0 0)
(-0.011016503 0.00056551627 0 0.0086604598 0 0)
(-0.015408194 0.00084486799 0 0.010717618 0 0)
(-0.019300352 0.00060910836 0 0.012621429 0 0)
(-0.00027633756 5.6363142e-005 0 0.00027019346 0 0)
(-0.00035548841 5.3022427e-006 0 0.00036066292 0 0)
(-0.00035195609 -1.2154222e-005 0 0.00034389596 0 0)
(-0.00029464692 -1.7707605e-005 0 0.0002940441 0 0)
(-0.00024337582 -1.6834585e-005 0 0.00024164982 0 0)
(-0.0001994169 -1.453041e-005 0 0.00019828239 0 0)
(-0.000164851 -1.1156715e-005 0 0.00016422942 0 0)
(-0.00013977995 -7.1161232e-006 0 0.00013916347 0 0)
(-0.00012653016 -3.2303588e-006 0 0.00012602461 0 0)
(-0.00012402444 1.6271883e-006 0 0.00012361498 0 0)
(-0.00013484174 6.9543505e-006 0 0.00013427419 0 0)
(-0.00015930516 1.3255551e-005 0 0.00015842097 0 0)
(-0.00020815013 2.2497094e-005 0 0.00020697068 0 0)
(-0.00027821002 3.4311021e-005 0 0.00027587357 0 0)
(-0.00038630662 5.1306188e-005 0 0.00038166827 0 0)
(-0.00055580917 7.8372309e-005 0 0.00054746189 0 0)
(-0.00079702561 0.00011720639 0 0.00077836178 0 0)
(-0.0011749255 0.00018073217 0 0.0011366283 0 0)
(-0.0017726703 0.00029205241 0 0.0016921967 0 0)
(-0.0027326902 0.00045101749 0 0.0025253045 0 0)
(-0.004392525 0.00078810828 0 0.0039616998 0 0)
(-0.0070197755 0.0011561731 0 0.0058016594 0 0)
(-0.01083313 0.0016989206 0 0.0085199988 0 0)
(-0.0151282 0.0025360659 0 0.010364909 0 0)
(-0.018823819 0.0018358574 0 0.01244277 0 0)
(-0.00027794867 9.4314713e-005 0 0.00027105833 0 0)
(-0.0003571482 8.6938679e-006 0 0.00036324657 0 0)
(-0.00035352831 -2.063628e-005 0 0.00034482956 0 0)
(-0.00029521019 -2.9502361e-005 0 0.00029471363 0 0)
(-0.00024305241 -2.8167192e-005 0 0.00024129142 0 0)
(-0.00019857372 -2.4120073e-005 0 0.00019745268 0 0)
(-0.00016367786 -1.8513192e-005 0 0.00016309967 0 0)
(-0.00013845228 -1.1741767e-005 0 0.00013787142 0 0)
(-0.00012506804 -5.2650344e-006 0 0.00012460408 0 0)
(-0.00012234425 2.8201891e-006 0 0.00012198993 0 0)
(-0.0001328464 1.1632267e-005 0 0.00013233037 0 0)
(-0.00015672764 2.2099058e-005 0 0.00015592276 0 0)
(-0.00020469131 3.739962e-005 0 0.00020362779 0 0)
(-0.00027324567 5.6858228e-005 0 0.00027103547 0 0)
(-0.0003789689 8.5047804e-005 0 0.00037451461 0 0)
(-0.00054492152 0.00012954771 0 0.00053691138 0 0)
(-0.00077955122 0.00019343813 0 0.00076136742 0 0)
(-0.0011473598 0.00029814838 0 0.0011099719 0 0)
(-0.0017280837 0.00047948777 0 0.0016490004 0 0)
(-0.0026522698 0.00075924471 0 0.0024460186 0 0)
(-0.0042652229 0.0012717683 0 0.0038414283 0 0)
(-0.0067799813 0.0019063923 0 0.0055734517 0 0)
(-0.010417552 0.002788309 0 0.0081811703 0 0)
(-0.014749815 0.0042401253 0 0.0098416336 0 0)
(-0.017696401 0.0030261169 0 0.011955391 0 0)
(-0.00028025611 0.00013248415 0 0.00027322269 0 0)
(-0.00035991826 1.1776659e-005 0 0.00036583149 0 0)
(-0.00035585311 -2.95002e-005 0 0.00034727098 0 0)
(-0.00029602795 -4.1673046e-005 0 0.00029538305 0 0)
(-0.00024246532 -3.9738548e-005 0 0.00024074178 0 0)
(-0.0001973203 -3.386673e-005 0 0.00019617913 0 0)
(-0.00016198866 -2.6001359e-005 0 0.0001614244 0 0)
(-0.00013644748 -1.6469349e-005 0 0.00013587494 0 0)
(-0.00012287621 -7.411898e-006 0 0.00012242702 0 0)
(-0.00011983148 3.8932443e-006 0 0.00011948824 0 0)
(-0.0001298378 1.6104818e-005 0 0.00012934152 0 0)
(-0.00015290502 3.064331e-005 0 0.0001521142 0 0)
(-0.00019945757 5.1881729e-005 0 0.00019840377 0 0)
(-0.00026594682 7.8824148e-005 0 0.00026375529 0 0)
(-0.00036812541 0.00011791019 0 0.00036370525 0 0)
(-0.00052826276 0.00017931848 0 0.00052033085 0 0)
(-0.00075381082 0.00026755973 0 0.00073573683 0 0)
(-0.0011057889 0.00041249875 0 0.0010686059 0 0)
(-0.0016588751 0.00066231812 0 0.001580306 0 0)
(-0.0025454826 0.0010351993 0 0.0023406651 0 0)
(-0.0040615426 0.0017519641 0 0.0036393728 0 0)
(-0.0064357596 0.0026543332 0 0.0052361589 0 0)
(-0.0097735882 0.003890356 0 0.0076208141 0 0)
(-0.014321885 0.0056206472 0 0.0092525763 0 0)
(-0.016415417 0.0041203584 0 0.011292897 0 0)
(-0.00028348432 0.00017079318 0 0.00027617341 0 0)
(-0.00036362678 1.4577057e-005 0 0.00036934585 0 0)
(-0.00035889918 -3.8614701e-005 0 0.00035041368 0 0)
(-0.00029706752 -5.4202999e-005 0 0.00029623986 0 0)
(-0.00024160808 -5.1463082e-005 0 0.00023994267 0 0)
(-0.00019559117 -4.3647991e-005 0 0.00019441903 0 0)
(-0.00015973021 -3.3461465e-005 0 0.00015917478 0 0)
(-0.00013374931 -2.1092323e-005 0 0.00013319059 0 0)
(-0.00011996243 -9.4783762e-006 0 0.00011953054 0 0)
(-0.00011651364 5.0283077e-006 0 0.00011618762 0 0)
(-0.00012588871 2.0546115e-005 0 0.00012542797 0 0)
(-0.00014785949 3.8983972e-005 0 0.00014708846 0 0)
(-0.00019257861 6.6009899e-005 0 0.00019153308 0 0)
(-0.00025635727 0.00010016321 0 0.00025420859 0 0)
(-0.00035381867 0.00014961532 0 0.00034944337 0 0)
(-0.00050647026 0.00022704404 0 0.00049865692 0 0)
(-0.00072036409 0.00033796519 0 0.00070249294 0 0)
(-0.0010522418 0.00051861943 0 0.0010153774 0 0)
(-0.0015695606 0.0008321583 0 0.0014923734 0 0)
(-0.0023965125 0.0013080315 0 0.0021918516 0 0)
(-0.0037791374 0.0022161735 0 0.0033632311 0 0)
(-0.0060066132 0.0033102846 0 0.0048180378 0 0)
(-0.0089477878 0.004915911 0 0.006886661 0 0)
(-0.013475948 0.0071522026 0 0.0083569419 0 0)
(-0.015340053 0.0050825326 0 0.010747112 0 0)
(-0.0002878042 0.00020931793 0 0.00028001463 0 0)
(-0.00036825559 1.7149276e-005 0 0.00037385475 0 0)
(-0.00036271238 -4.818829e-005 0 0.00035425014 0 0)
(-0.00029828736 -6.7235173e-005 0 0.00029726743 0 0)
(-0.00024046961 -6.3457106e-005 0 0.00023885844 0 0)
(-0.00019334373 -5.3530176e-005 0 0.00019214814 0 0)
(-0.0001568576 -4.0914503e-005 0 0.00015631063 0 0)
(-0.00013036295 -2.5645949e-005 0 0.00012982573 0 0)
(-0.00011632006 -1.1480209e-005 0 0.00011590841 0 0)
(-0.00011238727 6.1245046e-006 0 0.00011208859 0 0)
(-0.00012099905 2.4883234e-005 0 0.00012056102 0 0)
(-0.00014175231 4.7144245e-005 0 0.00014100338 0 0)
(-0.00018405211 7.9595938e-005 0 0.00018304467 0 0)
(-0.00024451725 0.00012057379 0 0.0002424416 0 0)
(-0.00033671414 0.00017937669 0 0.00033237822 0 0)
(-0.00047999622 0.00027204509 0 0.00047229359 0 0)
(-0.0006799308 0.00040401817 0 0.00066232021 0 0)
(-0.00098628555 0.00061818206 0 0.00094964488 0 0)
(-0.0014588145 0.00099180315 0 0.0013826907 0 0)
(-0.0022162973 0.0015510988 0 0.0020139845 0 0)
(-0.0034521855 0.0026094444 0 0.0030429222 0 0)
(-0.0054535971 0.003949861 0 0.0042843617 0 0)
(-0.0078979682 0.0058962407 0 0.0059280088 0 0)
(-0.012493197 0.0085236738 0 0.0073128438 0 0)
(-0.012926561 0.0058118923 0 0.0094058602 0 0)
(-0.00029326502 0.00024780296 0 0.00028504399 0 0)
(-0.00037379933 1.9398605e-005 0 0.00037906042 0 0)
(-0.00036731046 -5.8275742e-005 0 0.00035895293 0 0)
(-0.00029966214 -8.091815e-005 0 0.00029841356 0 0)
(-0.000239157 -7.5850706e-005 0 0.00023758174 0 0)
(-0.00019039826 -6.3530248e-005 0 0.00018918504 0 0)
(-0.00015332341 -4.8404259e-005 0 0.00015278129 0 0)
(-0.00012630489 -3.0156701e-005 0 0.00012578558 0 0)
(-0.00011197551 -1.3455049e-005 0 0.00011159484 0 0)
(-0.00010749445 7.1720593e-006 0 0.00010720752 0 0)
(-0.00011523526 2.9097717e-005 0 0.00011480971 0 0)
(-0.00013459247 5.490787e-005 0 0.00013387575 0 0)
(-0.00017400035 9.2433242e-005 0 0.00017304107 0 0)
(-0.00023064172 0.00013985828 0 0.00022859398 0 0)
(-0.00031641059 0.00020775704 0 0.00031206961 0 0)
(-0.0004493843 0.0003139909 0 0.00044171798 0 0)
(-0.00063296004 0.00046470705 0 0.00061557985 0 0)
(-0.00091139955 0.00070713249 0 0.00087546329 0 0)
(-0.0013347756 0.0011305282 0 0.001259961 0 0)
(-0.0020016124 0.0017680963 0 0.0018027159 0 0)
(-0.0030354213 0.0029829371 0 0.0026337172 0 0)
(-0.0048509557 0.0044480534 0 0.0036995169 0 0)
(-0.0066299871 0.0067910857 0 0.0047661119 0 0)
(-0.011558655 0.0094007335 0 0.0063245879 0 0)
(-0.0094281923 0.0070414462 0 0.0067046743 0 0)
(-0.00030012915 0.00028693736 0 0.00029166222 0 0)
(-0.0003800349 2.1160106e-005 0 0.00038470671 0 0)
(-0.00037260089 -6.8786407e-005 0 0.00036453199 0 0)
(-0.00030111327 -9.5465209e-005 0 0.00029956979 0 0)
(-0.00023769077 -8.8892421e-005 0 0.00023614382 0 0)
(-0.00018662361 -7.3738816e-005 0 0.00018536564 0 0)
(-0.00014914296 -5.5997717e-005 0 0.00014858979 0 0)
(-0.00012156199 -3.4741583e-005 0 0.00012105414 0 0)
(-0.00010690354 -1.5542354e-005 0 0.00010652918 0 0)
(-0.00010190177 8.2244146e-006 0 0.00010161965 0 0)
(-0.00010866722 3.3038276e-005 0 0.00010829004 0 0)
(-0.0001261998 6.1983207e-005 0 0.00012549807 0 0)
(-0.00016255863 0.00010432898 0 0.00016156902 0 0)
(-0.0002150138 0.0001581055 0 0.00021296489 0 0)
(-0.00029355432 0.00023355852 0 0.00028917826 0 0)
(-0.00041467403 0.00035202931 0 0.00040699348 0 0)
(-0.00058032782 0.00052012306 0 0.00056318015 0 0)
(-0.00082513224 0.00078792149 0 0.00078964805 0 0)
(-0.0011905597 0.0012546901 0 0.001116752 0 0)
(-0.0017635175 0.0019474467 0 0.0015689079 0 0)
(-0.0025656276 0.0032793788 0 0.0021768154 0 0)
(-0.0040932129 0.0048776587 0 0.0029619725 0 0)
(-0.0051233684 0.0075567092 0 0.0033760985 0 0)
(-0.0097225545 0.010549186 0 0.004615729 0 0)
(-0.0068247308 0.0078686953 0 0.0045243973 0 0)
(-0.00030885348 0.00032577391 0 0.00029915496 0 0)
(-0.00038692918 2.2566266e-005 0 0.00039250944 0 0)
(-0.00037891851 -8.0336557e-005 0 0.00037037193 0 0)
(-0.00030265278 -0.00011138192 0 0.00030078867 0 0)
(-0.00023531291 -0.00010279728 0 0.00023387962 0 0)
(-0.00018250996 -8.4492046e-005 0 0.00018119445 0 0)
(-0.00014421919 -6.4019247e-005 0 0.0001436903 0 0)
(-0.00011611125 -3.9588296e-005 0 0.00011562247 0 0)
(-0.00010115508 -1.7887166e-005 0 0.00010082183 0 0)
(-9.5489682e-005 8.5733901e-006 0 9.5258103e-005 0 0)
(-0.00010121608 3.6316155e-005 0 0.00010087234 0 0)
(-0.00011692366 6.8446586e-005 0 0.00011624664 0 0)
(-0.0001499176 0.00011534371 0 0.00014899975 0 0)
(-0.00019720017 0.00017433176 0 0.00019529173 0 0)
(-0.00026798888 0.0002569217 0 0.00026381202 0 0)
(-0.0003757489 0.00038665788 0 0.00036839812 0 0)
(-0.00052186267 0.00056873242 0 0.00050507228 0 0)
(-0.00073600497 0.00085341896 0 0.00070117378 0 0)
(-0.0010375764 0.0013561893 0 0.000966833 0 0)
(-0.0015075568 0.0020704342 0 0.0013162799 0 0)
(-0.0020373253 0.0035187909 0 0.0016883237 0 0)
(-0.003298996 0.0050736863 0 0.0021997028 0 0)
(-0.0032614094 0.0080798729 0 0.0017555694 0 0)
(-0.0072029208 0.011019021 0 0.0024957327 0 0)
(-0.00043056579 0.010644271 0 -0.0020734841 0 0)
(-0.00031997047 0.0003646419 0 0.00030516532 0 0)
(-0.00039447881 2.3866051e-005 0 0.00040617095 0 0)
(-0.00038621375 -9.363953e-005 0 0.00037472441 0 0)
(-0.00030431625 -0.00012935613 0 0.00030199812 0 0)
(-0.00023190883 -0.00011790355 0 0.00023092311 0 0)
(-0.00017789237 -9.663828e-005 0 0.00017659186 0 0)
(-0.00013838834 -7.2864788e-005 0 0.00013807666 0 0)
(-0.00010996403 -4.5297252e-005 0 0.00010961697 0 0)
(-9.4682626e-005 -2.1019687e-005 0 9.4503697e-005 0 0)
(-8.84487e-005 8.1651824e-006 0 8.8442117e-005 0 0)
(-9.3125811e-005 3.8749341e-005 0 9.299016e-005 0 0)
(-0.00010659523 7.3449219e-005 0 0.00010616946 0 0)
(-0.0001358591 0.00012433236 0 0.00013525446 0 0)
(-0.00017804346 0.00018832714 0 0.00017648061 0 0)
(-0.00023981786 0.00027680993 0 0.00023608967 0 0)
(-0.00033428227 0.00041651284 0 0.00032774741 0 0)
(-0.00046047143 0.00060832594 0 0.00044386846 0 0)
(-0.00063452016 0.00090809834 0 0.00060022201 0 0)
(-0.00086976615 0.0014402243 0 0.00080346863 0 0)
(-0.0012480356 0.0021374929 0 0.0010517585 0 0)
(-0.0014815738 0.0036448866 0 0.001176341 0 0)
(-0.0022626568 0.0051418977 0 0.0012081897 0 0)
(-0.0011386596 0.007862961 0 3.5606326e-006 0 0)
(-0.0030819816 0.0099661228 0 -0.00083806793 0 0)
(0.0036544159 0.011037013 0 -0.0076908225 0 0)
(-0.014825913 0.00057496654 0 0.0097168799 0 0)
(-0.008210399 0.0010246223 0 0.0059654453 0 0)
(-0.0030151693 0.0014133103 0 0.0022228237 0 0)
(-0.00087341869 0.0016893578 0 0.00065014478 0 0)
(-0.00039461228 0.0018324692 0 0.00023962592 0 0)
(-0.00017657396 0.0018836163 0 5.5156832e-005 0 0)
(-0.00013749092 0.0018981109 0 1.1285566e-005 0 0)
(-0.00011339916 0.0019016985 0 -1.098533e-005 0 0)
(-0.00011560587 0.0019006135 0 -9.1832943e-006 0 0)
(-0.00011838316 0.0018995026 0 -5.8850382e-006 0 0)
(-0.0001230696 0.0018985068 0 -1.1652e-006 0 0)
(-0.0001242871 0.0018982616 0 9.9053173e-008 0 0)
(-0.00012434556 0.0018982422 0 1.5542459e-007 0 0)
(-0.00012423406 0.0018982563 0 4.5488137e-008 0 0)
(-0.00012418392 0.0018982611 0 -4.9510107e-009 0 0)
(-0.00012418303 0.0018982625 0 -5.7112826e-009 0 0)
(-0.00012418963 0.0018982606 0 8.930982e-010 0 0)
(-0.00012419059 0.0018982613 0 1.7286765e-009 0 0)
(-0.00012418899 0.0018982611 0 1.7257481e-010 0 0)
(-0.00012418867 0.0018982616 0 -1.8393023e-010 0 0)
(-0.00012418884 0.0018982616 0 4.2078785e-012 0 0)
(-0.00012418656 0.0018982611 0 -1.9092791e-009 0 0)
(-0.00012418638 0.0018982611 0 -4.2691514e-009 0 0)
(-0.00012418688 0.0018982621 0 -1.7910489e-009 0 0)
(-0.00012417875 0.0018982648 0 -2.4311413e-009 0 0)
(-0.014287195 0.0017807023 0 0.0093316444 0 0)
(-0.0079177179 0.0030654766 0 0.00565289 0 0)
(-0.0033873774 0.0042866848 0 0.0021331933 0 0)
(-0.0015036987 0.0052087898 0 0.00054393498 0 0)
(-0.0012867476 0.0054667586 0 0.00023245213 0 0)
(-0.0011376242 0.0056319132 0 5.9368058e-005 0 0)
(-0.0011017684 0.0056823398 0 6.1428597e-006 0 0)
(-0.0010835993 0.0056917959 0 -1.07286e-005 0 0)
(-0.0010840637 0.0056894349 0 -8.8976866e-006 0 0)
(-0.0010873432 0.0056852878 0 -3.8115569e-006 0 0)
(-0.0010899494 0.0056834766 0 -7.1072303e-007 0 0)
(-0.0010907193 0.0056829941 0 1.6784967e-007 0 0)
(-0.0010906896 0.0056829906 0 1.3724812e-007 0 0)
(-0.0010905814 0.0056830343 0 2.7999841e-008 0 0)
(-0.0010905485 0.0056830475 0 -5.2280837e-009 0 0)
(-0.001090549 0.0056830462 0 -3.4993273e-009 0 0)
(-0.0010905532 0.0056830448 0 9.7543386e-010 0 0)
(-0.0010905535 0.0056830465 0 1.3492937e-009 0 0)
(-0.0010905525 0.0056830466 0 3.7628998e-010 0 0)
(-0.001090553 0.0056830494 0 9.4464355e-012 0 0)
(-0.0010905525 0.0056830465 0 6.817171e-011 0 0)
(-0.00109055 0.0056830443 0 -1.7517807e-009 0 0)
(-0.0010905503 0.005683047 0 -3.6589978e-009 0 0)
(-0.001090548 0.0056830496 0 -4.1234233e-009 0 0)
(-0.0010905393 0.0056830513 0 -4.1834202e-009 0 0)
(-0.01332495 0.0030349732 0 0.0087334626 0 0)
(-0.0071739454 0.0052998516 0 0.0049396057 0 0)
(-0.0041887324 0.0074188236 0 0.0018966648 0 0)
(-0.0030518414 0.0086275411 0 0.00061004353 0 0)
(-0.0029192678 0.0091671201 0 0.00016718051 0 0)
(-0.0029059153 0.0093815857 0 3.26229e-005 0 0)
(-0.0029078737 0.0094370782 0 -1.3338263e-006 0 0)
(-0.0029002884 0.0094468285 0 -9.1586528e-006 0 0)
(-0.0028995198 0.0094436082 0 -6.9995419e-006 0 0)
(-0.0029001825 0.0094375587 0 -2.4320108e-006 0 0)
(-0.0029011474 0.0094350463 0 -3.2062322e-007 0 0)
(-0.0029013737 0.0094344891 0 1.5317247e-007 0 0)
(-0.0029013096 0.0094345034 0 9.1281734e-008 0 0)
(-0.0029012433 0.0094345623 0 1.6364931e-008 0 0)
(-0.0029012249 0.0094345806 0 -4.6932584e-009 0 0)
(-0.0029012268 0.0094345804 0 -2.1603961e-009 0 0)
(-0.0029012279 0.0094345777 0 7.9420489e-010 0 0)
(-0.0029012278 0.0094345772 0 8.7456038e-010 0 0)
(-0.0029012296 0.0094345813 0 6.3226535e-010 0 0)
(-0.0029012286 0.0094345791 0 -9.6584417e-012 0 0)
(-0.002901229 0.0094345829 0 -2.7032795e-010 0 0)
(-0.0029012272 0.0094345807 0 -4.7478238e-010 0 0)
(-0.002901224 0.0094345733 0 -2.7372603e-009 0 0)
(-0.0029012201 0.0094345789 0 -5.8673927e-009 0 0)
(-0.0029012126 0.0094345798 0 -4.7943843e-009 0 0)
(-0.011888968 0.0042141154 0 0.0077457446 0 0)
(-0.0063931544 0.008470597 0 0.00353123 0 0)
(-0.0053490891 0.010494558 0 0.0016823607 0 0)
(-0.0050109519 0.012236239 0 0.00046576725 0 0)
(-0.005275537 0.012911357 0 8.3637405e-005 0 0)
(-0.0053662933 0.013091876 0 9.4018426e-006 0 0)
(-0.0053929101 0.013133134 0 -7.5542899e-006 0 0)
(-0.0053935308 0.013137457 0 -6.7403337e-006 0 0)
(-0.0053916833 0.01313249 0 -3.7852506e-006 0 0)
(-0.0053893681 0.013126291 0 -7.7741874e-007 0 0)
(-0.0053887121 0.013123994 0 5.3795568e-008 0 0)
(-0.0053884677 0.013123561 0 1.0781187e-007 0 0)
(-0.0053884036 0.013123597 0 3.4590901e-008 0 0)
(-0.0053883879 0.013123657 0 1.8994073e-009 0 0)
(-0.0053883891 0.013123674 0 -1.9784898e-009 0 0)
(-0.0053883897 0.013123675 0 -5.2348249e-010 0 0)
(-0.0053883895 0.013123673 0 3.2971176e-010 0 0)
(-0.0053883913 0.013123676 0 3.8447829e-010 0 0)
(-0.0053883904 0.013123674 0 3.1870871e-010 0 0)
(-0.0053883899 0.013123675 0 2.5577683e-010 0 0)
(-0.0053883884 0.013123673 0 -6.293947e-011 0 0)
(-0.0053883894 0.013123674 0 8.3940951e-011 0 0)
(-0.005388387 0.013123674 0 -1.851131e-009 0 0)
(-0.0053883802 0.013123672 0 -6.411577e-009 0 0)
(-0.005388374 0.013123669 0 -4.8638965e-009 0 0)
(-0.0094319401 0.006071709 0 0.0058583207 0 0)
(-0.0066943897 0.01101805 0 0.0026447669 0 0)
(-0.0069307358 0.014036641 0 0.0010523259 0 0)
(-0.0077181365 0.015984927 0 0.00027686709 0 0)
(-0.0082692032 0.016576903 0 3.9398366e-005 0 0)
(-0.0083913517 0.01671242 0 -6.3771531e-006 0 0)
(-0.0084236061 0.016728126 0 -9.0498535e-006 0 0)
(-0.0084263518 0.016724516 0 -2.6941999e-006 0 0)
(-0.0084220493 0.016717966 0 -2.2169807e-007 0 0)
(-0.0084173848 0.016713166 0 5.0220203e-007 0 0)
(-0.0084156762 0.016711682 0 2.3249519e-007 0 0)
(-0.0084151757 0.016711452 0 1.7617725e-008 0 0)
(-0.0084151523 0.016711489 0 -2.1394839e-008 0 0)
(-0.0084151903 0.016711532 0 -5.6249919e-009 0 0)
(-0.0084152048 0.016711546 0 1.500409e-009 0 0)
(-0.0084152041 0.016711548 0 7.1456828e-010 0 0)
(-0.0084152018 0.016711547 0 -3.3562138e-010 0 0)
(-0.0084152021 0.016711547 0 -1.2588566e-010 0 0)
(-0.0084152023 0.016711549 0 1.7574327e-010 0 0)
(-0.0084152027 0.016711549 0 1.2792214e-010 0 0)
(-0.0084152028 0.016711548 0 3.6180719e-011 0 0)
(-0.0084152037 0.016711546 0 1.1416081e-009 0 0)
(-0.0084151993 0.016711545 0 1.1520569e-010 0 0)
(-0.0084151922 0.016711542 0 -5.1513795e-009 0 0)
(-0.0084151877 0.016711534 0 -3.7335517e-009 0 0)
(-0.0072072656 0.0088470262 0 0.003447824 0 0)
(-0.0068843846 0.014495488 0 0.0011175624 0 0)
(-0.0094503887 0.017955451 0 0.00032792548 0 0)
(-0.011200098 0.019700648 0 0.00012060742 0 0)
(-0.011813053 0.020117545 0 1.5643417e-005 0 0)
(-0.011905645 0.020189278 0 -8.5992966e-006 0 0)
(-0.011925788 0.020180029 0 -3.8040222e-006 0 0)
(-0.011924976 0.020171879 0 2.5799644e-006 0 0)
(-0.011917852 0.020165918 0 2.7165354e-006 0 0)
(-0.011912283 0.020163603 0 1.2327599e-006 0 0)
(-0.011910279 0.020163096 0 1.9995546e-007 0 0)
(-0.011909772 0.020163027 0 -8.6889138e-008 0 0)
(-0.011909815 0.020163033 0 -5.8499835e-008 0 0)
(-0.01190989 0.020163053 0 -6.5555172e-009 0 0)
(-0.011909912 0.020163065 0 4.4377672e-009 0 0)
(-0.01190991 0.020163068 0 1.0998314e-009 0 0)
(-0.011909907 0.020163068 0 -9.2216503e-010 0 0)
(-0.011909908 0.020163068 0 -5.3952518e-010 0 0)
(-0.011909908 0.020163068 0 -2.8481642e-011 0 0)
(-0.011909909 0.020163068 0 1.1574464e-010 0 0)
(-0.011909908 0.020163069 0 3.0359261e-010 0 0)
(-0.011909909 0.020163067 0 1.8366848e-009 0 0)
(-0.011909906 0.020163065 0 1.850458e-009 0 0)
(-0.011909901 0.020163061 0 -1.0340999e-009 0 0)
(-0.011909897 0.020163046 0 -4.5782924e-010 0 0)
(-0.0060650806 0.011306928 0 0.0011935989 0 0)
(-0.0086664458 0.019002057 0 -0.00053471144 0 0)
(-0.013601718 0.022068424 0 -0.00015453393 0 0)
(-0.015359393 0.02327414 0 1.3216332e-005 0 0)
(-0.015850447 0.023475048 0 1.0061301e-005 0 0)
(-0.01587883 0.023490603 0 7.4868054e-007 0 0)
(-0.015884032 0.023470423 0 4.9982901e-006 0 0)
(-0.015878916 0.023464204 0 7.2554182e-006 0 0)
(-0.015871484 0.023461987 0 4.157485e-006 0 0)
(-0.015866678 0.023462287 0 1.3045315e-006 0 0)
(-0.015864976 0.023462481 0 2.8950177e-008 0 0)
(-0.015864617 0.023462449 0 -1.6551549e-007 0 0)
(-0.015864716 0.023462406 0 -6.8772734e-008 0 0)
(-0.015864804 0.023462407 0 -4.0946893e-009 0 0)
(-0.015864828 0.023462418 0 5.796136e-009 0 0)
(-0.015864825 0.023462422 0 7.8431776e-010 0 0)
(-0.015864821 0.023462422 0 -1.255274e-009 0 0)
(-0.015864822 0.023462422 0 -8.6151515e-010 0 0)
(-0.015864822 0.023462422 0 -7.668037e-011 0 0)
(-0.015864822 0.023462421 0 1.2330728e-010 0 0)
(-0.015864822 0.023462421 0 3.1568301e-010 0 0)
(-0.015864824 0.023462421 0 1.8473602e-009 0 0)
(-0.015864823 0.023462419 0 3.5258575e-009 0 0)
(-0.015864823 0.023462414 0 4.7281677e-009 0 0)
(-0.01586482 0.0234624 0 3.4591199e-009 0 0)
(-0.0058875691 0.015829 0 -0.0020352656 0 0)
(-0.012765375 0.024073113 0 -0.0019596032 0 0)
(-0.018958632 0.026033796 0 -0.00036815766 0 0)
(-0.020039598 0.026620696 0 -3.1507177e-005 0 0)
(-0.020378248 0.026660938 0 2.1411153e-005 0 0)
(-0.02035152 0.026652821 0 1.358065e-005 0 0)
(-0.020354917 0.026641325 0 1.2081712e-005 0 0)
(-0.020350604 0.02664328 0 8.2760712e-006 0 0)
(-0.020348074 0.026645832 0 4.0150958e-006 0 0)
(-0.020345225 0.026647823 0 1.0551814e-006 0 0)
(-0.020343919 0.026648296 0 -1.2301334e-007 0 0)
(-0.020343661 0.026648199 0 -1.9008711e-007 0 0)
(-0.020343778 0.02664811 0 -5.8404768e-008 0 0)
(-0.020343858 0.026648103 0 1.1361762e-011 0 0)
(-0.020343878 0.026648113 0 5.3916192e-009 0 0)
(-0.020343875 0.026648117 0 2.6565723e-010 0 0)
(-0.020343872 0.026648116 0 -1.3373444e-009 0 0)
(-0.020343871 0.026648116 0 -8.4256133e-010 0 0)
(-0.020343872 0.026648115 0 -1.005051e-010 0 0)
(-0.020343872 0.026648115 0 7.4770714e-011 0 0)
(-0.020343873 0.026648115 0 2.4248716e-010 0 0)
(-0.020343874 0.026648115 0 1.3344092e-009 0 0)
(-0.020343877 0.026648113 0 5.1327781e-009 0 0)
(-0.020343882 0.026648109 0 9.4915144e-009 0 0)
(-0.020343884 0.026648103 0 6.5526694e-009 0 0)
(-0.010708262 0.02447674 0 -0.005487954 0 0)
(-0.020018851 0.029674789 0 -0.0029564769 0 0)
(-0.025140974 0.029797124 0 -0.00036937011 0 0)
(-0.025209691 0.029796428 0 -5.507228e-005 0 0)
(-0.025405502 0.029756999 0 4.329534e-005 0 0)
(-0.025377218 0.029766726 0 2.0830526e-005 0 0)
(-0.025403615 0.029774635 0 1.5116602e-005 0 0)
(-0.025408984 0.029787482 0 6.7057855e-006 0 0)
(-0.025412834 0.029793698 0 2.803039e-006 0 0)
(-0.025411564 0.0297962 0 3.3473173e-007 0 0)
(-0.025410863 0.029796355 0 -2.2125164e-007 0 0)
(-0.025410607 0.029796105 0 -1.6118208e-007 0 0)
(-0.02541069 0.029795986 0 -3.5584391e-008 0 0)
(-0.025410742 0.029795979 0 2.326636e-009 0 0)
(-0.025410758 0.029795989 0 3.7099688e-009 0 0)
(-0.025410754 0.029795992 0 -2.2389335e-010 0 0)
(-0.025410751 0.02979599 0 -1.0530193e-009 0 0)
(-0.02541075 0.029795989 0 -6.0920386e-010 0 0)
(-0.02541075 0.029795989 0 -9.7137369e-011 0 0)
(-0.02541075 0.029795989 0 8.1981352e-012 0 0)
(-0.025410751 0.029795989 0 1.0021818e-010 0 0)
(-0.025410752 0.029795989 0 9.2814753e-010 0 0)
(-0.025410757 0.029795988 0 5.0295783e-009 0 0)
(-0.02541077 0.02979599 0 1.0190864e-008 0 0)
(-0.025410787 0.029796002 0 6.403179e-009 0 0)
(-0.032459195 0.041150181 0 -0.0099160897 0 0)
(-0.029817275 0.034275357 0 -0.0019234567 0 0)
(-0.035674019 0.035179167 0 -0.0002018714 0 0)
(-0.033839841 0.034307161 0 -9.3664777e-006 0 0)
(-0.034578562 0.034580306 0 3.4529792e-005 0 0)
(-0.03447644 0.034565074 0 1.3443679e-005 0 0)
(-0.034595711 0.03462035 0 7.0328481e-006 0 0)
(-0.03459952 0.034629374 0 2.2727574e-006 0 0)
(-0.034614709 0.034638795 0 8.715283e-007 0 0)
(-0.034612795 0.0346395 0 -5.3722661e-008 0 0)
(-0.03461256 0.034639356 0 -1.4202058e-007 0 0)
(-0.034611935 0.034638884 0 -7.0386676e-008 0 0)
(-0.034611963 0.034638792 0 -1.1520853e-008 0 0)
(-0.034611969 0.034638782 0 1.6695199e-009 0 0)
(-0.034611985 0.034638793 0 1.4446517e-009 0 0)
(-0.034611982 0.034638794 0 -2.1188069e-010 0 0)
(-0.034611979 0.034638792 0 -4.2363422e-010 0 0)
(-0.034611977 0.034638791 0 -2.2579029e-010 0 0)
(-0.034611976 0.03463879 0 2.1058517e-012 0 0)
(-0.034611977 0.03463879 0 -2.7904393e-011 0 0)
(-0.034611977 0.034638791 0 -6.0477536e-011 0 0)
(-0.034611979 0.034638791 0 5.1687849e-010 0 0)
(-0.034611983 0.034638792 0 3.5541778e-009 0 0)
(-0.034611994 0.034638799 0 5.5900553e-009 0 0)
(-0.034612028 0.03463883 0 2.5136943e-009 0 0)
(-0.00034648462 0.00044671211 0 0.0003220722 0 0)
(-0.0004123206 2.158707e-005 0 0.00044076819 0 0)
(-0.00040259981 -0.00013082436 0 0.00038699608 0 0)
(-0.00030699805 -0.00017111233 0 0.00030198714 0 0)
(-0.00022430633 -0.00015476085 0 0.00022331485 0 0)
(-0.00016729814 -0.00012519872 0 0.00016467967 0 0)
(-0.00012533476 -9.4265934e-005 0 0.00012418154 0 0)
(-9.6256486e-005 -6.0087021e-005 0 9.5218982e-005 0 0)
(-8.065359e-005 -3.0854964e-005 0 7.9902681e-005 0 0)
(-7.3287099e-005 3.06529e-006 0 7.2641867e-005 0 0)
(-7.5529696e-005 3.8906224e-005 0 7.4794027e-005 0 0)
(-8.4796995e-005 7.7904903e-005 0 8.3669584e-005 0 0)
(-0.00010667047 0.00013637631 0 0.00010552254 0 0)
(-0.0001375022 0.0002069029 0 0.00013506163 0 0)
(-0.00018272258 0.00030350797 0 0.00017713608 0 0)
(-0.00024962608 0.00045871502 0 0.00024205283 0 0)
(-0.00033113459 0.00066553412 0 0.00031374119 0 0)
(-0.00044119811 0.0009702989 0 0.00040506233 0 0)
(-0.00055996825 0.0015283705 0 0.00050185947 0 0)
(-0.00070746843 0.0022139088 0 0.00053215821 0 0)
(-0.00067756797 0.0036185655 0 0.00041958428 0 0)
(-0.00066696918 0.0049263954 0 -0.000202709 0 0)
(0.0010880815 0.0070312712 0 -0.0017514612 0 0)
(0.0017618968 0.0074706215 0 -0.0041090527 0 0)
(0.0098085039 0.0063970063 0 -0.012529954 0 0)
(-0.00040831087 0.00058171705 0 0.00037193961 0 0)
(-0.00046516722 -4.3088853e-008 0 0.00050316438 0 0)
(-0.00043626367 -0.00021321663 0 0.00041529007 0 0)
(-0.00030742778 -0.00025273344 0 0.00029896037 0 0)
(-0.00020579457 -0.00022390482 0 0.00020532705 0 0)
(-0.00014124882 -0.00017832922 0 0.00013868716 0 0)
(-9.8257038e-005 -0.00013493024 0 9.7384396e-005 0 0)
(-6.9317395e-005 -9.0674819e-005 0 6.9002565e-005 0 0)
(-5.3320737e-005 -5.1308913e-005 0 5.305178e-005 0 0)
(-4.5643884e-005 -1.3058535e-005 0 4.5306259e-005 0 0)
(-4.3391803e-005 2.7742886e-005 0 4.3630598e-005 0 0)
(-4.6371584e-005 7.2026678e-005 0 4.5873114e-005 0 0)
(-5.5047599e-005 0.0001346306 0 5.4561147e-005 0 0)
(-6.8880362e-005 0.00021887639 0 6.836276e-005 0 0)
(-8.5971742e-005 0.00031745035 0 8.1802831e-005 0 0)
(-0.00010934735 0.00047838713 0 0.00010333261 0 0)
(-0.00012803711 0.00069644148 0 0.00011630839 0 0)
(-0.000146663 0.00098956482 0 0.00011460422 0 0)
(-0.00010239402 0.0015073336 0 5.2201204e-005 0 0)
(-1.7558496e-005 0.0021248488 0 -0.00012883713 0 0)
(0.0004087469 0.0031399054 0 -0.00064805743 0 0)
(0.00099572077 0.0038564759 0 -0.0016857552 0 0)
(0.0029924152 0.0043473562 0 -0.00369319 0 0)
(0.0051270394 0.0018326738 0 -0.00723614 0 0)
(0.0063681184 -0.0019151296 0 -0.0094345461 0 0)
(-0.00052333352 0.0007243159 0 0.00047738499 0 0)
(-0.00055194982 -5.5929243e-005 0 0.00059479957 0 0)
(-0.00047875672 -0.00033243417 0 0.00045146682 0 0)
(-0.00029779948 -0.00036085148 0 0.00028610038 0 0)
(-0.00017266696 -0.00030708448 0 0.00017152836 0 0)
(-0.00010270904 -0.00023760322 0 9.9696618e-005 0 0)
(-6.1865316e-005 -0.00017922183 0 6.0564087e-005 0 0)
(-3.5596458e-005 -0.00012351154 0 3.524708e-005 0 0)
(-2.1693293e-005 -7.6459009e-005 0 2.1212615e-005 0 0)
(-1.3679403e-005 -3.6202094e-005 0 1.3477108e-005 0 0)
(-8.0318722e-006 9.7244092e-006 0 8.5761921e-006 0 0)
(-4.6868579e-006 5.8157331e-005 0 4.6094647e-006 0 0)
(-1.7515579e-006 0.00012082033 0 5.4341132e-007 0 0)
(4.1915304e-006 0.00020432928 0 -4.4386491e-006 0 0)
(1.2993618e-005 0.000306911 0 -1.5283105e-005 0 0)
(2.8600934e-005 0.00045070691 0 -3.495519e-005 0 0)
(6.7683584e-005 0.00067077 0 -7.7231653e-005 0 0)
(0.00012470479 0.00093084159 0 -0.00015247387 0 0)
(0.00027402744 0.0013764922 0 -0.00031775572 0 0)
(0.00051007554 0.0018839294 0 -0.0006230151 0 0)
(0.0010776311 0.0026095088 0 -0.0012602246 0 0)
(0.001904121 0.0029937347 0 -0.0023169057 0 0)
(0.0033903178 0.0028560037 0 -0.003759704 0 0)
(0.0046703527 0.00058177764 0 -0.0054181747 0 0)
(0.0036573685 -0.0035850686 0 -0.0040486788 0 0)
(-0.00073493051 0.00089462391 0 0.00067179366 0 0)
(-0.00066854668 -0.00014437578 0 0.00071911458 0 0)
(-0.00051297591 -0.00046332099 0 0.0004744828 0 0)