/*--------------------------------*- C++ -*----------------------------------*\
| =========                 |                                                 |
| \\      /  F ield         | OpenFOAM: The Open Source CFD Toolbox           |
|  \\    /   O peration     | Version:  5.x                                   |
|   \\  /    A nd           | Web:      www.OpenFOAM.org                      |
|    \\/     M anipulation  |                                                 |
\*---------------------------------------------------------------------------*/
/*   Windows 32 and 64 bit porting by blueCAPE: http://www.bluecape.com.pt   *\
|  Based on Windows porting (2.0.x v4) by Symscape: http://www.symscape.com   |
\*---------------------------------------------------------------------------*/
FoamFile
{
    version     2.0;
    format      ascii;
    class       volSymmTensorField;
    location    "0.14";
    object      sigma_0;
}
// * * * * * * * * * * * * * * * * * * * * * * * * * * * * * * * * * * * * * //

dimensions      [0 2 -2 0 0 0 0];

internalField   nonuniform List<symmTensor> 
750
(
(-0.00027473503 1.8727874e-005 0 0.00027024436 0 0)
(-0.00035464238 1.7037101e-006 0 0.00035693283 0 0)
(-0.00035040283 -3.9784528e-006 0 0.00034406523 0 0)
(-0.00029385606 -5.9614076e-006 0 0.00029272724 0 0)
(-0.00024315283 -5.6195196e-006 0 0.00024156695 0 0)
(-0.00019949602 -4.8979413e-006 0 0.00019842825 0 0)
(-0.00016524524 -3.7722379e-006 0 0.00016467488 0 0)
(-0.00014022707 -2.4308207e-006 0 0.0001396854 0 0)
(-0.00012713724 -1.1448932e-006 0 0.00012670712 0 0)
(-0.00012478001 4.7605825e-007 0 0.00012442243 0 0)
(-0.00013582424 2.2640644e-006 0 0.0001353433 0 0)
(-0.00016057453 4.3588624e-006 0 0.00015979896 0 0)
(-0.00020974522 7.444371e-006 0 0.00020867248 0 0)
(-0.00028077584 1.143259e-005 0 0.00027863104 0 0)
(-0.00039001894 1.7106375e-005 0 0.00038569188 0 0)
(-0.00056096289 2.6216134e-005 0 0.00055302487 0 0)
(-0.00080600585 3.9380006e-005 0 0.00078814469 0 0)
(-0.0011885244 6.0711413e-005 0 0.0011513436 0 0)
(-0.0017937403 9.8766792e-005 0 0.0017146483 0 0)
(-0.0027732907 0.00015499091 0 0.0025704344 0 0)
(-0.00444843 0.00025965365 0 0.0040182716 0 0)
(-0.0071655671 0.00040281351 0 0.0059634535 0 0)
(-0.0110158 0.00056543377 0 0.0086605994 0 0)
(-0.015410072 0.00084490986 0 0.010719296 0 0)
(-0.019306718 0.00060923146 0 0.012625444 0 0)
(-0.00027596573 5.6295971e-005 0 0.00026985198 0 0)
(-0.00035500013 5.2895201e-006 0 0.00036014443 0 0)
(-0.00035134811 -1.2135961e-005 0 0.00034332348 0 0)
(-0.00029413347 -1.7673719e-005 0 0.00029352406 0 0)
(-0.0002429415 -1.6798522e-005 0 0.00024122899 0 0)
(-0.00019908988 -1.449503e-005 0 0.00019795528 0 0)
(-0.00016461968 -1.1130054e-005 0 0.00016400174 0 0)
(-0.00013961743 -7.0959019e-006 0 0.00013900162 0 0)
(-0.00012640729 -3.2137596e-006 0 0.0001259031 0 0)
(-0.00012393757 1.6363756e-006 0 0.00012352832 0 0)
(-0.00013478868 6.9637556e-006 0 0.00013422204 0 0)
(-0.00015925926 1.3258926e-005 0 0.00015837547 0 0)
(-0.00020810407 2.2494839e-005 0 0.00020692503 0 0)
(-0.00027816818 3.4306097e-005 0 0.00027583348 0 0)
(-0.00038623212 5.1292696e-005 0 0.00038159525 0 0)
(-0.00055569559 7.8349092e-005 0 0.00054735347 0 0)
(-0.00079684445 0.00011716548 0 0.00077819098 0 0)
(-0.0011745832 0.00018065439 0 0.0011363129 0 0)
(-0.0017720276 0.00029191329 0 0.0016916218 0 0)
(-0.0027313738 0.00045079518 0 0.0025241804 0 0)
(-0.0043905551 0.00078785494 0 0.0039602043 0 0)
(-0.0070176095 0.0011558873 0 0.0058002905 0 0)
(-0.010832502 0.0016986713 0 0.0085201325 0 0)
(-0.015129884 0.0025359725 0 0.010366457 0 0)
(-0.018829582 0.0018360506 0 0.012446325 0 0)
(-0.00027756953 9.4200599e-005 0 0.00027071242 0 0)
(-0.00035665627 8.672222e-006 0 0.0003627211 0 0)
(-0.00035291839 -2.0606631e-005 0 0.00034425747 0 0)
(-0.00029469739 -2.9447185e-005 0 0.00029419315 0 0)
(-0.00024261881 -2.8107719e-005 0 0.00024087194 0 0)
(-0.00019824813 -2.4061965e-005 0 0.00019712673 0 0)
(-0.00016344877 -1.8469317e-005 0 0.00016287421 0 0)
(-0.00013829182 -1.1708928e-005 0 0.0001377115 0 0)
(-0.00012494648 -5.2378295e-006 0 0.00012448387 0 0)
(-0.00012225899 2.8351211e-006 0 0.00012190474 0 0)
(-0.00013279517 1.1647354e-005 0 0.00013228003 0 0)
(-0.00015668258 2.2103716e-005 0 0.00015587818 0 0)
(-0.00020464591 3.739541e-005 0 0.00020358263 0 0)
(-0.000273207 5.6849921e-005 0 0.0002709984 0 0)
(-0.00037889723 8.5024857e-005 0 0.0003744444 0 0)
(-0.00054481279 0.0001295089 0 0.00053680764 0 0)
(-0.00077937672 0.00019337072 0 0.00076120303 0 0)
(-0.0011470266 0.00029802042 0 0.0011096651 0 0)
(-0.0017274613 0.0004792627 0 0.0016484465 0 0)
(-0.002651026 0.0007588444 0 0.002444963 0 0)
(-0.0042633844 0.0012713502 0 0.0038400489 0 0)
(-0.0067780006 0.001905879 0 0.0055722365 0 0)
(-0.010416969 0.0027878819 0 0.0081813221 0 0)
(-0.014751 0.0042398741 0 0.009843037 0 0)
(-0.017700877 0.0030262753 0 0.011958204 0 0)
(-0.00027986667 0.00013232058 0 0.00027286794 0 0)
(-0.00035942105 1.1744046e-005 0 0.00036529979 0 0)
(-0.00035523985 -2.9459912e-005 0 0.00034669634 0 0)
(-0.00029551502 -4.1596591e-005 0 0.00029486247 0 0)
(-0.00024203435 -3.9655747e-005 0 0.00024032489 0 0)
(-0.00019699727 -3.3786557e-005 0 0.00019585582 0 0)
(-0.00016176184 -2.5940968e-005 0 0.00016120123 0 0)
(-0.00013628979 -1.6424833e-005 0 0.00013571775 0 0)
(-0.00012275686 -7.3747894e-006 0 0.00012230902 0 0)
(-0.00011974863 3.9127946e-006 0 0.00011940545 0 0)
(-0.00012978777 1.6124063e-005 0 0.00012929244 0 0)
(-0.00015286222 3.0648502e-005 0 0.00015207177 0 0)
(-0.00019941504 5.1875271e-005 0 0.00019836126 0 0)
(-0.00026591127 7.8811702e-005 0 0.00026372138 0 0)
(-0.00036805818 0.00011787732 0 0.00036363943 0 0)
(-0.00052816116 0.00017926365 0 0.00052023404 0 0)
(-0.00075364712 0.0002674653 0 0.0007355834 0 0)
(-0.0011054728 0.00041231639 0 0.0010683166 0 0)
(-0.0016582935 0.0006619924 0 0.0015797941 0 0)
(-0.0025443267 0.0010346806 0 0.002339695 0 0)
(-0.0040599782 0.0017512745 0 0.0036382212 0 0)
(-0.0064340449 0.0026537598 0 0.0052351422 0 0)
(-0.0097731296 0.0038898176 0 0.0076210373 0 0)
(-0.014322655 0.0056211478 0 0.0092534491 0 0)
(-0.016417074 0.0041202502 0 0.011294288 0 0)
(-0.00028308238 0.00017057995 0 0.0002758077 0 0)
(-0.00036312298 1.453169e-005 0 0.00036880719 0 0)
(-0.00035828115 -3.8564962e-005 0 0.00034983458 0 0)
(-0.00029655402 -5.4105317e-005 0 0.00029571908 0 0)
(-0.0002411808 -5.1357344e-005 0 0.00023952918 0 0)
(-0.00019527201 -4.3546697e-005 0 0.00019409984 0 0)
(-0.00015950569 -3.3384664e-005 0 0.00015895391 0 0)
(-0.00013359497 -2.1036402e-005 0 0.00013303673 0 0)
(-0.00011984658 -9.4324413e-006 0 0.00011941602 0 0)
(-0.00011643418 5.0522204e-006 0 0.00011610824 0 0)
(-0.00012583996 2.056813e-005 0 0.00012538015 0 0)
(-0.00014781987 3.8989841e-005 0 0.00014704896 0 0)
(-0.00019253999 6.6001074e-005 0 0.00019149444 0 0)
(-0.00025632489 0.00010014592 0 0.00025417807 0 0)
(-0.00035375816 0.0001495727 0 0.0003493842 0 0)
(-0.00050637733 0.00022697359 0 0.00049856845 0 0)
(-0.00072021524 0.00033784571 0 0.00070235451 0 0)
(-0.0010519463 0.00051839266 0 0.0010151079 0 0)
(-0.0015690189 0.00083176265 0 0.0014918998 0 0)
(-0.0023954862 0.0013073877 0 0.0021910049 0 0)
(-0.0037777039 0.0022155352 0 0.003362191 0 0)
(-0.0060054941 0.0033093514 0 0.0048174774 0 0)
(-0.0089475595 0.0049154466 0 0.0068869823 0 0)
(-0.013477193 0.0071515971 0 0.0083581221 0 0)
(-0.01534083 0.0050815363 0 0.010748311 0 0)
(-0.00028738809 0.0002090546 0 0.0002796365 0 0)
(-0.00036774396 1.7089946e-005 0 0.00037330822 0 0)
(-0.00036208736 -4.8128557e-005 0 0.0003536644 0 0)
(-0.00029777261 -6.7115084e-005 0 0.00029674591 0 0)
(-0.00024004828 -6.3328317e-005 0 0.00023845046 0 0)
(-0.00019302799 -5.3407229e-005 0 0.00019183274 0 0)
(-0.0001566361 -4.0820798e-005 0 0.00015609271 0 0)
(-0.00013021251 -2.5577989e-005 0 0.00012967574 0 0)
(-0.0001162091 -1.1426043e-005 0 0.00011579877 0 0)
(-0.00011231159 6.1527623e-006 0 0.00011201291 0 0)
(-0.00012095328 2.4909119e-005 0 0.00012051591 0 0)
(-0.0001417164 4.7151281e-005 0 0.00014096778 0 0)
(-0.00018401664 7.9583354e-005 0 0.00018300933 0 0)
(-0.00024448931 0.00012055188 0 0.00024241535 0 0)
(-0.00033666215 0.00017932743 0 0.00033232768 0 0)
(-0.00047991388 0.0002719587 0 0.00047221575 0 0)
(-0.00067979859 0.00040387701 0 0.0006621987 0 0)
(-0.00098602351 0.00061790466 0 0.00094940804 0 0)
(-0.0014583311 0.00099133101 0 0.0013822776 0 0)
(-0.0022154073 0.0015503454 0 0.00201327 0 0)
(-0.0034510815 0.0026086321 0 0.0030421964 0 0)
(-0.0054525243 0.0039493513 0 0.0042838 0 0)
(-0.0078982967 0.005895744 0 0.005928705 0 0)
(-0.012493781 0.008523812 0 0.0073133471 0 0)
(-0.012926624 0.005810098 0 0.0094066636 0 0)
(-0.00029283305 0.00024748926 0 0.00028465167 0 0)
(-0.00037327886 1.932551e-005 0 0.00037850522 0 0)
(-0.00036667577 -5.8203824e-005 0 0.00035835776 0 0)
(-0.00029914507 -8.0772731e-005 0 0.00029789035 0 0)
(-0.00023874715 -7.5697943e-005 0 0.00023718525 0 0)
(-0.00019008198 -6.3381731e-005 0 0.00018886906 0 0)
(-0.00015310634 -4.8292212e-005 0 0.00015256779 0 0)
(-0.00012615926 -3.0075017e-005 0 0.00012564036 0 0)
(-0.00011186993 -1.339065e-005 0 0.00011149051 0 0)
(-0.00010742331 7.2048806e-006 0 0.00010713632 0 0)
(-0.0001151935 2.9129769e-005 0 0.00011476861 0 0)
(-0.00013456027 5.4917037e-005 0 0.00013384417 0 0)
(-0.00017396804 9.2418843e-005 0 0.00017300862 0 0)
(-0.00023061964 0.00013983589 0 0.00022857334 0 0)
(-0.00031636843 0.00020770092 0 0.00031202884 0 0)
(-0.00044931117 0.00031389727 0 0.00044164956 0 0)
(-0.00063284804 0.0004645477 0 0.00061547866 0 0)
(-0.00091116223 0.00070682408 0 0.00087525128 0 0)
(-0.0013343588 0.0011299989 0 0.0012596145 0 0)
(-0.0020008345 0.0017672985 0 0.0018021073 0 0)
(-0.0030345341 0.0029821362 0 0.0026331488 0 0)
(-0.0048503727 0.0044474473 0 0.0036993837 0 0)
(-0.0066304424 0.006790992 0 0.004766719 0 0)
(-0.011560161 0.0094000754 0 0.0063258858 0 0)
(-0.0094271692 0.0070390341 0 0.0067050045 0 0)
(-0.00029967868 0.0002865739 0 0.00029125371 0 0)
(-0.00037950516 2.1076686e-005 0 0.00038414089 0 0)
(-0.00037195349 -6.8698514e-005 0 0.00036392513 0 0)
(-0.00030059242 -9.5289319e-005 0 0.00029904305 0 0)
(-0.00023728641 -8.8709458e-005 0 0.00023575333 0 0)
(-0.00018631621 -7.3562148e-005 0 0.00018505825 0 0)
(-0.00014893087 -5.5863542e-005 0 0.00014838145 0 0)
(-0.00012142164 -3.4641998e-005 0 0.00012091415 0 0)
(-0.00010680495 -1.5466904e-005 0 0.00010643175 0 0)
(-0.00010183686 8.2692609e-006 0 0.00010155481 0 0)
(-0.00010862748 3.307436e-005 0 0.00010825102 0 0)
(-0.00012617269 6.1998989e-005 0 0.00012547118 0 0)
(-0.00016253316 0.00010431827 0 0.00016154307 0 0)
(-0.00021499722 0.00015808422 0 0.00021294988 0 0)
(-0.00029352229 0.00023350265 0 0.00028914763 0 0)
(-0.00041461751 0.00035192329 0 0.00040694075 0 0)
(-0.00058024051 0.00051995098 0 0.00056310367 0 0)
(-0.00082493016 0.0007875872 0 0.00078947168 0 0)
(-0.0011902063 0.0012541178 0 0.0011164673 0 0)
(-0.0017629192 0.001946592 0 0.0015684727 0 0)
(-0.002564995 0.0032785375 0 0.0021764512 0 0)
(-0.0040927558 0.0048772957 0 0.0029618689 0 0)
(-0.0051241884 0.0075567799 0 0.0033769203 0 0)
(-0.009724425 0.010548617 0 0.0046170877 0 0)
(-0.0068233963 0.0078660195 0 0.0045245086 0 0)
(-0.00030838031 0.00032535815 0 0.00029873065 0 0)
(-0.00038638756 2.2479965e-005 0 0.00039192569 0 0)
(-0.00037825421 -8.0224701e-005 0 0.00036975176 0 0)
(-0.00030212701 -0.00011116769 0 0.00030025711 0 0)
(-0.00023489284 -0.0001025686 0 0.00023347343 0 0)
(-0.00018223792 -8.4293053e-005 0 0.00018092253 0 0)
(-0.00014401102 -6.3856288e-005 0 0.00014348598 0 0)
(-0.00011597865 -3.946801e-005 0 0.00011549021 0 0)
(-0.00010106228 -1.7793021e-005 0 0.00010073027 0 0)
(-9.5430568e-005 8.6304797e-006 0 9.5198818e-005 0 0)
(-0.00010118168 3.6366468e-005 0 0.00010083822 0 0)
(-0.00011690196 6.8474558e-005 0 0.000116225 0 0)
(-0.00014989731 0.00011534012 0 0.00014897923 0 0)
(-0.0001971894 0.00017431637 0 0.00019528239 0 0)
(-0.00026796862 0.00025687206 0 0.00026379304 0 0)
(-0.00037570815 0.00038655121 0 0.00036836044 0 0)
(-0.00052179202 0.00056856143 0 0.00050501241 0 0)
(-0.00073587378 0.00085304993 0 0.00070106602 0 0)
(-0.0010372955 0.0013555827 0 0.00096662022 0 0)
(-0.001507013 0.0020695851 0 0.0013158969 0 0)
(-0.0020368095 0.0035179811 0 0.0016880721 0 0)
(-0.0032987683 0.0050733638 0 0.0021997708 0 0)
(-0.0032620069 0.0080802966 0 0.0017562212 0 0)
(-0.0072032522 0.011018947 0 0.0024962883 0 0)
(-0.00042885739 0.010641434 0 -0.0020734683 0 0)
(-0.00031946892 0.00036417164 0 0.00030473145 0 0)
(-0.00039391983 2.378834e-005 0 0.00040555423 0 0)
(-0.00038553031 -9.3495317e-005 0 0.00037409483 0 0)
(-0.00030378553 -0.00012909416 0 0.00030146098 0 0)
(-0.00023150502 -0.00011763369 0 0.00023053337 0 0)
(-0.00017762811 -9.6399746e-005 0 0.00017632696 0 0)
(-0.00013818484 -7.2665517e-005 0 0.00013787658 0 0)
(-0.0001098422 -4.5153881e-005 0 0.00010949498 0 0)
(-9.4594632e-005 -2.0899821e-005 0 9.4416959e-005 0 0)
(-8.8396405e-005 8.2463093e-006 0 8.8388633e-005 0 0)
(-9.3097649e-005 3.8819916e-005 0 9.2961909e-005 0 0)
(-0.00010657725 7.3491386e-005 0 0.00010615169 0 0)
(-0.00013584333 0.0001243406 0 0.00013523817 0 0)
(-0.00017804085 0.00018832751 0 0.00017647918 0 0)
(-0.00023980867 0.00027677157 0 0.00023608084 0 0)
(-0.00033425545 0.00041641453 0 0.00032772273 0 0)
(-0.00046043365 0.00060816083 0 0.00044384237 0 0)
(-0.00063441769 0.00090772203 0 0.00060013636 0 0)
(-0.00086954192 0.0014396176 0 0.00080331208 0 0)
(-0.0012476667 0.0021365896 0 0.0010515388 0 0)
(-0.0014811228 0.003644101 0 0.0011761779 0 0)
(-0.0022626554 0.0051416022 0 0.0012084022 0 0)
(-0.0011394391 0.0078633988 0 4.3970092e-006 0 0)
(-0.0030826801 0.0099659273 0 -0.00083709267 0 0)
(0.0036564322 0.011033122 0 -0.0076906 0 0)
(-0.014831726 0.0005754839 0 0.0097209467 0 0)
(-0.0082165169 0.0010258964 0 0.0059706285 0 0)
(-0.0030206718 0.001415725 0 0.0022281332 0 0)
(-0.0008777416 0.0016930663 0 0.00065430631 0 0)
(-0.00039713131 0.0018368562 0 0.0002418747 0 0)
(-0.00017744105 0.0018883743 0 5.5649818e-005 0 0)
(-0.00013766598 0.0019029416 0 1.1078002e-005 0 0)
(-0.00011348807 0.0019065004 0 -1.1277876e-005 0 0)
(-0.00011589561 0.0019053674 0 -9.2712642e-006 0 0)
(-0.00011876196 0.0019042402 0 -5.8819219e-006 0 0)
(-0.00012346167 0.0019032439 0 -1.1487712e-006 0 0)
(-0.00012466875 0.0019030012 0 1.0486052e-007 0 0)
(-0.00012472097 0.0019029829 0 1.5496972e-007 0 0)
(-0.00012460888 0.001902997 0 4.4433886e-008 0 0)
(-0.00012455954 0.0019030017 0 -5.1945165e-009 0 0)
(-0.00012455894 0.0019030031 0 -5.6699102e-009 0 0)
(-0.00012456554 0.0019030011 0 9.395911e-010 0 0)
(-0.00012456647 0.0019030019 0 1.7432175e-009 0 0)
(-0.00012456485 0.0019030016 0 1.6631224e-010 0 0)
(-0.00012456454 0.0019030021 0 -1.8366338e-010 0 0)
(-0.0001245647 0.0019030022 0 7.1630658e-012 0 0)
(-0.00012456241 0.0019030017 0 -1.9206561e-009 0 0)
(-0.00012456223 0.0019030017 0 -4.3001254e-009 0 0)
(-0.00012456259 0.0019030027 0 -1.9281544e-009 0 0)
(-0.00012455438 0.0019030053 0 -2.599674e-009 0 0)
(-0.014292099 0.0017819715 0 0.009335069 0 0)
(-0.0079227889 0.0030689997 0 0.0056569783 0 0)
(-0.0033931463 0.004293654 0 0.0021373545 0 0)
(-0.0015091831 0.0052188995 0 0.00054684603 0 0)
(-0.0012916243 0.0054783658 0 0.000234403 0 0)
(-0.0011410602 0.0056446905 0 5.9736933e-005 0 0)
(-0.0011045805 0.0056952651 0 5.9309589e-006 0 0)
(-0.0010863705 0.0057046227 0 -1.0947201e-005 0 0)
(-0.0010869646 0.005702147 0 -8.960268e-006 0 0)
(-0.0010903121 0.0056979603 0 -3.798737e-006 0 0)
(-0.0010929222 0.0056961524 0 -6.9796726e-007 0 0)
(-0.001093684 0.0056956758 0 1.7119602e-007 0 0)
(-0.0010936503 0.0056956743 0 1.3639137e-007 0 0)
(-0.0010935422 0.0056957179 0 2.7211654e-008 0 0)
(-0.0010935098 0.0056957308 0 -5.3652037e-009 0 0)
(-0.0010935106 0.0056957293 0 -3.4433755e-009 0 0)
(-0.0010935147 0.005695728 0 1.0083878e-009 0 0)
(-0.0010935151 0.0056957297 0 1.3570617e-009 0 0)
(-0.001093514 0.0056957297 0 3.7331966e-010 0 0)
(-0.0010935146 0.0056957326 0 1.0003057e-011 0 0)
(-0.001093514 0.0056957297 0 7.0668453e-011 0 0)
(-0.0010935115 0.0056957274 0 -1.7597332e-009 0 0)
(-0.0010935118 0.0056957302 0 -3.6858531e-009 0 0)
(-0.0010935093 0.0056957327 0 -4.2265692e-009 0 0)
(-0.0010935006 0.0056957343 0 -4.3026557e-009 0 0)
(-0.013328577 0.0030362635 0 0.0087360057 0 0)
(-0.0071769652 0.0053056689 0 0.0049412659 0 0)
(-0.0041958365 0.007427076 0 0.0019004808 0 0)
(-0.0030581394 0.0086411937 0 0.00061123582 0 0)
(-0.0029262807 0.009183156 0 0.00016772764 0 0)
(-0.0029124584 0.009398444 0 3.2706099e-005 0 0)
(-0.0029140858 0.0094540637 0 -1.4831404e-006 0 0)
(-0.0029064615 0.0094636975 0 -9.2841999e-006 0 0)
(-0.0029057298 0.0094603366 0 -7.0266568e-006 0 0)
(-0.0029064214 0.0094542401 0 -2.4186201e-006 0 0)
(-0.002907388 0.0094517355 0 -3.1258674e-007 0 0)
(-0.0029076101 0.0094511855 0 1.5441506e-007 0 0)
(-0.0029075447 0.0094512017 0 9.0655267e-008 0 0)
(-0.0029074783 0.0094512606 0 1.5685847e-008 0 0)
(-0.0029074603 0.0094512785 0 -4.760258e-009 0 0)
(-0.0029074623 0.0094512781 0 -2.127032e-009 0 0)
(-0.0029074635 0.0094512755 0 8.1514546e-010 0 0)
(-0.0029074633 0.009451275 0 8.7703021e-010 0 0)
(-0.0029074651 0.0094512791 0 6.3465431e-010 0 0)
(-0.0029074641 0.0094512769 0 -1.2114786e-011 0 0)
(-0.0029074644 0.0094512807 0 -2.7143427e-010 0 0)
(-0.0029074627 0.0094512784 0 -4.7766567e-010 0 0)
(-0.0029074595 0.0094512711 0 -2.7527569e-009 0 0)
(-0.0029074555 0.0094512766 0 -5.9022524e-009 0 0)
(-0.0029074479 0.0094512773 0 -4.8311683e-009 0 0)
(-0.011890706 0.0042149335 0 0.0077470399 0 0)
(-0.0063949586 0.0084773948 0 0.0035310099 0 0)
(-0.0053538908 0.010502914 0 0.0016833271 0 0)
(-0.0050180575 0.012249295 0 0.00046592401 0 0)
(-0.0052834153 0.012926765 0 8.3534668e-005 0 0)
(-0.0053741608 0.013108043 0 9.2658021e-006 0 0)
(-0.0054007168 0.013149371 0 -7.6248994e-006 0 0)
(-0.0054013073 0.013153595 0 -6.7634686e-006 0 0)
(-0.0053994186 0.013148509 0 -3.7753005e-006 0 0)
(-0.0053970961 0.013142278 0 -7.6786002e-007 0 0)
(-0.0053964405 0.013139989 0 5.5765171e-008 0 0)
(-0.0053961965 0.013139562 0 1.0717895e-007 0 0)
(-0.005396133 0.0131396 0 3.4056782e-008 0 0)
(-0.0053961176 0.01313966 0 1.7388381e-009 0 0)
(-0.0053961188 0.013139676 0 -1.9679961e-009 0 0)
(-0.0053961194 0.013139677 0 -5.1111818e-010 0 0)
(-0.0053961192 0.013139675 0 3.2777483e-010 0 0)
(-0.0053961209 0.013139678 0 3.8312276e-010 0 0)
(-0.00539612 0.013139676 0 3.2158588e-010 0 0)
(-0.0053961195 0.013139677 0 2.543911e-010 0 0)
(-0.0053961181 0.013139675 0 -6.6871808e-011 0 0)
(-0.0053961191 0.013139676 0 8.7903223e-011 0 0)
(-0.0053961167 0.013139676 0 -1.849984e-009 0 0)
(-0.0053961099 0.013139674 0 -6.3808989e-009 0 0)
(-0.0053961036 0.01313967 0 -4.8226932e-009 0 0)
(-0.0094302608 0.0060734959 0 0.0058569184 0 0)
(-0.0066948895 0.011021726 0 0.0026439373 0 0)
(-0.0069330284 0.014044365 0 0.0010507218 0 0)
(-0.0077227804 0.01599516 0 0.00027562902 0 0)
(-0.0082747099 0.016588228 0 3.868935e-005 0 0)
(-0.0083972906 0.016724055 0 -6.6104262e-006 0 0)
(-0.0084296894 0.016739745 0 -9.0272492e-006 0 0)
(-0.008432422 0.016736082 0 -2.6332428e-006 0 0)
(-0.0084280321 0.016729472 0 -1.9436398e-007 0 0)
(-0.0084233414 0.016724662 0 5.0505889e-007 0 0)
(-0.0084216326 0.016723182 0 2.2947647e-007 0 0)
(-0.0084211361 0.016722955 0 1.6122892e-008 0 0)
(-0.0084211144 0.016722992 0 -2.1460447e-008 0 0)
(-0.0084211526 0.016723035 0 -5.4364764e-009 0 0)
(-0.0084211668 0.016723049 0 1.5486637e-009 0 0)
(-0.008421166 0.016723051 0 7.0351336e-010 0 0)
(-0.0084211636 0.01672305 0 -3.5199671e-010 0 0)
(-0.008421164 0.01672305 0 -1.2827785e-010 0 0)
(-0.0084211642 0.016723051 0 1.7884781e-010 0 0)
(-0.0084211646 0.016723052 0 1.2534037e-010 0 0)
(-0.0084211647 0.016723051 0 3.1080178e-011 0 0)
(-0.0084211656 0.016723049 0 1.1542261e-009 0 0)
(-0.0084211612 0.016723048 0 1.2624602e-010 0 0)
(-0.0084211541 0.016723045 0 -5.0726588e-009 0 0)
(-0.0084211496 0.016723036 0 -3.6507783e-009 0 0)
(-0.0072034428 0.00884777 0 0.0034450053 0 0)
(-0.0068814744 0.014497809 0 0.0011146629 0 0)
(-0.0094490964 0.017959669 0 0.00032523238 0 0)
(-0.011199803 0.019705954 0 0.00011869449 0 0)
(-0.01181342 0.020122826 0 1.471421e-005 0 0)
(-0.011906647 0.020194433 0 -8.7846844e-006 0 0)
(-0.011927059 0.020185143 0 -3.7003955e-006 0 0)
(-0.011926249 0.020176998 0 2.6874042e-006 0 0)
(-0.011919029 0.020171041 0 2.7434612e-006 0 0)
(-0.011913429 0.020168727 0 1.2277394e-006 0 0)
(-0.011911425 0.02016822 0 1.9395941e-007 0 0)
(-0.011910923 0.02016815 0 -8.816808e-008 0 0)
(-0.011910968 0.020168156 0 -5.8015606e-008 0 0)
(-0.011911043 0.020168176 0 -6.1626749e-009 0 0)
(-0.011911064 0.020168188 0 4.4770326e-009 0 0)
(-0.011911062 0.020168191 0 1.0682438e-009 0 0)
(-0.01191106 0.020168192 0 -9.4232963e-010 0 0)
(-0.01191106 0.020168191 0 -5.4077089e-010 0 0)
(-0.01191106 0.020168191 0 -2.7592017e-011 0 0)
(-0.011911061 0.020168192 0 1.1504525e-010 0 0)
(-0.01191106 0.020168192 0 3.058429e-010 0 0)
(-0.011911062 0.02016819 0 1.8467844e-009 0 0)
(-0.011911058 0.020168188 0 1.8724538e-009 0 0)
(-0.011911054 0.020168184 0 -9.4646894e-010 0 0)
(-0.01191105 0.020168169 0 -3.6971143e-010 0 0)
(-0.0060606007 0.01130588 0 0.0011906617 0 0)
(-0.0086612098 0.019002926 0 -0.00053848533 0 0)
(-0.013595859 0.022069213 0 -0.00015776236 0 0)
(-0.015352718 0.023274001 0 1.1146099e-005 0 0)
(-0.015844378 0.023474098 0 9.2341878e-006 0 0)
(-0.015873433 0.023489294 0 6.847704e-007 0 0)
(-0.015878951 0.023469105 0 5.1546901e-006 0 0)
(-0.015873826 0.02346295 0 7.3625414e-006 0 0)
(-0.015866313 0.023460775 0 4.1730798e-006 0 0)
(-0.015861476 0.023461078 0 1.2937767e-006 0 0)
(-0.015859774 0.023461265 0 2.2499198e-008 0 0)
(-0.015859422 0.02346123 0 -1.6594048e-007 0 0)
(-0.015859522 0.023461187 0 -6.7949146e-008 0 0)
(-0.01585961 0.023461189 0 -3.6357028e-009 0 0)
(-0.015859633 0.0234612 0 5.8011458e-009 0 0)
(-0.01585963 0.023461204 0 7.4250574e-010 0 0)
(-0.015859627 0.023461204 0 -1.2715412e-009 0 0)
(-0.015859627 0.023461204 0 -8.6220869e-010 0 0)
(-0.015859628 0.023461204 0 -7.6499506e-011 0 0)
(-0.015859627 0.023461203 0 1.2389241e-010 0 0)
(-0.015859628 0.023461203 0 3.1851375e-010 0 0)
(-0.01585963 0.023461203 0 1.8538061e-009 0 0)
(-0.015859629 0.023461201 0 3.5532219e-009 0 0)
(-0.015859629 0.023461196 0 4.8013167e-009 0 0)
(-0.015859626 0.023461182 0 3.5267339e-009 0 0)
(-0.005882477 0.015826865 0 -0.0020381903 0 0)
(-0.01275716 0.024071625 0 -0.0019632794 0 0)
(-0.018947487 0.026030606 0 -0.00037102098 0 0)
(-0.020026945 0.026615662 0 -3.3203538e-005 0 0)
(-0.020366054 0.026654778 0 2.0859261e-005 0 0)
(-0.020339924 0.02664629 0 1.363506e-005 0 0)
(-0.020343587 0.026634849 0 1.2251135e-005 0 0)
(-0.020339274 0.026636924 0 8.356616e-006 0 0)
(-0.020336665 0.026639519 0 4.0131477e-006 0 0)
(-0.020333792 0.026641502 0 1.0452196e-006 0 0)
(-0.020332482 0.026641966 0 -1.2945505e-007 0 0)
(-0.020332231 0.026641866 0 -1.8975098e-007 0 0)
(-0.02033235 0.026641777 0 -5.7527076e-008 0 0)
(-0.02033243 0.026641771 0 3.6844786e-010 0 0)
(-0.020332449 0.026641781 0 5.362047e-009 0 0)
(-0.020332446 0.026641785 0 2.2613752e-010 0 0)
(-0.020332443 0.026641785 0 -1.3471657e-009 0 0)
(-0.020332443 0.026641784 0 -8.426711e-010 0 0)
(-0.020332443 0.026641783 0 -1.0022899e-010 0 0)
(-0.020332443 0.026641783 0 7.6023351e-011 0 0)
(-0.020332444 0.026641783 0 2.4351735e-010 0 0)
(-0.020332445 0.026641783 0 1.3332372e-009 0 0)
(-0.020332448 0.026641782 0 5.1545925e-009 0 0)
(-0.020332453 0.026641778 0 9.5449434e-009 0 0)
(-0.020332455 0.026641772 0 6.5937293e-009 0 0)
(-0.010702188 0.024473554 0 -0.0054898149 0 0)
(-0.020006226 0.029670184 0 -0.0029592729 0 0)
(-0.025124675 0.029790072 0 -0.00037136901 0 0)
(-0.02519166 0.029787202 0 -5.6177791e-005 0 0)
(-0.025387674 0.029746676 0 4.3036095e-005 0 0)
(-0.025359848 0.029756213 0 2.0937739e-005 0 0)
(-0.025386493 0.029764275 0 1.5244339e-005 0 0)
(-0.025391838 0.029777249 0 6.7494375e-006 0 0)
(-0.025395624 0.029783488 0 2.7988155e-006 0 0)
(-0.025394326 0.029785976 0 3.2533908e-007 0 0)
(-0.025393624 0.029786121 0 -2.2395835e-007 0 0)
(-0.025393373 0.02978587 0 -1.6041761e-007 0 0)
(-0.025393457 0.029785752 0 -3.4880291e-008 0 0)
(-0.025393509 0.029785746 0 2.4905095e-009 0 0)
(-0.025393524 0.029785755 0 3.6669687e-009 0 0)
(-0.025393521 0.029785758 0 -2.5160154e-010 0 0)
(-0.025393518 0.029785757 0 -1.0564366e-009 0 0)
(-0.025393517 0.029785756 0 -6.0907427e-010 0 0)
(-0.025393517 0.029785755 0 -9.733652e-011 0 0)
(-0.025393517 0.029785755 0 9.6861307e-012 0 0)
(-0.025393517 0.029785755 0 9.9835642e-011 0 0)
(-0.025393519 0.029785755 0 9.2590924e-010 0 0)
(-0.025393524 0.029785755 0 5.0307269e-009 0 0)
(-0.025393536 0.029785756 0 1.0205245e-008 0 0)
(-0.025393554 0.029785768 0 6.4162436e-009 0 0)
(-0.032448369 0.041144631 0 -0.0099166979 0 0)
(-0.029800023 0.034267015 0 -0.0019246137 0 0)
(-0.035653325 0.03516836 0 -0.00020262047 0 0)
(-0.0338163 0.034293797 0 -9.7616672e-006 0 0)
(-0.034554764 0.034566218 0 3.4486183e-005 0 0)
(-0.034452885 0.034551031 0 1.3521487e-005 0 0)
(-0.034572441 0.034606579 0 7.0862067e-006 0 0)
(-0.034576276 0.034615717 0 2.286595e-006 0 0)
(-0.034591425 0.034625148 0 8.6874132e-007 0 0)
(-0.034589481 0.034625833 0 -5.7482437e-008 0 0)
(-0.034589242 0.03462568 0 -1.4275843e-007 0 0)
(-0.034588622 0.034625209 0 -6.9972496e-008 0 0)
(-0.034588652 0.034625119 0 -1.1253317e-008 0 0)
(-0.034588658 0.034625109 0 1.7026297e-009 0 0)
(-0.034588674 0.03462512 0 1.4187326e-009 0 0)
(-0.034588671 0.034625121 0 -2.2236258e-010 0 0)
(-0.034588668 0.034625119 0 -4.2379351e-010 0 0)
(-0.034588666 0.034625118 0 -2.2600358e-010 0 0)
(-0.034588665 0.034625117 0 1.8862766e-012 0 0)
(-0.034588666 0.034625117 0 -2.6742386e-011 0 0)
(-0.034588666 0.034625118 0 -6.1152556e-011 0 0)
(-0.034588668 0.034625118 0 5.1275506e-010 0 0)
(-0.034588672 0.034625119 0 3.5476968e-009 0 0)
(-0.034588683 0.034625126 0 5.5838405e-009 0 0)
(-0.034588716 0.034625157 0 2.5111438e-009 0 0)
(-0.00034590818 0.00044612954 0 0.00032159108 0 0)
(-0.0004117152 2.1542512e-005 0 0.00044006324 0 0)
(-0.00040187098 -0.00013058777 0 0.0003863359 0 0)
(-0.00030645472 -0.00017073372 0 0.00030143769 0 0)
(-0.00022392968 -0.00015438373 0 0.00022295651 0 0)
(-0.00016705111 -0.00012486582 0 0.0001644326 0 0)
(-0.00012515445 -9.3986509e-005 0 0.00012400672 0 0)
(-9.6150448e-005 -5.9870578e-005 0 9.5112973e-005 0 0)
(-8.0585712e-005 -3.0679693e-005 0 7.9836557e-005 0 0)
(-7.3248412e-005 3.192872e-006 0 7.2602998e-005 0 0)
(-7.5511607e-005 3.9026257e-005 0 7.4776197e-005 0 0)
(-8.4788396e-005 7.799083e-005 0 8.3662346e-005 0 0)
(-0.00010667109 0.00013642755 0 0.00010552026 0 0)
(-0.00013751634 0.0002069472 0 0.00013507612 0 0)
(-0.00018273752 0.00030351646 0 0.00017715302 0 0)
(-0.00024963481 0.00045863248 0 0.00024206045 0 0)
(-0.00033114919 0.00066540461 0 0.00031377 0 0)
(-0.00044117123 0.00096995033 0 0.00040505647 0 0)
(-0.00055995973 0.0015277479 0 0.00050191381 0 0)
(-0.00070740664 0.0022130408 0 0.00053223103 0 0)
(-0.00067754091 0.0036178288 0 0.00041979632 0 0)
(-0.00066729539 0.0049263006 0 -0.0002022405 0 0)
(0.0010872138 0.0070318869 0 -0.0017506071 0 0)
(0.0017611626 0.0074706176 0 -0.0041080952 0 0)
(0.0098088804 0.0063934057 0 -0.012528797 0 0)
(-0.0004075213 0.00058094312 0 0.00037129069 0 0)
(-0.0004644221 -2.4787212e-008 0 0.00050229266 0 0)
(-0.00043544107 -0.00021281134 0 0.00041455649 0 0)
(-0.00030687437 -0.00025217292 0 0.00029840654 0 0)
(-0.00020546152 -0.00022337047 0 0.00020501407 0 0)
(-0.0001410566 -0.00017787264 0 0.00013849436 0 0)
(-9.8126913e-005 -0.0001345484 0 9.7259513e-005 0 0)
(-6.9250313e-005 -9.0375499e-005 0 6.8934595e-005 0 0)
(-5.3289561e-005 -5.1082267e-005 0 5.3021935e-005 0 0)
(-4.5629631e-005 -1.2853636e-005 0 4.5292142e-005 0 0)
(-4.3394576e-005 2.7908927e-005 0 4.363193e-005 0 0)
(-4.6383884e-005 7.2163594e-005 0 4.5885449e-005 0 0)
(-5.5066704e-005 0.00013470052 0 5.4577827e-005 0 0)
(-6.8926226e-005 0.00021899767 0 6.8406639e-005 0 0)
(-8.6023589e-005 0.00031751391 0 8.185957e-005 0 0)
(-0.00010941344 0.00047834309 0 0.00010339473 0 0)
(-0.00012814389 0.00069635305 0 0.00011641791 0 0)
(-0.00014679508 0.00098930827 0 0.00011475826 0 0)
(-0.00010264184 0.0015067626 0 5.2486039e-005 0 0)
(-1.7900319e-005 0.0021241073 0 -0.00012839022 0 0)
(0.00040812659 0.0031394271 0 -0.00064729293 0 0)
(0.00099497005 0.0038566764 0 -0.0016848993 0 0)
(0.002991655 0.0043483497 0 -0.0036923727 0 0)
(0.0051267544 0.001832893 0 -0.0072355588 0 0)
(0.0063682014 -0.0019177492 0 -0.0094351306 0 0)
(-0.00052219085 0.00072327079 0 0.00047642573 0 0)
(-0.00055102051 -5.5872081e-005 0 0.00059372429 0 0)
(-0.00047784426 -0.00033193635 0 0.00045066163 0 0)
(-0.00029726571 -0.00036022996 0 0.00028557232 0 0)
(-0.00017240589 -0.00030655033 0 0.0001712872 0 0)
(-0.0001025956 -0.00023719488 0 9.9584096e-005 0 0)
(-6.1803976e-005 -0.00017891288 0 6.0507261e-005 0 0)
(-3.5583157e-005 -0.00012330954 0 3.5234784e-005 0 0)
(-2.170008e-005 -7.6326399e-005 0 2.1219992e-005 0 0)
(-1.3696504e-005 -3.6108198e-005 0 1.3493937e-005 0 0)
(-8.0596211e-006 9.7756968e-006 0 8.6019994e-006 0 0)
(-4.7218462e-006 5.8187515e-005 0 4.64434e-006 0 0)
(-1.7968867e-006 0.00012079713 0 5.9256898e-007 0 0)
(4.1246049e-006 0.0002043106 0 -4.3763832e-006 0 0)
(1.2911076e-005 0.00030686546 0 -1.5197555e-005 0 0)
(2.8491998e-005 0.00045060228 0 -3.4842096e-005 0 0)
(6.7517741e-005 0.00067055789 0 -7.7063645e-005 0 0)
(0.00012447128 0.00093053101 0 -0.00015221479 0 0)
(0.00027363241 0.0013759085 0 -0.00031730822 0 0)
(0.000509415 0.0018832623 0 -0.00062225076 0 0)
(0.0010767592 0.0026091061 0 -0.001259187 0 0)
(0.0019031313 0.0029940769 0 -0.002315815 0 0)
(0.0033897447 0.0028569701 0 -0.0037591031 0 0)
(0.004670409 0.00058216861 0 -0.0054181696 0 0)
(0.0036574927 -0.0035885262 0 -0.0040496647 0 0)
(-0.00073339529 0.00089309835 0 0.00067051544 0 0)
(-0.00066755131 -0.00014445138 0 0.00071795912 0 0)
(-0.0005121099 -0.00046304216 0 0.00047373613 0 0)