/*--------------------------------*- C++ -*----------------------------------*\
| =========                 |                                                 |
| \\      /  F ield         | OpenFOAM: The Open Source CFD Toolbox           |
|  \\    /   O peration     | Version:  5.x                                   |
|   \\  /    A nd           | Web:      www.OpenFOAM.org                      |
|    \\/     M anipulation  |                                                 |
\*---------------------------------------------------------------------------*/
/*   Windows 32 and 64 bit porting by blueCAPE: http://www.bluecape.com.pt   *\
|  Based on Windows porting (2.0.x v4) by Symscape: http://www.symscape.com   |
\*---------------------------------------------------------------------------*/
FoamFile
{
    version     2.0;
    format      ascii;
    class       volVectorField;
    location    "0.14";
    object      U;
}
// * * * * * * * * * * * * * * * * * * * * * * * * * * * * * * * * * * * * * //

dimensions      [0 1 -1 0 0 0 0];

internalField   nonuniform List<vector> 
750
(
(0.03919927 -0.00011304926 0)
(0.040154286 -0.00014050257 0)
(0.041406446 -0.000137224 0)
(0.042380604 -0.0001154884 0)
(0.043241711 -9.5895334e-005 0)
(0.04391927 -7.6801205e-005 0)
(0.044467739 -6.2308161e-005 0)
(0.044915025 -5.1860906e-005 0)
(0.045295615 -4.5693182e-005 0)
(0.045644609 -4.3790671e-005 0)
(0.045993949 -4.6544401e-005 0)
(0.046387368 -5.5106121e-005 0)
(0.046873022 -7.0488849e-005 0)
(0.047510215 -9.5181976e-005 0)
(0.04839117 -0.00013342286 0)
(0.049637463 -0.00019066935 0)
(0.051426487 -0.00027726629 0)
(0.054057634 -0.00041072357 0)
(0.057966218 -0.00062304423 0)
(0.063955587 -0.00098469885 0)
(0.073705186 -0.0015402658 0)
(0.088246846 -0.0024222488 0)
(0.11263701 -0.0034354229 0)
(0.14190799 -0.0044055425 0)
(0.18395049 -0.0048336988 0)
(0.039202086 -0.00033785751 0)
(0.040159009 -0.00042553537 0)
(0.041414305 -0.00040980704 0)
(0.042390005 -0.00034741268 0)
(0.043250452 -0.00028723944 0)
(0.043927115 -0.00023019054 0)
(0.044473712 -0.00018652578 0)
(0.04491904 -0.00015516687 0)
(0.04529749 -0.0001366348 0)
(0.045644197 -0.00013093752 0)
(0.045990973 -0.00013908464 0)
(0.046381271 -0.00016460674 0)
(0.046862705 -0.0002105226 0)
(0.047494217 -0.00028422647 0)
(0.048367091 -0.00039828139 0)
(0.049600739 -0.00056900702 0)
(0.0513707 -0.00082699551 0)
(0.053972063 -0.0012244513 0)
(0.057831004 -0.0018565943 0)
(0.063740636 -0.0029300969 0)
(0.073345793 -0.0045915906 0)
(0.087640086 -0.0071737005 0)
(0.11154188 -0.010235386 0)
(0.14006012 -0.013025206 0)
(0.18170252 -0.014492734 0)
(0.039206628 -0.0005627794 0)
(0.0401688 -0.00071361953 0)
(0.041430272 -0.00068184023 0)
(0.042408809 -0.00057999818 0)
(0.043268178 -0.00047812262 0)
(0.043942881 -0.00038314962 0)
(0.044485872 -0.00031007842 0)
(0.044927251 -0.00025775927 0)
(0.045301481 -0.00022679468 0)
(0.045643587 -0.00021725676 0)
(0.045985248 -0.00023061779 0)
(0.046369274 -0.00027282207 0)
(0.046842437 -0.00034884797 0)
(0.04746254 -0.00047085043 0)
(0.048319053 -0.00065951405 0)
(0.049527763 -0.00094181005 0)
(0.051259276 -0.0013680443 0)
(0.053800583 -0.0020242373 0)
(0.05756115 -0.0030685011 0)
(0.063310438 -0.0048345153 0)
(0.072619825 -0.0075764041 0)
(0.086384356 -0.011784162 0)
(0.10940306 -0.016858925 0)
(0.13650888 -0.021408726 0)
(0.17719947 -0.024042579 0)
(0.039212871 -0.00078987687 0)
(0.04018358 -0.0010036572 0)
(0.041454249 -0.0009552546 0)
(0.042437011 -0.00081282846 0)
(0.043294822 -0.00066855001 0)
(0.043966389 -0.00053522627 0)
(0.044504043 -0.00043245909 0)
(0.044939443 -0.00035907888 0)
(0.045307393 -0.00031557576 0)
(0.045642591 -0.00030205423 0)
(0.045976623 -0.00032036166 0)
(0.046351266 -0.00037875862 0)
(0.046812269 -0.00048412572 0)
(0.047415391 -0.00065311615 0)
(0.048247417 -0.00091426941 0)
(0.049419505 -0.0013047493 0)
(0.051093971 -0.0018937215 0)
(0.053546375 -0.0027995419 0)
(0.057163003 -0.004238989 0)
(0.06266512 -0.0066663427 0)
(0.071530496 -0.010432665 0)
(0.08451908 -0.016178769 0)
(0.10628217 -0.023122635 0)
(0.13126843 -0.029366193 0)
(0.17039899 -0.033274181 0)
(0.0392213 -0.0010200856 0)
(0.040203121 -0.0012961861 0)
(0.041486159 -0.0012307905 0)
(0.042474659 -0.0010459147 0)
(0.043330271 -0.0008583537 0)
(0.043997374 -0.0006860199 0)
(0.044527904 -0.00055319011 0)
(0.044955275 -0.00045860526 0)
(0.045314869 -0.00040243556 0)
(0.045640884 -0.00038472671 0)
(0.045964835 -0.00040762918 0)
(0.046327057 -0.00048159169 0)
(0.046772159 -0.00061518402 0)
(0.047353019 -0.00082935251 0)
(0.048152834 -0.001160224 0)
(0.049277239 -0.0016541881 0)
(0.050877223 -0.0023982109 0)
(0.053213169 -0.0035409322 0)
(0.05664196 -0.0053528551 0)
(0.061812292 -0.0083987854 0)
(0.070123924 -0.013113845 0)
(0.082067863 -0.020276185 0)
(0.10220733 -0.028911053 0)
(0.12438088 -0.036749903 0)
(0.16135346 -0.041794627 0)
(0.039232529 -0.0012541824 0)
(0.040227298 -0.0015920253 0)
(0.041526044 -0.0015089836 0)
(0.042521992 -0.0012793808 0)
(0.043374583 -0.0010472927 0)
(0.044035735 -0.00083510835 0)
(0.044557296 -0.00067179272 0)
(0.044974571 -0.00055582791 0)
(0.045323718 -0.00048682826 0)
(0.045638278 -0.0004646956 0)
(0.045949811 -0.00049176532 0)
(0.046296751 -0.00058047814 0)
(0.046722222 -0.00074089375 0)
(0.047275809 -0.00099797214 0)
(0.048035921 -0.0013950046 0)
(0.049102253 -0.0019866972 0)
(0.050611608 -0.0028761572 0)
(0.052805604 -0.004240219 0)
(0.056006449 -0.0063947966 0)
(0.060776814 -0.010007083 0)
(0.068409687 -0.01557131 0)
(0.079070882 -0.024007999 0)
(0.09724739 -0.034081861 0)
(0.11590209 -0.043479853 0)
(0.15034064 -0.049444939 0)
(0.039247222 -0.0014931081 0)
(0.040256088 -0.0018917488 0)
(0.041574133 -0.0017904803 0)
(0.042579542 -0.0015133189 0)
(0.04342806 -0.0012350641 0)
(0.044081654 -0.00098206347 0)
(0.04459225 -0.00078777617 0)
(0.04499734 -0.00065022546 0)
(0.045333947 -0.00056820435 0)
(0.045634837 -0.00054140835 0)
(0.045931649 -0.0005721442 0)
(0.046260682 -0.00067453106 0)
(0.046662797 -0.00086019909 0)
(0.047184338 -0.001157543 0)
(0.047898001 -0.0016164583 0)
(0.048896311 -0.0022989806 0)
(0.050300753 -0.00332254 0)
(0.052330632 -0.0048888787 0)
(0.055265265 -0.0073515313 0)
(0.059576841 -0.011469531 0)
(0.066413672 -0.017758897 0)
(0.07557949 -0.027291304 0)
(0.091493506 -0.038493324 0)
(0.10580152 -0.049292019 0)
(0.13802458 -0.056310314 0)
(0.039266692 -0.001738205 0)
(0.040289791 -0.0021956464 0)
(0.041631314 -0.0020762379 0)
(0.042648372 -0.0017478223 0)
(0.04349147 -0.0014212073 0)
(0.044135832 -0.0011265058 0)
(0.044633149 -0.00090059232 0)
(0.045023944 -0.00074126427 0)
(0.045345883 -0.00064605475 0)
(0.045631191 -0.00061426047 0)
(0.045910822 -0.00064809316 0)
(0.046219447 -0.00076303612 0)
(0.046594741 -0.00097211794 0)
(0.047080015 -0.0013065486 0)
(0.04774117 -0.0018225315 0)
(0.048661891 -0.0025881308 0)
(0.049949634 -0.0037332338 0)
(0.051796563 -0.0054807765 0)
(0.054432223 -0.0082124391 0)
(0.058241034 -0.012764075 0)
(0.064177934 -0.01964518 0)
(0.071657103 -0.030074377 0)
(0.085020674 -0.042047977 0)
(0.094602843 -0.054126209 0)
(0.1246209 -0.061144732 0)
(0.039292206 -0.0019909274 0)
(0.040329961 -0.0025043943 0)
(0.041699082 -0.0023671227 0)
(0.042730211 -0.001983015 0)
(0.043566295 -0.0016053576 0)
(0.044199467 -0.0012678265 0)
(0.04468085 -0.0010096333 0)
(0.045055268 -0.00082841595 0)
(0.045360387 -0.00071984926 0)
(0.045628223 -0.00068271201 0)
(0.045888427 -0.0007190832 0)
(0.046174388 -0.00084530838 0)
(0.04651982 -0.0010756059 0)
(0.046964688 -0.0014438414 0)
(0.047568281 -0.002011294 0)
(0.048403224 -0.0028518254 0)
(0.049563982 -0.0041047031 0)
(0.05121178 -0.0060084802 0)
(0.053525148 -0.0089681712 0)
(0.056786282 -0.013875974 0)
(0.061757875 -0.021185212 0)
(0.067406766 -0.032277995 0)
(0.077978674 -0.044666937 0)
(0.082482345 -0.058147523 0)
(0.10994648 -0.064351251 0)
(0.039323967 -0.0022509169 0)
(0.040380016 -0.0028215895 0)
(0.041779794 -0.0026622195 0)
(0.042827635 -0.0022190896 0)
(0.043654878 -0.0017871914 0)
(0.044274048 -0.0014053529 0)
(0.044736928 -0.0011143892 0)
(0.045092745 -0.0009111414 0)
(0.045378925 -0.00078911837 0)
(0.045627379 -0.00074639326 0)
(0.045866389 -0.0007845702 0)
(0.046127408 -0.00092067928 0)
(0.04644042 -0.0011699358 0)
(0.046840766 -0.0015684816 0)
(0.047382867 -0.0021816785 0)
(0.048125757 -0.0030881185 0)
(0.049147869 -0.0044339023 0)
(0.050584899 -0.0064702414 0)
(0.052563485 -0.0096133471 0)
(0.055235609 -0.014788686 0)
(0.059213547 -0.022404158 0)
(0.063040889 -0.033862438 0)
(0.07041254 -0.046383661 0)
(0.069200653 -0.060850489 0)
(0.090419263 -0.064676218 0)
(0.21692265 -0.0025599343 0)
(0.22573584 -0.00071528081 0)
(0.22714437 8.7076345e-005 0)
(0.22514574 0.00021152018 0)
(0.22423156 9.1456162e-005 0)
(0.22372889 2.6926528e-005 0)
(0.22377615 -6.7737928e-006 0)
(0.22385101 -7.805009e-006 0)
(0.22388358 -1.8051889e-006 0)
(0.22387699 6.0659447e-007 0)
(0.22387004 6.1716212e-007 0)
(0.22386794 1.0903711e-007 0)
(0.22386862 -7.4973699e-008 0)
(0.22386915 -4.2054189e-008 0)
(0.22386924 -4.6339196e-009 0)
(0.22386921 3.0524766e-009 0)
(0.22386919 1.5951267e-009 0)
(0.22386919 1.2716273e-010 0)
(0.22386919 -8.8643145e-011 0)
(0.22386919 8.7630122e-011 0)
(0.22386919 -1.4860002e-010 0)
(0.22386919 4.5179691e-010 0)
(0.22386919 1.0260831e-010 0)
(0.22386919 -8.6293059e-009 0)
(0.22386931 -8.8340989e-009 0)
(0.21383092 -0.0074016737 0)
(0.2216839 -0.0021280946 0)
(0.22356237 0.00018930348 0)
(0.22190687 0.00048053848 0)
(0.22111627 0.00028191862 0)
(0.22072715 7.5142079e-005 0)
(0.22078191 -2.0158964e-005 0)
(0.22083994 -2.0784657e-005 0)
(0.22086036 -4.1546479e-006 0)
(0.22085334 2.3540904e-006 0)
(0.2208473 1.6839949e-006 0)
(0.22084609 2.2510698e-007 0)
(0.22084682 -2.2275868e-007 0)
(0.22084725 -1.1513558e-007 0)
(0.22084731 -9.826785e-009 0)
(0.22084728 9.419268e-009 0)
(0.22084726 3.6433054e-009 0)
(0.22084726 1.5484622e-010 0)
(0.22084726 -3.7499089e-010 0)
(0.22084727 4.4097598e-010 0)
(0.22084726 4.4988384e-010 0)
(0.22084726 5.2079881e-010 0)
(0.22084726 -7.1281594e-010 0)
(0.22084727 -2.1756234e-008 0)
(0.22084735 -2.2654184e-008 0)
(0.20752204 -0.011845152 0)
(0.21356331 -0.0034601405 0)
(0.21612272 0.0001710838 0)
(0.2148192 0.00069688882 0)
(0.21432658 0.00042559969 0)
(0.21417028 0.00010049863 0)
(0.21423186 -3.1029546e-005 0)
(0.21425608 -2.8641663e-005 0)
(0.21425882 -4.6258683e-006 0)
(0.21425117 4.0300975e-006 0)
(0.21424769 2.4318493e-006 0)
(0.2142477 2.0826044e-007 0)
(0.21424841 -3.5587979e-007 0)
(0.21424865 -1.6529143e-007 0)
(0.21424866 -1.0160106e-008 0)
(0.21424863 1.4617381e-008 0)
(0.21424863 4.7820004e-009 0)
(0.21424863 -2.0326172e-010 0)
(0.21424863 -4.5121591e-010 0)
(0.21424863 4.4747851e-010 0)
(0.21424863 6.8949957e-010 0)
(0.21424863 1.1338859e-009 0)
(0.21424863 -1.2136921e-009 0)
(0.21424863 -2.9336431e-008 0)
(0.21424866 -3.0804569e-008 0)
(0.19772316 -0.015625402 0)
(0.20163909 -0.004787493 0)
(0.2039696 0.00012938495 0)
(0.20310194 0.0008398846 0)
(0.20316054 0.00047209433 0)
(0.20320571 9.3156119e-005 0)
(0.20325523 -3.7143528e-005 0)
(0.20324103 -2.8984496e-005 0)
(0.20322909 -2.7122203e-006 0)
(0.20322234 5.1056431e-006 0)
(0.2032222 2.5825858e-006 0)
(0.20322322 3.906335e-008 0)
(0.20322372 -4.4939935e-007 0)
(0.20322373 -1.7899359e-007 0)
(0.20322368 -4.3655705e-009 0)
(0.20322367 1.7238017e-008 0)
(0.20322367 4.1954919e-009 0)
(0.20322368 -7.0925569e-010 0)
(0.20322368 -3.2043158e-010 0)
(0.20322368 2.6504708e-010 0)
(0.20322368 6.5749513e-010 0)
(0.20322368 1.2728313e-009 0)
(0.20322368 -9.6960803e-010 0)
(0.20322367 -2.8385961e-008 0)
(0.20322364 -3.0636461e-008 0)
(0.18462514 -0.018540266 0)
(0.18507265 -0.0056936676 0)
(0.18646082 0.00010515077 0)
(0.18632842 0.00080424915 0)
(0.18689228 0.00042485671 0)
(0.1870322 6.8444373e-005 0)
(0.18705678 -3.6072052e-005 0)
(0.18701371 -2.3247829e-005 0)
(0.18699544 4.4939559e-007 0)
(0.1869922 5.5336377e-006 0)
(0.18699518 2.2143281e-006 0)
(0.1869966 -1.8752926e-007 0)
(0.18699672 -4.7518199e-007 0)
(0.18699652 -1.5860854e-007 0)
(0.18699645 4.7352919e-009 0)
(0.18699646 1.7140624e-008 0)
(0.18699647 2.776214e-009 0)
(0.18699647 -1.2187378e-009 0)
(0.18699647 -2.125937e-010 0)
(0.18699647 -4.0336472e-011 0)
(0.18699647 1.7466431e-010 0)
(0.18699647 1.6039545e-009 0)
(0.18699647 5.7514321e-010 0)
(0.18699646 -2.1147419e-008 0)
(0.1869964 -2.4254437e-008 0)
(0.16843467 -0.020505047 0)
(0.16277395 -0.0057552615 0)
(0.16384689 6.2916312e-005 0)
(0.16426935 0.00062511345 0)
(0.16507065 0.00032644734 0)
(0.16521746 4.1982789e-005 0)
(0.16521937 -2.858517e-005 0)
(0.16516459 -1.4767975e-005 0)
(0.16514942 3.1499086e-006 0)
(0.16515144 5.0301666e-006 0)
(0.16515628 1.5228948e-006 0)
(0.1651574 -3.6180525e-007 0)
(0.16515709 -4.2419005e-007 0)
(0.16515677 -1.1543484e-007 0)
(0.16515672 1.2350791e-008 0)
(0.16515673 1.4419713e-008 0)
(0.16515674 1.0339173e-009 0)
(0.16515674 -1.3285205e-009 0)
(0.16515674 -5.616124e-011 0)
(0.16515674 -2.7987887e-010 0)
(0.16515675 -1.8680407e-010 0)
(0.16515675 1.5585748e-009 0)
(0.16515675 2.5937643e-009 0)
(0.16515674 -1.1220277e-008 0)
(0.16515667 -1.5347491e-008 0)
(0.14749798 -0.020606186 0)
(0.1351567 -0.0051551229 0)
(0.13644643 -2.4329734e-006 0)
(0.13686673 0.0003990241 0)
(0.13769637 0.00021793041 0)
(0.13779746 2.1364918e-005 0)
(0.1377892 -1.8261419e-005 0)
(0.13773868 -6.803098e-006 0)
(0.1377332 4.1887972e-006 0)
(0.1377398 3.6627488e-006 0)
(0.13774479 7.7890028e-007 0)
(0.13774517 -4.0627713e-007 0)
(0.13774454 -3.1240754e-007 0)
(0.13774421 -6.6749108e-008 0)
(0.13774418 1.5071097e-008 0)
(0.13774421 1.0013302e-008 0)
(0.13774421 -1.7831615e-010 0)
(0.13774421 -1.1273904e-009 0)
(0.13774421 -5.736812e-011 0)
(0.13774421 -3.7738797e-010 0)
(0.13774421 -2.3032361e-010 0)
(0.13774421 1.4323111e-009 0)
(0.13774421 3.9003246e-009 0)
(0.13774421 -2.6464606e-009 0)
(0.13774416 -7.367319e-009 0)
(0.11991689 -0.018023688 0)
(0.10276533 -0.0039162163 0)
(0.10433004 -4.484501e-005 0)
(0.10434007 0.0002008113 0)
(0.10510561 0.00012545348 0)
(0.10513977 8.5603965e-006 0)
(0.10513628 -8.7800214e-006 0)
(0.10509895 -1.8223885e-006 0)
(0.10510387 3.3759502e-006 0)
(0.10511188 2.0117568e-006 0)
(0.10511569 2.2962126e-007 0)
(0.10511531 -3.1809957e-007 0)
(0.1051146 -1.7849345e-007 0)
(0.10511434 -2.7670065e-008 0)
(0.10511434 1.2304295e-008 0)
(0.10511437 5.3467352e-009 0)
(0.10511438 -6.0710727e-010 0)
(0.10511437 -6.8696955e-010 0)
(0.10511437 -2.5805865e-011 0)
(0.10511437 -4.0662078e-010 0)
(0.10511437 -2.1107189e-010 0)
(0.10511437 1.1754012e-009 0)
(0.10511437 4.0944691e-009 0)
(0.10511438 2.6804639e-009 0)
(0.10511435 -1.8549358e-009 0)
(0.085344721 -0.012958456 0)
(0.065780948 -0.002279189 0)
(0.067421965 -1.5938163e-005 0)
(0.0670308 6.3340252e-005 0)
(0.067681734 5.8840956e-005 0)
(0.067656464 2.5130413e-006 0)
(0.067666357 -1.3228005e-006 0)
(0.067643466 1.303868e-008 0)
(0.067653366 1.601251e-006 0)
(0.067659141 6.359065e-007 0)
(0.067661237 -2.0667196e-008 0)
(0.067660465 -1.5805468e-007 0)
(0.067659927 -6.4407256e-008 0)
(0.067659771 -5.425929e-009 0)
(0.067659799 6.2742458e-009 0)
(0.067659819 1.747071e-009 0)
(0.06765982 -4.688148e-010 0)
(0.067659817 -2.5885675e-010 0)
(0.067659817 3.2231678e-011 0)
(0.067659817 -2.468993e-010 0)
(0.067659816 -1.4726469e-010 0)
(0.067659817 6.4470932e-010 0)
(0.067659819 2.8772744e-009 0)
(0.067659835 3.6927577e-009 0)
(0.067659823 8.4826913e-010 0)
(0.039519305 -0.0068006934 0)
(0.02388564 -0.0001003597 0)
(0.025740605 1.0495558e-005 0)
(0.025135926 1.7778529e-005 0)
(0.025586418 -1.8982881e-006 0)
(0.025520028 -1.4406117e-006 0)
(0.025544221 -1.0416082e-006 0)
(0.025531484 -1.7490258e-007 0)
(0.025538607 -1.2523406e-007 0)
(0.025539785 -5.0422255e-008 0)
(0.02554037 -2.4577402e-008 0)
(0.025539818 -3.7918497e-009 0)
(0.025539631 1.3585106e-009 0)
(0.025539583 1.7252789e-009 0)
(0.025539604 6.3025727e-010 0)
(0.025539611 2.2421026e-011 0)
(0.025539611 -1.2446193e-011 0)
(0.025539609 4.5468564e-011 0)
(0.02553961 1.9625096e-011 0)
(0.02553961 -8.1993689e-011 0)
(0.025539609 -7.5770279e-011 0)
(0.025539609 6.3036825e-011 0)
(0.025539611 4.9369254e-010 0)
(0.025539625 1.3145891e-010 0)
(0.025539627 -2.4575823e-010 0)
(0.039399155 -0.002778936 0)
(0.040507714 -0.0034879901 0)
(0.041975825 -0.0032547697 0)
(0.043061037 -0.0026936477 0)
(0.043865787 -0.0021453693 0)
(0.044450289 -0.0016720089 0)
(0.044871106 -0.0013147262 0)
(0.045184821 -0.0010671387 0)
(0.04542864 -0.00091786893 0)
(0.045634842 -0.00086388011 0)
(0.045828341 -0.00090403764 0)
(0.046034652 -0.0010570356 0)
(0.046278754 -0.0013392302 0)
(0.046582606 -0.0017908985 0)
(0.046993552 -0.0024838398 0)
(0.047542957 -0.0035024572 0)
(0.048271501 -0.005000851 0)
(0.049269392 -0.0072546629 0)
(0.050561432 -0.010669734 0)
(0.052061643 -0.016179448 0)
(0.054060601 -0.024141873 0)
(0.054709786 -0.035605299 0)
(0.055604188 -0.047389331 0)
(0.042882476 -0.060222891 0)
(0.035939499 -0.048613879 0)
(0.039557768 -0.0036661166 0)
(0.040857139 -0.004634545 0)
(0.042496265 -0.0041897723 0)
(0.043624716 -0.0034056353 0)
(0.044373485 -0.0026470034 0)
(0.044872842 -0.0020216356 0)
(0.045203648 -0.0015617623 0)
(0.045430242 -0.0012491731 0)
(0.045592153 -0.0010595153 0)
(0.045720037 -0.00098573116 0)
(0.045829461 -0.0010224493 0)
(0.045937215 -0.0011865524 0)
(0.046061545 -0.0014968878 0)
(0.046204932 -0.0019899665 0)
(0.046385691 -0.0027416742 0)
(0.046622811 -0.0038424389 0)
(0.04688868 -0.00543013 0)
(0.047193206 -0.0077753276 0)
(0.047495754 -0.011232887 0)
(0.047446788 -0.016571941 0)
(0.046992376 -0.023975387 0)
(0.044455945 -0.033331946 0)
(0.039962536 -0.040873446 0)
(0.025975096 -0.043916099 0)
(0.010841323 -0.02297061 0)
(0.039852385 -0.0047905078 0)
(0.041467874 -0.005974607 0)
(0.043334174 -0.0052094427 0)
(0.044468169 -0.0040982667 0)
(0.045112057 -0.003083 0)
(0.045480192 -0.0022921056 0)
(0.045685843 -0.0017315023 0)
(0.045800441 -0.0013599156 0)
(0.045864752 -0.0011342819 0)
(0.045900416 -0.0010407467 0)
(0.045914949 -0.0010692267 0)
(0.045917487 -0.0012295264 0)
(0.045909899 -0.0015418683 0)
(0.045890669 -0.0020389783 0)
(0.04583362 -0.0027889327 0)
(0.045749385 -0.0038866656 0)
(0.045574226 -0.005438471 0)
(0.045235082 -0.007686901 0)
(0.044649098 -0.010919105 0)
(0.043359096 -0.01568624 0)
(0.041048267 -0.022069843 0)
(0.036389276 -0.029310215 0)
(0.029024336 -0.034231007 0)
(0.016220711 -0.033602743 0)
(0.002709127 -0.016423565 0)
(0.040385768 -0.0063377921 0)
(0.042386676 -0.007578557 0)
(0.044428039 -0.0062940168 0)
(0.045459821 -0.0047294849 0)
(0.045912336 -0.003409454 0)
(0.046089914 -0.0024486497 0)
(0.046129806 -0.0018003684 0)
(0.04610952 -0.0013838472 0)
(0.04606221 -0.0011331361 0)
(0.045996769 -0.0010232009 0)
(0.045915291 -0.0010387281 0)
(0.04581334 -0.0011824473 0)
(0.045673439 -0.0014714061 0)
(0.045488939 -0.0019401367 0)
(0.045218724 -0.0026352169 0)
(0.044824921 -0.003644712 0)
(0.044253573 -0.0050611171 0)
(0.04335765 -0.0070617672 0)
(0.042025692 -0.0098696999 0)
(0.039807307 -0.013829503 0)
(0.036306704 -0.018917783 0)
(0.03057387 -0.024166913 0)
(0.022334115 -0.026845546 0)
(0.011583711 -0.024134377 0)
(0.00045825182 -0.010870937 0)
(0.041155488 -0.0085222578 0)
(0.043405377 -0.0094093189 0)
(0.045306583 -0.0073258381 0)
(0.046009125 -0.0052004467 0)
(0.046140437 -0.0035614115 0)
(0.046059854 -0.0024513212 0)
(0.04589493 -0.0017456319 0)
(0.045726781 -0.0013093943 0)
(0.045561289 -0.0010503915 0)
(0.045397271 -0.00093100267 0)
(0.045225686 -0.00093102881 0)
(0.045022993 -0.0010494273 0)
(0.04477159 -0.0012973827 0)
(0.044437448 -0.0016976608 0)
(0.043986255 -0.0022980279 0)
(0.043337184 -0.0031547888 0)
(0.042434792 -0.0043503662 0)
(0.041110407 -0.0060026454 0)
(0.039222755 -0.008279017 0)
(0.036386687 -0.011370257 0)
(0.032181384 -0.015163423 0)
(0.02602891 -0.018723301 0)
(0.017855154 -0.019990332 0)
(0.0087551403 -0.016782332 0)
(-0.00011911431 -0.0073112065 0)
(0.041886278 -0.011401971 0)
(0.043915973 -0.011150969 0)
(0.044985883 -0.0080203261 0)
(0.045007419 -0.0053385689 0)
(0.044662706 -0.0034562085 0)
(0.044261601 -0.0022634289 0)
(0.043877457 -0.0015519557 0)
(0.043560488 -0.0011315303 0)
(0.043288862 -0.00088818271 0)
(0.04304058 -0.0007709246 0)
(0.042795288 -0.00075902863 0)
(0.042518676 -0.00084249228 0)
(0.04218699 -0.0010348718 0)
(0.04174965 -0.0013468438 0)
(0.041167199 -0.0018138403 0)
(0.040355579 -0.0024785918 0)
(0.039235446 -0.003396394 0)
(0.037654897 -0.0046458913 0)
(0.03545091 -0.0063363257 0)
(0.03232777 -0.0085578783 0)
(0.027908376 -0.011170415 0)
(0.021874348 -0.013407112 0)
(0.01430079 -0.013757642 0)
(0.0067975034 -0.010817393 0)
(-0.00023923227 -0.0044827552 0)
(0.042021111 -0.014661646 0)
(0.042964047 -0.012034743 0)
(0.042244807 -0.0079365646 0)
(0.041234429 -0.0049237812 0)
(0.040277578 -0.0029999768 0)
(0.039533963 -0.0018633629 0)
(0.038965821 -0.0012257211 0)
(0.038529317 -0.00086497341 0)
(0.038184557 -0.00066227377 0)
(0.037886238 -0.00056179265 0)
(0.037602307 -0.00054138272 0)
(0.037296833 -0.00059363593 0)
(0.036930856 -0.00072138323 0)
(0.036461664 -0.00093566307 0)
(0.035836733 -0.0012546094 0)
(0.034983387 -0.0017084739 0)
(0.033811364 -0.0023305624 0)
(0.032193877 -0.0031671156 0)
(0.029976075 -0.0042831024 0)
(0.026924366 -0.0057212084 0)
(0.022763225 -0.0073312219 0)
(0.017354719 -0.0085752196 0)
(0.010875091 -0.0084359407 0)
(0.0050330691 -0.0061333307 0)
(-0.0002525632 -0.0023275845 0)
(0.040537559 -0.0173095 0)
(0.039492088 -0.011192976 0)
(0.036016624 -0.0066975672 0)
(0.03391305 -0.0038371279 0)
(0.032396205 -0.0021908952 0)
(0.031398718 -0.0012820248 0)
(0.030736408 -0.00080231591 0)
(0.030258646 -0.00054485187 0)
(0.02989998 -0.00040519496 0)
(0.029604717 -0.00033445872 0)
(0.029332909 -0.00031443418 0)
(0.029050194 -0.00033865386 0)
(0.028716872 -0.00040649486 0)
(0.028295831 -0.00052501998 0)
(0.02773754 -0.00070312457 0)
(0.026980614 -0.00095581228 0)
(0.025946747 -0.0013010086 0)
(0.024534901 -0.0017628074 0)
(0.022623116 -0.0023745984 0)
(0.020029684 -0.0031434678 0)
(0.016578379 -0.0039725067 0)
(0.012248287 -0.0045338968 0)
(0.0072793576 -0.0042434688 0)
(0.0032223374 -0.0027174553 0)
(-0.00022481846 -0.00080468842 0)
(0.0351125 -0.016098103 0)
(0.032343784 -0.0076524285 0)
(0.025657717 -0.0042319779 0)
(0.023054772 -0.0022089094 0)
(0.021304828 -0.0011975997 0)
(0.020298397 -0.00066482873 0)
(0.019690582 -0.00039576669 0)
(0.019285206 -0.00025859192 0)
(0.018994627 -0.00018644259 0)
(0.018765223 -0.00014954551 0)
(0.018562412 -0.00013730195 0)
(0.018357217 -0.00014482538 0)
(0.018121619 -0.00017147534 0)
(0.017826644 -0.00022055109 0)
(0.017436803 -0.00029455252 0)
(0.016908873 -0.00039979236 0)
(0.016188728 -0.00054240214 0)
(0.015208893 -0.00073249641 0)
(0.013882813 -0.00098078344 0)
(0.012100328 -0.0012819528 0)
(0.009753733 -0.0016001798 0)
(0.0068860134 -0.0017776198 0)
(0.0037074053 -0.0015651932 0)
(0.0014202653 -0.00078394388 0)
(-0.00023166029 -5.4106775e-005 0)
(0.020722487 -0.012126076 0)
(0.017580508 -0.0023703378 0)
(0.010841584 -0.00046188231 0)
(0.0094498131 -0.00021609844 0)
(0.0081555759 -8.2089011e-005 0)
(0.0075566086 -3.4306093e-005 0)
(0.0072054513 -1.2094359e-005 0)
(0.0069898449 -3.0631851e-006 0)
(0.0068430236 9.9858786e-007 0)
(0.0067331092 3.1831237e-006 0)
(0.0066403613 4.8068141e-006 0)
(0.0065498943 6.373824e-006 0)
(0.0064491166 8.3829941e-006 0)
(0.0063241879 1.0686699e-005 0)
(0.0061596542 1.4120454e-005 0)
(0.0059373221 1.8879748e-005 0)
(0.0056350723 2.5310625e-005 0)
(0.0052256061 3.3780702e-005 0)
(0.0046745829 4.5072066e-005 0)
(0.0039440664 6.0037936e-005 0)
(0.0029948527 7.9861638e-005 0)
(0.0018834381 0.00011580286 0)
(0.00068288326 0.00013231268 0)
(2.7053296e-005 0.0001945842 0)
(-0.00018830206 0.00016907124 0)
)
;

boundaryField
{
    inlet
    {
        type            fixedValue;
        value           uniform (0.03876 0 0);
    }
    walls
    {
        type            fixedValue;
        value           uniform (0 0 0);
    }
    outlet
    {
        type            zeroGradient;
    }
    centreline
    {
        type            symmetryPlane;
    }
    frontAndBack
    {
        type            empty;
    }
}


// ************************************************************************* //
