/*--------------------------------*- C++ -*----------------------------------*\
| =========                 |                                                 |
| \\      /  F ield         | OpenFOAM: The Open Source CFD Toolbox           |
|  \\    /   O peration     | Version:  5.x                                   |
|   \\  /    A nd           | Web:      www.OpenFOAM.org                      |
|    \\/     M anipulation  |                                                 |
\*---------------------------------------------------------------------------*/
/*   Windows 32 and 64 bit porting by blueCAPE: http://www.bluecape.com.pt   *\
|  Based on Windows porting (2.0.x v4) by Symscape: http://www.symscape.com   |
\*---------------------------------------------------------------------------*/
FoamFile
{
    version     2.0;
    format      ascii;
    class       volVectorField;
    location    "0.14";
    object      U_0;
}
// * * * * * * * * * * * * * * * * * * * * * * * * * * * * * * * * * * * * * //

dimensions      [0 1 -1 0 0 0 0];

internalField   nonuniform List<vector> 
750
(
(0.03919882 -0.00011294415 0)
(0.040153014 -0.00014036331 0)
(0.041403828 -0.00013707248 0)
(0.042376856 -0.00011534563 0)
(0.043236827 -9.5771302e-005 0)
(0.043913568 -7.6713869e-005 0)
(0.044461432 -6.2244667e-005 0)
(0.044908306 -5.1817002e-005 0)
(0.045288604 -4.5663347e-005 0)
(0.04563742 -4.3771389e-005 0)
(0.045986632 -4.6531617e-005 0)
(0.046379971 -5.5096952e-005 0)
(0.046865561 -7.048089e-005 0)
(0.047502694 -9.5172148e-005 0)
(0.048383552 -0.00013340724 0)
(0.049629697 -0.00019064352 0)
(0.051418454 -0.0002772221 0)
(0.05404917 -0.00041062831 0)
(0.05795666 -0.0006228354 0)
(0.063943842 -0.00098432882 0)
(0.073689871 -0.0015398805 0)
(0.088229099 -0.0024222776 0)
(0.11262216 -0.0034362769 0)
(0.14190285 -0.0044070083 0)
(0.18395806 -0.0048351002 0)
(0.039201631 -0.00033754242 0)
(0.040157727 -0.00042511346 0)
(0.041411672 -0.00040935375 0)
(0.042386238 -0.00034698231 0)
(0.043245557 -0.00028687522 0)
(0.043921406 -0.00022992365 0)
(0.044467395 -0.00018633485 0)
(0.044912315 -0.00015503557 0)
(0.045290474 -0.00013654623 0)
(0.045637007 -0.00013087989 0)
(0.045983655 -0.00013904654 0)
(0.046373873 -0.0001645792 0)
(0.046855247 -0.00021049915 0)
(0.047486699 -0.00028419794 0)
(0.04835948 -0.00039823475 0)
(0.049592983 -0.00056893024 0)
(0.051362682 -0.00082686401 0)
(0.05396362 -0.0012241668 0)
(0.057821484 -0.0018559795 0)
(0.063729007 -0.0029290247 0)
(0.073330778 -0.0045904718 0)
(0.087622771 -0.007173762 0)
(0.11152721 -0.010237735 0)
(0.14005386 -0.013029359 0)
(0.18170829 -0.014496816 0)
(0.039206164 -0.000562253 0)
(0.040167501 -0.00071291091 0)
(0.041427609 -0.00068108533 0)
(0.04240501 -0.00057927957 0)
(0.043263258 -0.00047752093 0)
(0.043937153 -0.00038270324 0)
(0.044479538 -0.00030976036 0)
(0.044920515 -0.00025754152 0)
(0.045294458 -0.00022664824 0)
(0.045636395 -0.00021716131 0)
(0.045977929 -0.00023055447 0)
(0.046361877 -0.00027277668 0)
(0.046834985 -0.00034881007 0)
(0.047455032 -0.0004708039 0)
(0.048311455 -0.00065943732 0)
(0.04952003 -0.00094168391 0)
(0.05125129 -0.0013678274 0)
(0.053792183 -0.0020237686 0)
(0.057551716 -0.0030674947 0)
(0.063299015 -0.0048327823 0)
(0.072605368 -0.007574619 0)
(0.086367872 -0.011784237 0)
(0.10938876 -0.016862516 0)
(0.13650092 -0.021415183 0)
(0.17720232 -0.024048974 0)
(0.039212393 -0.00078913533 0)
(0.040182258 -0.0010026581 0)
(0.041451544 -0.00095419652 0)
(0.04243317 -0.00081182277 0)
(0.043289865 -0.00066770972 0)
(0.043960629 -0.00053460393 0)
(0.044497686 -0.00043201554 0)
(0.044932692 -0.00035877629 0)
(0.045300362 -0.00031537265 0)
(0.045635395 -0.00030192193 0)
(0.045969305 -0.00032027357 0)
(0.046343873 -0.00037869645 0)
(0.046804825 -0.0004840747 0)
(0.047407898 -0.00065305259 0)
(0.04823984 -0.00091416484 0)
(0.049411805 -0.0013045766 0)
(0.051086032 -0.0018934225 0)
(0.053538041 -0.0027988966 0)
(0.057153694 -0.0042376153 0)
(0.062653986 -0.006664009 0)
(0.071516704 -0.010430283 0)
(0.084503692 -0.016178889 0)
(0.10626859 -0.023127217 0)
(0.1312597 -0.029374587 0)
(0.17039868 -0.033282541 0)
(0.039220804 -0.0010191241 0)
(0.040201773 -0.0012948921 0)
(0.0414834 -0.0012294264 0)
(0.042470765 -0.0010446231 0)
(0.043325266 -0.00085727664 0)
(0.043991573 -0.00068522273 0)
(0.044521519 -0.00055262374 0)
(0.044948505 -0.00045821962 0)
(0.045307827 -0.00040217769 0)
(0.045633685 -0.0003845588 0)
(0.045957519 -0.00040751784 0)
(0.04631967 -0.00048151385 0)
(0.046764728 -0.00061512083 0)
(0.047345545 -0.00082927385 0)
(0.048145285 -0.0011600944 0)
(0.049269584 -0.0016539726 0)
(0.050869347 -0.0023978347 0)
(0.053204925 -0.0035401235 0)
(0.05663282 -0.0053511461 0)
(0.061801524 -0.0083959384 0)
(0.070110921 -0.013110968 0)
(0.082053506 -0.02027628 0)
(0.10219489 -0.028916433 0)
(0.12437232 -0.036759555 0)
(0.16135018 -0.041804438 0)
(0.03923201 -0.0012529953 0)
(0.040225923 -0.0015904318 0)
(0.041523223 -0.0015073093 0)
(0.04251803 -0.0012778035 0)
(0.043369516 -0.0010459815 0)
(0.04402988 -0.00083413801 0)
(0.044550872 -0.00067110674 0)
(0.044967774 -0.00055536155 0)
(0.045316659 -0.00048651775 0)
(0.045631071 -0.0004644941 0)
(0.045942496 -0.00049163238 0)
(0.04628937 -0.00058038572 0)
(0.046714804 -0.00074081999 0)
(0.047268357 -0.00099788102 0)
(0.048028404 -0.001394853 0)
(0.049094648 -0.0019864435 0)
(0.050603809 -0.0028757102 0)
(0.052797471 -0.004239258 0)
(0.05599752 -0.0063927921 0)
(0.060766456 -0.010003783 0)
(0.068397512 -0.015568061 0)
(0.079057675 -0.024008178 0)
(0.097236269 -0.034087948 0)
(0.11589421 -0.043490444 0)
(0.15033537 -0.049455145 0)
(0.039246676 -0.0014916885 0)
(0.040254676 -0.0018898503 0)
(0.041571234 -0.00178849 0)
(0.04257549 -0.0015114553 0)
(0.043422907 -0.0012335177 0)
(0.04407573 -0.0009809269 0)
(0.044585771 -0.00078697398 0)
(0.044990504 -0.00064968131 0)
(0.045326861 -0.00056784388 0)
(0.045627612 -0.00054117615 0)
(0.04592433 -0.00057199082 0)
(0.046253301 -0.00067442567 0)
(0.046655386 -0.00086011786 0)
(0.047176905 -0.0011574418 0)
(0.047890515 -0.0016162886 0)
(0.04888876 -0.0022986956 0)
(0.050293037 -0.0033220318 0)
(0.052322631 -0.0048877835 0)
(0.055256565 -0.0073492676 0)
(0.059566914 -0.011465871 0)
(0.066402297 -0.017755327 0)
(0.075567615 -0.02729168 0)
(0.091483822 -0.038500041 0)
(0.10579452 -0.049303269 0)
(0.13801885 -0.056320535 0)
(0.039266114 -0.001736544 0)
(0.040288325 -0.0021934349 0)
(0.04162831 -0.002073924 0)
(0.042644195 -0.0017456719 0)
(0.043486205 -0.0014194287 0)
(0.044129812 -0.0011252067 0)
(0.044626588 -0.00089967785 0)
(0.045017047 -0.00074064627 0)
(0.045338751 -0.0006456472 0)
(0.04562393 -0.00061400003 0)
(0.045903479 -0.00064792213 0)
(0.046212052 -0.00076292026 0)
(0.046587325 -0.00097203122 0)
(0.047072588 -0.0013064401 0)
(0.047733702 -0.0018223484 0)
(0.048654385 -0.0025878214 0)
(0.049941998 -0.0037326743 0)
(0.051788704 -0.0054795745 0)
(0.054423758 -0.0082099521 0)
(0.058231552 -0.012760106 0)
(0.064167338 -0.019641421 0)
(0.071646493 -0.030074956 0)
(0.085012299 -0.042055265 0)
(0.094596402 -0.054137607 0)
(0.12461637 -0.061154696 0)
(0.039291586 -0.0019890126 0)
(0.040328411 -0.0025018579 0)
(0.041695933 -0.0023644757 0)
(0.042725865 -0.0019805771 0)
(0.043560876 -0.0016033556 0)
(0.044193305 -0.0012663636 0)
(0.044674172 -0.0010086123 0)
(0.045048278 -0.00082772905 0)
(0.045353178 -0.00071939752 0)
(0.045620898 -0.00068242611 0)
(0.04588103 -0.00071889833 0)
(0.046166955 -0.00084518406 0)
(0.046512374 -0.0010755153 0)
(0.046957243 -0.0014437294 0)
(0.047560811 -0.0020111026 0)
(0.048395741 -0.0028514986 0)
(0.049556413 -0.0041041063 0)
(0.051204041 -0.0060071799 0)
(0.053516909 -0.0089655009 0)
(0.056777254 -0.013871772 0)
(0.061748071 -0.021181341 0)
(0.067397356 -0.032278884 0)
(0.077971374 -0.044674776 0)
(0.082477061 -0.058159502 0)
(0.10994399 -0.064360809 0)
(0.039323286 -0.0022487328 0)
(0.040378347 -0.0028187104 0)
(0.041776446 -0.0026592289 0)
(0.042823063 -0.0022163614 0)
(0.043649243 -0.0017849677 0)
(0.044267691 -0.0014037335 0)
(0.044730093 -0.0011132692 0)
(0.045085618 -0.00091039004 0)
(0.045371603 -0.00078862783 0)
(0.045619953 -0.00074608489 0)
(0.045858905 -0.0007843735 0)
(0.046119899 -0.00092054937 0)
(0.046432908 -0.0011698452 0)
(0.04683327 -0.0015683696 0)
(0.04737536 -0.0021814844 0)
(0.048118271 -0.0030877839 0)
(0.049140339 -0.0044332806 0)
(0.050577244 -0.0064688623 0)
(0.052555498 -0.0096105417 0)
(0.055227043 -0.014784336 0)
(0.059204547 -0.022400299 0)
(0.063032525 -0.033863645 0)
(0.070406368 -0.046392098 0)
(0.069196831 -0.0608632 0)
(0.090417793 -0.064685554 0)
(0.21693901 -0.0025602512 0)
(0.2257496 -0.00071450518 0)
(0.22715098 8.8031633e-005 0)
(0.22514946 0.00021143922 0)
(0.22424054 9.0587983e-005 0)
(0.22374386 2.6302939e-005 0)
(0.22379395 -6.9743739e-006 0)
(0.22386873 -7.770387e-006 0)
(0.22390071 -1.7450213e-006 0)
(0.22389382 6.2888435e-007 0)
(0.22388684 6.1657314e-007 0)
(0.22388479 1.0500801e-007 0)
(0.22388549 -7.6065615e-008 0)
(0.22388602 -4.1836926e-008 0)
(0.22388611 -4.4124605e-009 0)
(0.22388607 3.0738399e-009 0)
(0.22388606 1.5716239e-009 0)
(0.22388605 1.0772392e-010 0)
(0.22388605 -9.8462055e-011 0)
(0.22388605 8.6880363e-011 0)
(0.22388605 -1.4658069e-010 0)
(0.22388605 4.6039156e-010 0)
(0.22388605 1.0919252e-010 0)
(0.22388605 -8.7038438e-009 0)
(0.22388617 -8.9131193e-009 0)
(0.21384479 -0.00740283 0)
(0.22169645 -0.0021263256 0)
(0.22357285 0.00019089725 0)
(0.22191602 0.00048015864 0)
(0.22112987 0.00027992371 0)
(0.22074537 7.3523523e-005 0)
(0.22080205 -2.0650816e-005 0)
(0.22085982 -2.0660201e-005 0)
(0.22087973 -3.9894307e-006 0)
(0.22087248 2.4119603e-006 0)
(0.22086645 1.6792395e-006 0)
(0.22086528 2.1385509e-007 0)
(0.22086602 -2.2549665e-007 0)
(0.22086645 -1.1427348e-007 0)
(0.22086651 -9.2302182e-009 0)
(0.22086647 9.4596073e-009 0)
(0.22086646 3.5648901e-009 0)
(0.22086646 1.024514e-010 0)
(0.22086646 -3.9122407e-010 0)
(0.22086646 4.4024094e-010 0)
(0.22086646 4.4941182e-010 0)
(0.22086646 5.4350692e-010 0)
(0.22086646 -6.8874494e-010 0)
(0.22086646 -2.1918587e-008 0)
(0.22086655 -2.2829695e-008 0)
(0.2075312 -0.011847316 0)
(0.21357447 -0.0034584984 0)
(0.21613721 0.00017264726 0)
(0.21483532 0.00069578622 0)
(0.21434611 0.00042269915 0)
(0.21419204 9.8283661e-005 0)
(0.21425397 -3.1626773e-005 0)
(0.2142777 -2.8412632e-005 0)
(0.21428009 -4.3824286e-006 0)
(0.21427236 4.1069e-006 0)
(0.21426892 2.4201514e-006 0)
(0.21426896 1.9144091e-007 0)
(0.21426967 -3.592701e-007 0)
(0.21426991 -1.6381399e-007 0)
(0.21426991 -9.3033869e-009 0)
(0.21426988 1.464391e-008 0)
(0.21426988 4.6613658e-009 0)
(0.21426988 -2.6638021e-010 0)
(0.21426988 -4.6088174e-010 0)
(0.21426988 4.4759227e-010 0)
(0.21426988 6.8800513e-010 0)
(0.21426988 1.1635359e-009 0)
(0.21426988 -1.1762825e-009 0)
(0.21426988 -2.949782e-008 0)
(0.21426991 -3.0989173e-008 0)
(0.1977263 -0.015628462 0)
(0.20164859 -0.0047873934 0)
(0.20398417 0.00013018409 0)
(0.2031214 0.00083794911 0)
(0.20318208 0.00046862314 0)
(0.20322679 9.0865409e-005 0)
(0.20327524 -3.7608946e-005 0)
(0.20326047 -2.8653086e-005 0)
(0.20324839 -2.4332886e-006 0)
(0.2032417 5.1762669e-006 0)
(0.20324162 2.5623088e-006 0)
(0.20324265 2.0081147e-008 0)
(0.20324314 -4.5213211e-007 0)
(0.20324315 -1.770426e-007 0)
(0.20324311 -3.4412718e-009 0)
(0.20324309 1.7210101e-008 0)
(0.2032431 4.048329e-009 0)
(0.2032431 -7.5949838e-010 0)
(0.2032431 -3.2010759e-010 0)
(0.2032431 2.6464125e-010 0)
(0.2032431 6.5203808e-010 0)
(0.2032431 1.2951252e-009 0)
(0.2032431 -9.0910288e-010 0)
(0.20324309 -2.8436759e-008 0)
(0.20324307 -3.0725106e-008 0)
(0.18462305 -0.018544309 0)
(0.18507743 -0.0056951079 0)
(0.18647095 0.00010427278 0)
(0.186344 0.00080153965 0)
(0.18690802 0.0004214966 0)
(0.18704549 6.6576118e-005 0)
(0.18706828 -3.6259855e-005 0)
(0.18702481 -2.2847732e-005 0)
(0.18700665 7.1213278e-007 0)
(0.18700357 5.580761e-006 0)
(0.18700659 2.1869207e-006 0)
(0.187008 -2.0512179e-007 0)
(0.18700811 -4.7651777e-007 0)
(0.18700791 -1.5640565e-007 0)
(0.18700785 5.5433129e-009 0)
(0.18700785 1.7049875e-008 0)
(0.18700786 2.6243751e-009 0)
(0.18700786 -1.2562429e-009 0)
(0.18700786 -2.0631077e-010 0)
(0.18700786 -4.3640206e-011 0)
(0.18700786 1.7058818e-010 0)
(0.18700786 1.6189412e-009 0)
(0.18700786 6.5302888e-010 0)
(0.18700785 -2.1019333e-008 0)
(0.18700779 -2.4177267e-008 0)
(0.16842907 -0.020510054 0)
(0.16277059 -0.0057578291 0)
(0.16384845 6.0936784e-005 0)
(0.16427396 0.00062188881 0)
(0.16507318 0.00032360121 0)
(0.16521658 4.0765072e-005 0)
(0.16521681 -2.8496969e-005 0)
(0.165162 -1.4364916e-005 0)
(0.16514715 3.3560576e-006 0)
(0.16514935 5.0494051e-006 0)
(0.1651542 1.493584e-006 0)
(0.1651553 -3.7546208e-007 0)
(0.16515498 -4.2407058e-007 0)
(0.16515467 -1.1339083e-007 0)
(0.16515461 1.2919529e-008 0)
(0.16515463 1.4287265e-008 0)
(0.16515464 9.0591109e-010 0)
(0.16515464 -1.3504594e-009 0)
(0.16515464 -5.0956213e-011 0)
(0.16515464 -2.8489128e-010 0)
(0.16515464 -1.9136191e-010 0)
(0.16515464 1.564993e-009 0)
(0.16515464 2.6855548e-009 0)
(0.16515463 -1.0926135e-008 0)
(0.16515456 -1.5119871e-008 0)
(0.14748972 -0.020610958 0)
(0.13514567 -0.0051583482 0)
(0.13643729 -5.3491159e-006 0)
(0.13685686 0.00039603023 0)
(0.13768278 0.00021590891 0)
(0.13778058 2.0774078e-005 0)
(0.13777134 -1.8021059e-005 0)
(0.13772117 -6.473414e-006 0)
(0.13771611 4.3236347e-006 0)
(0.13772286 3.6606393e-006 0)
(0.13772783 7.5437193e-007 0)
(0.13772817 -4.1485402e-007 0)
(0.13772754 -3.1142184e-007 0)
(0.13772721 -6.5207234e-008 0)
(0.13772718 1.5374018e-008 0)
(0.13772721 9.880041e-009 0)
(0.13772722 -2.6659755e-010 0)
(0.13772722 -1.1372397e-009 0)
(0.13772721 -5.3029828e-011 0)
(0.13772722 -3.8225809e-010 0)
(0.13772722 -2.3635416e-010 0)
(0.13772722 1.4330541e-009 0)
(0.13772722 3.9939916e-009 0)
(0.13772721 -2.2784344e-009 0)
(0.13772716 -7.0643274e-009 0)
(0.1199072 -0.018027177 0)
(0.10274972 -0.0039189074 0)
(0.10431264 -4.7523587e-005 0)
(0.10431873 0.00019869578 0)
(0.1050799 0.00012434527 0)
(0.10511171 8.4065697e-006 0)
(0.10510805 -8.5467048e-006 0)
(0.10507132 -1.6215737e-006 0)
(0.10507663 3.4416082e-006 0)
(0.10508471 2.0016222e-006 0)
(0.10508847 2.1401154e-007 0)
(0.10508806 -3.2212304e-007 0)
(0.10508736 -1.7744208e-007 0)
(0.10508709 -2.676999e-008 0)
(0.1050871 1.2406816e-008 0)
(0.10508713 5.2492658e-009 0)
(0.10508713 -6.5465683e-010 0)
(0.10508713 -6.8956654e-010 0)
(0.10508713 -2.2225438e-011 0)
(0.10508713 -4.096529e-010 0)
(0.10508713 -2.158265e-010 0)
(0.10508713 1.1724542e-009 0)
(0.10508713 4.1686344e-009 0)
(0.10508714 3.0016307e-009 0)
(0.10508711 -1.5994648e-009 0)
(0.085336092 -0.01296025 0)
(0.065765753 -0.0022806225 0)
(0.067402831 -1.7061475e-005 0)
(0.067006838 6.2357659e-005 0)
(0.067654302 5.8473772e-005 0)
(0.067627931 2.5493588e-006 0)
(0.067638183 -1.1835303e-006 0)
(0.067615856 9.1614443e-008 0)
(0.067626017 1.6189012e-006 0)
(0.067631802 6.2838517e-007 0)
(0.067633852 -2.7049668e-008 0)
(0.067633063 -1.5912467e-007 0)
(0.067632526 -6.3816292e-008 0)
(0.067632373 -5.1037069e-009 0)
(0.067632401 6.2782726e-009 0)
(0.067632421 1.7017625e-009 0)
(0.067632422 -4.8436259e-010 0)
(0.067632419 -2.5857158e-010 0)
(0.067632419 3.4705917e-011 0)
(0.067632419 -2.4777175e-010 0)
(0.067632418 -1.4918902e-010 0)
(0.067632419 6.4183694e-010 0)
(0.067632421 2.9147812e-009 0)
(0.067632437 3.8600215e-009 0)
(0.067632426 9.6618642e-010 0)
(0.039514657 -0.0068009395 0)
(0.023877323 -0.00010045903 0)
(0.025729607 1.0510413e-005 0)
(0.025122307 1.7722634e-005 0)
(0.025571493 -1.8729089e-006 0)
(0.025505001 -1.4088354e-006 0)
(0.025529537 -1.0152705e-006 0)
(0.025517057 -1.7190433e-007 0)
(0.025524266 -1.2681146e-007 0)
(0.025525431 -5.1613095e-008 0)
(0.025525994 -2.4787208e-008 0)
(0.025525436 -3.7370258e-009 0)
(0.025525251 1.3981993e-009 0)
(0.025525204 1.7115676e-009 0)
(0.025525225 6.2160401e-010 0)
(0.025525232 1.9771776e-011 0)
(0.025525232 -1.1773828e-011 0)
(0.025525231 4.6109961e-011 0)
(0.025525231 2.0688204e-011 0)
(0.025525231 -8.1972442e-011 0)
(0.02552523 -7.5595747e-011 0)
(0.02552523 6.3243789e-011 0)
(0.025525232 5.0130747e-010 0)
(0.025525246 1.5665231e-010 0)
(0.025525249 -2.3872442e-010 0)
(0.0393983 -0.0027761866 0)
(0.040505725 -0.0034843711 0)
(0.041971965 -0.0032510767 0)
(0.043055893 -0.0026903319 0)
(0.043859602 -0.0021427046 0)
(0.044443449 -0.0016700977 0)
(0.044863867 -0.0013134209 0)
(0.045177335 -0.0010662687 0)
(0.04542102 -0.00091730913 0)
(0.045627135 -0.00086353226 0)
(0.045820615 -0.00090382426 0)
(0.04602692 -0.001056901 0)
(0.046271043 -0.0013391449 0)
(0.046574944 -0.0017907943 0)
(0.046985912 -0.0024836507 0)
(0.047535401 -0.0035021264 0)
(0.048263991 -0.0050002011 0)
(0.049261882 -0.0072532005 0)
(0.050553962 -0.01066676 0)
(0.052054018 -0.016174895 0)
(0.054053159 -0.024138219 0)
(0.054703259 -0.035607252 0)
(0.055599953 -0.047399009 0)
(0.042881186 -0.0602367 0)
(0.035939484 -0.048623597 0)
(0.0395564 -0.0036622171 0)
(0.040854254 -0.0046295065 0)
(0.042491149 -0.0041849086 0)
(0.043618265 -0.0034014223 0)
(0.044366084 -0.0026437447 0)
(0.044864937 -0.0020193748 0)
(0.045195487 -0.0015602559 0)
(0.045421963 -0.0012481858 0)
(0.045583823 -0.0010588999 0)
(0.045711685 -0.00098536492 0)
(0.045821151 -0.0010222413 0)
(0.045928946 -0.0011864452 0)
(0.046053343 -0.0014968354 0)
(0.046196813 -0.0019899132 0)
(0.046377688 -0.0027415479 0)
(0.046614939 -0.0038421889 0)
(0.046881058 -0.0054295939 0)
(0.047185835 -0.0077740159 0)
(0.047488876 -0.011230093 0)
(0.047440637 -0.016567707 0)
(0.046987213 -0.023972245 0)
(0.044451912 -0.033335052 0)
(0.039960205 -0.040885 0)
(0.025974442 -0.043931558 0)
(0.010841577 -0.022980741 0)
(0.039850256 -0.0047848097 0)
(0.04146399 -0.00596779 0)
(0.043327941 -0.0052032922 0)
(0.044460725 -0.004093193 0)
(0.045103846 -0.0030792614 0)
(0.045471672 -0.0022896241 0)
(0.045677258 -0.0017299096 0)
(0.045791893 -0.0013589087 0)
(0.045856248 -0.0011336772 0)
(0.045891999 -0.0010404118 0)
(0.045906609 -0.0010690668 0)
(0.045909243 -0.0012294741 0)
(0.045901753 -0.0015418866 0)
(0.045882661 -0.0020390305 0)
(0.045825815 -0.0027889491 0)
(0.04574178 -0.0038865858 0)
(0.045567001 -0.0054381999 0)
(0.045228352 -0.0076860012 0)
(0.04464319 -0.010916992 0)
(0.043354551 -0.015682943 0)
(0.041045532 -0.022067712 0)
(0.036388112 -0.029314293 0)
(0.029024307 -0.034243559 0)
(0.016221042 -0.033618465 0)
(0.0027094387 -0.016433206 0)
(0.040383051 -0.0063296689 0)
(0.042382774 -0.0075699323 0)
(0.044422442 -0.0062867283 0)
(0.045453525 -0.0047237294 0)
(0.045905613 -0.0034054009 0)
(0.046083118 -0.0024461096 0)
(0.046123176 -0.001798835 0)
(0.046103085 -0.0013829247 0)
(0.046055944 -0.0011326116 0)
(0.045990647 -0.0010229466 0)
(0.045909298 -0.0010386554 0)
(0.045807472 -0.0011824947 0)
(0.045667705 -0.0014715371 0)
(0.04548338 -0.0019403147 0)
(0.045213393 -0.0026354298 0)
(0.044819869 -0.003644896 0)
(0.044248899 -0.0050612138 0)
(0.043353598 -0.0070614782 0)
(0.042022601 -0.0098685691 0)
(0.039805842 -0.013827624 0)
(0.036307475 -0.018917198 0)
(0.030576414 -0.024171923 0)
(0.022336824 -0.02685824 0)
(0.011585318 -0.024149803 0)
(0.00045763275 -0.010880584 0)
(0.041153161 -0.0085118993 0)
(0.043403644 -0.0093997956 0)
(0.045304917 -0.0073181428 0)
(0.046007762 -0.0051944666 0)
(0.046139222 -0.0035573127 0)
(0.046058869 -0.0024489097 0)
(0.045894352 -0.001744293 0)
(0.045726514 -0.0013086589 0)
(0.045561291 -0.0010500266 0)
(0.045397454 -0.00093086981 0)
(0.04522602 -0.00093105669 0)
(0.045023448 -0.001049576 0)
(0.044772179 -0.001297637 0)
(0.044438173 -0.0016979916 0)
(0.043987139 -0.0022984216 0)
(0.04333833 -0.0031552389 0)
(0.042436236 -0.004350826 0)
(0.04111236 -0.0060029618 0)
(0.0392255 -0.0082788595 0)
(0.0363908 -0.011369803 0)
(0.032187459 -0.015164338 0)
(0.026036312 -0.0187289 0)
(0.01786155 -0.020002005 0)
(0.0087587131 -0.016795954 0)
(-0.00011976433 -0.0073201195 0)
(0.041885838 -0.011391051 0)
(0.043918368 -0.011142476 0)
(0.04499072 -0.0080135167 0)
(0.045013791 -0.0053331177 0)
(0.044670042 -0.0034524634 0)
(0.044269543 -0.0022613512 0)
(0.04388595 -0.0015509365 0)
(0.043569386 -0.0011310603 0)
(0.043298051 -0.00088799506 0)
(0.043049962 -0.00077092209 0)
(0.042804778 -0.00075915661 0)
(0.042528245 -0.00084272375 0)
(0.042196607 -0.0010351955 0)
(0.041759301 -0.0013472624 0)
(0.041176877 -0.0018143464 0)
(0.040365347 -0.0024791994 0)
(0.039245296 -0.0033970792 0)
(0.037664925 -0.0046465689 0)
(0.03546129 -0.0063368257 0)
(0.032338858 -0.0085584255 0)
(0.027920472 -0.01117228 0)
(0.021886626 -0.013412469 0)
(0.014310768 -0.013767144 0)
(0.0068032166 -0.01082796 0)
(-0.00023944767 -0.0044899364 0)
(0.042023166 -0.01465269 0)
(0.042970147 -0.0120293 0)
(0.042254914 -0.0079317874 0)
(0.041246997 -0.0049196674 0)
(0.040291807 -0.0029970713 0)
(0.039549238 -0.0018618477 0)
(0.038981677 -0.0012250794 0)
(0.038545582 -0.00086476498 0)
(0.038201054 -0.0006622623 0)
(0.037902867 -0.00056188645 0)
(0.03761898 -0.00054155417 0)
(0.0373135 -0.00059387892 0)
(0.036947461 -0.00072169175 0)
(0.036478177 -0.00093604738 0)
(0.035853125 -0.0012550834 0)
(0.034999637 -0.0017090432 0)
(0.033827433 -0.0023312151 0)
(0.032209763 -0.0031678022 0)
(0.029991819 -0.0042837504 0)
(0.02694007 -0.0057220109 0)
(0.022778886 -0.0073330498 0)
(0.017369385 -0.0085793236 0)
(0.010886426 -0.0084423418 0)
(0.0050396932 -0.0061398528 0)
(-0.00025240926 -0.0023321731 0)
(0.040541223 -0.017304472 0)
(0.039498567 -0.01119113 0)
(0.036026808 -0.0066953969 0)
(0.033925814 -0.0038349113 0)
(0.032410842 -0.0021892221 0)
(0.031414543 -0.0012811725 0)
(0.030752761 -0.00080205076 0)
(0.030275258 -0.00054485589 0)
(0.029916705 -0.00040528988 0)
(0.029621475 -0.00033458781 0)
(0.029349635 -0.00031458672 0)
(0.029066842 -0.00033883213 0)
(0.028733396 -0.00040670227 0)
(0.028312192 -0.00052526782 0)
(0.027753691 -0.00070342428 0)
(0.026996505 -0.00095616766 0)
(0.025962323 -0.0013014108 0)
(0.02455013 -0.0017632189 0)
(0.022637981 -0.0023749641 0)
(0.020044156 -0.0031439131 0)
(0.016592261 -0.003973545 0)
(0.012260701 -0.0045361013 0)
(0.00728842 -0.0042465067 0)
(0.0032277068 -0.002720024 0)
(-0.00022461256 -0.00080654167 0)
(0.035115613 -0.016096187 0)
(0.032347506 -0.0076520833 0)
(0.025663191 -0.0042311825 0)
(0.023061781 -0.0022080122 0)
(0.021313256 -0.0011968807 0)
(0.020307634 -0.00066448954 0)
(0.019700145 -0.00039570174 0)
(0.019294824 -0.00025865688 0)
(0.019004219 -0.00018654053 0)
(0.018774756 -0.00014964621 0)
(0.018571865 -0.00013740281 0)
(0.018366572 -0.00014493152 0)
(0.018130858 -0.0001715912 0)
(0.017835744 -0.0002206848 0)
(0.017445734 -0.00029471243 0)
(0.016917599 -0.00039998328 0)
(0.016197211 -0.00054262366 0)
(0.015217108 -0.00073272167 0)
(0.013890775 -0.00098096006 0)
(0.012108074 -0.0012821345 0)
(0.009761104 -0.0016005989 0)
(0.0068923627 -0.0017784699 0)
(0.0037115683 -0.0015661663 0)
(0.0014227915 -0.00078447914 0)
(-0.00023169582 -5.4515123e-005 0)
(0.020723981 -0.012126672 0)
(0.017581435 -0.0023709692 0)
(0.010842774 -0.00046240657 0)
(0.0094512925 -0.00021639862 0)
(0.0081576494 -8.2217693e-005 0)
(0.0075589705 -3.4367099e-005 0)
(0.0072079212 -1.2127938e-005 0)
(0.0069922683 -3.0960407e-006 0)
(0.0068453622 9.713504e-007 0)
(0.0067353627 3.1656395e-006 0)
(0.0066425366 4.7986805e-006 0)
(0.0065519941 6.3729647e-006 0)
(0.0064511401 8.3889876e-006 0)
(0.0063261281 1.0698651e-005 0)
(0.0061614986 1.4139837e-005 0)
(0.0059390546 1.8908571e-005 0)
(0.0056366724 2.5351468e-005 0)
(0.0052270611 3.3839952e-005 0)
(0.0046759294 4.5160991e-005 0)
(0.0039453487 6.0158031e-005 0)
(0.0029960392 8.004622e-005 0)
(0.0018843539 0.00011609024 0)
(0.00068306013 0.00013272468 0)
(2.7268907e-005 0.00019514063 0)
(-0.00018833104 0.00016934276 0)
)
;

boundaryField
{
    inlet
    {
        type            fixedValue;
        value           uniform (0.03876 0 0);
    }
    walls
    {
        type            fixedValue;
        value           uniform (0 0 0);
    }
    outlet
    {
        type            zeroGradient;
    }
    centreline
    {
        type            symmetryPlane;
    }
    frontAndBack
    {
        type            empty;
    }
}


// ************************************************************************* //
