# vtk DataFile Version 2.0
track0
ASCII
DATASET POLYDATA
POINTS 11930 float
-0.0205 0.001 1e-005
-0.020385 0.00100536 1.5025e-005
-0.02027 0.00101047 1.96653e-005
-0.020155 0.00101535 2.39736e-005
-0.02004 0.00102 2.79452e-005
-0.0198623 0.00102682 3.35518e-005
-0.0196933 0.00103276 3.80974e-005
-0.0195242 0.00103809 4.16116e-005
-0.0193551 0.00104281 4.41035e-005
-0.019186 0.00104693 4.55822e-005
-0.0190172 0.00105042 4.60564e-005
-0.0187132 0.00105594 4.60564e-005
-0.0184093 0.00106081 4.60564e-005
-0.0181054 0.00106516 4.60564e-005
-0.0178014 0.00106899 4.60564e-005
-0.0174976 0.00107229 4.60564e-005
-0.0172058 0.00107518 4.60564e-005
-0.016914 0.00107798 4.60564e-005
-0.0166222 0.00108071 4.60564e-005
-0.0163305 0.00108338 4.60564e-005
-0.0160387 0.00108599 4.60564e-005
-0.0157586 0.00108839 4.60564e-005
-0.0154784 0.00109072 4.60564e-005
-0.0151983 0.00109297 4.60564e-005
-0.0149182 0.00109514 4.60564e-005
-0.0146381 0.00109722 4.60564e-005
-0.0143692 0.0010991 4.60564e-005
-0.0141002 0.00110088 4.60564e-005
-0.0138313 0.00110259 4.60564e-005
-0.0135624 0.00110422 4.60564e-005
-0.0132934 0.00110578 4.60564e-005
-0.0130353 0.00110719 4.60564e-005
-0.0127771 0.00110856 4.60564e-005
-0.0125189 0.00110988 4.60564e-005
-0.0122607 0.00111118 4.60564e-005
-0.0120025 0.00111243 4.60564e-005
-0.0117547 0.0011136 4.60564e-005
-0.0115068 0.00111475 4.60564e-005
-0.0112589 0.00111589 4.60564e-005
-0.0110111 0.001117 4.60564e-005
-0.0107632 0.00111811 4.60564e-005
-0.0105252 0.00111915 4.60564e-005
-0.0102873 0.00112017 4.60564e-005
-0.0100493 0.00112118 4.60564e-005
-0.00981133 0.00112219 4.60564e-005
-0.00957337 0.00112318 4.60564e-005
-0.00934491 0.00112412 4.60564e-005
-0.00911645 0.00112504 4.60564e-005
-0.00888799 0.00112596 4.60564e-005
-0.00865954 0.00112686 4.60564e-005
-0.00843108 0.00112776 4.60564e-005
-0.00821175 0.00112862 4.60564e-005
-0.00799242 0.00112947 4.60564e-005
-0.00777309 0.00113031 4.60564e-005
-0.00755376 0.00113114 4.60564e-005
-0.00733443 0.00113197 4.60564e-005
-0.00712387 0.00113276 4.60564e-005
-0.0069133 0.00113354 4.60564e-005
-0.00670273 0.00113432 4.60564e-005
-0.00649216 0.0011351 4.60564e-005
-0.0062816 0.00113587 4.60564e-005
-0.00607944 0.00113661 4.60564e-005
-0.00587729 0.00113734 4.60564e-005
-0.00567514 0.00113808 4.60564e-005
-0.00547298 0.0011388 4.60564e-005
-0.00527083 0.00113953 4.60564e-005
-0.00507675 0.00114023 4.60564e-005
-0.00488267 0.00114093 4.60564e-005
-0.0046886 0.00114162 4.60564e-005
-0.00449452 0.00114231 4.60564e-005
-0.00430044 0.001143 4.60564e-005
-0.00411412 0.00114367 4.60564e-005
-0.0039278 0.00114433 4.60564e-005
-0.00374147 0.00114499 4.60564e-005
-0.00355515 0.00114565 4.60564e-005
-0.00336883 0.00114631 4.60564e-005
-0.00318995 0.00114695 4.60564e-005
-0.00301107 0.00114758 4.60564e-005
-0.00283219 0.00114821 4.60564e-005
-0.00265331 0.00114884 4.60564e-005
-0.00247443 0.00114948 4.60564e-005
-0.0023027 0.00115009 4.60564e-005
-0.00213097 0.00115071 4.60564e-005
-0.00195924 0.00115132 4.60564e-005
-0.0017875 0.00115193 4.60564e-005
-0.00161577 0.00115255 4.60564e-005
-0.0014509 0.00115315 4.60564e-005
-0.00128603 0.00115374 4.60564e-005
-0.00112116 0.00115433 4.60564e-005
-0.000956289 0.00115493 4.60564e-005
-0.000791418 0.00115553 4.60564e-005
-0.000633135 0.00115612 4.60564e-005
-0.000474851 0.00115671 4.60564e-005
-0.000316567 0.00115729 4.60564e-005
-0.000158284 0.00115788 4.60564e-005
0 0.00115848 4.60564e-005
0.000105677 0.00115889 4.60564e-005
0.000211355 0.0011593 4.60564e-005
0.000317032 0.0011597 4.60564e-005
0.00042271 0.00116011 4.60564e-005
0.000528387 0.00116052 4.60564e-005
0.000634886 0.00116095 4.60564e-005
0.000741385 0.00116138 4.60564e-005
0.000847885 0.0011618 4.60564e-005
0.000954384 0.00116223 4.60564e-005
0.00106088 0.00116266 4.60564e-005
0.00116821 0.00116312 4.60564e-005
0.00127554 0.00116357 4.60564e-005
0.00138286 0.00116402 4.60564e-005
0.00149019 0.00116447 4.60564e-005
0.00159752 0.00116493 4.60564e-005
0.00170568 0.0011654 4.60564e-005
0.00181384 0.00116588 4.60564e-005
0.001922 0.00116635 4.60564e-005
0.00203016 0.00116682 4.60564e-005
0.00213833 0.0011673 4.60564e-005
0.00224733 0.00116779 4.60564e-005
0.00235633 0.00116828 4.60564e-005
0.00246533 0.00116877 4.60564e-005
0.00257434 0.00116926 4.60564e-005
0.00268334 0.00116975 4.60564e-005
0.00279319 0.00117024 4.60564e-005
0.00290304 0.00117075 4.60564e-005
0.00301289 0.00117125 4.60564e-005
0.00312274 0.00117176 4.60564e-005
0.00323259 0.00117226 4.60564e-005
0.00334329 0.00117276 4.60564e-005
0.003454 0.00117327 4.60564e-005
0.0035647 0.00117379 4.60564e-005
0.0036754 0.00117431 4.60564e-005
0.00378611 0.00117482 4.60564e-005
0.00389767 0.00117533 4.60564e-005
0.00400924 0.00117585 4.60564e-005
0.0041208 0.00117638 4.60564e-005
0.00423237 0.00117691 4.60564e-005
0.00434393 0.00117743 4.60564e-005
0.00445636 0.00117794 4.60564e-005
0.00456879 0.00117847 4.60564e-005
0.00468123 0.00117901 4.60564e-005
0.00479366 0.00117954 4.60564e-005
0.00490609 0.00118007 4.60564e-005
0.0050194 0.00118058 4.60564e-005
0.0051327 0.00118112 4.60564e-005
0.00524601 0.00118166 4.60564e-005
0.00535931 0.0011822 4.60564e-005
0.00547262 0.00118273 4.60564e-005
0.00558681 0.00118324 4.60564e-005
0.005701 0.00118378 4.60564e-005
0.00581518 0.00118432 4.60564e-005
0.00592937 0.00118486 4.60564e-005
0.00604356 0.0011854 4.60564e-005
0.00615863 0.00118592 4.60564e-005
0.00627371 0.00118646 4.60564e-005
0.00638878 0.001187 4.60564e-005
0.00650386 0.00118754 4.60564e-005
0.00661893 0.00118808 4.60564e-005
0.0067349 0.00118859 4.60564e-005
0.00685087 0.00118913 4.60564e-005
0.00696684 0.00118967 4.60564e-005
0.00708281 0.00119021 4.60564e-005
0.00719878 0.00119074 4.60564e-005
0.00731565 0.00119126 4.60564e-005
0.00743252 0.0011918 4.60564e-005
0.00754939 0.00119233 4.60564e-005
0.00766626 0.00119286 4.60564e-005
0.00778313 0.0011934 4.60564e-005
0.00790091 0.00119391 4.60564e-005
0.00801869 0.00119444 4.60564e-005
0.00813647 0.00119497 4.60564e-005
0.00825425 0.0011955 4.60564e-005
0.00837203 0.00119602 4.60564e-005
0.00849073 0.00119654 4.60564e-005
0.00860942 0.00119706 4.60564e-005
0.00872812 0.00119759 4.60564e-005
0.00884682 0.00119811 4.60564e-005
0.00896551 0.00119862 4.60564e-005
0.00908513 0.00119914 4.60564e-005
0.00920475 0.00119965 4.60564e-005
0.00932437 0.00120017 4.60564e-005
0.00944398 0.00120068 4.60564e-005
0.0095636 0.0012012 4.60564e-005
0.00968415 0.0012017 4.60564e-005
0.0098047 0.00120221 4.60564e-005
0.00992525 0.00120272 4.60564e-005
0.0100458 0.00120323 4.60564e-005
0.0101663 0.00120373 4.60564e-005
0.0102878 0.00120423 4.60564e-005
0.0104093 0.00120473 4.60564e-005
0.0105308 0.00120523 4.60564e-005
0.0106523 0.00120573 4.60564e-005
0.0107738 0.00120622 4.60564e-005
0.0108962 0.00120672 4.60564e-005
0.0110186 0.00120721 4.60564e-005
0.0111411 0.0012077 4.60564e-005
0.0112635 0.00120819 4.60564e-005
0.0113859 0.00120867 4.60564e-005
0.0115093 0.00120916 4.60564e-005
0.0116327 0.00120964 4.60564e-005
0.0117561 0.00121012 4.60564e-005
0.0118795 0.0012106 4.60564e-005
0.0120028 0.00121108 4.60564e-005
0.0121272 0.00121155 4.60564e-005
0.0122515 0.00121202 4.60564e-005
0.0123759 0.00121249 4.60564e-005
0.0125002 0.00121296 4.60564e-005
0.0126245 0.00121342 4.60564e-005
0.0127498 0.00121388 4.60564e-005
0.0128752 0.00121434 4.60564e-005
0.0130005 0.0012148 4.60564e-005
0.0131258 0.00121526 4.60564e-005
0.0132511 0.00121571 4.60564e-005
0.0133774 0.00121615 4.60564e-005
0.0135036 0.0012166 4.60564e-005
0.0136299 0.00121705 4.60564e-005
0.0137562 0.00121749 4.60564e-005
0.0138825 0.00121792 4.60564e-005
0.0140098 0.00121835 4.60564e-005
0.014137 0.00121878 4.60564e-005
0.0142643 0.00121921 4.60564e-005
0.0143915 0.00121964 4.60564e-005
0.0145188 0.00122006 4.60564e-005
0.0146471 0.00122047 4.60564e-005
0.0147753 0.00122088 4.60564e-005
0.0149036 0.00122129 4.60564e-005
0.0150318 0.0012217 4.60564e-005
0.0151601 0.0012221 4.60564e-005
0.0152893 0.00122249 4.60564e-005
0.0154186 0.00122288 4.60564e-005
0.0155478 0.00122327 4.60564e-005
0.0156771 0.00122365 4.60564e-005
0.0158063 0.00122403 4.60564e-005
0.0159366 0.0012244 4.60564e-005
0.0160668 0.00122477 4.60564e-005
0.0161971 0.00122514 4.60564e-005
0.0163274 0.0012255 4.60564e-005
0.0164576 0.00122585 4.60564e-005
0.0165889 0.0012262 4.60564e-005
0.0167201 0.00122654 4.60564e-005
0.0168514 0.00122688 4.60564e-005
0.0169827 0.00122721 4.60564e-005
0.0171139 0.00122754 4.60564e-005
0.0172173 0.00122779 4.60564e-005
0.0173206 0.00122803 4.60564e-005
0.017424 0.00122828 4.60564e-005
0.0175273 0.00122852 4.60564e-005
0.0176271 0.00122875 4.60564e-005
0.0176567 0.00122881 4.60564e-005
0.0176864 0.00122888 4.60564e-005
0.0177161 0.00122894 4.60564e-005
0.0177457 0.00122901 4.60564e-005
0.0177754 0.00122907 4.60564e-005
0.0179087 0.00122936 4.60564e-005
0.018042 0.00122965 4.60564e-005
0.0181753 0.00122992 4.60564e-005
0.0183087 0.00123019 4.60564e-005
0.018442 0.00123045 4.60564e-005
0.0185763 0.00123071 4.60564e-005
0.0187107 0.00123095 4.60564e-005
0.018845 0.00123119 4.60564e-005
0.0189794 0.00123143 4.60564e-005
0.0191137 0.00123165 4.60564e-005
0.0192491 0.00123187 4.60564e-005
0.0193845 0.00123207 4.60564e-005
0.0195199 0.00123227 4.60564e-005
0.0196553 0.00123247 4.60564e-005
0.0197907 0.00123265 4.60564e-005
0.0199272 0.00123282 4.60564e-005
0.0200636 0.00123299 4.60564e-005
0.0202001 0.00123315 4.60564e-005
0.0203365 0.0012333 4.60564e-005
0.020473 0.00123344 4.60564e-005
0.0206105 0.00123356 4.60564e-005
0.020748 0.00123369 4.60564e-005
0.0208855 0.0012338 4.60564e-005
0.021023 0.0012339 4.60564e-005
0.0211606 0.00123399 4.60564e-005
0.0212991 0.00123407 4.60564e-005
0.0214377 0.00123415 4.60564e-005
0.0215763 0.00123421 4.60564e-005
0.0217149 0.00123426 4.60564e-005
0.0218535 0.0012343 4.60564e-005
0.0219931 0.00123434 4.60564e-005
0.0221328 0.00123436 4.60564e-005
0.0222724 0.00123437 4.60564e-005
0.0224121 0.00123437 4.60564e-005
0.0225517 0.00123436 4.60564e-005
0.0226925 0.00123435 4.60564e-005
[...]
POINT_DATA 11930
 FIELD attributes 2
p 1 11930 float
-1539.33 -1526.71 -1512.87 -1499.19 -1485.66 -1464.99 -1450.3 -1435.54 -1420.7 -1405.78 -1384.96 -1336.78 -1288.71 -1240.69 -1192.75 -1150.3 -1118.73 -1093.37 -1068.02 -1042.68 -1025.97 -1014.27 -1004.83 -995.393 -985.959 -978.351 -971.56 -963.629 -955.698 -947.767 -938.726 -930.241 -921.617 -912.99 -904.385 -896.056 -888.126 -880.998 -873.966 -867.095 -861.151 -855.428 -850.28 -845.256 -840.392 -836.12 -831.988 -828.076 -824.235 -820.485 -816.982 -813.593 -810.326 -807.112 -803.972 -800.986 -798.096 -795.323 -792.614 -789.987 -787.498 -785.084 -782.773 -780.532 -778.374 -776.33 -774.342 -772.428 -770.575 -768.794 -767.094 -765.429 -763.819 -762.263 -760.771 -759.34 -757.919 -756.54 -755.208 -753.938 -752.717 -751.48 -750.281 -749.134 -748.053 -747.017 -745.938 -744.883 -743.868 -742.921 -742.015 -741.04 -740.112 -739.271 -738.544 -737.876 -737.149 -736.479 -735.918 -735.489 -735.136 -734.625 -734.151 -733.733 -733.406 -733.146 -732.714 -732.382 -732.171 -732.079 -732.095 -731.931 -731.85 -731.85 -731.915 -732.058 -732.153 -732.238 -732.315 -732.385 -732.443 -732.704 -732.866 -732.966 -733.008 -732.942 -733.319 -733.531 -733.661 -733.707 -733.555 -734.013 -734.253 -734.411 -734.479 -734.277 -734.763 -734.989 -735.14 -735.214 -734.97 -735.417 -735.591 -735.708 -735.771 -735.509 -735.882 -736.009 -736.103 -736.168 -735.941 -736.239 -736.34 -736.427 -736.505 -736.344 -736.568 -736.646 -736.721 -736.797 -736.703 -736.851 -736.908 -736.966 -737.024 -736.991 -737.077 -737.127 -737.176 -737.226 -737.246 -737.301 -737.354 -737.407 -737.461 -737.523 -737.567 -737.626 -737.686 -737.745 -737.833 -737.879 -737.944 -738.01 -738.075 -738.174 -738.234 -738.307 -738.38 -738.452 -738.554 -738.636 -738.719 -738.802 -738.885 -738.984 -739.094 -739.191 -739.287 -739.384 -739.48 -739.619 -739.73 -739.841 -739.952 -740.047 -740.21 -740.335 -740.459 -740.583 -740.679 -740.861 -740.997 -741.133 -741.269 -741.368 -741.564 -741.712 -741.859 -742.007 -742.116 -742.321 -742.48 -742.64 -742.799 -742.923 -743.133 -743.303 -743.474 -743.645 -743.786 -744 -744.184 -744.369 -744.553 -744.718 -744.936 -745.137 -745.337 -745.538 -745.73 -745.904 -746.072 -746.239 -746.406 -746.568 -746.616 -746.664 -746.712 -746.759 -746.815 -747.034 -747.259 -747.484 -747.71 -747.978 -748.177 -748.415 -748.652 -748.889 -749.2 -749.387 -749.636 -749.885 -750.135 -750.482 -750.661 -750.922 -751.182 -751.443 -751.82 -751.997 -752.269 -752.541 -752.813 -753.21 -753.394 -753.677 -753.96 -754.243 -754.652 -754.85 -755.144 -755.437 -755.73 -756.142 -756.362 -756.666 -756.969 -757.273 -757.679 -757.927 -758.241 -758.554 -758.867 -759.259 -759.542 -759.865 -760.187 -760.51 -760.883 -761.203 -761.535 -761.867 -762.199 -762.547 -762.907 -763.247 -763.588 -763.928 -764.249 -764.647 -764.998 -765.347 -765.69 -765.989 -766.416 -766.783 -767.14 -767.48 -767.763 -768.213 -768.6 -768.964 -769.299 -769.571 -770.038 -770.446 -770.817 -771.144 -771.412 -771.892 -772.32 -772.699 -773.02 -773.288 -773.779 -774.229 -774.616 -774.929 -775.2 -775.699 -776.169 -776.563 -776.865 -777.139 -777.641 -778.127 -778.524 -778.815 -779.091 -779.589 -780.085 -780.482 -780.764 -781.046 -781.535 -782.025 -782.418 -782.709 -782.999 -783.477 -783.954 -784.346 -784.647 -784.949 -785.412 -785.875 -786.265 -786.578 -786.891 -787.338 -787.786 -788.172 -788.497 -788.821 -789.251 -789.682 -790.064 -790.399 -790.733 -791.146 -791.56 -791.938 -792.28 -792.623 -793.019 -793.416 -793.788 -794.137 -794.485 -794.865 -795.245 -795.611 -795.964 -796.316 -796.68 -797.043 -797.402 -797.756 -798.109 -798.458 -798.807 -799.158 -799.509 -799.86 -800.193 -800.53 -800.872 -801.216 -801.562 -801.881 -802.207 -802.538 -802.872 -803.211 -803.515 -803.83 -804.149 -804.47 -804.8 -805.089 -805.393 -805.698 -806.005 -806.321 -806.596 -806.886 -807.176 -807.466 -807.767 -808.026 -808.298 -808.571 -808.844 -809.127 -809.368 -809.623 -809.877 -810.131 -810.394 -810.618 -810.852 -811.087 -811.322 -811.563 -811.768 -811.981 -812.194 -812.408 -812.624 -812.81 -813 -813.19 -813.38 -813.561 -813.563 -813.565 -813.567 -813.569 -813.571 -813.736 -813.902 -814.068 -814.233 -814.398 -814.537 -814.673 -814.81 -814.947 -815.08 -815.191 -815.296 -815.402 -815.507 -815.606 -815.689 -815.761 -815.833 -815.905 -815.968 -816.019 -816.055 -816.092 -816.128 -816.15 -816.168 -816.166 -816.163 -816.158 -816.138 -816.116 -816.077 -816.032 -815.982 -815.919 -815.855 -815.777 -815.688 -815.588 -815.479 -815.37 -815.252 -815.116 -814.964 -814.806 -814.649 -814.489 -814.304 -814.096 -813.888 -813.68 -813.472 -813.235 -812.972 -812.709 -812.448 -812.187 -811.897 -811.578 -811.259 -810.942 -810.625 -810.279 -809.901 -809.523 -809.148 -808.773 -808.369 -807.93 -807.491 -807.055 -806.616 -806.148 -805.652 -805.15 -804.65 -804.14 -803.607 -803.055 -802.488 -801.923 -801.337 -800.738 -800.129 -799.494 -798.861 -798.197 -797.529 -796.86 -796.156 -795.448 -794.708 -793.968 -793.228 -792.463 -791.672 -790.859 -790.045 -789.232 -788.404 -787.528 -786.638 -785.749 -784.86 -783.969 -783.786 -783.601 -783.416 -783.23 -783.048 -782.27 -781.492 -780.715 -779.938 -779.148 -778.12 -777.08 -776.039 -775 -773.931 -772.839 -771.718 -770.597 -769.477 -768.31 -767.153 -765.95 -764.747 -763.535 -762.275 -761.037 -759.766 -758.479 -757.165 -755.82 -754.497 -753.159 -751.787 -750.367 -748.936 -747.526 -746.117 -744.654 -743.135 -741.616 -740.118 -738.621 -737.069 -735.461 -733.853 -732.267 -730.681 -729.037 -727.34 -725.642 -723.965 -722.276 -720.537 -718.765 -716.976 -715.209 -713.405 -711.574 -709.731 -707.851 -705.992 -704.071 -702.147 -700.224 -698.262 -696.288 -694.271 -692.254 -690.237 -688.204 -686.762 -685.302 -683.842 -682.382 -680.987 -680.327 -679.668 -679.008 -678.349 -677.681 -675.496 -673.304 -671.113 -668.922 -666.695 -664.44 -662.154 -659.869 -657.582 -655.234 -652.898 -650.53 -648.151 -645.741 -643.298 -640.868 -638.431 -635.959 -633.424 -630.887 -628.363 -625.839 -623.263 -620.632 -618.001 -615.384 -612.767 -610.088 -607.367 -604.643 -601.932 -599.193 -596.418 -593.63 -590.814 -588.011 -585.145 -582.278 -579.411 -576.517 -573.717 -570.883 -568.051 -565.218 -562.549 -562.391 -562.232 -562.074 -561.915 -561.755 -558.713 -555.669 -552.627 -549.585 -546.517 -543.401 -540.269 -537.138 -534.002 -530.825 -527.628 -524.417 -521.198 -517.95 -514.685 -511.4 -508.116 -504.804 -501.454 -498.103 -494.732 -491.362 -487.955 -484.52 -481.085 -477.63 -474.158 -470.661 -467.157 -463.64 -460.102 -456.523 -452.944 -449.365 -445.776 -443.41 -441.027 -438.645 -436.262 -433.966 -432.674 -431.383 -430.092 -428.8 -427.499 -423.773 -420.042 -416.312 -412.582 -408.814 -405.025 -401.22 -397.414 -393.588 -389.737 -385.874 -382.01 -378.126 -374.204 -370.281 -366.345 -362.41 -358.442 -354.451 -350.458 -346.452 -342.431 -338.387 -334.34 -330.28 -326.204 -322.094 -317.984 -313.875 -309.761 -308.494 -307.219 -305.944 -304.669 -303.414 -300.515 -297.617 -294.719 -291.821 -288.905 -284.685 -280.457 -276.229 -271.996 -267.731 -263.457 -259.18 -254.896 -250.582 -246.263 -241.934 -237.605 -233.255 -228.886 -224.516 -220.135 -215.745 -211.336 -206.925 -202.507 -198.077 -193.621 -189.167 -184.713 -180.256 -179.335 -178.41 -177.486 -176.561 -175.645 -172.072 -168.5 -164.928 -161.356 -157.766 -153.236 -148.702 -144.169 -139.627 -135.068 -130.502 -125.937 -121.366 -116.776 -112.185 -107.587 -102.989 -98.3727 -93.7546 -89.1345 -84.5066 -79.8667 -75.2231 -70.58 -65.9355 -63.4617 -60.9831 -58.5046 -56.0263 -53.6078 -51.4091 -49.2106 -47.0121 -44.8138 -42.6095 -37.9249 -33.2421 -28.5599 -23.8753 -19.1779 -14.4763 -9.77602 -5.07859 -0.370219 4.34039 9.05602 13.771 18.4924 23.2089 27.927 32.6511 37.3781 42.1056 46.8327 51.5578 53.4623 55.3674 57.2724 59.1774 61.0502 63.8854 66.7204 69.5553 72.39 75.2279 79.9705 84.7059 89.4408 94.176 98.9147 103.656 108.397 113.129 117.858 122.59 127.325 132.059 136.789 141.515 146.237 150.575 154.908 159.241 163.573 167.753 168.171 168.588 169.005 169.423 169.84 174.555 179.269 183.983 188.696 193.405 198.115 202.819 207.515 212.202 216.892 221.582 226.272 230.951 235.618 240.286 244.954 249.61 254.264 258.918 263.571 264.135 264.697 265.259 265.821 266.38 270.459 274.537 278.615 282.693 286.761 291.388 296.007 300.619 305.219 309.819 314.415 319.011 323.593 328.159 332.726 337.29 341.837 346.382 350.926 355.471 355.814 356.155 356.496 356.837 357.177 361.36 365.543 369.726 373.908 378.076 382.577 387.073 391.56 396.026 400.496 404.957 409.417 413.857 418.289 422.716 426.291 429.849 433.406 436.962 440.439 441.299 442.159 443.018 443.878 444.733 449.109 453.479 457.849 462.212 466.562 470.9 475.237 479.555 483.854 488.155 492.443 496.719 500.982 505.244 509.499 510.916 512.325 513.734 515.142 516.539 519.358 522.176 524.995 527.812 530.614 534.807 538.989 543.166 547.32 551.472 555.608 559.742 563.849 567.948 572.041 574.825 577.591 580.353 583.115 585.845 587.143 588.441 589.74 591.036 592.325 596.346 600.354 604.362 608.352 612.329 616.289 620.249 624.182 628.09 631.999 635.165 638.308 641.444 644.58 647.695 648.424 649.152 649.881 650.608 651.331 655.152 658.963 662.774 666.568 670.342 674.098 677.853 681.579 685.272 688.965 692.003 695.013 698.013 701.013 704.034 704.664 705.294 705.924 706.552 707.175 710.763 714.34 717.918 721.478 725.019 728.54 732.061 735.509 738.876 742.241 744.966 747.772 750.607 753.441 756.373 756.989 757.605 758.221 758.842 759.482 762.769 765.857 768.943 771.645 773.885 776.091 778.297 781.771 786.51 791.242 794.207 796.573 798.115 799.659 801.252 802.586 803.919 805.251 806.168 806.758 808.426 810.236 812.33 815.179 818.022 820.241 822.415 824.514 826.613 828.847 829.465 830.084 830.702 831.302 831.888 834.602 837.245 839.887 842.38 844.861 846.994 849.091 851.126 853.159 855.406 855.716 856.026 856.337 856.64 856.938 859.281 861.576 863.867 866.027 868.149 870.201 872.176 874.027 875.875 877.945 877.959 877.973 877.986 877.999 878.012 879.727 881.434 883.135 884.703 886.166 887.579 888.962 890.088 891.204 892.178 892.428 892.633 892.791 892.948 893.115 893.699 894.276 894.849 895.317 895.662 896.026 896.38 896.442 896.224 895.995 895.687 895.161 894.492 893.818 892.983 892.908 892.833 892.758 892.668 892.54 891.237 889.822 888.393 886.736 884.821 882.676 880.52 877.946 874.934 871.91 868.807 865.22 861.513 857.8 852.952 852.946 852.941 852.935 852.929 852.923 847.985 843.03 838.058 833.027 827.43 821.411 815.279 808.618 801.213 793.792 785.893 777.953 769.406 760.576 751.572 742.038 731.144 720.173 709.2 697.92 694.862 691.802 688.741 685.68 682.361 672.892 663.416 653.934 644.446 634.916 621.188 605.21 589.201 571.941 552.388 531.86 511.644 494.085 480.001 465.909 451.067 436.227 408.636 368.731 328.793 287.062 255.096 238.518 228.781 231.584 232.943 176.021 118.782 61.2397 0