# vtk DataFile Version 2.0
track0
ASCII
DATASET POLYDATA
POINTS 11930 float
-0.0205 0.001 1e-005
-0.0203851 0.00100536 1.50246e-005
-0.0202701 0.00101047 1.96646e-005
-0.0201551 0.00101535 2.39728e-005
-0.02004 0.00102 2.79444e-005
-0.0198623 0.00102682 3.35535e-005
-0.0196933 0.00103276 3.80997e-005
-0.0195242 0.00103809 4.16144e-005
-0.0193551 0.00104281 4.41068e-005
-0.019186 0.00104692 4.55859e-005
-0.0190172 0.00105041 4.60603e-005
-0.0187132 0.00105592 4.60603e-005
-0.0184093 0.00106078 4.60603e-005
-0.0181054 0.00106512 4.60603e-005
-0.0178014 0.00106893 4.60603e-005
-0.0174976 0.00107222 4.60603e-005
-0.0172058 0.00107508 4.60603e-005
-0.016914 0.00107786 4.60603e-005
-0.0166222 0.00108058 4.60603e-005
-0.0163305 0.00108323 4.60603e-005
-0.0160387 0.00108582 4.60603e-005
-0.0157586 0.0010882 4.60603e-005
-0.0154784 0.00109052 4.60603e-005
-0.0151983 0.00109276 4.60603e-005
-0.0149182 0.00109492 4.60603e-005
-0.0146381 0.001097 4.60603e-005
-0.0143692 0.00109887 4.60603e-005
-0.0141002 0.00110064 4.60603e-005
-0.0138313 0.00110234 4.60603e-005
-0.0135624 0.00110397 4.60603e-005
-0.0132934 0.00110551 4.60603e-005
-0.0130353 0.00110693 4.60603e-005
-0.0127771 0.00110828 4.60603e-005
-0.0125189 0.0011096 4.60603e-005
-0.0122607 0.00111087 4.60603e-005
-0.0120025 0.00111211 4.60603e-005
-0.0117547 0.00111327 4.60603e-005
-0.0115068 0.0011144 4.60603e-005
-0.0112589 0.00111551 4.60603e-005
-0.0110111 0.0011166 4.60603e-005
-0.0107632 0.00111768 4.60603e-005
-0.0105252 0.00111869 4.60603e-005
-0.0102873 0.00111969 4.60603e-005
-0.0100493 0.00112068 4.60603e-005
-0.00981133 0.00112166 4.60603e-005
-0.00957337 0.00112262 4.60603e-005
-0.00934491 0.00112353 4.60603e-005
-0.00911645 0.00112443 4.60603e-005
-0.00888799 0.00112532 4.60603e-005
-0.00865954 0.0011262 4.60603e-005
-0.00843108 0.00112707 4.60603e-005
-0.00821175 0.0011279 4.60603e-005
-0.00799242 0.00112873 4.60603e-005
-0.00777309 0.00112954 4.60603e-005
-0.00755376 0.00113035 4.60603e-005
-0.00733443 0.00113116 4.60603e-005
-0.00712387 0.00113193 4.60603e-005
-0.0069133 0.00113269 4.60603e-005
-0.00670273 0.00113345 4.60603e-005
-0.00649216 0.00113421 4.60603e-005
-0.0062816 0.00113497 4.60603e-005
-0.00607944 0.0011357 4.60603e-005
-0.00587729 0.00113642 4.60603e-005
-0.00567514 0.00113713 4.60603e-005
-0.00547298 0.00113785 4.60603e-005
-0.00527083 0.00113857 4.60603e-005
-0.00507675 0.00113926 4.60603e-005
-0.00488267 0.00113994 4.60603e-005
-0.0046886 0.00114063 4.60603e-005
-0.00449452 0.00114131 4.60603e-005
-0.00430044 0.001142 4.60603e-005
-0.00411412 0.00114266 4.60603e-005
-0.0039278 0.00114331 4.60603e-005
-0.00374147 0.00114397 4.60603e-005
-0.00355515 0.00114462 4.60603e-005
-0.00336883 0.00114528 4.60603e-005
-0.00318995 0.00114592 4.60603e-005
-0.00301107 0.00114655 4.60603e-005
-0.00283219 0.00114718 4.60603e-005
-0.00265331 0.00114781 4.60603e-005
-0.00247443 0.00114845 4.60603e-005
-0.0023027 0.00114906 4.60603e-005
-0.00213097 0.00114968 4.60603e-005
-0.00195924 0.00115029 4.60603e-005
-0.0017875 0.0011509 4.60603e-005
-0.00161577 0.00115152 4.60603e-005
-0.0014509 0.00115212 4.60603e-005
-0.00128603 0.00115272 4.60603e-005
-0.00112116 0.00115331 4.60603e-005
-0.000956289 0.00115391 4.60603e-005
-0.000791418 0.00115452 4.60603e-005
-0.000633135 0.00115512 4.60603e-005
-0.000474851 0.00115571 4.60603e-005
-0.000316567 0.0011563 4.60603e-005
-0.000158284 0.0011569 4.60603e-005
0 0.00115751 4.60603e-005
0.000105677 0.00115792 4.60603e-005
0.000211355 0.00115833 4.60603e-005
0.000317032 0.00115874 4.60603e-005
0.00042271 0.00115915 4.60603e-005
0.000528387 0.00115957 4.60603e-005
0.000634886 0.00116 4.60603e-005
0.000741385 0.00116043 4.60603e-005
0.000847885 0.00116086 4.60603e-005
0.000954384 0.0011613 4.60603e-005
0.00106088 0.00116174 4.60603e-005
0.00116821 0.0011622 4.60603e-005
0.00127554 0.00116266 4.60603e-005
0.00138286 0.00116312 4.60603e-005
0.00149019 0.00116358 4.60603e-005
0.00159752 0.00116404 4.60603e-005
0.00170568 0.00116453 4.60603e-005
0.00181384 0.00116501 4.60603e-005
0.001922 0.00116549 4.60603e-005
0.00203016 0.00116597 4.60603e-005
0.00213833 0.00116645 4.60603e-005
0.00224733 0.00116694 4.60603e-005
0.00235633 0.00116744 4.60603e-005
0.00246533 0.00116793 4.60603e-005
0.00257434 0.00116843 4.60603e-005
0.00268334 0.00116892 4.60603e-005
0.00279319 0.00116943 4.60603e-005
0.00290304 0.00116993 4.60603e-005
0.00301289 0.00117044 4.60603e-005
0.00312274 0.00117095 4.60603e-005
0.00323259 0.00117146 4.60603e-005
0.00334329 0.00117196 4.60603e-005
0.003454 0.00117248 4.60603e-005
0.0035647 0.001173 4.60603e-005
0.0036754 0.00117353 4.60603e-005
0.00378611 0.00117404 4.60603e-005
0.00389767 0.00117455 4.60603e-005
0.00400924 0.00117508 4.60603e-005
0.0041208 0.00117561 4.60603e-005
0.00423237 0.00117614 4.60603e-005
0.00434393 0.00117667 4.60603e-005
0.00445636 0.00117718 4.60603e-005
0.00456879 0.00117771 4.60603e-005
0.00468123 0.00117825 4.60603e-005
0.00479366 0.00117879 4.60603e-005
0.00490609 0.00117932 4.60603e-005
0.0050194 0.00117984 4.60603e-005
0.0051327 0.00118037 4.60603e-005
0.00524601 0.00118092 4.60603e-005
0.00535931 0.00118146 4.60603e-005
0.00547262 0.001182 4.60603e-005
0.00558681 0.00118251 4.60603e-005
0.005701 0.00118305 4.60603e-005
0.00581518 0.0011836 4.60603e-005
0.00592937 0.00118414 4.60603e-005
0.00604356 0.00118468 4.60603e-005
0.00615863 0.0011852 4.60603e-005
0.00627371 0.00118574 4.60603e-005
0.00638878 0.00118629 4.60603e-005
0.00650386 0.00118683 4.60603e-005
0.00661893 0.00118737 4.60603e-005
0.0067349 0.00118789 4.60603e-005
0.00685087 0.00118843 4.60603e-005
0.00696684 0.00118897 4.60603e-005
0.00708281 0.00118951 4.60603e-005
0.00719878 0.00119005 4.60603e-005
0.00731565 0.00119058 4.60603e-005
0.00743252 0.00119111 4.60603e-005
0.00754939 0.00119165 4.60603e-005
0.00766626 0.00119218 4.60603e-005
0.00778313 0.00119272 4.60603e-005
0.00790091 0.00119324 4.60603e-005
0.00801869 0.00119377 4.60603e-005
0.00813647 0.0011943 4.60603e-005
0.00825425 0.00119483 4.60603e-005
0.00837203 0.00119536 4.60603e-005
0.00849073 0.00119588 4.60603e-005
0.00860942 0.0011964 4.60603e-005
0.00872812 0.00119693 4.60603e-005
0.00884682 0.00119745 4.60603e-005
0.00896551 0.00119797 4.60603e-005
0.00908513 0.00119848 4.60603e-005
0.00920475 0.001199 4.60603e-005
0.00932437 0.00119952 4.60603e-005
0.00944398 0.00120004 4.60603e-005
0.0095636 0.00120055 4.60603e-005
0.00968415 0.00120106 4.60603e-005
0.0098047 0.00120157 4.60603e-005
0.00992525 0.00120208 4.60603e-005
0.0100458 0.00120259 4.60603e-005
0.0101663 0.00120309 4.60603e-005
0.0102878 0.0012036 4.60603e-005
0.0104093 0.0012041 4.60603e-005
0.0105308 0.0012046 4.60603e-005
0.0106523 0.0012051 4.60603e-005
0.0107738 0.0012056 4.60603e-005
0.0108962 0.00120609 4.60603e-005
0.0110186 0.00120659 4.60603e-005
0.0111411 0.00120708 4.60603e-005
0.0112635 0.00120757 4.60603e-005
0.0113859 0.00120806 4.60603e-005
0.0115093 0.00120854 4.60603e-005
0.0116327 0.00120903 4.60603e-005
0.0117561 0.00120951 4.60603e-005
0.0118795 0.00121 4.60603e-005
0.0120028 0.00121047 4.60603e-005
0.0121272 0.00121095 4.60603e-005
0.0122515 0.00121142 4.60603e-005
0.0123759 0.0012119 4.60603e-005
0.0125002 0.00121237 4.60603e-005
0.0126245 0.00121283 4.60603e-005
0.0127498 0.0012133 4.60603e-005
0.0128752 0.00121376 4.60603e-005
0.0130005 0.00121422 4.60603e-005
0.0131258 0.00121468 4.60603e-005
0.0132511 0.00121514 4.60603e-005
0.0133774 0.00121558 4.60603e-005
0.0135036 0.00121604 4.60603e-005
0.0136299 0.00121648 4.60603e-005
0.0137562 0.00121693 4.60603e-005
0.0138825 0.00121737 4.60603e-005
0.0140098 0.0012178 4.60603e-005
0.014137 0.00121824 4.60603e-005
0.0142643 0.00121867 4.60603e-005
0.0143915 0.0012191 4.60603e-005
0.0145188 0.00121952 4.60603e-005
0.0146471 0.00121994 4.60603e-005
0.0147753 0.00122036 4.60603e-005
0.0149036 0.00122078 4.60603e-005
0.0150318 0.00122119 4.60603e-005
0.0151601 0.00122159 4.60603e-005
0.0152893 0.00122199 4.60603e-005
0.0154186 0.00122239 4.60603e-005
0.0155478 0.00122278 4.60603e-005
0.0156771 0.00122317 4.60603e-005
0.0158063 0.00122356 4.60603e-005
0.0159366 0.00122393 4.60603e-005
0.0160668 0.00122431 4.60603e-005
0.0161971 0.00122468 4.60603e-005
0.0163274 0.00122505 4.60603e-005
0.0164576 0.00122541 4.60603e-005
0.0165889 0.00122576 4.60603e-005
0.0167201 0.00122612 4.60603e-005
0.0168514 0.00122646 4.60603e-005
0.0169827 0.0012268 4.60603e-005
0.0171139 0.00122713 4.60603e-005
0.017209 0.00122737 4.60603e-005
0.0173041 0.0012276 4.60603e-005
0.0173992 0.00122783 4.60603e-005
0.0174942 0.00122806 4.60603e-005
0.0175862 0.00122828 4.60603e-005
0.0176241 0.00122837 4.60603e-005
0.0176619 0.00122845 4.60603e-005
0.0176997 0.00122854 4.60603e-005
0.0177376 0.00122862 4.60603e-005
0.0177754 0.00122871 4.60603e-005
0.0179087 0.00122901 4.60603e-005
0.018042 0.0012293 4.60603e-005
0.0181753 0.00122958 4.60603e-005
0.0183087 0.00122986 4.60603e-005
0.018442 0.00123013 4.60603e-005
0.0185763 0.00123039 4.60603e-005
0.0187107 0.00123065 4.60603e-005
0.018845 0.0012309 4.60603e-005
0.0189794 0.00123114 4.60603e-005
0.0191137 0.00123137 4.60603e-005
0.0192491 0.00123159 4.60603e-005
0.0193845 0.00123181 4.60603e-005
0.0195199 0.00123202 4.60603e-005
0.0196553 0.00123222 4.60603e-005
0.0197907 0.00123241 4.60603e-005
0.0199272 0.0012326 4.60603e-005
0.0200636 0.00123277 4.60603e-005
0.0202001 0.00123294 4.60603e-005
0.0203365 0.0012331 4.60603e-005
0.020473 0.00123324 4.60603e-005
0.0206105 0.00123338 4.60603e-005
0.020748 0.00123351 4.60603e-005
0.0208855 0.00123363 4.60603e-005
0.021023 0.00123374 4.60603e-005
0.0211606 0.00123385 4.60603e-005
0.0212991 0.00123394 4.60603e-005
0.0214377 0.00123402 4.60603e-005
0.0215763 0.00123409 4.60603e-005
0.0217149 0.00123415 4.60603e-005
0.0218535 0.0012342 4.60603e-005
0.0219931 0.00123425 4.60603e-005
0.0221328 0.00123428 4.60603e-005
0.0222724 0.0012343 4.60603e-005
0.0224121 0.00123431 4.60603e-005
0.0225517 0.00123431 4.60603e-005
0.0226925 0.0012343 4.60603e-005
[...]
POINT_DATA 11930
 FIELD attributes 2
p 1 11930 float
-1549.18 -1536.61 -1522.83 -1509.2 -1495.72 -1475.13 -1460.49 -1445.78 -1431 -1416.14 -1395.42 -1347.36 -1299.35 -1251.4 -1203.52 -1161.05 -1129.4 -1103.92 -1078.44 -1052.98 -1036.13 -1024.35 -1014.87 -1005.39 -995.906 -988.281 -981.519 -973.612 -965.705 -957.798 -948.752 -940.288 -931.635 -922.978 -914.338 -905.923 -897.94 -890.739 -883.627 -876.666 -870.62 -864.825 -859.608 -854.511 -849.568 -845.222 -841.04 -837.083 -833.195 -829.398 -825.853 -822.433 -819.144 -815.908 -812.746 -809.746 -806.844 -804.067 -801.355 -798.725 -796.239 -793.825 -791.522 -789.29 -787.141 -785.111 -783.129 -781.228 -779.389 -777.623 -775.942 -774.285 -772.688 -771.147 -769.67 -768.259 -766.844 -765.475 -764.155 -762.897 -761.693 -760.457 -759.262 -758.12 -757.046 -756.022 -754.939 -753.883 -752.868 -751.927 -751.032 -750.056 -749.129 -748.292 -747.577 -746.926 -746.204 -745.546 -745.006 -744.605 -744.287 -743.797 -743.351 -742.971 -742.684 -742.469 -742.064 -741.761 -741.576 -741.505 -741.546 -741.398 -741.332 -741.34 -741.412 -741.56 -741.667 -741.763 -741.852 -741.932 -741.999 -742.275 -742.448 -742.561 -742.614 -742.553 -742.942 -743.155 -743.287 -743.335 -743.175 -743.633 -743.867 -744.021 -744.088 -743.878 -744.362 -744.583 -744.733 -744.81 -744.563 -745.012 -745.182 -745.298 -745.363 -745.098 -745.471 -745.592 -745.682 -745.746 -745.511 -745.809 -745.904 -745.987 -746.062 -745.893 -746.119 -746.194 -746.269 -746.343 -746.245 -746.396 -746.455 -746.514 -746.573 -746.536 -746.629 -746.68 -746.731 -746.782 -746.798 -746.858 -746.912 -746.966 -747.02 -747.077 -747.124 -747.182 -747.241 -747.299 -747.38 -747.427 -747.489 -747.552 -747.614 -747.706 -747.764 -747.832 -747.899 -747.967 -748.06 -748.138 -748.214 -748.291 -748.367 -748.456 -748.561 -748.649 -748.738 -748.827 -748.913 -749.045 -749.148 -749.251 -749.354 -749.44 -749.596 -749.712 -749.829 -749.946 -750.034 -750.21 -750.339 -750.469 -750.599 -750.693 -750.884 -751.027 -751.17 -751.313 -751.418 -751.62 -751.777 -751.934 -752.091 -752.212 -752.42 -752.59 -752.76 -752.93 -753.071 -753.284 -753.469 -753.654 -753.839 -754.005 -754.224 -754.426 -754.628 -754.829 -755.023 -755.185 -755.34 -755.495 -755.65 -755.8 -755.861 -755.923 -755.985 -756.046 -756.118 -756.336 -756.563 -756.79 -757.017 -757.289 -757.489 -757.728 -757.967 -758.207 -758.521 -758.708 -758.96 -759.212 -759.464 -759.815 -759.995 -760.258 -760.522 -760.785 -761.166 -761.345 -761.62 -761.895 -762.17 -762.572 -762.758 -763.044 -763.331 -763.617 -764.031 -764.232 -764.529 -764.826 -765.123 -765.54 -765.764 -766.071 -766.378 -766.686 -767.097 -767.349 -767.666 -767.983 -768.3 -768.697 -768.983 -769.31 -769.637 -769.963 -770.341 -770.664 -771 -771.336 -771.671 -772.024 -772.387 -772.731 -773.075 -773.419 -773.744 -774.145 -774.499 -774.851 -775.197 -775.5 -775.929 -776.299 -776.658 -777.002 -777.288 -777.74 -778.129 -778.495 -778.833 -779.107 -779.576 -779.985 -780.358 -780.688 -780.957 -781.438 -781.867 -782.248 -782.57 -782.839 -783.331 -783.781 -784.169 -784.483 -784.754 -785.253 -785.723 -786.117 -786.42 -786.693 -787.195 -787.68 -788.077 -788.368 -788.643 -789.14 -789.634 -790.03 -790.313 -790.594 -791.082 -791.57 -791.961 -792.252 -792.542 -793.018 -793.493 -793.884 -794.185 -794.486 -794.947 -795.409 -795.797 -796.11 -796.424 -796.869 -797.315 -797.7 -798.025 -798.35 -798.779 -799.208 -799.59 -799.925 -800.261 -800.673 -801.086 -801.464 -801.808 -802.152 -802.549 -802.945 -803.319 -803.67 -804.02 -804.401 -804.782 -805.149 -805.505 -805.86 -806.226 -806.591 -806.953 -807.31 -807.667 -808.018 -808.37 -808.724 -809.08 -809.435 -809.772 -810.113 -810.459 -810.807 -811.159 -811.482 -811.812 -812.148 -812.487 -812.832 -813.141 -813.461 -813.786 -814.113 -814.448 -814.743 -815.052 -815.364 -815.676 -816 -816.28 -816.576 -816.873 -817.17 -817.477 -817.742 -818.021 -818.301 -818.581 -818.87 -819.118 -819.379 -819.641 -819.902 -820.172 -820.403 -820.644 -820.886 -821.128 -821.376 -821.588 -821.808 -822.029 -822.249 -822.473 -822.666 -822.863 -823.06 -823.257 -823.455 -823.462 -823.469 -823.476 -823.484 -823.491 -823.656 -823.821 -823.986 -824.152 -824.315 -824.461 -824.604 -824.748 -824.891 -825.031 -825.149 -825.261 -825.373 -825.485 -825.591 -825.679 -825.758 -825.837 -825.916 -825.985 -826.043 -826.086 -826.129 -826.172 -826.201 -826.226 -826.229 -826.233 -826.236 -826.223 -826.208 -826.176 -826.138 -826.095 -826.039 -825.982 -825.912 -825.831 -825.739 -825.638 -825.536 -825.426 -825.299 -825.155 -825.006 -824.857 -824.706 -824.529 -824.331 -824.131 -823.932 -823.734 -823.506 -823.253 -823 -822.748 -822.498 -822.217 -821.908 -821.599 -821.293 -820.987 -820.651 -820.284 -819.917 -819.553 -819.189 -818.796 -818.368 -817.941 -817.516 -817.089 -816.633 -816.148 -815.657 -815.169 -814.671 -814.15 -813.609 -813.053 -812.5 -811.927 -811.339 -810.741 -810.117 -809.496 -808.844 -808.187 -807.53 -806.835 -806.14 -805.41 -804.681 -803.952 -803.196 -802.416 -801.612 -800.809 -800.005 -799.186 -798.32 -797.439 -796.558 -795.678 -794.794 -794.534 -794.271 -794.007 -793.744 -793.486 -792.792 -792.099 -791.406 -790.713 -790.009 -788.985 -787.95 -786.915 -785.881 -784.818 -783.73 -782.612 -781.494 -780.377 -779.213 -778.058 -776.856 -775.654 -774.444 -773.184 -771.946 -770.673 -769.384 -768.069 -766.721 -765.395 -764.054 -762.677 -761.253 -759.815 -758.401 -756.986 -755.517 -753.988 -752.46 -750.955 -749.45 -747.888 -746.268 -744.649 -743.051 -741.455 -739.799 -738.086 -736.373 -734.683 -732.981 -731.226 -729.435 -727.629 -725.844 -724.024 -722.174 -720.311 -718.41 -716.531 -714.59 -712.645 -710.7 -708.714 -706.718 -704.677 -702.636 -700.596 -698.537 -696.965 -695.373 -693.782 -692.19 -690.675 -690.118 -689.562 -689.005 -688.448 -687.884 -685.67 -683.451 -681.232 -679.014 -676.76 -674.475 -672.161 -669.847 -667.533 -665.155 -662.789 -660.391 -657.982 -655.543 -653.071 -650.61 -648.142 -645.64 -643.076 -640.509 -637.955 -635.4 -632.794 -630.135 -627.475 -624.827 -622.18 -619.473 -616.723 -613.972 -611.232 -608.464 -605.662 -602.847 -600.004 -597.174 -594.283 -591.39 -588.497 -585.579 -582.734 -579.858 -576.982 -574.107 -571.397 -571.258 -571.119 -570.98 -570.842 -570.702 -567.639 -564.576 -561.514 -558.452 -555.366 -552.232 -549.084 -545.936 -542.785 -539.595 -536.383 -533.159 -529.929 -526.671 -523.398 -520.103 -516.808 -513.489 -510.136 -506.782 -503.406 -500.031 -496.622 -493.19 -489.757 -486.302 -482.833 -479.34 -475.842 -472.334 -468.802 -465.234 -461.665 -458.097 -454.521 -452.172 -449.808 -447.444 -445.081 -442.8 -441.507 -440.213 -438.92 -437.627 -436.325 -432.621 -428.912 -425.204 -421.496 -417.755 -413.991 -410.214 -406.437 -402.642 -398.825 -394.992 -391.16 -387.312 -383.429 -379.546 -375.647 -371.749 -367.823 -363.877 -359.93 -355.968 -351.992 -347.995 -343.997 -339.989 -335.962 -331.906 -327.849 -323.794 -319.734 -318.347 -316.952 -315.558 -314.164 -312.793 -310.071 -307.35 -304.628 -301.907 -299.17 -295.01 -290.845 -286.68 -282.511 -278.312 -274.103 -269.89 -265.673 -261.43 -257.181 -252.92 -248.661 -244.382 -240.086 -235.789 -231.481 -227.165 -222.83 -218.493 -214.152 -209.798 -205.419 -201.041 -196.664 -192.283 -190.959 -189.629 -188.299 -186.97 -185.659 -182.567 -179.475 -176.384 -173.293 -170.187 -165.735 -161.28 -156.826 -152.366 -147.886 -143.399 -138.913 -134.423 -129.913 -125.402 -120.882 -116.364 -111.828 -107.288 -102.747 -98.1967 -93.6364 -89.0703 -84.5047 -79.9377 -76.752 -73.5599 -70.3681 -67.1765 -64.0848 -62.6685 -61.2521 -59.8359 -58.4196 -56.9995 -52.3906 -47.7826 -43.1751 -38.5672 -33.9435 -29.3153 -24.6887 -20.0641 -15.4283 -10.789 -6.14448 -1.50059 3.14879 7.79635 12.4461 17.1017 21.7604 26.4212 31.0815 35.7389 38.6608 41.5844 44.5078 47.431 50.2773 52.0373 53.7972 55.557 57.3168 59.0788 63.7562 68.4296 73.1024 77.7754 82.453 87.1337 91.8126 96.4837 101.155 105.828 110.505 115.181 119.854 124.52 129.185 133.854 138.518 143.182 147.844 152.506 153.349 154.19 155.03 155.871 156.706 160.525 164.344 168.162 171.98 175.795 180.452 185.099 189.742 194.38 199.017 203.656 208.294 212.921 217.535 222.151 226.768 231.377 235.98 240.583 245.179 247.149 249.112 251.075 253.038 254.972 257.6 260.227 262.855 265.482 268.103 272.678 277.24 281.802 286.355 290.903 295.449 299.995 304.524 309.037 313.553 318.065 322.567 327.06 331.553 336.037 337.897 339.749 341.6 343.451 345.279 347.898 350.517 353.136 355.754 358.363 362.811 367.245 371.678 376.098 380.512 384.92 389.328 393.717 398.086 402.458 406.823 411.17 415.511 419.851 424.189 424.951 425.709 426.467 427.225 427.98 431.533 435.086 438.639 442.191 445.726 450.008 454.282 458.548 462.79 467.034 471.266 475.496 479.702 483.9 488.093 491.182 494.253 497.322 500.39 503.408 504.509 505.61 506.711 507.811 508.906 513.036 517.157 521.278 525.389 529.486 533.567 537.648 541.708 545.746 549.786 553.81 557.813 561.808 565.803 569.795 570.244 570.69 571.136 571.581 572.026 575.537 579.048 582.559 586.066 589.551 593.465 597.379 601.268 605.133 608.999 612.848 616.682 620.498 624.314 628.119 629.143 630.16 631.174 632.188 633.2 635.954 638.708 641.462 644.21 646.939 650.663 654.383 658.081 661.748 665.415 669.064 672.698 676.305 679.912 683.499 684.602 685.698 686.792 687.885 688.983 691.439 693.896 696.353 698.804 701.239 704.749 708.243 711.688 715.051 718.412 721.752 725.143 728.627 732.11 735.64 736.794 737.729 738.595 739.462 740.342 742.42 744.498 746.575 748.523 750.032 752.246 754.801 757.96 762.737 767.508 772.162 775.891 778.324 780.761 783.166 783.18 783.198 783.221 783.244 783.268 785.252 787.238 789.225 791.753 794.634 797.571 800.48 803.269 806.058 808.807 809.124 809.434 809.733 810.031 810.333 812.745 815.155 817.563 819.893 822.172 824.761 827.34 829.826 832.311 834.741 835.176 835.601 836.008 836.414 836.83 838.816 840.8 842.781 844.685 846.538 848.785 851.028 853.089 855.116 857.065 857.609 858.128 858.606 859.083 859.586 860.937 862.284 863.628 864.882 866.066 867.67 869.267 870.672 871.862 873.042 873.624 874.126 874.537 874.947 875.404 875.876 876.346 876.814 877.217 877.544 878.147 878.668 879.018 879.051 879.074 878.96 878.615 878.067 877.511 876.892 876.808 876.697 876.572 876.446 876.317 875.297 874.264 873.218 872.032 870.548 868.702 866.843 864.55 861.842 859.122 856.142 852.742 849.119 845.488 841.712 840.948 840.086 839.208 838.329 837.401 833.596 829.78 825.951 822.071 817.73 812.041 806.087 799.826 792.795 785.69 778.115 770.528 762.348 753.737 745.041 735.822 725.388 714.705 704.02 692.876 688.55 684.218 679.885 675.551 670.679 662.808 654.933 647.052 639.166 631.24 617.502 601.789 586.044 569.259 549.918 529.606 509.806 492.262 478.388 464.507 449.88 435.254 407.791 367.949 328.074 286.404 253.979 237.612 228.55 231.577 233.823 176.692 119.249 61.5075 0