# vtk DataFile Version 2.0
track0
ASCII
DATASET POLYDATA
POINTS 11930 float
-0.0205 0.001 1e-005
-0.0203851 0.00100536 1.50242e-005
-0.0202701 0.00101047 1.96638e-005
-0.0201551 0.00101535 2.39716e-005
-0.0200401 0.00102 2.79428e-005
-0.0198624 0.00102682 3.35495e-005
-0.0196934 0.00103276 3.80968e-005
-0.0195243 0.00103809 4.16122e-005
-0.0193551 0.00104282 4.4105e-005
-0.019186 0.00104693 4.55843e-005
-0.0190172 0.00105043 4.60585e-005
-0.0187132 0.00105595 4.60585e-005
-0.0184093 0.00106081 4.60585e-005
-0.0181054 0.00106516 4.60585e-005
-0.0178014 0.00106898 4.60585e-005
-0.0174976 0.00107227 4.60585e-005
-0.0172058 0.00107514 4.60585e-005
-0.016914 0.00107793 4.60585e-005
-0.0166222 0.00108066 4.60585e-005
-0.0163305 0.00108331 4.60585e-005
-0.0160387 0.0010859 4.60585e-005
-0.0157586 0.00108829 4.60585e-005
-0.0154784 0.00109061 4.60585e-005
-0.0151983 0.00109285 4.60585e-005
-0.0149182 0.001095 4.60585e-005
-0.0146381 0.00109708 4.60585e-005
-0.0143692 0.00109895 4.60585e-005
-0.0141002 0.00110072 4.60585e-005
-0.0138313 0.00110242 4.60585e-005
-0.0135624 0.00110404 4.60585e-005
-0.0132934 0.00110559 4.60585e-005
-0.0130353 0.00110701 4.60585e-005
-0.0127771 0.00110836 4.60585e-005
-0.0125189 0.00110968 4.60585e-005
-0.0122607 0.00111096 4.60585e-005
-0.0120025 0.0011122 4.60585e-005
-0.0117547 0.00111336 4.60585e-005
-0.0115068 0.00111449 4.60585e-005
-0.0112589 0.0011156 4.60585e-005
-0.0110111 0.0011167 4.60585e-005
-0.0107632 0.00111778 4.60585e-005
-0.0105252 0.00111879 4.60585e-005
-0.0102873 0.00111979 4.60585e-005
-0.0100493 0.00112078 4.60585e-005
-0.00981133 0.00112176 4.60585e-005
-0.00957337 0.00112272 4.60585e-005
-0.00934491 0.00112363 4.60585e-005
-0.00911645 0.00112453 4.60585e-005
-0.00888799 0.00112542 4.60585e-005
-0.00865954 0.0011263 4.60585e-005
-0.00843108 0.00112717 4.60585e-005
-0.00821175 0.001128 4.60585e-005
-0.00799242 0.00112882 4.60585e-005
-0.00777309 0.00112963 4.60585e-005
-0.00755376 0.00113044 4.60585e-005
-0.00733443 0.00113124 4.60585e-005
-0.00712387 0.00113201 4.60585e-005
-0.0069133 0.00113277 4.60585e-005
-0.00670273 0.00113353 4.60585e-005
-0.00649216 0.00113428 4.60585e-005
-0.0062816 0.00113503 4.60585e-005
-0.00607944 0.00113575 4.60585e-005
-0.00587729 0.00113647 4.60585e-005
-0.00567514 0.00113718 4.60585e-005
-0.00547298 0.0011379 4.60585e-005
-0.00527083 0.00113861 4.60585e-005
-0.00507675 0.0011393 4.60585e-005
-0.00488267 0.00113998 4.60585e-005
-0.0046886 0.00114065 4.60585e-005
-0.00449452 0.00114133 4.60585e-005
-0.00430044 0.00114201 4.60585e-005
-0.00411412 0.00114267 4.60585e-005
-0.0039278 0.00114332 4.60585e-005
-0.00374147 0.00114397 4.60585e-005
-0.00355515 0.00114462 4.60585e-005
-0.00336883 0.00114527 4.60585e-005
-0.00318995 0.0011459 4.60585e-005
-0.00301107 0.00114653 4.60585e-005
-0.00283219 0.00114715 4.60585e-005
-0.00265331 0.00114778 4.60585e-005
-0.00247443 0.0011484 4.60585e-005
-0.0023027 0.00114901 4.60585e-005
-0.00213097 0.00114962 4.60585e-005
-0.00195924 0.00115022 4.60585e-005
-0.0017875 0.00115083 4.60585e-005
-0.00161577 0.00115144 4.60585e-005
-0.0014509 0.00115203 4.60585e-005
-0.00128603 0.00115261 4.60585e-005
-0.00112116 0.0011532 4.60585e-005
-0.000956289 0.00115378 4.60585e-005
-0.000791418 0.00115438 4.60585e-005
-0.000633135 0.00115496 4.60585e-005
-0.000474851 0.00115554 4.60585e-005
-0.000316567 0.00115612 4.60585e-005
-0.000158284 0.0011567 4.60585e-005
0 0.00115729 4.60585e-005
0.000105677 0.00115769 4.60585e-005
0.000211355 0.00115809 4.60585e-005
0.000317032 0.00115849 4.60585e-005
0.00042271 0.00115889 4.60585e-005
0.000528387 0.0011593 4.60585e-005
0.000634886 0.00115972 4.60585e-005
0.000741385 0.00116014 4.60585e-005
0.000847885 0.00116056 4.60585e-005
0.000954384 0.00116098 4.60585e-005
0.00106088 0.00116141 4.60585e-005
0.00116821 0.00116186 4.60585e-005
0.00127554 0.00116231 4.60585e-005
0.00138286 0.00116276 4.60585e-005
0.00149019 0.00116321 4.60585e-005
0.00159752 0.00116367 4.60585e-005
0.00170568 0.00116414 4.60585e-005
0.00181384 0.00116461 4.60585e-005
0.001922 0.00116509 4.60585e-005
0.00203016 0.00116556 4.60585e-005
0.00213833 0.00116603 4.60585e-005
0.00224733 0.00116652 4.60585e-005
0.00235633 0.001167 4.60585e-005
0.00246533 0.00116749 4.60585e-005
0.00257434 0.00116798 4.60585e-005
0.00268334 0.00116846 4.60585e-005
0.00279319 0.00116896 4.60585e-005
0.00290304 0.00116945 4.60585e-005
0.00301289 0.00116996 4.60585e-005
0.00312274 0.00117046 4.60585e-005
0.00323259 0.00117096 4.60585e-005
0.00334329 0.00117145 4.60585e-005
0.003454 0.00117196 4.60585e-005
0.0035647 0.00117248 4.60585e-005
0.0036754 0.00117299 4.60585e-005
0.00378611 0.0011735 4.60585e-005
0.00389767 0.001174 4.60585e-005
0.00400924 0.00117452 4.60585e-005
0.0041208 0.00117505 4.60585e-005
0.00423237 0.00117557 4.60585e-005
0.00434393 0.00117609 4.60585e-005
0.00445636 0.0011766 4.60585e-005
0.00456879 0.00117713 4.60585e-005
0.00468123 0.00117766 4.60585e-005
0.00479366 0.00117819 4.60585e-005
0.00490609 0.00117872 4.60585e-005
0.0050194 0.00117923 4.60585e-005
0.0051327 0.00117976 4.60585e-005
0.00524601 0.0011803 4.60585e-005
0.00535931 0.00118083 4.60585e-005
0.00547262 0.00118137 4.60585e-005
0.00558681 0.00118188 4.60585e-005
0.005701 0.00118241 4.60585e-005
0.00581518 0.00118295 4.60585e-005
0.00592937 0.00118349 4.60585e-005
0.00604356 0.00118403 4.60585e-005
0.00615863 0.00118454 4.60585e-005
0.00627371 0.00118508 4.60585e-005
0.00638878 0.00118562 4.60585e-005
0.00650386 0.00118616 4.60585e-005
0.00661893 0.0011867 4.60585e-005
0.0067349 0.00118722 4.60585e-005
0.00685087 0.00118776 4.60585e-005
0.00696684 0.00118829 4.60585e-005
0.00708281 0.00118883 4.60585e-005
0.00719878 0.00118937 4.60585e-005
0.00731565 0.00118989 4.60585e-005
0.00743252 0.00119042 4.60585e-005
0.00754939 0.00119096 4.60585e-005
0.00766626 0.00119149 4.60585e-005
0.00778313 0.00119203 4.60585e-005
0.00790091 0.00119255 4.60585e-005
0.00801869 0.00119308 4.60585e-005
0.00813647 0.00119361 4.60585e-005
0.00825425 0.00119414 4.60585e-005
0.00837203 0.00119467 4.60585e-005
0.00849073 0.00119518 4.60585e-005
0.00860942 0.00119571 4.60585e-005
0.00872812 0.00119624 4.60585e-005
0.00884682 0.00119676 4.60585e-005
0.00896551 0.00119728 4.60585e-005
0.00908513 0.0011978 4.60585e-005
0.00920475 0.00119832 4.60585e-005
0.00932437 0.00119884 4.60585e-005
0.00944398 0.00119936 4.60585e-005
0.0095636 0.00119988 4.60585e-005
0.00968415 0.00120039 4.60585e-005
0.0098047 0.0012009 4.60585e-005
0.00992525 0.00120142 4.60585e-005
0.0100458 0.00120193 4.60585e-005
0.0101663 0.00120244 4.60585e-005
0.0102878 0.00120294 4.60585e-005
0.0104093 0.00120345 4.60585e-005
0.0105308 0.00120396 4.60585e-005
0.0106523 0.00120446 4.60585e-005
0.0107738 0.00120496 4.60585e-005
0.0108962 0.00120546 4.60585e-005
0.0110186 0.00120596 4.60585e-005
0.0111411 0.00120646 4.60585e-005
0.0112635 0.00120695 4.60585e-005
0.0113859 0.00120744 4.60585e-005
0.0115093 0.00120793 4.60585e-005
0.0116327 0.00120842 4.60585e-005
0.0117561 0.00120891 4.60585e-005
0.0118795 0.0012094 4.60585e-005
0.0120028 0.00120988 4.60585e-005
0.0121272 0.00121035 4.60585e-005
0.0122515 0.00121083 4.60585e-005
0.0123759 0.00121131 4.60585e-005
0.0125002 0.00121179 4.60585e-005
0.0126245 0.00121226 4.60585e-005
0.0127498 0.00121272 4.60585e-005
0.0128752 0.00121319 4.60585e-005
0.0130005 0.00121366 4.60585e-005
0.0131258 0.00121412 4.60585e-005
0.0132511 0.00121457 4.60585e-005
0.0133774 0.00121503 4.60585e-005
0.0135036 0.00121548 4.60585e-005
0.0136299 0.00121593 4.60585e-005
0.0137562 0.00121638 4.60585e-005
0.0138825 0.00121682 4.60585e-005
0.0140098 0.00121726 4.60585e-005
0.014137 0.0012177 4.60585e-005
0.0142643 0.00121813 4.60585e-005
0.0143915 0.00121856 4.60585e-005
0.0145188 0.00121899 4.60585e-005
0.0146471 0.00121941 4.60585e-005
0.0147753 0.00121983 4.60585e-005
0.0149036 0.00122024 4.60585e-005
0.0150318 0.00122065 4.60585e-005
0.0151601 0.00122106 4.60585e-005
0.0152893 0.00122146 4.60585e-005
0.0154186 0.00122186 4.60585e-005
0.0155478 0.00122226 4.60585e-005
0.0156771 0.00122265 4.60585e-005
0.0158063 0.00122303 4.60585e-005
0.0159366 0.00122341 4.60585e-005
0.0160668 0.00122379 4.60585e-005
0.0161971 0.00122416 4.60585e-005
0.0163274 0.00122452 4.60585e-005
0.0164576 0.00122488 4.60585e-005
0.0165889 0.00122524 4.60585e-005
0.0167201 0.00122559 4.60585e-005
0.0168514 0.00122593 4.60585e-005
0.0169827 0.00122627 4.60585e-005
0.0171139 0.0012266 4.60585e-005
0.0171971 0.00122681 4.60585e-005
0.0172803 0.00122701 4.60585e-005
0.0173635 0.00122722 4.60585e-005
0.0174467 0.00122741 4.60585e-005
0.0175275 0.00122761 4.60585e-005
0.0175771 0.00122772 4.60585e-005
0.0176267 0.00122783 4.60585e-005
0.0176762 0.00122795 4.60585e-005
0.0177258 0.00122806 4.60585e-005
0.0177754 0.00122817 4.60585e-005
0.0179087 0.00122847 4.60585e-005
0.018042 0.00122876 4.60585e-005
0.0181753 0.00122904 4.60585e-005
0.0183087 0.00122932 4.60585e-005
0.018442 0.00122958 4.60585e-005
0.0185763 0.00122984 4.60585e-005
0.0187107 0.0012301 4.60585e-005
0.018845 0.00123034 4.60585e-005
0.0189794 0.00123058 4.60585e-005
0.0191137 0.00123081 4.60585e-005
0.0192491 0.00123103 4.60585e-005
0.0193845 0.00123125 4.60585e-005
0.0195199 0.00123146 4.60585e-005
0.0196553 0.00123165 4.60585e-005
0.0197907 0.00123184 4.60585e-005
0.0199272 0.00123202 4.60585e-005
0.0200636 0.0012322 4.60585e-005
0.0202001 0.00123236 4.60585e-005
0.0203365 0.00123251 4.60585e-005
0.020473 0.00123266 4.60585e-005
0.0206105 0.0012328 4.60585e-005
0.020748 0.00123292 4.60585e-005
0.0208855 0.00123304 4.60585e-005
0.021023 0.00123315 4.60585e-005
0.0211606 0.00123325 4.60585e-005
0.0212991 0.00123334 4.60585e-005
0.0214377 0.00123342 4.60585e-005
0.0215763 0.00123348 4.60585e-005
0.0217149 0.00123354 4.60585e-005
0.0218535 0.00123359 4.60585e-005
0.0219931 0.00123363 4.60585e-005
0.0221328 0.00123366 4.60585e-005
0.0222724 0.00123368 4.60585e-005
0.0224121 0.00123368 4.60585e-005
0.0225517 0.00123368 4.60585e-005
0.0226925 0.00123367 4.60585e-005
[...]
POINT_DATA 11930
 FIELD attributes 2
p 1 11930 float
-1548.33 -1535.76 -1521.98 -1508.35 -1494.87 -1474.28 -1459.64 -1444.93 -1430.14 -1415.27 -1394.54 -1346.47 -1298.45 -1250.5 -1202.61 -1160.13 -1128.47 -1102.97 -1077.49 -1052.02 -1035.17 -1023.37 -1013.88 -1004.39 -994.898 -987.285 -980.532 -972.636 -964.74 -956.844 -947.814 -939.385 -930.747 -922.105 -913.479 -905.05 -897.074 -889.871 -882.759 -875.796 -869.732 -863.925 -858.705 -853.608 -848.67 -844.337 -840.156 -836.209 -832.334 -828.553 -825.034 -821.628 -818.351 -815.126 -811.978 -808.992 -806.099 -803.328 -800.621 -797.996 -795.513 -793.104 -790.806 -788.578 -786.432 -784.402 -782.427 -780.533 -778.703 -776.943 -775.266 -773.618 -772.031 -770.501 -769.034 -767.629 -766.224 -764.865 -763.556 -762.307 -761.109 -759.881 -758.694 -757.56 -756.493 -755.477 -754.395 -753.342 -752.329 -751.388 -750.493 -749.506 -748.568 -747.715 -746.98 -746.309 -745.554 -744.859 -744.27 -743.821 -743.455 -742.91 -742.403 -741.952 -741.599 -741.323 -740.866 -740.516 -740.285 -740.177 -740.189 -740.019 -739.938 -739.935 -739.997 -740.138 -740.239 -740.33 -740.416 -740.493 -740.557 -740.829 -741.002 -741.119 -741.176 -741.12 -741.513 -741.731 -741.872 -741.928 -741.775 -742.242 -742.478 -742.633 -742.702 -742.486 -742.975 -743.189 -743.332 -743.402 -743.139 -743.589 -743.751 -743.859 -743.918 -743.636 -744.015 -744.131 -744.218 -744.28 -744.033 -744.339 -744.433 -744.516 -744.593 -744.413 -744.648 -744.723 -744.798 -744.873 -744.767 -744.926 -744.986 -745.045 -745.105 -745.061 -745.159 -745.211 -745.262 -745.313 -745.323 -745.388 -745.443 -745.497 -745.552 -745.604 -745.656 -745.716 -745.776 -745.836 -745.916 -745.969 -746.035 -746.102 -746.168 -746.261 -746.328 -746.402 -746.476 -746.551 -746.648 -746.736 -746.822 -746.907 -746.992 -747.089 -747.204 -747.303 -747.402 -747.501 -747.596 -747.739 -747.852 -747.965 -748.078 -748.173 -748.338 -748.464 -748.59 -748.716 -748.813 -748.996 -749.134 -749.272 -749.409 -749.511 -749.708 -749.857 -750.007 -750.156 -750.268 -750.474 -750.636 -750.798 -750.959 -751.087 -751.299 -751.473 -751.648 -751.823 -751.97 -752.186 -752.376 -752.565 -752.755 -752.926 -753.147 -753.351 -753.555 -753.76 -753.957 -754.099 -754.234 -754.37 -754.506 -754.638 -754.719 -754.8 -754.881 -754.962 -755.055 -755.27 -755.496 -755.722 -755.949 -756.222 -756.418 -756.656 -756.894 -757.132 -757.447 -757.631 -757.881 -758.13 -758.38 -758.731 -758.908 -759.17 -759.431 -759.693 -760.073 -760.249 -760.522 -760.795 -761.068 -761.468 -761.653 -761.937 -762.221 -762.505 -762.916 -763.116 -763.41 -763.705 -763.999 -764.412 -764.634 -764.939 -765.243 -765.548 -765.954 -766.205 -766.519 -766.833 -767.147 -767.539 -767.824 -768.147 -768.47 -768.793 -769.165 -769.487 -769.819 -770.151 -770.483 -770.83 -771.192 -771.532 -771.872 -772.212 -772.532 -772.931 -773.282 -773.63 -773.972 -774.269 -774.697 -775.064 -775.42 -775.76 -776.04 -776.491 -776.877 -777.241 -777.574 -777.844 -778.311 -778.718 -779.089 -779.414 -779.68 -780.158 -780.586 -780.965 -781.284 -781.552 -782.042 -782.491 -782.878 -783.19 -783.46 -783.958 -784.427 -784.821 -785.122 -785.396 -785.896 -786.381 -786.777 -787.069 -787.345 -787.841 -788.335 -788.732 -789.017 -789.3 -789.788 -790.276 -790.669 -790.964 -791.258 -791.734 -792.21 -792.603 -792.91 -793.216 -793.679 -794.142 -794.534 -794.854 -795.173 -795.621 -796.069 -796.46 -796.792 -797.124 -797.557 -797.99 -798.378 -798.721 -799.064 -799.482 -799.899 -800.284 -800.637 -800.99 -801.392 -801.795 -802.176 -802.536 -802.896 -803.283 -803.671 -804.047 -804.412 -804.776 -805.15 -805.523 -805.893 -806.26 -806.626 -806.986 -807.347 -807.71 -808.075 -808.44 -808.786 -809.136 -809.491 -809.849 -810.211 -810.543 -810.883 -811.229 -811.578 -811.932 -812.251 -812.581 -812.915 -813.252 -813.597 -813.902 -814.221 -814.542 -814.864 -815.196 -815.486 -815.792 -816.098 -816.404 -816.72 -816.994 -817.283 -817.571 -817.86 -818.159 -818.415 -818.685 -818.955 -819.226 -819.505 -819.744 -819.994 -820.244 -820.495 -820.752 -820.973 -821.202 -821.431 -821.66 -821.893 -822.094 -822.3 -822.505 -822.711 -822.917 -822.928 -822.939 -822.951 -822.962 -822.973 -823.143 -823.312 -823.481 -823.651 -823.819 -823.973 -824.125 -824.277 -824.429 -824.578 -824.705 -824.826 -824.947 -825.069 -825.184 -825.282 -825.37 -825.459 -825.548 -825.627 -825.695 -825.748 -825.801 -825.855 -825.894 -825.93 -825.945 -825.96 -825.973 -825.972 -825.969 -825.948 -825.923 -825.892 -825.848 -825.804 -825.746 -825.678 -825.599 -825.511 -825.424 -825.327 -825.214 -825.084 -824.949 -824.815 -824.679 -824.518 -824.334 -824.149 -823.967 -823.785 -823.573 -823.336 -823.099 -822.865 -822.632 -822.368 -822.076 -821.784 -821.496 -821.208 -820.89 -820.54 -820.191 -819.845 -819.5 -819.125 -818.715 -818.305 -817.899 -817.492 -817.054 -816.585 -816.112 -815.643 -815.164 -814.661 -814.136 -813.596 -813.062 -812.507 -811.936 -811.354 -810.745 -810.141 -809.506 -808.864 -808.222 -807.541 -806.861 -806.146 -805.43 -804.715 -803.97 -803.204 -802.411 -801.619 -800.827 -800.017 -799.16 -798.288 -797.415 -796.543 -795.667 -795.36 -795.05 -794.739 -794.429 -794.125 -793.483 -792.841 -792.2 -791.558 -790.905 -789.883 -788.849 -787.815 -786.781 -785.718 -784.628 -783.506 -782.385 -781.264 -780.093 -778.933 -777.722 -776.511 -775.292 -774.019 -772.772 -771.485 -770.182 -768.851 -767.483 -766.143 -764.784 -763.388 -761.939 -760.477 -759.041 -757.606 -756.109 -754.55 -752.99 -751.457 -749.925 -748.33 -746.672 -745.014 -743.382 -741.751 -740.056 -738.298 -736.54 -734.808 -733.064 -731.262 -729.421 -727.562 -725.73 -723.858 -721.954 -720.037 -718.077 -716.143 -714.141 -712.135 -710.13 -708.079 -706.019 -703.91 -701.801 -699.693 -697.567 -696.096 -694.605 -693.114 -691.624 -690.201 -689.471 -688.742 -688.012 -687.283 -686.543 -684.252 -681.952 -679.653 -677.355 -675.015 -672.649 -670.248 -667.847 -665.443 -662.974 -660.519 -658.032 -655.53 -652.993 -650.423 -647.867 -645.307 -642.704 -640.034 -637.365 -634.709 -632.054 -629.342 -626.575 -623.807 -621.053 -618.298 -615.479 -612.622 -609.758 -606.908 -604.023 -601.108 -598.185 -595.228 -592.279 -589.27 -586.262 -583.254 -580.225 -577.97 -575.69 -573.41 -571.13 -568.952 -568.114 -567.277 -566.439 -565.602 -564.758 -561.581 -558.4 -555.22 -552.04 -548.831 -545.582 -542.316 -539.051 -535.776 -532.47 -529.139 -525.803 -522.455 -519.076 -515.689 -512.278 -508.868 -505.433 -501.97 -498.507 -495.019 -491.531 -488.01 -484.477 -480.942 -477.382 -473.803 -470.21 -466.618 -463.015 -459.38 -455.721 -452.062 -448.404 -444.743 -443.642 -442.535 -441.428 -440.322 -439.232 -436.616 -434 -431.384 -428.769 -426.139 -422.365 -418.588 -414.81 -411.032 -407.223 -403.395 -399.564 -395.731 -391.878 -388.015 -384.132 -380.25 -376.356 -372.444 -368.53 -364.596 -360.663 -356.706 -352.746 -348.785 -344.804 -340.807 -336.804 -332.801 -328.796 -324.971 -321.133 -317.296 -313.459 -309.787 -309.545 -309.304 -309.062 -308.82 -308.578 -304.492 -300.407 -296.322 -292.237 -288.136 -284.012 -279.89 -275.768 -271.638 -267.494 -263.335 -259.176 -255.018 -250.843 -246.667 -242.475 -238.283 -234.077 -229.872 -225.666 -221.444 -217.213 -212.975 -208.738 -204.504 -200.448 -196.382 -192.317 -188.252 -184.349 -184.118 -183.886 -183.655 -183.424 -183.191 -178.9 -174.61 -170.32 -166.03 -161.726 -157.408 -153.095 -148.782 -144.462 -140.132 -135.793 -131.453 -127.114 -122.767 -118.417 -114.057 -109.697 -105.323 -100.954 -96.5849 -92.2045 -87.8152 -83.4247 -79.0346 -74.6469 -72.6459 -70.6422 -68.6385 -66.635 -64.6685 -62.2589 -59.8495 -57.4403 -55.0311 -52.6165 -48.1929 -43.7733 -39.3541 -34.9323 -30.4989 -26.0593 -21.6214 -17.1884 -12.7443 -8.29838 -3.84609 0.605677 5.06541 9.5195 13.9752 18.4375 22.9051 27.3748 31.844 36.3099 38.7237 41.1404 43.5571 45.9736 48.338 50.411 52.484 54.5568 56.6296 58.7062 63.1981 67.6854 72.1723 76.6606 81.1563 85.6553 90.153 94.6442 99.1399 103.638 108.139 112.64 117.144 121.642 126.14 130.642 135.145 139.648 144.15 148.652 149.752 150.853 151.954 153.055 154.145 157.552 160.958 164.364 167.77 171.179 175.689 180.191 184.693 189.194 193.697 198.2 202.703 207.201 211.692 216.186 220.68 225.172 229.662 234.151 238.633 241.397 244.157 246.916 249.676 252.373 254.106 255.838 257.571 259.304 261.036 265.512 269.982 274.452 278.92 283.385 287.848 292.31 296.762 301.205 305.65 310.093 314.532 318.964 323.393 327.817 330.865 333.905 336.944 339.983 342.951 344.338 345.724 347.11 348.496 349.879 354.279 358.672 363.066 367.454 371.837 376.213 380.588 384.95 389.3 393.652 397.997 402.334 406.662 410.989 415.309 417.459 419.601 421.743 423.884 425.993 428.159 430.324 432.49 434.655 436.813 441.095 445.366 449.637 453.897 458.151 462.395 466.638 470.864 475.075 479.288 483.49 487.673 491.852 496.03 500.209 500.529 500.848 501.166 501.485 501.803 505.635 509.468 513.3 517.13 520.944 525.06 529.175 533.275 537.356 541.438 545.504 549.562 553.602 557.642 561.672 563.472 565.263 567.051 568.839 570.611 572.825 575.038 577.251 579.461 581.66 585.626 589.581 593.532 597.458 601.38 605.287 609.191 613.065 616.932 620.792 623.051 625.296 627.535 629.775 632.001 633.583 635.166 636.749 638.328 639.897 643.684 647.45 651.217 654.957 658.689 662.403 666.116 669.788 673.447 677.095 679.276 681.443 683.604 685.766 687.94 689.384 690.827 692.271 693.712 695.143 698.719 702.241 705.763 709.215 712.643 716.051 719.46 723.01 726.588 730.197 732.32 734.054 735.658 737.263 738.912 740.193 741.474 742.755 743.955 744.894 747.188 750.336 753.486 757.868 762.702 767.417 771.811 774.304 776.801 778.69 778.976 779.322 779.768 780.213 780.662 782.382 784.102 785.824 788.003 790.472 793.479 796.486 799.351 802.197 804.987 805.692 806.384 807.049 807.714 808.394 810.489 812.582 814.675 816.699 818.681 821.343 824.003 826.573 829.107 831.599 832.329 833.042 833.724 834.405 835.113 836.874 838.632 840.389 842.078 843.725 846.045 848.361 850.524 852.578 854.596 855.345 856.06 856.719 857.377 858.08 859.295 860.507 861.716 862.845 863.914 865.588 867.255 868.716 869.971 871.215 871.918 872.53 873.034 873.536 874.106 874.523 874.939 875.353 875.712 876.008 876.673 877.211 877.658 877.747 877.825 877.768 877.515 877.018 876.514 875.906 875.774 875.596 875.391 875.187 874.974 874.061 873.136 872.2 871.131 869.781 867.98 866.167 863.91 861.239 858.556 855.615 852.285 848.693 845.093 841.311 840.36 839.284 838.187 837.09 835.914 832.342 828.76 825.167 821.524 817.443 811.776 805.804 799.564 792.584 785.495 777.935 770.362 762.217 753.587 744.899 735.687 725.307 714.628 703.948 692.763 688.023 683.274 678.525 673.773 668.372 660.937 653.498 646.054 638.606 631.117 617.273 601.563 585.82 569.129 549.796 529.49 509.783 492.222 478.239 464.328 449.669 435.011 407.55 367.755 327.927 286.304 253.4 236.994 228.366 231.285 234.013 177.432 120.051 62.3746 0