# vtk DataFile Version 2.0
track0
ASCII
DATASET POLYDATA
POINTS 11980 float
-0.0205 0.001 1e-005
-0.0202034 0.00100022 1e-005
-0.0199069 0.00100067 1e-005
-0.0196103 0.00100133 1e-005
-0.0193137 0.00100219 1e-005
-0.0190172 0.00100326 1e-005
-0.0187132 0.00100467 1e-005
-0.0184093 0.00100589 1e-005
-0.0181054 0.00100711 1e-005
-0.0178015 0.00100832 1e-005
-0.0174976 0.00100954 1e-005
-0.0172058 0.00101083 1e-005
-0.016914 0.00101193 1e-005
-0.0166222 0.00101303 1e-005
-0.0163305 0.00101413 1e-005
-0.0160387 0.00101523 1e-005
-0.0157586 0.00101637 1e-005
-0.0154784 0.00101745 1e-005
-0.0151983 0.00101856 1e-005
-0.0149182 0.00101971 1e-005
-0.0146381 0.0010209 1e-005
-0.0143745 0.00102209 1e-005
-0.014111 0.00102327 1e-005
-0.0138474 0.00102449 1e-005
-0.0135838 0.00102574 1e-005
-0.0133612 0.00102682 1e-005
-0.0133476 0.00102688 1e-005
-0.0133341 0.00102695 1e-005
-0.0133205 0.00102702 1e-005
-0.013307 0.00102709 1e-005
-0.0132934 0.00102715 1e-005
-0.0130353 0.00102844 1e-005
-0.0127771 0.00102974 1e-005
-0.0125189 0.00103106 1e-005
-0.0122607 0.0010324 1e-005
-0.0120025 0.00103375 1e-005
-0.0117547 0.00103505 1e-005
-0.0115068 0.00103637 1e-005
-0.0112589 0.00103769 1e-005
-0.0110111 0.00103901 1e-005
-0.0107632 0.00104034 1e-005
-0.0105252 0.00104162 1e-005
-0.0102873 0.00104289 1e-005
-0.0100493 0.00104417 1e-005
-0.00981133 0.00104545 1e-005
-0.00957337 0.00104673 1e-005
-0.00934491 0.00104794 1e-005
-0.00911645 0.00104917 1e-005
-0.00888799 0.00105038 1e-005
-0.00865954 0.0010516 1e-005
-0.00843108 0.00105281 1e-005
-0.00821175 0.00105397 1e-005
-0.00799242 0.00105512 1e-005
-0.00777309 0.00105627 1e-005
-0.00755376 0.00105742 1e-005
-0.00733443 0.00105857 1e-005
-0.00712387 0.00105965 1e-005
-0.0069133 0.00106074 1e-005
-0.00670273 0.00106183 1e-005
-0.00649216 0.00106291 1e-005
-0.0062816 0.00106398 1e-005
-0.00607944 0.00106501 1e-005
-0.00587729 0.00106603 1e-005
-0.00567514 0.00106705 1e-005
-0.00547298 0.00106806 1e-005
-0.00527083 0.00106908 1e-005
-0.00507675 0.00107004 1e-005
-0.00488267 0.001071 1e-005
-0.0046886 0.00107195 1e-005
-0.00449452 0.00107291 1e-005
-0.00430044 0.00107386 1e-005
-0.00411412 0.00107476 1e-005
-0.0039278 0.00107566 1e-005
-0.00374147 0.00107656 1e-005
-0.00355515 0.00107746 1e-005
-0.00336883 0.00107835 1e-005
-0.00318995 0.0010792 1e-005
-0.00301107 0.00108005 1e-005
-0.00283219 0.00108089 1e-005
-0.00265331 0.00108174 1e-005
-0.00247443 0.00108258 1e-005
-0.0023027 0.00108338 1e-005
-0.00213097 0.00108418 1e-005
-0.00195924 0.00108498 1e-005
-0.0017875 0.00108578 1e-005
-0.00161577 0.00108657 1e-005
-0.0014509 0.00108733 1e-005
-0.00128603 0.00108808 1e-005
-0.00112116 0.00108884 1e-005
-0.000956289 0.0010896 1e-005
-0.000791418 0.00109035 1e-005
-0.000633135 0.00109107 1e-005
-0.000474851 0.00109179 1e-005
-0.000316567 0.00109251 1e-005
-0.000158284 0.00109323 1e-005
0 0.00109394 1e-005
0.000105677 0.00109441 1e-005
0.000211355 0.00109488 1e-005
0.000317032 0.00109535 1e-005
0.00042271 0.00109582 1e-005
0.000528387 0.00109628 1e-005
0.000634886 0.00109673 1e-005
0.000741385 0.00109719 1e-005
0.000847885 0.00109764 1e-005
0.000954384 0.00109809 1e-005
0.00106088 0.00109854 1e-005
0.00116821 0.00109898 1e-005
0.00127554 0.00109942 1e-005
0.00138286 0.00109986 1e-005
0.00149019 0.00110029 1e-005
0.00159752 0.00110072 1e-005
0.00170568 0.00110114 1e-005
0.00181384 0.00110155 1e-005
0.001922 0.00110196 1e-005
0.00203016 0.00110236 1e-005
0.00213833 0.00110275 1e-005
0.00224733 0.00110313 1e-005
0.00235633 0.00110351 1e-005
0.00246533 0.00110388 1e-005
0.00257434 0.00110424 1e-005
0.00268334 0.00110459 1e-005
0.00279319 0.00110493 1e-005
0.00290304 0.00110528 1e-005
0.00301289 0.00110561 1e-005
0.00312274 0.00110593 1e-005
0.00323259 0.00110625 1e-005
0.00334329 0.00110655 1e-005
0.003454 0.00110686 1e-005
0.0035647 0.00110715 1e-005
0.0036754 0.00110744 1e-005
0.00378611 0.00110772 1e-005
0.00389767 0.00110799 1e-005
0.00400924 0.00110826 1e-005
0.0041208 0.00110852 1e-005
0.00423237 0.00110877 1e-005
0.00434393 0.00110902 1e-005
0.00445636 0.00110925 1e-005
0.00456879 0.00110948 1e-005
0.00468123 0.00110971 1e-005
0.00479366 0.00110992 1e-005
0.00490609 0.00111013 1e-005
0.0050194 0.00111033 1e-005
0.0051327 0.00111052 1e-005
0.00524601 0.00111071 1e-005
0.00535932 0.00111089 1e-005
0.00547262 0.00111106 1e-005
0.00558681 0.00111122 1e-005
0.005701 0.00111138 1e-005
0.00581518 0.00111153 1e-005
0.00592937 0.00111168 1e-005
0.00604356 0.00111181 1e-005
0.00615863 0.00111194 1e-005
0.00627371 0.00111206 1e-005
0.00638878 0.00111217 1e-005
0.00650386 0.00111228 1e-005
0.00661893 0.00111238 1e-005
0.0067349 0.00111247 1e-005
0.00685087 0.00111255 1e-005
0.00696684 0.00111263 1e-005
0.00708281 0.0011127 1e-005
0.00719878 0.00111276 1e-005
0.00726203 0.00111279 1e-005
0.00732529 0.00111282 1e-005
0.00738854 0.00111284 1e-005
0.0074518 0.00111287 1e-005
0.00751321 0.00111289 1e-005
0.0075672 0.0011129 1e-005
0.00762118 0.00111292 1e-005
0.00767517 0.00111293 1e-005
0.00772915 0.00111294 1e-005
0.00778313 0.00111295 1e-005
0.00790091 0.00111296 1e-005
0.00801869 0.00111297 1e-005
0.00813647 0.00111298 1e-005
0.00825425 0.00111297 1e-005
0.00837203 0.00111296 1e-005
0.00849073 0.00111293 1e-005
0.00860942 0.0011129 1e-005
0.00872812 0.00111286 1e-005
0.00884682 0.00111282 1e-005
0.00896551 0.00111277 1e-005
0.00908513 0.0011127 1e-005
0.00920475 0.00111263 1e-005
0.00932437 0.00111255 1e-005
0.00944398 0.00111247 1e-005
0.0095636 0.00111238 1e-005
0.00968415 0.00111226 1e-005
0.0098047 0.00111215 1e-005
0.00992525 0.00111204 1e-005
0.0100458 0.00111191 1e-005
0.0101663 0.00111178 1e-005
0.0102878 0.00111162 1e-005
0.0104093 0.00111147 1e-005
0.0105308 0.00111131 1e-005
0.0106523 0.00111115 1e-005
0.0107738 0.00111097 1e-005
0.0108962 0.00111077 1e-005
0.0110186 0.00111058 1e-005
0.0111411 0.00111038 1e-005
0.0112635 0.00111017 1e-005
0.0113859 0.00110995 1e-005
0.0115093 0.00110971 1e-005
0.0116327 0.00110947 1e-005
0.0117561 0.00110922 1e-005
0.0118795 0.00110897 1e-005
0.0120028 0.00110871 1e-005
0.0121272 0.00110842 1e-005
0.0122515 0.00110814 1e-005
0.0123759 0.00110785 1e-005
0.0125002 0.00110755 1e-005
0.0126245 0.00110724 1e-005
0.0127498 0.00110691 1e-005
0.0128752 0.00110658 1e-005
0.0130005 0.00110625 1e-005
0.0131258 0.0011059 1e-005
0.0132511 0.00110555 1e-005
0.0133774 0.00110517 1e-005
0.0135036 0.0011048 1e-005
0.0136299 0.00110442 1e-005
0.0137562 0.00110403 1e-005
0.0138825 0.00110363 1e-005
0.0140098 0.00110321 1e-005
0.014137 0.00110278 1e-005
0.0142643 0.00110235 1e-005
0.0143915 0.00110192 1e-005
0.0145188 0.00110147 1e-005
0.0146471 0.001101 1e-005
0.0147753 0.00110053 1e-005
0.0149036 0.00110005 1e-005
0.0150318 0.00109956 1e-005
0.0151601 0.00109907 1e-005
0.0152893 0.00109855 1e-005
0.0154186 0.00109803 1e-005
0.0155478 0.0010975 1e-005
0.0156771 0.00109697 1e-005
0.0158063 0.00109642 1e-005
0.0159366 0.00109586 1e-005
0.0160668 0.00109529 1e-005
0.0161971 0.00109471 1e-005
0.0163274 0.00109413 1e-005
0.0164576 0.00109353 1e-005
0.0165889 0.00109293 1e-005
0.0167201 0.00109231 1e-005
0.0168514 0.00109168 1e-005
0.0169827 0.00109104 1e-005
0.0171139 0.0010904 1e-005
0.0172462 0.00108975 1e-005
0.0173785 0.00108908 1e-005
0.0175108 0.0010884 1e-005
0.0176431 0.00108771 1e-005
0.0177754 0.00108702 1e-005
0.0179087 0.00108632 1e-005
0.018042 0.0010856 1e-005
0.0181753 0.00108488 1e-005
0.0183087 0.00108414 1e-005
0.018442 0.0010834 1e-005
0.0185763 0.00108265 1e-005
0.0187107 0.00108188 1e-005
0.018845 0.0010811 1e-005
0.0189794 0.00108031 1e-005
0.0191137 0.00107952 1e-005
0.0192491 0.00107873 1e-005
0.0193845 0.00107792 1e-005
0.0195199 0.00107708 1e-005
0.0196553 0.00107624 1e-005
0.0197907 0.00107541 1e-005
0.0199272 0.00107456 1e-005
0.0200636 0.0010737 1e-005
0.0202001 0.00107282 1e-005
0.0203365 0.00107193 1e-005
0.020473 0.00107104 1e-005
0.0206105 0.00107015 1e-005
0.020748 0.00106924 1e-005
0.0208855 0.00106831 1e-005
0.021023 0.00106737 1e-005
0.0211606 0.00106643 1e-005
0.0212991 0.00106549 1e-005
0.0214377 0.00106453 1e-005
0.0215763 0.00106355 1e-005
0.0217149 0.00106256 1e-005
0.0218535 0.00106158 1e-005
0.0219931 0.00106059 1e-005
0.0221328 0.00105958 1e-005
0.0222724 0.00105855 1e-005
0.0224121 0.00105751 1e-005
0.0225517 0.00105647 1e-005
0.0226925 0.00105544 1e-005
0.0228332 0.00105438 1e-005
0.022974 0.0010533 1e-005
0.0231147 0.00105221 1e-005
0.0232555 0.00105113 1e-005
0.0233973 0.00105005 1e-005
0.0235391 0.00104894 1e-005
0.023681 0.0010478 1e-005
0.0238228 0.00104666 1e-005
0.0239647 0.00104553 1e-005
0.0241076 0.0010444 1e-005
0.0242505 0.00104324 1e-005
0.0243935 0.00104206 1e-005
0.0245364 0.00104086 1e-005
0.0246794 0.00103968 1e-005
0.0248234 0.0010385 1e-005
0.0249675 0.00103729 1e-005
0.0251115 0.00103606 1e-005
0.0252556 0.00103482 1e-005
0.0253996 0.00103358 1e-005
0.0255448 0.00103235 1e-005
0.02569 0.00103109 1e-005
0.0258351 0.00102981 1e-005
0.0259803 0.00102852 1e-005
0.0261255 0.00102724 1e-005
0.0262718 0.00102595 1e-005
0.0264181 0.00102464 1e-005
0.0265644 0.00102331 1e-005
0.0267107 0.00102197 1e-005
0.026857 0.00102063 1e-005
0.0270044 0.0010193 1e-005
0.0271519 0.00101793 1e-005
0.0272993 0.00101655 1e-005
0.0274468 0.00101516 1e-005
0.0275942 0.00101377 1e-005
0.0277428 0.00101238 1e-005
0.0278914 0.00101096 1e-005
0.0280399 0.00100952 1e-005
0.0281885 0.00100808 1e-005
0.0283371 0.00100664 1e-005
0.0284869 0.00100519 1e-005
0.0286366 0.00100372 1e-005
0.0287863 0.00100223 1e-005
0.0289361 0.00100073 1e-005
0.0290858 0.000999235 1e-005
0.0292367 0.000997732 1e-005
0.0293876 0.000996201 1e-005
0.0295385 0.000994658 1e-005
0.0296894 0.000993107 1e-005
0.0298403 0.000991549 1e-005
0.0299924 0.000989988 1e-005
0.0301445 0.000988397 1e-005
0.0302966 0.000986797 1e-005
0.0304486 0.000985189 1e-005
0.0306007 0.000983573 1e-005
0.030754 0.000981951 1e-005
0.0309072 0.000980302 1e-005
0.0310605 0.000978644 1e-005
0.0312138 0.000976977 1e-005
0.031367 0.000975301 1e-005
0.0315215 0.000973616 1e-005
[...]
POINT_DATA 11980
 FIELD attributes 2
p 1 11980 float
-4.83385 -4.83317 -4.8296 -4.82594 -4.82221 -4.81393 -4.82785 -4.84287 -4.8579 -4.87293 -4.8974 -4.9192 -4.94916 -4.97913 -5.00909 -5.04187 -5.05756 -5.0793 -5.10104 -5.12278 -5.14614 -5.16508 -5.18602 -5.20697 -5.22793 -5.24563 -5.2467 -5.24778 -5.24885 -5.24993 -5.25099 -5.27271 -5.29443 -5.31614 -5.33786 -5.3593 -5.37813 -5.39677 -5.4154 -5.43404 -5.45211 -5.46781 -5.48324 -5.49866 -5.51409 -5.52896 -5.54283 -5.55645 -5.57008 -5.5837 -5.59688 -5.60969 -5.62226 -5.63482 -5.64738 -5.65952 -5.67145 -5.68308 -5.69472 -5.70635 -5.71756 -5.72869 -5.73954 -5.7504 -5.76125 -5.77175 -5.78227 -5.79253 -5.80279 -5.81305 -5.82299 -5.83304 -5.8429 -5.85277 -5.86263 -5.87228 -5.88204 -5.89154 -5.90104 -5.91054 -5.91982 -5.92937 -5.93907 -5.94877 -5.95846 -5.96828 -5.97829 -5.98807 -5.99784 -6.00761 -6.01718 -6.02718 -6.03793 -6.04868 -6.05943 -6.0703 -6.08005 -6.09042 -6.10079 -6.11116 -6.12106 -6.13006 -6.13857 -6.14707 -6.15557 -6.16331 -6.1703 -6.17837 -6.18645 -6.19453 -6.20336 -6.21147 -6.22007 -6.22866 -6.23726 -6.24598 -6.25403 -6.26112 -6.26821 -6.2753 -6.28156 -6.28818 -6.29353 -6.29889 -6.30424 -6.30857 -6.31415 -6.3187 -6.32324 -6.32779 -6.33141 -6.33626 -6.34022 -6.34418 -6.34814 -6.35128 -6.35517 -6.35831 -6.36145 -6.36459 -6.36712 -6.36998 -6.37229 -6.37461 -6.37692 -6.37886 -6.38096 -6.38272 -6.38448 -6.38624 -6.38781 -6.38955 -6.39108 -6.3926 -6.39413 -6.39558 -6.39712 -6.39855 -6.39998 -6.40141 -6.40281 -6.40357 -6.40429 -6.40501 -6.40573 -6.40644 -6.40705 -6.40767 -6.40829 -6.40891 -6.40957 -6.41078 -6.41205 -6.41332 -6.41459 -6.41605 -6.41708 -6.41834 -6.4196 -6.42086 -6.42255 -6.42337 -6.42467 -6.42597 -6.42727 -6.42928 -6.4299 -6.43129 -6.43268 -6.43408 -6.43655 -6.43697 -6.43849 -6.44001 -6.44152 -6.44446 -6.44467 -6.44628 -6.44789 -6.44951 -6.45289 -6.45287 -6.4546 -6.45632 -6.45804 -6.46189 -6.46173 -6.46359 -6.46545 -6.46731 -6.47161 -6.47136 -6.47337 -6.47537 -6.47738 -6.48205 -6.48175 -6.48389 -6.48604 -6.48818 -6.49318 -6.49288 -6.49515 -6.49744 -6.49992 -6.50501 -6.50502 -6.50718 -6.50961 -6.51251 -6.51757 -6.51792 -6.52 -6.52258 -6.52586 -6.53086 -6.53157 -6.53361 -6.53635 -6.53996 -6.5449 -6.54596 -6.548 -6.5509 -6.55479 -6.55967 -6.56108 -6.56317 -6.56621 -6.57035 -6.57516 -6.57691 -6.57909 -6.58228 -6.58662 -6.59137 -6.59345 -6.59574 -6.59908 -6.60358 -6.60828 -6.61066 -6.6131 -6.61658 -6.62121 -6.62587 -6.62855 -6.63123 -6.63487 -6.6395 -6.64413 -6.64708 -6.65002 -6.6538 -6.65843 -6.66305 -6.66625 -6.66944 -6.67336 -6.67799 -6.68262 -6.68607 -6.68952 -6.69356 -6.69819 -6.70283 -6.70652 -6.71021 -6.71436 -6.71899 -6.72361 -6.72751 -6.73141 -6.73567 -6.74028 -6.74489 -6.74896 -6.75302 -6.75737 -6.76199 -6.76661 -6.77081 -6.77501 -6.77945 -6.78409 -6.78874 -6.79305 -6.79739 -6.80191 -6.80657 -6.81126 -6.81567 -6.82013 -6.82471 -6.8294 -6.83414 -6.83863 -6.84318 -6.84783 -6.85256 -6.85734 -6.86189 -6.86653 -6.87124 -6.876 -6.88083 -6.88543 -6.89014 -6.8949 -6.89968 -6.90455 -6.9092 -6.91397 -6.91876 -6.92356 -6.92846 -6.93314 -6.93795 -6.94277 -6.94759 -6.9525 -6.9572 -6.96203 -6.96687 -6.9717 -6.9766 -6.98133 -6.98617 -6.991 -6.99583 -7.00072 -7.00546 -7.01028 -7.01511 -7.01993 -7.02479 -7.02953 -7.03433 -7.03912 -7.04392 -7.04874 -7.05347 -7.05822 -7.06298 -7.06774 -7.07251 -7.07574 -7.07897 -7.08221 -7.08545 -7.0886 -7.09009 -7.09157 -7.09306 -7.09454 -7.09603 -7.10067 -7.10531 -7.10995 -7.11459 -7.11925 -7.1238 -7.12836 -7.13291 -7.13747 -7.14205 -7.14651 -7.15097 -7.15542 -7.15988 -7.16436 -7.16872 -7.17307 -7.17741 -7.18176 -7.18612 -7.19037 -7.19457 -7.19878 -7.20299 -7.2072 -7.21131 -7.21536 -7.21941 -7.22346 -7.2275 -7.23146 -7.23534 -7.23922 -7.24308 -7.24694 -7.25072 -7.25443 -7.2581 -7.26176 -7.26539 -7.26897 -7.27249 -7.27594 -7.27935 -7.28274 -7.28609 -7.2894 -7.2926 -7.29574 -7.29886 -7.30195 -7.30505 -7.30797 -7.3108 -7.31362 -7.31644 -7.31926 -7.3219 -7.32441 -7.32691 -7.32943 -7.33194 -7.33427 -7.33644 -7.3386 -7.34078 -7.34296 -7.34496 -7.34674 -7.34853 -7.35035 -7.35217 -7.35381 -7.3552 -7.35658 -7.35801 -7.35944 -7.36067 -7.36165 -7.3626 -7.36361 -7.36457 -7.36536 -7.36595 -7.36644 -7.367 -7.36745 -7.36777 -7.36795 -7.36795 -7.36803 -7.36792 -7.36774 -7.3675 -7.36697 -7.36654 -7.36584 -7.36512 -7.3644 -7.36336 -7.36233 -7.36104 -7.35975 -7.35847 -7.35694 -7.35525 -7.35336 -7.35148 -7.3496 -7.34757 -7.34517 -7.34265 -7.34013 -7.33762 -7.33507 -7.33393 -7.33277 -7.3316 -7.33043 -7.3293 -7.32731 -7.32532 -7.32333 -7.32135 -7.31929 -7.31556 -7.31173 -7.30791 -7.30409 -7.30008 -7.29577 -7.29122 -7.28667 -7.28213 -7.27725 -7.27235 -7.26705 -7.26175 -7.25645 -7.25064 -7.24508 -7.23906 -7.23297 -7.22673 -7.22011 -7.21374 -7.20709 -7.20018 -7.19295 -7.18549 -7.17828 -7.17098 -7.16323 -7.15495 -7.14662 -7.13855 -7.13049 -7.12182 -7.11259 -7.10335 -7.09439 -7.08543 -7.07587 -7.0657 -7.05553 -7.04565 -7.03576 -7.02528 -7.01415 -7.00302 -6.99218 -6.98121 -6.96971 -6.95778 -6.94567 -6.93385 -6.92165 -6.90915 -6.89646 -6.88333 -6.87051 -6.85704 -6.8435 -6.82997 -6.81589 -6.80184 -6.78725 -6.77266 -6.75807 -6.7432 -6.72782 -6.71214 -6.69648 -6.68082 -6.66516 -6.66512 -6.66507 -6.66503 -6.66499 -6.66494 -6.64835 -6.63177 -6.6152 -6.59863 -6.58179 -6.56432 -6.54658 -6.52885 -6.51113 -6.49285 -6.47453 -6.45567 -6.43681 -6.41778 -6.39823 -6.37877 -6.35906 -6.33907 -6.31856 -6.29785 -6.27723 -6.25663 -6.2354 -6.21351 -6.19162 -6.16984 -6.14806 -6.12563 -6.10255 -6.07947 -6.05651 -6.03347 -6.00975 -5.98562 -5.96134 -5.93719 -5.91257 -5.88764 -5.86265 -5.83718 -5.81174 -5.78559 -5.75946 -5.73333 -5.70693 -5.68738 -5.66753 -5.64768 -5.62784 -5.60896 -5.60129 -5.59362 -5.58595 -5.57828 -5.57052 -5.54209 -5.51361 -5.48514 -5.45667 -5.42782 -5.3984 -5.36871 -5.33902 -5.30923 -5.27896 -5.24838 -5.21766 -5.18676 -5.15544 -5.12396 -5.09217 -5.06039 -5.0282 -4.99551 -4.96283 -4.92983 -4.89684 -4.86334 -4.82946 -4.79558 -4.76139 -4.72693 -4.69216 -4.65733 -4.62226 -4.58685 -4.55089 -4.51494 -4.479 -4.44293 -4.4233 -4.40349 -4.38367 -4.36386 -4.34471 -4.32732 -4.30994 -4.29255 -4.27517 -4.2576 -4.21954 -4.18137 -4.14322 -4.10507 -4.06634 -4.02733 -3.9881 -3.94882 -3.90921 -3.8693 -3.82917 -3.78905 -3.74858 -3.70758 -3.66657 -3.62535 -3.58415 -3.54243 -3.50037 -3.4583 -3.41602 -3.37344 -3.33058 -3.28771 -3.24461 -3.20118 -3.15729 -3.11342 -3.06955 -3.02564 -3.01923 -3.01277 -3.00631 -2.99984 -2.99344 -2.95508 -2.91674 -2.8784 -2.84007 -2.80136 -2.7558 -2.71006 -2.66433 -2.61844 -2.57211 -2.52565 -2.47916 -2.43251 -2.38531 -2.33809 -2.29073 -2.24338 -2.19561 -2.14756 -2.0995 -2.05129 -2.00282 -1.95411 -1.90541 -1.85654 -1.81024 -1.76359 -1.71694 -1.67031 -1.62607 -1.62274 -1.61941 -1.61608 -1.61275 -1.6094 -1.55921 -1.50902 -1.45884 -1.40867 -1.35806 -1.30728 -1.25642 -1.20554 -1.15439 -1.10302 -1.05157 -1.00013 -0.948464 -0.896514 -0.844539 -0.792469 -0.740319 -0.687865 -0.635394 -0.582861 -0.530209 -0.477206 -0.424213 -0.371229 -0.31821 -0.311966 -0.305687 -0.299409 -0.29313 -0.28689 -0.239662 -0.192442 -0.14523 -0.0980251 -0.0505108 0.00341652 0.0573536 0.111284 0.165403 0.219692 0.27404 0.328377 0.382817 0.437389 0.491996 0.546674 0.601423 0.656325 0.711208 0.766092 0.812627 0.859313 0.905993 0.952667 0.997466 1.00632 1.01518 1.02404 1.0329 1.0418 1.09723 1.15264 1.20805 1.26345 1.3191 1.37475 1.43037 1.48594 1.54165 1.59742 1.6532 1.70898 1.76486 1.82065 1.87647 1.93233 1.98825 2.04416 2.10007 2.15598 2.16703 2.17807 2.18912 2.20017 2.21112 2.25608 2.30103 2.34599 2.39093 2.43596 2.49204 2.54802 2.60394 2.65989 2.71588 2.77187 2.82785 2.88379 2.93958 2.99542 3.05125 3.10704 3.16281 3.21857 3.27429 3.2889 3.30348 3.31806 3.33264 3.34707 3.38817 3.42927 3.47036 3.51145 3.55252 3.60813 3.66359 3.719 3.77432 3.82966 3.88496 3.94026 3.99544 4.05036 4.10534 4.16029 4.21508 4.26983 4.32458 4.37933 4.38425 4.38916 4.39406 4.39897 4.40386 4.45348 4.50309 4.55269 4.60229 4.65175 4.70606 4.76028 4.81433 4.86816 4.92203 4.97584 5.02962 5.08316 5.13659 5.18991 5.22879 5.26747 5.30613 5.34479 5.38263 5.39718 5.41173 5.42628 5.44082 5.45531 5.50807 5.5607 5.61332 5.66583 5.7182 5.77047 5.82273 5.87469 5.92637 5.97808 6.02969 6.08108 6.13234 6.18359 6.23476 6.24564 6.25646 6.26726 6.27806 6.28881 6.3288 6.36878 6.40877 6.44872 6.48845 6.53882 6.58909 6.63919 6.68893 6.73869 6.78832 6.83787 6.8871 6.93625 6.98523 7.01405 7.04267 7.07124 7.09981 7.12818 7.14821 7.16825 7.18828 7.20828 7.22814 7.27634 7.32428 7.37222 7.41985 7.46736 7.51475 7.56214 7.60911 7.65581 7.70245 7.73748 7.77222 7.80688 7.84154 7.87615 7.88763 7.89912 7.91061 7.92207 7.93344 7.97912 8.02464 8.07017 8.11543 8.16045 8.20536 8.25026 8.29478 8.3389 8.383 8.41961 8.45589 8.49206 8.52824 8.56475 8.57203 8.57932 8.5866 8.59387 8.60107 8.64409 8.68699 8.72989 8.77258 8.81494 8.85717 8.8994 8.94123 8.98265 9.02405 9.06096 9.0975 9.13394 9.17037 9.20764 9.2118 9.21596 9.22012 9.22427 9.22838 9.26856 9.30869 9.34881 9.38876 9.42833 9.46773 9.50713 9.54613 9.58473 9.6233 9.66169 9.69967 9.73754 9.77541 9.81322 9.81393 9.81464 9.81534 9.81604 9.81674 9.85325 9.88977 9.92628 9.9627 9.99868 10.0351 10.0716 10.1077 10.1434 10.179 10.2144 10.2496 10.2845 10.3194 10.3541 10.3638 10.3733 10.3829 10.3924 10.4021 10.4267 10.4512 10.4758 10.5003 10.5245 10.5579 10.5912 10.6244 10.6571 10.6898 10.7221 10.7545 10.7864 10.8182 10.8498 10.8752 10.9003 10.9254 10.9505 10.9774 10.9829 10.9883 10.9938 10.9993 11.0047 11.0349 11.0651 11.0952 11.1252 11.1549 11.1842 11.2136 11.2425 11.2713 11.3 11.3284 11.3566 11.3843 11.4117 11.4386 11.4633 11.489 11.5147 11.5404 11.5705 11.5716 11.5726 11.5736 11.5746 11.5757 11.5993 11.6225 11.6457 11.6689 11.6868 11.7032 11.7253 11.7496 11.7814 11.8174 11.8528 11.8881 11.9087 11.9147 11.9205 11.925 11.9335 11.9433 11.9531 11.9643 11.9651 11.966 11.9669 11.9679 11.9693 11.9825 11.9956 12.0086 12.0213 12.0333 12.0445 12.0556 12.065 12.0727 12.0803 12.0869 12.0926 12.0976 12.1026 12.107 12.1077 12.108 12.1082 12.1084 12.1086 12.1102 12.1116 12.1131 12.1144 12.1146 12.1134 12.1112 12.1083 12.1039 12.0991 12.0925 12.0858 12.0772 12.0668 12.0561 12.0434 12.0285 12.0131 11.9977 11.9817 11.9774 11.9726 11.9678 11.9629 11.9578 11.9413 11.9248 11.9082 11.8915 11.873 11.8461 11.8171 11.7877 11.7565 11.7239 11.6882 11.6523 11.6132 11.571 11.5287 11.4828 11.4358 11.3858 11.3344 11.281 11.2237 11.1618 11.0998 11.0378 10.9746 10.951 10.9261 10.9012 10.8763 10.8489 10.8002 10.7514 10.7026 10.6537 10.6025 10.517 10.4287 10.3402 10.251 10.157 10.0574 9.95478 9.84923 9.73839 9.62567 9.50677 9.38781 9.26311 9.13302 9.0028 8.8659 8.72893 8.58113 8.42247 8.26362 8.09714 7.9297 7.76101 7.59161 7.42087 7.24217 7.03542 6.82593 6.61649 6.38768 6.15329 5.93716 5.72097 5.50473 5.29384 5.18391 5.05053 4.91725 4.78405 4.62786 4.4525 4.27699 4.10132 3.92549 3.72231 3.41138 3.15005 2.88801 2.6253 2.49434 2.36307 1.92793 1.49783 0.941044 0