# vtk DataFile Version 2.0
track0
ASCII
DATASET POLYDATA
POINTS 11980 float
-0.0205 0.001 1e-005
-0.0202034 0.00100022 1e-005
-0.0199069 0.00100067 1e-005
-0.0196103 0.00100133 1e-005
-0.0193137 0.00100219 1e-005
-0.0190172 0.00100326 1e-005
-0.0187132 0.00100467 1e-005
-0.0184093 0.00100589 1e-005
-0.0181054 0.00100711 1e-005
-0.0178015 0.00100832 1e-005
-0.0174976 0.00100954 1e-005
-0.0172058 0.00101083 1e-005
-0.016914 0.00101193 1e-005
-0.0166222 0.00101303 1e-005
-0.0163305 0.00101413 1e-005
-0.0160387 0.00101523 1e-005
-0.0157586 0.00101637 1e-005
-0.0154784 0.00101745 1e-005
-0.0151983 0.00101856 1e-005
-0.0149182 0.00101971 1e-005
-0.0146381 0.0010209 1e-005
-0.0143745 0.00102209 1e-005
-0.014111 0.00102327 1e-005
-0.0138474 0.00102449 1e-005
-0.0135838 0.00102574 1e-005
-0.0133612 0.00102682 1e-005
-0.0133476 0.00102688 1e-005
-0.0133341 0.00102695 1e-005
-0.0133205 0.00102702 1e-005
-0.013307 0.00102709 1e-005
-0.0132934 0.00102715 1e-005
-0.0130353 0.00102844 1e-005
-0.0127771 0.00102974 1e-005
-0.0125189 0.00103106 1e-005
-0.0122607 0.0010324 1e-005
-0.0120025 0.00103375 1e-005
-0.0117547 0.00103505 1e-005
-0.0115068 0.00103637 1e-005
-0.0112589 0.00103769 1e-005
-0.0110111 0.00103901 1e-005
-0.0107632 0.00104034 1e-005
-0.0105252 0.00104162 1e-005
-0.0102873 0.00104289 1e-005
-0.0100493 0.00104417 1e-005
-0.00981133 0.00104545 1e-005
-0.00957337 0.00104673 1e-005
-0.00934491 0.00104794 1e-005
-0.00911645 0.00104917 1e-005
-0.00888799 0.00105038 1e-005
-0.00865954 0.0010516 1e-005
-0.00843108 0.00105281 1e-005
-0.00821175 0.00105397 1e-005
-0.00799242 0.00105512 1e-005
-0.00777309 0.00105627 1e-005
-0.00755376 0.00105742 1e-005
-0.00733443 0.00105857 1e-005
-0.00712387 0.00105965 1e-005
-0.0069133 0.00106074 1e-005
-0.00670273 0.00106183 1e-005
-0.00649216 0.00106291 1e-005
-0.0062816 0.00106398 1e-005
-0.00607944 0.00106501 1e-005
-0.00587729 0.00106603 1e-005
-0.00567514 0.00106705 1e-005
-0.00547298 0.00106806 1e-005
-0.00527083 0.00106908 1e-005
-0.00507675 0.00107004 1e-005
-0.00488267 0.001071 1e-005
-0.0046886 0.00107195 1e-005
-0.00449452 0.00107291 1e-005
-0.00430044 0.00107386 1e-005
-0.00411412 0.00107476 1e-005
-0.0039278 0.00107566 1e-005
-0.00374147 0.00107656 1e-005
-0.00355515 0.00107746 1e-005
-0.00336883 0.00107835 1e-005
-0.00318995 0.0010792 1e-005
-0.00301107 0.00108005 1e-005
-0.00283219 0.00108089 1e-005
-0.00265331 0.00108174 1e-005
-0.00247443 0.00108258 1e-005
-0.0023027 0.00108338 1e-005
-0.00213097 0.00108418 1e-005
-0.00195924 0.00108498 1e-005
-0.0017875 0.00108578 1e-005
-0.00161577 0.00108657 1e-005
-0.0014509 0.00108733 1e-005
-0.00128603 0.00108808 1e-005
-0.00112116 0.00108884 1e-005
-0.000956289 0.0010896 1e-005
-0.000791418 0.00109035 1e-005
-0.000633135 0.00109107 1e-005
-0.000474851 0.00109179 1e-005
-0.000316567 0.00109251 1e-005
-0.000158284 0.00109323 1e-005
0 0.00109394 1e-005
0.000105677 0.00109441 1e-005
0.000211355 0.00109488 1e-005
0.000317032 0.00109535 1e-005
0.00042271 0.00109582 1e-005
0.000528387 0.00109628 1e-005
0.000634886 0.00109673 1e-005
0.000741385 0.00109719 1e-005
0.000847885 0.00109764 1e-005
0.000954384 0.00109809 1e-005
0.00106088 0.00109854 1e-005
0.00116821 0.00109898 1e-005
0.00127554 0.00109942 1e-005
0.00138286 0.00109986 1e-005
0.00149019 0.00110029 1e-005
0.00159752 0.00110072 1e-005
0.00170568 0.00110114 1e-005
0.00181384 0.00110155 1e-005
0.001922 0.00110196 1e-005
0.00203016 0.00110236 1e-005
0.00213833 0.00110275 1e-005
0.00224733 0.00110313 1e-005
0.00235633 0.00110351 1e-005
0.00246533 0.00110388 1e-005
0.00257434 0.00110424 1e-005
0.00268334 0.00110459 1e-005
0.00279319 0.00110493 1e-005
0.00290304 0.00110528 1e-005
0.00301289 0.00110561 1e-005
0.00312274 0.00110593 1e-005
0.00323259 0.00110625 1e-005
0.00334329 0.00110655 1e-005
0.003454 0.00110686 1e-005
0.0035647 0.00110715 1e-005
0.0036754 0.00110744 1e-005
0.00378611 0.00110772 1e-005
0.00389767 0.00110799 1e-005
0.00400924 0.00110826 1e-005
0.0041208 0.00110852 1e-005
0.00423237 0.00110877 1e-005
0.00434393 0.00110902 1e-005
0.00445636 0.00110925 1e-005
0.00456879 0.00110948 1e-005
0.00468123 0.00110971 1e-005
0.00479366 0.00110992 1e-005
0.00490609 0.00111013 1e-005
0.0050194 0.00111033 1e-005
0.0051327 0.00111052 1e-005
0.00524601 0.00111071 1e-005
0.00535932 0.00111089 1e-005
0.00547262 0.00111106 1e-005
0.00558681 0.00111122 1e-005
0.005701 0.00111138 1e-005
0.00581518 0.00111153 1e-005
0.00592937 0.00111168 1e-005
0.00604356 0.00111181 1e-005
0.00615863 0.00111194 1e-005
0.00627371 0.00111206 1e-005
0.00638878 0.00111217 1e-005
0.00650386 0.00111228 1e-005
0.00661893 0.00111238 1e-005
0.0067349 0.00111247 1e-005
0.00685087 0.00111255 1e-005
0.00696684 0.00111263 1e-005
0.00708281 0.0011127 1e-005
0.00719878 0.00111276 1e-005
0.00726203 0.00111279 1e-005
0.00732529 0.00111282 1e-005
0.00738854 0.00111284 1e-005
0.0074518 0.00111287 1e-005
0.00751321 0.00111289 1e-005
0.0075672 0.0011129 1e-005
0.00762118 0.00111292 1e-005
0.00767517 0.00111293 1e-005
0.00772915 0.00111294 1e-005
0.00778313 0.00111295 1e-005
0.00790091 0.00111296 1e-005
0.00801869 0.00111297 1e-005
0.00813647 0.00111298 1e-005
0.00825425 0.00111297 1e-005
0.00837203 0.00111296 1e-005
0.00849073 0.00111293 1e-005
0.00860942 0.0011129 1e-005
0.00872812 0.00111286 1e-005
0.00884682 0.00111282 1e-005
0.00896551 0.00111277 1e-005
0.00908513 0.0011127 1e-005
0.00920475 0.00111263 1e-005
0.00932437 0.00111255 1e-005
0.00944398 0.00111247 1e-005
0.0095636 0.00111238 1e-005
0.00968415 0.00111226 1e-005
0.0098047 0.00111215 1e-005
0.00992525 0.00111204 1e-005
0.0100458 0.00111191 1e-005
0.0101663 0.00111178 1e-005
0.0102878 0.00111162 1e-005
0.0104093 0.00111147 1e-005
0.0105308 0.00111131 1e-005
0.0106523 0.00111115 1e-005
0.0107738 0.00111097 1e-005
0.0108962 0.00111077 1e-005
0.0110186 0.00111058 1e-005
0.0111411 0.00111038 1e-005
0.0112635 0.00111017 1e-005
0.0113859 0.00110995 1e-005
0.0115093 0.00110971 1e-005
0.0116327 0.00110947 1e-005
0.0117561 0.00110922 1e-005
0.0118795 0.00110897 1e-005
0.0120028 0.00110871 1e-005
0.0121272 0.00110842 1e-005
0.0122515 0.00110814 1e-005
0.0123759 0.00110785 1e-005
0.0125002 0.00110755 1e-005
0.0126245 0.00110724 1e-005
0.0127498 0.00110691 1e-005
0.0128752 0.00110658 1e-005
0.0130005 0.00110625 1e-005
0.0131258 0.0011059 1e-005
0.0132511 0.00110555 1e-005
0.0133774 0.00110517 1e-005
0.0135036 0.0011048 1e-005
0.0136299 0.00110442 1e-005
0.0137562 0.00110403 1e-005
0.0138825 0.00110363 1e-005
0.0140098 0.00110321 1e-005
0.014137 0.00110278 1e-005
0.0142643 0.00110235 1e-005
0.0143915 0.00110192 1e-005
0.0145188 0.00110147 1e-005
0.0146471 0.001101 1e-005
0.0147753 0.00110053 1e-005
0.0149036 0.00110005 1e-005
0.0150318 0.00109956 1e-005
0.0151601 0.00109907 1e-005
0.0152893 0.00109855 1e-005
0.0154186 0.00109803 1e-005
0.0155478 0.0010975 1e-005
0.0156771 0.00109697 1e-005
0.0158063 0.00109642 1e-005
0.0159366 0.00109586 1e-005
0.0160668 0.00109529 1e-005
0.0161971 0.00109471 1e-005
0.0163274 0.00109413 1e-005
0.0164576 0.00109353 1e-005
0.0165889 0.00109293 1e-005
0.0167201 0.00109231 1e-005
0.0168514 0.00109168 1e-005
0.0169827 0.00109104 1e-005
0.0171139 0.0010904 1e-005
0.0172462 0.00108975 1e-005
0.0173785 0.00108908 1e-005
0.0175108 0.0010884 1e-005
0.0176431 0.00108771 1e-005
0.0177754 0.00108702 1e-005
0.0179087 0.00108632 1e-005
0.018042 0.0010856 1e-005
0.0181753 0.00108488 1e-005
0.0183087 0.00108414 1e-005
0.018442 0.0010834 1e-005
0.0185763 0.00108265 1e-005
0.0187107 0.00108188 1e-005
0.018845 0.0010811 1e-005
0.0189794 0.00108031 1e-005
0.0191137 0.00107952 1e-005
0.0192491 0.00107873 1e-005
0.0193845 0.00107792 1e-005
0.0195199 0.00107708 1e-005
0.0196553 0.00107624 1e-005
0.0197907 0.00107541 1e-005
0.0199272 0.00107456 1e-005
0.0200636 0.0010737 1e-005
0.0202001 0.00107282 1e-005
0.0203365 0.00107193 1e-005
0.020473 0.00107104 1e-005
0.0206105 0.00107015 1e-005
0.020748 0.00106924 1e-005
0.0208855 0.00106831 1e-005
0.021023 0.00106737 1e-005
0.0211606 0.00106643 1e-005
0.0212991 0.00106549 1e-005
0.0214377 0.00106453 1e-005
0.0215763 0.00106355 1e-005
0.0217149 0.00106256 1e-005
0.0218535 0.00106158 1e-005
0.0219931 0.00106059 1e-005
0.0221328 0.00105958 1e-005
0.0222724 0.00105855 1e-005
0.0224121 0.00105751 1e-005
0.0225517 0.00105647 1e-005
0.0226925 0.00105544 1e-005
0.0228332 0.00105438 1e-005
0.022974 0.0010533 1e-005
0.0231147 0.00105221 1e-005
0.0232555 0.00105113 1e-005
0.0233973 0.00105005 1e-005
0.0235391 0.00104894 1e-005
0.023681 0.0010478 1e-005
0.0238228 0.00104666 1e-005
0.0239647 0.00104553 1e-005
0.0241076 0.0010444 1e-005
0.0242505 0.00104324 1e-005
0.0243935 0.00104206 1e-005
0.0245364 0.00104086 1e-005
0.0246794 0.00103968 1e-005
0.0248234 0.0010385 1e-005
0.0249675 0.00103729 1e-005
0.0251115 0.00103606 1e-005
0.0252556 0.00103482 1e-005
0.0253996 0.00103358 1e-005
0.0255448 0.00103235 1e-005
0.02569 0.00103109 1e-005
0.0258351 0.00102981 1e-005
0.0259803 0.00102852 1e-005
0.0261255 0.00102724 1e-005
0.0262718 0.00102595 1e-005
0.0264181 0.00102464 1e-005
0.0265644 0.00102331 1e-005
0.0267107 0.00102197 1e-005
0.026857 0.00102063 1e-005
0.0270044 0.0010193 1e-005
0.0271519 0.00101793 1e-005
0.0272993 0.00101655 1e-005
0.0274468 0.00101516 1e-005
0.0275942 0.00101377 1e-005
0.0277428 0.00101238 1e-005
0.0278914 0.00101096 1e-005
0.0280399 0.00100952 1e-005
0.0281885 0.00100808 1e-005
0.0283371 0.00100664 1e-005
0.0284869 0.00100519 1e-005
0.0286366 0.00100372 1e-005
0.0287863 0.00100223 1e-005
0.0289361 0.00100073 1e-005
0.0290858 0.000999235 1e-005
0.0292367 0.000997732 1e-005
0.0293876 0.000996201 1e-005
0.0295385 0.000994658 1e-005
0.0296894 0.000993107 1e-005
0.0298403 0.000991549 1e-005
0.0299924 0.000989988 1e-005
0.0301445 0.000988397 1e-005
0.0302966 0.000986797 1e-005
0.0304486 0.000985189 1e-005
0.0306007 0.000983573 1e-005
0.030754 0.000981951 1e-005
0.0309072 0.000980302 1e-005
0.0310605 0.000978644 1e-005
0.0312138 0.000976977 1e-005
0.031367 0.000975301 1e-005
0.0315215 0.000973616 1e-005
[...]
POINT_DATA 11980
 FIELD attributes 1
U 3 11980 float
10.0004 	0.00734837 	0 10.0024 	0.0152059 	0 10.0045 	0.0222271 	0 10.0065 	0.0292037 	0 10.0086 	0.0361361 	0 10.0136 	0.0463249 	0 10.0164 	0.0402033 	0 10.0208 	0.0401562 	0 10.0252 	0.0401093 	0 10.0297 	0.0400627 	0 10.0356 	0.0445267 	0 10.0385 	0.0378914 	0 10.0425 	0.0378479 	0 10.0464 	0.0378043 	0 10.0504 	0.0377607 	0 10.0545 	0.0408609 	0 10.0567 	0.0387823 	0 10.0592 	0.0400906 	0 10.0616 	0.0414004 	0 10.0641 	0.0427119 	0 10.0662 	0.0451691 	0 10.0677 	0.0452795 	0 10.0691 	0.0464809 	0 10.0704 	0.0476835 	0 10.0718 	0.0488872 	0 10.0729 	0.049905 	0 10.073 	0.0499673 	0 10.073 	0.0500297 	0 10.0731 	0.0500921 	0 10.0732 	0.0501544 	0 10.0732 	0.0502074 	0 10.0738 	0.0508329 	0 10.0743 	0.0514524 	0 10.0748 	0.0520723 	0 10.0753 	0.0526929 	0 10.0758 	0.0531494 	0 10.0757 	0.0534436 	0 10.0754 	0.0536325 	0 10.075 	0.0538214 	0 10.0747 	0.0540105 	0 10.0742 	0.0539612 	0 10.0737 	0.0541044 	0 10.0727 	0.0540793 	0 10.0716 	0.0540541 	0 10.0705 	0.054029 	0 10.069 	0.0537347 	0 10.0686 	0.0538127 	0 10.067 	0.0536769 	0 10.0653 	0.0535412 	0 10.0637 	0.0534053 	0 10.0612 	0.052983 	0 10.0612 	0.0530342 	0 10.0592 	0.0528367 	0 10.0572 	0.0526392 	0 10.0552 	0.0524416 	0 10.0516 	0.051945 	0 10.0522 	0.0519939 	0 10.0499 	0.0517689 	0 10.0476 	0.0515439 	0 10.0453 	0.0513188 	0 10.0407 	0.0507862 	0 10.0422 	0.050853 	0 10.0397 	0.0506214 	0 10.0372 	0.0503897 	0 10.0347 	0.0501579 	0 10.029 	0.0496053 	0 10.0314 	0.0496961 	0 10.0288 	0.0494738 	0 10.0262 	0.0492514 	0 10.0235 	0.0490289 	0 10.0167 	0.0484778 	0 10.0203 	0.0486006 	0 10.0176 	0.0483869 	0 10.0149 	0.0481731 	0 10.0122 	0.0479593 	0 10.0041 	0.047398 	0 10.009 	0.0475486 	0 10.0063 	0.0473769 	0 10.0036 	0.0472051 	0 10.0008 	0.0470333 	0 9.99163 	0.046523 	0 9.99781 	0.0467282 	0 9.99514 	0.0465531 	0 9.99247 	0.046378 	0 9.9898 	0.0462028 	0 9.9794 	0.0456338 	0 9.98694 	0.0458307 	0 9.98434 	0.0457754 	0 9.98174 	0.0457201 	0 9.97914 	0.0456648 	0 9.96756 	0.0452764 	0 9.97655 	0.0455339 	9.22448e-022 9.97455 	0.0453518 	5.95556e-021 9.97254 	0.0451697 	1.09889e-020 9.97053 	0.0449875 	1.60223e-020 9.95847 	0.0443551 	1.36177e-020 9.96868 	0.0444355 	9.34225e-020 9.96685 	0.0440923 	8.66972e-020 9.96503 	0.0437491 	7.9968e-020 9.9632 	0.0434058 	7.32349e-020 9.95093 	0.0426992 	-1.48486e-020 9.96096 	0.0426496 	-4.02455e-020 9.95917 	0.0423525 	-4.47798e-020 9.95738 	0.0420554 	-4.93126e-020 9.95559 	0.0417582 	-5.38438e-020 9.94351 	0.0411883 	-2.12688e-020 9.95308 	0.0409937 	-1.8707e-020 9.95116 	0.0404464 	-1.30269e-020 9.94923 	0.0398991 	-7.34718e-021 9.9473 	0.0393516 	-1.66787e-021 9.93547 	0.0385791 	6.95574e-021 9.94463 	0.0382667 	-5.72619e-021 9.94252 	0.0374635 	-2.41879e-020 9.9404 	0.0366602 	-4.26517e-020 9.93828 	0.0358567 	-6.11174e-020 9.92655 	0.0347887 	-8.711e-020 9.93514 	0.0345325 	-1.22695e-019 9.93268 	0.033714 	-1.10421e-019 9.93022 	0.0328953 	-9.81409e-020 9.92775 	0.0320763 	-8.58528e-020 9.91604 	0.0308793 	-2.97068e-020 9.92388 	0.0307488 	3.3609e-020 9.92104 	0.0300096 	4.69757e-020 9.91818 	0.0292701 	6.03331e-020 9.91532 	0.0285304 	7.36813e-020 9.90369 	0.0273096 	3.65209e-020 9.9107 	0.0272236 	-4.51949e-020 9.90748 	0.0265224 	-5.12013e-020 9.90425 	0.025821 	-5.71936e-020 9.90101 	0.0251193 	-6.31717e-020 9.88956 	0.0239087 	-3.38728e-022 9.89562 	0.0237855 	5.8827e-020 9.89199 	0.0230906 	4.94919e-020 9.88836 	0.0223955 	4.01426e-020 9.88472 	0.0217001 	3.07792e-020 9.87353 	0.0205352 	-2.85601e-020 9.87844 	0.0203463 	-8.22318e-020 9.87436 	0.0196581 	-1.04211e-019 9.87028 	0.0189696 	-1.26184e-019 9.86619 	0.0182809 	-1.48153e-019 9.85535 	0.0171958 	-1.35803e-019 9.85889 	0.0169375 	-1.54158e-019 9.85434 	0.0162615 	-1.41833e-019 9.84978 	0.0155851 	-1.29504e-019 9.84522 	0.0149085 	-1.17171e-019 9.8349 	0.0139208 	-8.31109e-020 9.83681 	0.013599 	-6.97093e-020 9.83179 	0.0129395 	-5.13944e-020 9.82675 	0.0122797 	-3.30813e-020 9.82172 	0.0116196 	-1.47698e-020 9.81215 	0.0107325 	1.94489e-021 9.81213 	0.0103425 	0 9.80664 	0.00969606 	0 9.80115 	0.00904931 	0 9.79565 	0.00840226 	0 9.78713 	0.00761199 	0 9.78482 	0.00714046 	-1.66117e-020 9.77888 	0.00650134 	-3.53843e-020 9.77293 	0.00586192 	-5.41587e-020 9.76697 	0.00522219 	-7.29346e-020 9.75985 	0.00452889 	-9.22095e-020 9.75779 	0.0042504 	-9.5219e-020 9.75433 	0.00390803 	-9.56178e-020 9.75087 	0.00356556 	-9.6015e-020 9.74741 	0.00322299 	-9.64108e-020 9.74405 	0.00289029 	-9.67936e-020 9.74105 	0.00259616 	-9.76472e-020 9.73806 	0.00230195 	-9.85012e-020 9.73506 	0.00200766 	-9.93554e-020 9.73207 	0.0017133 	-1.0021e-019 9.72613 	0.0012875 	-1.00199e-019 9.72195 	0.000779667 	-7.53717e-020 9.71504 	0.000151175 	-4.65662e-020 9.70812 	-0.000477696 	-1.77699e-020 9.70119 	-0.00110695 	1.1017e-020 9.68494 	-0.00214444 	4.92513e-020 9.68619 	-0.00239621 	5.01124e-020 9.67885 	-0.00301797 	5.1247e-020 9.67151 	-0.00364015 	5.23794e-020 9.66415 	-0.00426274 	5.35097e-020 9.64122 	-0.00554333 	5.68262e-020 9.64779 	-0.00556897 	4.47544e-020 9.64004 	-0.00618417 	3.268e-020 9.63229 	-0.00679981 	2.06045e-020 9.62452 	-0.0074159 	8.52786e-021 9.59524 	-0.00889645 	-1.10073e-021 9.60683 	-0.00873838 	-8.02255e-021 9.59869 	-0.0093474 	-1.95465e-020 9.59055 	-0.0099569 	-3.10693e-020 9.5824 	-0.0105669 	-4.2591e-020 9.54725 	-0.012196 	-5.41284e-020 9.56345 	-0.011904 	-5.38065e-020 9.55495 	-0.0125088 	-6.11178e-020 9.54645 	-0.0131142 	-6.84261e-020 9.53793 	-0.01372 	-7.57314e-020 9.49751 	-0.0154438 	-9.46737e-020 9.51783 	-0.0150684 	-1.50814e-019 9.509 	-0.0156693 	-1.41417e-019 9.50016 	-0.0162708 	-1.32033e-019 9.49131 	-0.0168729 	-1.22661e-019 9.44629 	-0.0186317 	-4.13477e-020 9.47016 	-0.0182242 	-2.63233e-020 9.46102 	-0.0188208 	-1.84319e-020 9.45186 	-0.019418 	-1.05398e-020 9.4427 	-0.0200157 	-2.64687e-021 9.3938 	-0.0217518 	0 9.42063 	-0.0213603 	0 9.41121 	-0.0219534 	0 9.40176 	-0.0225471 	0 9.39231 	-0.0231415 	0 9.3403 	-0.0248048 	0 9.36949 	-0.0244755 	1.5227e-021 9.3598 	-0.0250672 	8.86766e-021 9.35009 	-0.0256596 	1.62119e-020 9.34038 	-0.0262526 	2.35553e-020 9.28599 	-0.0277962 	4.15297e-020 9.31695 	-0.0275778 	1.60957e-019 9.30703 	-0.0281688 	1.63863e-019 9.29709 	-0.0287605 	1.66784e-019 9.28713 	-0.0293528 	1.69718e-019 9.23109 	-0.0307254 	4.17202e-020 9.26305 	-0.0306646 	2.22623e-020 9.25313 	-0.0312503 	1.5635e-020 9.24299 	-0.0318401 	9.0723e-021 9.22979 	-0.032467 	3.90949e-021 9.17579 	-0.0335857 	1.76299e-020 9.20422 	-0.0337599 	1.04443e-019 9.19835 	-0.0342988 	1.1548e-019 9.18802 	-0.0348858 	1.16687e-019 9.17064 	-0.0355199 	1.00725e-019 9.12024 	-0.0363731 	4.01988e-021 9.14531 	-0.0367643 	-9.87531e-020 9.14291 	-0.0373038 	-1.29976e-019 9.13241 	-0.0378876 	-1.40165e-019 9.11157 	-0.0384785 	-1.28475e-019 9.06463 	-0.0390863 	-6.15724e-020 9.08653 	-0.0396749 	-1.77904e-019 9.08703 	-0.0402577 	-2.19154e-019 9.07639 	-0.0408381 	-2.21392e-019 9.05274 	-0.0413413 	-1.73056e-019 9.0091 	-0.0417255 	-4.70459e-020 9.02804 	-0.0424911 	-2.49108e-020 9.03092 	-0.0431545 	-1.08265e-020 9.02017 	-0.0437313 	-3.57558e-021 8.99431 	-0.0441087 	0 8.95378 	-0.0442919 	0 8.96998 	-0.0452144 	0 8.97477 	-0.0459898 	0 8.96392 	-0.046563 	0 8.93643 	-0.046783 	2.05067e-021 8.8988 	-0.0467878 	5.35081e-021 8.91247 	-0.0478473 	2.20396e-021 8.91877 	-0.0487605 	0 8.90784 	-0.0493301 	0 8.8792 	-0.0493676 	2.43799e-021 8.84426 	-0.0492161 	5.74224e-021 8.85563 	-0.0503937 	2.59484e-021 8.86306 	-0.0514649 	1.15497e-021 8.85208 	-0.052031 	7.73875e-021 8.82272 	-0.051867 	2.44473e-020 8.79028 	-0.0515803 	4.28567e-020 8.79956 	-0.0528578 	1.67886e-019 8.8078 	-0.0541016 	2.86953e-019 8.79678 	-0.0546644 	2.90384e-019 8.76708 	-0.0542859 	1.68393e-019 8.73693 	-0.0538843 	4.33646e-020 8.74431 	-0.0552453 	2.52187e-020 8.75165 	-0.0566078 	7.07405e-021 8.74039 	-0.0571275 	3.12701e-022 8.71234 	-0.05663 	3.49218e-021 8.6843 	-0.0561321 	6.67151e-021 8.68998 	-0.0575605 	3.65262e-021 8.6956 	-0.0589904 	6.345e-022 8.68471 	-0.0594796 	2.01404e-021 8.65858 	-0.0589043 	-1.90594e-021 8.63246 	-0.0583286 	-5.82497e-021 8.63661 	-0.0598106 	-4.9093e-020 8.6407 	-0.0612942 	-9.23647e-020 8.63021 	-0.0617535 	-9.373e-020 8.60583 	-0.061116 	-5.41399e-020 8.58148 	-0.060478 	-1.4548e-020 8.58425 	-0.0620027 	8.43822e-020 8.58697 	-0.0635289 	1.83307e-019 8.57693 	-0.0639596 	1.91854e-019 8.55415 	-0.0632736 	1.09466e-019 8.53139 	-0.0625872 	2.70782e-020 8.53295 	-0.0641486 	1.57357e-020 8.53446 	-0.0657115 	4.38981e-021 8.52489 	-0.0661149 	4.44867e-022 8.50356 	-0.0653889 	5.04744e-021 8.48225 	-0.0646624 	9.65179e-021 8.48275 	-0.0662487 	4.1415e-021 8.4832 	-0.0678366 	-1.37376e-021 8.47411 	-0.0682133 	-2.07703e-020 8.45409 	-0.0674602 	-7.07126e-020 8.4341 	-0.0667065 	-1.20657e-019 8.43366 	-0.0683033 	-2.51393e-019 8.43317 	-0.0699017 	-3.82123e-019 8.42459 	-0.0702536 	-3.67001e-019 8.40576 	-0.0694908 	-2.17151e-019 8.38694 	-0.0687276 	-6.73027e-020 8.38568 	-0.0703257 	5.64296e-020 8.38435 	-0.0719217 	1.79825e-019 8.37599 	-0.0722199 	1.77446e-019 8.35854 	-0.0714954 	9.03503e-020 8.3408 	-0.0707354 	3.4966e-022 8.33881 	-0.0723273 	-8.89813e-020 8.33593 	-0.0737416 	-1.67208e-019 8.32773 	-0.0740454 	-1.76494e-019 8.31246 	-0.0734854 	-1.14286e-019 8.29569 	-0.0727397 	-3.67371e-020 8.29306 	-0.0743226 	-2.55082e-020 8.28891 	-0.0755551 	-1.43784e-020 8.28085 	-0.0758665 	-3.50197e-021 8.26748 	-0.0754752 	1.39387e-020 8.2516 	-0.0747498 	3.44986e-020 8.2484 	-0.0763214 	1.2732e-020 8.24323 	-0.0773739 	-2.40506e-021 8.23532 	-0.0776943 	-8.19827e-021 8.2236 	-0.0774729 	-3.00559e-021 8.20852 	-0.0767723 	1.18995e-020 8.20482 	-0.0783306 	-4.59384e-021 8.19885 	-0.0792072 	-1.54756e-020 8.19107 	-0.0795381 	-2.18673e-020 8.18077 	-0.0794867 	-3.40764e-020 8.16643 	-0.0788157 	-5.57066e-020 8.16229 	-0.0803609 	5.27037e-020 8.1557 	-0.0810675 	8.72068e-020 8.14804 	-0.0814106 	8.96714e-020 8.13899 	-0.0815274 	7.01468e-020 8.12532 	-0.0808889 	-2.26752e-020 8.12078 	-0.0824211 	6.88774e-020 8.11373 	-0.0829643 	8.6175e-020 8.1062 	-0.083321 	8.94466e-020 8.09822 	-0.0836032 	8.65349e-020 8.08516 	-0.0829996 	1.03548e-020 8.08028 	-0.0845194 	-5.65659e-022 8.0729 	-0.0849065 	-4.84806e-022 8.06547 	-0.0852781 	-2.51407e-022 8.05803 	-0.0856499 	-1.803e-023 8.04593 	-0.0851558 	1.83604e-020 8.04046 	-0.0865148 	0 8.03315 	-0.0869023 	0 8.02583 	-0.0872902 	0 8.01849 	-0.0876782 	0 8.0076 	-0.0873648 	1.53586e-020 8.00165 	-0.088555 	0 7.99443 	-0.0889601 	0 7.98721 	-0.0893654 	0 7.97997 	-0.089771 	0 7.97013 	-0.0896346 	0 7.96382 	-0.0906639 	0 7.9567 	-0.0910877 	0 7.94956 	-0.0915118 	0 7.94241 	-0.0919362 	0 7.93349 	-0.0919725 	-8.67319e-021 7.92693 	-0.0928488 	0 7.91989 	-0.0932926 	0 7.91283 	-0.0937367 	0 7.90576 	-0.094181 	0 7.89765 	-0.0943862 	-1.09744e-020 7.89092 	-0.0951171 	0 7.88396 	-0.0955819 	0 7.87697 	-0.096047 	0 7.86997 	-0.0965123 	0 7.86256 	-0.0968821 	-4.46739e-021 7.85788 	-0.0973236 	-6.0099e-021 7.85313 	-0.0976589 	-1.31355e-020 7.84837 	-0.0979943 	-2.02616e-020 7.8436 	-0.0983299 	-2.73883e-020 7.83895 	-0.0986564 	-3.43205e-020 7.8367 	-0.0988105 	-3.73671e-020 7.83445 	-0.0989646 	-4.04137e-020 7.8322 	-0.0991188 	-4.34601e-020 7.82994 	-0.099273 	-4.65064e-020 7.82793 	-0.0993784 	-4.95548e-020 7.82081 	-0.0999338 	-4.84007e-020 7.81377 	-0.100446 	-4.77817e-020 7.80671 	-0.100958 	-4.71601e-020 7.79962 	-0.10147 	-4.65359e-020 7.79355 	-0.101783 	-4.81853e-020 7.78618 	-0.102499 	-3.77495e-020 7.77918 	-0.103035 	-2.73022e-020 7.77217 	-0.103571 	-1.68536e-020 7.76513 	-0.104108 	-6.4036e-021 7.75988 	-0.104299 	0 7.75224 	-0.105172 	-2.82048e-021 7.74528 	-0.105734 	-7.63372e-021 7.7383 	-0.106296 	-1.24462e-020 7.7313 	-0.106858 	-1.72581e-020 7.72684 	-0.106935 	-2.20347e-020 7.71894 	-0.107962 	-5.07443e-020 7.71202 	-0.108551 	-7.04959e-020 7.70507 	-0.109139 	-9.0249e-020 7.69809 	-0.109728 	-1.10004e-019 7.6944 	-0.109697 	-1.03316e-019 7.68623 	-0.110874 	-8.12379e-020 7.67933 	-0.111491 	-7.01369e-020 7.6724 	-0.112107 	-5.90298e-020 7.66545 	-0.112724 	-4.79166e-020 7.6625 	-0.112592 	-6.89274e-020 7.65406 	-0.113917 	-8.21552e-020 7.64717 	-0.114563 	-6.36805e-020 7.64026 	-0.115209 	-4.52106e-020 7.63369 	-0.115787 	-2.54854e-020 7.6311 	-0.115628 	7.82986e-021 7.62264 	-0.116984 	1.22255e-020 7.6155 	-0.117774 	8.75722e-021 7.60859 	-0.118451 	3.70868e-021 7.6028 	-0.11892 	0 7.60014 	-0.118812 	0 7.59171 	-0.120181 	0 7.58426 	-0.12113 	0 7.57736 	-0.121838 	0 7.57232 	-0.122204 	0 7.56958 	-0.122148 	0 7.56117 	-0.123532 	0 7.55341 	-0.124636 	-7.71886e-021 7.5465 	-0.125377 	-2.54447e-020 7.54219 	-0.125646 	-4.32196e-020 7.53938 	-0.125643 	-6.10239e-020 7.53098 	-0.127043 	-4.18473e-020 7.52289 	-0.128299 	-2.16924e-020 7.51596 	-0.129074 	1.70653e-021 7.51236 	-0.129251 	9.21251e-021 7.50946 	-0.129301 	1.33357e-020 7.50107 	-0.13072 	4.59233e-020 7.49265 	-0.132126 	7.82148e-020 7.48577 	-0.132923 	9.68353e-020 7.48278 	-0.133027 	8.1903e-020 7.47979 	-0.13313 	6.69694e-020 7.47139 	-0.134569 	4.29715e-020 7.46294 	-0.136008 	1.89653e-020 7.4565 	-0.13682 	2.00783e-021 7.45341 	-0.136977 	1.1378e-020 7.45032 	-0.137133 	2.07488e-020 7.44191 	-0.138594 	8.42085e-020 7.43344 	-0.140055 	1.47671e-019 7.4274 	-0.140897 	1.48317e-019 7.4242 	-0.141107 	8.54694e-020 7.42099 	-0.141316 	2.26198e-020 7.41256 	-0.1428 	1.40284e-020 7.40408 	-0.144284 	5.44035e-021 7.3984 	-0.145157 	5.62861e-021 7.39508 	-0.14542 	1.47793e-020 7.39175 	-0.145683 	2.3931e-020 7.38329 	-0.147191 	8.59445e-020 7.37478 	-0.1487 	1.47961e-019 7.36947 	-0.149606 	1.48641e-019 7.36601 	-0.149922 	8.72677e-020 7.36255 	-0.150238 	2.58929e-020 7.35405 	-0.151772 	1.75459e-020 7.34564 	-0.153283 	9.19869e-021 7.34066 	-0.154197 	7.55921e-022 7.33694 	-0.154615 	0 7.33333 	-0.154984 	0 7.32479 	-0.156545 	0 7.3171 	-0.157952 	0 7.312 	-0.158907 	0 7.30781 	-0.159503 	0 7.30405 	-0.159926 	0 7.29545 	-0.161514 	0 7.28846 	-0.162821 	0 7.28324 	-0.163817 	0 7.27857 	-0.164589 	6.83673e-021 7.27465 	-0.165064 	2.2777e-020 7.26599 	-0.166681 	5.23677e-021 7.25967 	-0.167892 	6.04429e-021 7.25432 	-0.168929 	1.46623e-020 7.24918 	-0.169875 	2.40469e-020 7.24508 	-0.170402 	3.69514e-020 7.23635 	-0.172048 	1.2355e-019 7.23068 	-0.173165 	1.33751e-019 7.22519 	-0.174244 	1.38373e-019 7.21967 	-0.175322 	1.42973e-019 7.21529 	-0.175941 	4.60252e-020 7.20702 	-0.177524 	1.34152e-019 7.20143 	-0.178644 	1.22318e-019 7.19579 	-0.179763 	1.10461e-019 7.19012 	-0.180883 	9.85833e-020 7.18523 	-0.181682 	3.81276e-020 7.17763 	-0.183166 	3.14804e-020 7.17188 	-0.184327 	3.19524e-020 7.16608 	-0.185488 	3.24294e-020 7.16025 	-0.186649 	3.29115e-020 7.15484 	-0.187626 	4.80519e-020 7.14789 	-0.189013 	5.40095e-020 7.14197 	-0.190215 	5.15269e-020 7.13601 	-0.191417 	4.90286e-020 7.13 	-0.192619 	4.65148e-020 7.12408 	-0.193772 	3.96843e-020 7.12158 	-0.194277 	3.32994e-020 7.11935 	-0.194732 	3.11695e-020 7.11713 	-0.195188 	2.90413e-020 7.11489 	-0.195643 	2.69149e-020 7.1127 	-0.196088 	2.48415e-020 7.1087 	-0.196876 	2.06259e-020 7.10467 	-0.197665 	1.64135e-020 7.10063 	-0.198454 	1.22045e-020 7.09656 	-0.199243 	7.99879e-021 7.09322 	-0.199955 	3.77208e-022 7.08637 	-0.201314 	-2.4196e-022 7.07991 	-0.202595 	-1.73988e-022 7.07341 	-0.203877 	-1.05993e-022 7.06685 	-0.205159 	-3.7975e-023 7.06215 	-0.206245 	0 7.05443 	-0.207764 	-6.98542e-021 7.04777 	-0.209086 	-2.08106e-020 7.04106 	-0.210407 	-3.463e-020 7.03431 	-0.211729 	-4.84437e-020 7.03058 	-0.212737 	-5.95161e-020 7.02194 	-0.214416 	-4.68249e-020 7.01508 	-0.215776 	-3.15625e-020 7.00816 	-0.217136 	-1.62943e-020 7.00122 	-0.218495 	-1.05674e-021 6.99846 	-0.219427 	6.30301e-021 6.98918 	-0.221213 	-1.34265e-022 6.98179 	-0.222664 	1.11281e-020 6.97466 	-0.224062 	2.51283e-020 6.96873 	-0.225336 	4.12656e-020 6.96573 	-0.226312 	6.25055e-020 6.95624 	-0.22813 	4.04057e-020 6.94787 	-0.229745 	2.18841e-020 6.94051 	-0.23118 	6.51989e-021 6.93559 	-0.232369 	-1.71436e-021 6.93236 	-0.233388 	-5.06167e-021 6.92263 	-0.235237 	-5.69004e-020 6.91326 	-0.237015 	-9.97847e-020 6.90566 	-0.238487 	-1.0338e-019 6.90177 	-0.239589 	-6.71327e-020 6.89829 	-0.24065 	-2.63595e-020 6.88833 	-0.242529 	-6.77096e-020 6.8783 	-0.244407 	-1.09067e-019 6.87094 	-0.245892 	-1.09406e-019 6.86723 	-0.246993 	-6.59686e-020 6.86348 	-0.248093 	-2.25306e-020 6.85327 	-0.250001 	-6.61037e-020 6.843 	-0.251908 	-1.09682e-019 6.83589 	-0.253434 	-1.06883e-019 6.83191 	-0.254573 	-5.76186e-020 6.82789 	-0.255711 	-8.3506e-021 6.81743 	-0.257647 	-5.543e-021 6.8069 	-0.259582 	-2.73754e-021 6.80004 	-0.261149 	0 6.79578 	-0.262323 	0 6.79149 	-0.263498 	0 6.78076 	-0.26546 	0 6.77077 	-0.267347 	0 6.76403 	-0.268918 	0 6.75881 	-0.270238 	0 6.75422 	-0.271447 	0 6.74322 	-0.273435 	0 6.73437 	-0.275213 	-1.69948e-021 6.72736 	-0.276814 	-4.85102e-021 6.72094 	-0.278309 	-4.66131e-021 6.71606 	-0.279551 	3.61662e-021 6.70478 	-0.281562 	-5.47194e-020 6.69709 	-0.283231 	-5.82146e-020 6.68979 	-0.284858 	-5.5052e-020 6.68243 	-0.286485 	-5.18678e-020 6.67697 	-0.287801 	-2.28622e-021 6.66644 	-0.289739 	-8.13581e-021 6.6589 	-0.291391 	6.48777e-022 6.6513 	-0.293043 	9.43468e-021 6.64364 	-0.294695 	1.82219e-020 6.63692 	-0.29619 	2.09766e-020 6.6276 	-0.298009 	4.11515e-020 6.61975 	-0.299685 	4.14121e-020 6.61185 	-0.30136 	4.16554e-020 6.60389 	-0.303035 	4.18814e-020 6.59588 	-0.304709 	4.2035e-020 6.59585 	-0.304714 	4.20373e-020 6.59583 	-0.304718 	4.20327e-020 6.59581 	-0.304723 	4.20281e-020 6.59579 	-0.304727 	4.20235e-020 6.59577 	-0.304731 	4.20189e-020 6.58719 	-0.306421 	3.97889e-020 6.57855 	-0.30811 	3.75638e-020 6.56985 	-0.309799 	3.53438e-020 6.56108 	-0.311487 	3.31289e-020 6.55335 	-0.313048 	2.26396e-020 6.54384 	-0.314904 	2.92518e-020 6.53483 	-0.316616 	2.30438e-020 6.52575 	-0.318328 	1.68475e-020 6.51661 	-0.32004 	1.0663e-020 6.50964 	-0.321494 	-1.46529e-020 6.49918 	-0.323511 	-7.40531e-021 6.48981 	-0.325242 	-9.3487e-021 6.48038 	-0.32697 	-1.13304e-020 6.4716 	-0.328617 	-1.26286e-020 6.46474 	-0.330037 	-1.2052e-020 6.4539 	-0.332066 	-1.07161e-020 6.44353 	-0.333963 	-7.35838e-021 6.43373 	-0.335706 	-1.65386e-021 6.4258 	-0.337231 	3.78014e-021 6.4186 	-0.338668 	9.10614e-021 6.40738 	-0.340706 	4.75062e-021 6.39608 	-0.342743 	3.99051e-022 6.38625 	-0.344474 	0 6.37875 	-0.345924 	0 6.3712 	-0.347374 	0 6.35958 	-0.349419 	0 6.34789 	-0.351463 	0 6.33827 	-0.353223 	0 6.33042 	-0.354684 	0 6.3225 	-0.356144 	0 6.31049 	-0.358193 	0 6.29871 	-0.360208 	5.18522e-022 6.28932 	-0.361956 	5.146e-021 6.28077 	-0.363497 	9.78643e-021 6.27249 	-0.364966 	1.4434e-020 6.26008 	-0.367017 	1.07189e-020 6.24927 	-0.368886 	9.74053e-021 6.23949 	-0.370637 	1.05609e-020 6.2298 	-0.372353 	1.16118e-020 6.22114 	-0.373826 	1.42999e-020 6.20862 	-0.375844 	-2.5481e-021 6.19852 	-0.377595 	-8.70653e-021 6.18836 	-0.379345 	-1.48521e-020 6.17813 	-0.381094 	-2.09849e-020 6.16843 	-0.382712 	-1.91246e-020 6.15981 	-0.384094 	-1.57493e-020 6.15221 	-0.385361 	-1.33461e-020 6.14458 	-0.386629 	-1.09445e-020 6.13692 	-0.387896 	-8.54465e-021 6.12959 	-0.389102 	-6.26313e-021 6.1267 	-0.389595 	-6.06069e-021 6.1238 	-0.390087 	-5.85983e-021 6.1209 	-0.39058 	-5.66055e-021 6.118 	-0.391073 	-5.46286e-021 6.11513 	-0.391521 	-2.05135e-021 6.10486 	-0.393319 	5.11926e-021 6.09439 	-0.395065 	5.81446e-021 6.08385 	-0.39681 	6.5347e-021 6.07324 	-0.398555 	7.2801e-021 6.06278 	-0.400096 	-1.99238e-020 6.05255 	-0.40207 	-6.08862e-020 6.04169 	-0.403808 	-7.0295e-020 6.03075 	-0.405545 	-7.97396e-020 6.01981 	-0.40722 	-7.57774e-020 6.00905 	-0.408652 	-1.75951e-020 5.99853 	-0.410656 	-1.51851e-020 5.98761 	-0.41253 	-1.02036e-020 5.97627 	-0.414255 	-2.31685e-021 5.9651 	-0.415755 	7.88797e-021 5.95393 	-0.417176 	1.88979e-020 5.943 	-0.419164 	3.62785e-020 5.93199 	-0.42115 	5.36674e-020 5.9205 	-0.422838 	5.48054e-020 5.90899 	-0.424246 	3.92352e-020 5.89742 	-0.425654 	2.36674e-020 5.88607 	-0.427622 	1.58