# vtk DataFile Version 2.0
track0
ASCII
DATASET POLYDATA
POINTS 11980 float
-0.0205 0.001 1e-005
-0.0202034 0.00100022 1e-005
-0.0199069 0.00100067 1e-005
-0.0196103 0.00100132 1e-005
-0.0193137 0.00100219 1e-005
-0.0190172 0.00100326 1e-005
-0.0187132 0.00100466 1e-005
-0.0184093 0.00100588 1e-005
-0.0181054 0.0010071 1e-005
-0.0178015 0.00100832 1e-005
-0.0174976 0.00100953 1e-005
-0.0172058 0.00101083 1e-005
-0.016914 0.00101193 1e-005
-0.0166222 0.00101303 1e-005
-0.0163305 0.00101413 1e-005
-0.0160387 0.00101522 1e-005
-0.0157586 0.00101636 1e-005
-0.0154784 0.00101744 1e-005
-0.0151983 0.00101856 1e-005
-0.0149182 0.00101971 1e-005
-0.0146381 0.0010209 1e-005
-0.0143744 0.00102208 1e-005
-0.0141107 0.00102327 1e-005
-0.013847 0.00102449 1e-005
-0.0135833 0.00102574 1e-005
-0.0133606 0.00102682 1e-005
-0.0133472 0.00102688 1e-005
-0.0133337 0.00102695 1e-005
-0.0133203 0.00102702 1e-005
-0.0133069 0.00102708 1e-005
-0.0132934 0.00102715 1e-005
-0.0130353 0.00102844 1e-005
-0.0127771 0.00102974 1e-005
-0.0125189 0.00103106 1e-005
-0.0122607 0.00103239 1e-005
-0.0120025 0.00103374 1e-005
-0.0117547 0.00103505 1e-005
-0.0115068 0.00103637 1e-005
-0.0112589 0.00103769 1e-005
-0.0110111 0.00103901 1e-005
-0.0107632 0.00104034 1e-005
-0.0105252 0.00104161 1e-005
-0.0102873 0.00104289 1e-005
-0.0100493 0.00104417 1e-005
-0.00981133 0.00104545 1e-005
-0.00957337 0.00104672 1e-005
-0.00934491 0.00104794 1e-005
-0.00911645 0.00104916 1e-005
-0.00888799 0.00105038 1e-005
-0.00865954 0.0010516 1e-005
-0.00843108 0.00105281 1e-005
-0.00821175 0.00105396 1e-005
-0.00799242 0.00105512 1e-005
-0.00777309 0.00105627 1e-005
-0.00755376 0.00105742 1e-005
-0.00733443 0.00105856 1e-005
-0.00712387 0.00105965 1e-005
-0.0069133 0.00106074 1e-005
-0.00670273 0.00106183 1e-005
-0.00649216 0.00106291 1e-005
-0.0062816 0.00106398 1e-005
-0.00607944 0.001065 1e-005
-0.00587729 0.00106603 1e-005
-0.00567514 0.00106705 1e-005
-0.00547298 0.00106806 1e-005
-0.00527083 0.00106907 1e-005
-0.00507675 0.00107003 1e-005
-0.00488267 0.00107099 1e-005
-0.0046886 0.00107195 1e-005
-0.00449452 0.0010729 1e-005
-0.00430044 0.00107385 1e-005
-0.00411412 0.00107476 1e-005
-0.0039278 0.00107566 1e-005
-0.00374147 0.00107656 1e-005
-0.00355515 0.00107745 1e-005
-0.00336883 0.00107835 1e-005
-0.00318995 0.00107919 1e-005
-0.00301107 0.00108004 1e-005
-0.00283219 0.00108089 1e-005
-0.00265331 0.00108174 1e-005
-0.00247443 0.00108258 1e-005
-0.0023027 0.00108338 1e-005
-0.00213097 0.00108418 1e-005
-0.00195924 0.00108498 1e-005
-0.0017875 0.00108578 1e-005
-0.00161577 0.00108657 1e-005
-0.0014509 0.00108732 1e-005
-0.00128603 0.00108808 1e-005
-0.00112116 0.00108884 1e-005
-0.000956289 0.00108959 1e-005
-0.000791418 0.00109035 1e-005
-0.000633135 0.00109107 1e-005
-0.000474851 0.00109179 1e-005
-0.000316567 0.00109251 1e-005
-0.000158284 0.00109322 1e-005
0 0.00109394 1e-005
0.000105677 0.00109441 1e-005
0.000211355 0.00109488 1e-005
0.000317032 0.00109535 1e-005
0.00042271 0.00109581 1e-005
0.000528387 0.00109627 1e-005
0.000634886 0.00109673 1e-005
0.000741385 0.00109718 1e-005
0.000847885 0.00109763 1e-005
0.000954384 0.00109808 1e-005
0.00106088 0.00109853 1e-005
0.00116821 0.00109897 1e-005
0.00127554 0.00109942 1e-005
0.00138286 0.00109985 1e-005
0.00149019 0.00110028 1e-005
0.00159752 0.00110071 1e-005
0.00170568 0.00110113 1e-005
0.00181384 0.00110154 1e-005
0.001922 0.00110195 1e-005
0.00203016 0.00110235 1e-005
0.00213833 0.00110274 1e-005
0.00224733 0.00110312 1e-005
0.00235633 0.0011035 1e-005
0.00246533 0.00110387 1e-005
0.00257434 0.00110423 1e-005
0.00268334 0.00110458 1e-005
0.00279319 0.00110492 1e-005
0.00290304 0.00110527 1e-005
0.00301289 0.0011056 1e-005
0.00312274 0.00110592 1e-005
0.00323259 0.00110624 1e-005
0.00334329 0.00110654 1e-005
0.003454 0.00110685 1e-005
0.0035647 0.00110714 1e-005
0.0036754 0.00110743 1e-005
0.00378611 0.00110771 1e-005
0.00389767 0.00110798 1e-005
0.00400924 0.00110825 1e-005
0.0041208 0.00110851 1e-005
0.00423237 0.00110876 1e-005
0.00434393 0.00110901 1e-005
0.00445636 0.00110924 1e-005
0.00456879 0.00110948 1e-005
0.00468123 0.0011097 1e-005
0.00479366 0.00110992 1e-005
0.00490609 0.00111012 1e-005
0.0050194 0.00111032 1e-005
0.0051327 0.00111052 1e-005
0.00524601 0.0011107 1e-005
0.00535932 0.00111088 1e-005
0.00547262 0.00111106 1e-005
0.00558681 0.00111122 1e-005
0.005701 0.00111138 1e-005
0.00581518 0.00111153 1e-005
0.00592937 0.00111167 1e-005
0.00604356 0.0011118 1e-005
0.00615863 0.00111193 1e-005
0.00627371 0.00111205 1e-005
0.00638878 0.00111217 1e-005
0.00650386 0.00111227 1e-005
0.00661893 0.00111237 1e-005
0.0067349 0.00111246 1e-005
0.00685087 0.00111255 1e-005
0.00696684 0.00111262 1e-005
0.00708281 0.00111269 1e-005
0.00719878 0.00111276 1e-005
0.00726196 0.00111278 1e-005
0.00732515 0.00111281 1e-005
0.00738833 0.00111284 1e-005
0.00745152 0.00111286 1e-005
0.00751286 0.00111288 1e-005
0.00756692 0.0011129 1e-005
0.00762097 0.00111291 1e-005
0.00767503 0.00111292 1e-005
0.00772908 0.00111294 1e-005
0.00778313 0.00111295 1e-005
0.00790091 0.00111296 1e-005
0.00801869 0.00111297 1e-005
0.00813647 0.00111297 1e-005
0.00825425 0.00111297 1e-005
0.00837203 0.00111295 1e-005
0.00849073 0.00111293 1e-005
0.00860942 0.0011129 1e-005
0.00872812 0.00111286 1e-005
0.00884682 0.00111282 1e-005
0.00896551 0.00111277 1e-005
0.00908513 0.0011127 1e-005
0.00920475 0.00111263 1e-005
0.00932437 0.00111255 1e-005
0.00944398 0.00111247 1e-005
0.0095636 0.00111237 1e-005
0.00968415 0.00111226 1e-005
0.0098047 0.00111215 1e-005
0.00992525 0.00111204 1e-005
0.0100458 0.00111191 1e-005
0.0101663 0.00111178 1e-005
0.0102878 0.00111162 1e-005
0.0104093 0.00111147 1e-005
0.0105308 0.00111131 1e-005
0.0106523 0.00111115 1e-005
0.0107738 0.00111097 1e-005
0.0108962 0.00111077 1e-005
0.0110186 0.00111058 1e-005
0.0111411 0.00111038 1e-005
0.0112635 0.00111017 1e-005
0.0113859 0.00110995 1e-005
0.0115093 0.00110971 1e-005
0.0116327 0.00110947 1e-005
0.0117561 0.00110922 1e-005
0.0118795 0.00110897 1e-005
0.0120028 0.00110871 1e-005
0.0121272 0.00110842 1e-005
0.0122515 0.00110814 1e-005
0.0123759 0.00110785 1e-005
0.0125002 0.00110755 1e-005
0.0126245 0.00110724 1e-005
0.0127498 0.00110691 1e-005
0.0128752 0.00110658 1e-005
0.0130005 0.00110625 1e-005
0.0131258 0.0011059 1e-005
0.0132511 0.00110555 1e-005
0.0133774 0.00110517 1e-005
0.0135036 0.0011048 1e-005
0.0136299 0.00110442 1e-005
0.0137562 0.00110403 1e-005
0.0138825 0.00110363 1e-005
0.0140098 0.0011032 1e-005
0.014137 0.00110278 1e-005
0.0142643 0.00110235 1e-005
0.0143915 0.00110191 1e-005
0.0145188 0.00110147 1e-005
0.0146471 0.001101 1e-005
0.0147753 0.00110053 1e-005
0.0149036 0.00110005 1e-005
0.0150318 0.00109956 1e-005
0.0151601 0.00109906 1e-005
0.0152893 0.00109855 1e-005
0.0154186 0.00109803 1e-005
0.0155478 0.0010975 1e-005
0.0156771 0.00109696 1e-005
0.0158063 0.00109642 1e-005
0.0159366 0.00109586 1e-005
0.0160668 0.00109529 1e-005
0.0161971 0.00109471 1e-005
0.0163274 0.00109412 1e-005
0.0164576 0.00109353 1e-005
0.0165889 0.00109292 1e-005
0.0167201 0.0010923 1e-005
0.0168514 0.00109168 1e-005
0.0169827 0.00109104 1e-005
0.0171139 0.0010904 1e-005
0.0172462 0.00108974 1e-005
0.0173785 0.00108907 1e-005
0.0175108 0.0010884 1e-005
0.0176431 0.00108771 1e-005
0.0177754 0.00108702 1e-005
0.0179087 0.00108631 1e-005
0.018042 0.0010856 1e-005
0.0181753 0.00108487 1e-005
0.0183087 0.00108413 1e-005
0.018442 0.00108339 1e-005
0.0185763 0.00108264 1e-005
0.0187107 0.00108188 1e-005
0.018845 0.0010811 1e-005
0.0189794 0.00108031 1e-005
0.0191137 0.00107952 1e-005
0.0192491 0.00107872 1e-005
0.0193845 0.00107791 1e-005
0.0195199 0.00107708 1e-005
0.0196553 0.00107624 1e-005
0.0197907 0.0010754 1e-005
0.0199272 0.00107456 1e-005
0.0200636 0.00107369 1e-005
0.0202001 0.00107281 1e-005
0.0203365 0.00107192 1e-005
0.020473 0.00107103 1e-005
0.0206105 0.00107014 1e-005
0.020748 0.00106923 1e-005
0.0208855 0.0010683 1e-005
0.021023 0.00106736 1e-005
0.0211606 0.00106642 1e-005
0.0212991 0.00106549 1e-005
0.0214377 0.00106453 1e-005
0.0215763 0.00106354 1e-005
0.0217149 0.00106255 1e-005
0.0218535 0.00106157 1e-005
0.0219931 0.00106058 1e-005
0.0221328 0.00105958 1e-005
0.0222724 0.00105854 1e-005
0.0224121 0.0010575 1e-005
0.0225517 0.00105647 1e-005
0.0226925 0.00105544 1e-005
0.0228332 0.00105438 1e-005
0.022974 0.00105329 1e-005
0.0231147 0.0010522 1e-005
0.0232555 0.00105112 1e-005
0.0233973 0.00105004 1e-005
0.0235391 0.00104893 1e-005
0.023681 0.0010478 1e-005
0.0238228 0.00104666 1e-005
0.0239647 0.00104552 1e-005
0.0241076 0.00104439 1e-005
0.0242505 0.00104324 1e-005
0.0243935 0.00104205 1e-005
0.0245364 0.00104086 1e-005
0.0246794 0.00103968 1e-005
0.0248234 0.0010385 1e-005
0.0249675 0.00103729 1e-005
0.0251115 0.00103605 1e-005
0.0252556 0.00103481 1e-005
0.0253996 0.00103358 1e-005
0.0255448 0.00103235 1e-005
0.02569 0.00103109 1e-005
0.0258351 0.00102981 1e-005
0.0259803 0.00102851 1e-005
0.0261255 0.00102723 1e-005
0.0262718 0.00102595 1e-005
0.0264181 0.00102464 1e-005
0.0265644 0.0010233 1e-005
0.0267107 0.00102196 1e-005
0.026857 0.00102063 1e-005
0.0270044 0.00101929 1e-005
0.0271519 0.00101793 1e-005
0.0272993 0.00101655 1e-005
0.0274468 0.00101515 1e-005
0.0275942 0.00101377 1e-005
0.0277428 0.00101238 1e-005
0.0278914 0.00101096 1e-005
0.0280399 0.00100952 1e-005
0.0281885 0.00100808 1e-005
0.0283371 0.00100664 1e-005
0.0284869 0.00100519 1e-005
0.0286366 0.00100372 1e-005
0.0287863 0.00100223 1e-005
0.0289361 0.00100073 1e-005
0.0290858 0.000999232 1e-005
0.0292367 0.00099773 1e-005
0.0293876 0.000996198 1e-005
0.0295385 0.000994655 1e-005
0.0296894 0.000993104 1e-005
0.0298403 0.000991546 1e-005
0.0299924 0.000989985 1e-005
0.0301445 0.000988394 1e-005
0.0302966 0.000986795 1e-005
0.0304486 0.000985187 1e-005
0.0306007 0.000983571 1e-005
0.030754 0.000981948 1e-005
0.0309072 0.000980299 1e-005
0.0310605 0.000978641 1e-005
0.0312138 0.000976975 1e-005
0.031367 0.000975299 1e-005
0.0315215 0.000973614 1e-005
[...]
POINT_DATA 11980
 FIELD attributes 1
U 3 11980 float
10.0004 	0.00731848 	0 10.0024 	0.0151691 	0 10.0045 	0.0221881 	0 10.0065 	0.029163 	0 10.0085 	0.0360939 	0 10.0135 	0.0463093 	0 10.0163 	0.0402081 	0 10.0207 	0.0401658 	0 10.0252 	0.0401236 	0 10.0296 	0.0400817 	0 10.0356 	0.0445413 	0 10.0385 	0.0378996 	0 10.0424 	0.0378544 	0 10.0464 	0.0378091 	0 10.0504 	0.0377638 	0 10.0545 	0.0408641 	0 10.0567 	0.038785 	0 10.0592 	0.0400931 	0 10.0616 	0.0414028 	0 10.0641 	0.0427142 	0 10.0662 	0.0451717 	0 10.0677 	0.0452818 	0 10.0691 	0.0464836 	0 10.0704 	0.0476865 	0 10.0718 	0.0488905 	0 10.0729 	0.0499085 	0 10.073 	0.0499703 	0 10.073 	0.0500321 	0 10.0731 	0.0500939 	0 10.0732 	0.0501557 	0 10.0732 	0.0502082 	0 10.0738 	0.0508335 	0 10.0743 	0.0514529 	0 10.0748 	0.0520728 	0 10.0753 	0.0526932 	0 10.0758 	0.0531497 	0 10.0757 	0.0534438 	0 10.0754 	0.0536326 	0 10.075 	0.0538215 	0 10.0747 	0.0540105 	0 10.0742 	0.0539611 	0 10.0737 	0.0541042 	0 10.0727 	0.054079 	0 10.0716 	0.0540538 	0 10.0705 	0.0540286 	0 10.069 	0.0537342 	0 10.0686 	0.0538122 	0 10.067 	0.0536765 	0 10.0653 	0.0535408 	0 10.0637 	0.053405 	0 10.0612 	0.0529827 	0 10.0612 	0.0530338 	0 10.0592 	0.0528363 	0 10.0572 	0.0526387 	0 10.0552 	0.0524411 	0 10.0516 	0.0519442 	0 10.0522 	0.051993 	0 10.0499 	0.0517679 	0 10.0476 	0.0515428 	0 10.0453 	0.0513176 	0 10.0407 	0.050785 	0 10.0422 	0.0508521 	0 10.0397 	0.0506207 	0 10.0372 	0.0503893 	0 10.0347 	0.0501578 	0 10.029 	0.0496055 	0 10.0314 	0.0496964 	0 10.0288 	0.0494738 	0 10.0262 	0.0492511 	0 10.0235 	0.0490283 	0 10.0167 	0.0484765 	0 10.0203 	0.0485986 	0 10.0176 	0.0483847 	0 10.0149 	0.0481708 	0 10.0122 	0.0479568 	0 10.0041 	0.0473961 	0 10.009 	0.0475468 	0 10.0063 	0.0473744 	0 10.0036 	0.0472019 	0 10.0008 	0.0470294 	0 9.99162 	0.0465179 	0 9.99781 	0.046724 	0 9.99514 	0.0465505 	0 9.99247 	0.046377 	0 9.9898 	0.0462035 	0 9.97939 	0.0456362 	0 9.98694 	0.0458347 	0 9.98435 	0.0457782 	0 9.98175 	0.0457217 	0 9.97916 	0.0456652 	0 9.96759 	0.0452736 	0 9.97659 	0.0455268 	9.22976e-022 9.97458 	0.0453378 	5.95768e-021 9.97257 	0.0451488 	1.09926e-020 9.97056 	0.0449597 	1.60277e-020 9.95849 	0.0443205 	1.36227e-020 9.96869 	0.0443956 	9.34464e-020 9.96686 	0.0440545 	8.67185e-020 9.96502 	0.0437133 	7.99867e-020 9.96319 	0.0433721 	7.32509e-020 9.9509 	0.0426729 	-1.48527e-020 9.96093 	0.04263 	-4.02563e-020 9.95914 	0.042335 	-4.4792e-020 9.95734 	0.04204 	-4.93261e-020 9.95555 	0.0417449 	-5.38586e-020 9.94347 	0.0411729 	-2.12773e-020 9.95304 	0.0409807 	-1.87137e-020 9.95111 	0.040431 	-1.30317e-020 9.94918 	0.0398813 	-7.35015e-021 9.94725 	0.0393315 	-1.66901e-021 9.9354 	0.0385531 	6.95643e-021 9.94457 	0.038241 	-5.72946e-021 9.94246 	0.0374403 	-2.41953e-020 9.94034 	0.0366395 	-4.26632e-020 9.93822 	0.0358386 	-6.1133e-020 9.92649 	0.0347741 	-8.71299e-020 9.93508 	0.0345224 	-1.22713e-019 9.93262 	0.0337066 	-1.10438e-019 9.93016 	0.0328906 	-9.81543e-020 9.92769 	0.0320745 	-8.58635e-020 9.91599 	0.0308782 	-2.97147e-020 9.92383 	0.0307492 	3.36037e-020 9.92098 	0.030011 	4.69733e-020 9.91813 	0.0292725 	6.03337e-020 9.91527 	0.0285338 	7.36849e-020 9.90364 	0.0273135 	3.6529e-020 9.91066 	0.0272286 	-4.51846e-020 9.90743 	0.0265281 	-5.11925e-020 9.9042 	0.0258273 	-5.71862e-020 9.90097 	0.0251263 	-6.31658e-020 9.88952 	0.023916 	-3.39233e-022 9.89558 	0.0237936 	5.88192e-020 9.89195 	0.0230996 	4.94828e-020 9.88832 	0.0224055 	4.01322e-020 9.88468 	0.021711 	3.07675e-020 9.87349 	0.020547 	-2.85673e-020 9.8784 	0.020359 	-8.22389e-020 9.87433 	0.0196716 	-1.04221e-019 9.87024 	0.018984 	-1.26198e-019 9.86615 	0.0182961 	-1.48169e-019 9.85532 	0.0172117 	-1.35827e-019 9.85886 	0.0169535 	-1.54175e-019 9.85431 	0.0162774 	-1.41848e-019 9.84975 	0.0156011 	-1.29517e-019 9.84519 	0.0149245 	-1.17182e-019 9.83488 	0.013937 	-8.31245e-020 9.83679 	0.0136154 	-6.97195e-020 9.83176 	0.0129563 	-5.14023e-020 9.82673 	0.012297 	-3.30869e-020 9.82169 	0.0116374 	-1.47731e-020 9.81213 	0.0107509 	1.94437e-021 9.81211 	0.0103611 	0 9.80662 	0.00971483 	0 9.80113 	0.0090683 	0 9.79563 	0.00842149 	0 9.78712 	0.0076315 	0 9.78481 	0.0071594 	-1.66146e-020 9.77887 	0.00651984 	-3.53891e-020 9.77292 	0.00587996 	-5.41653e-020 9.76696 	0.00523978 	-7.29432e-020 9.75984 	0.00454611 	-9.22194e-020 9.75778 	0.00426767 	-9.52255e-020 9.75433 	0.00392543 	-9.56239e-020 9.75087 	0.00358309 	-9.60208e-020 9.74742 	0.00324066 	-9.64163e-020 9.74406 	0.00290809 	-9.67988e-020 9.74106 	0.00261337 	-9.76535e-020 9.73806 	0.00231857 	-9.85086e-020 9.73507 	0.00202369 	-9.9364e-020 9.73206 	0.00172875 	-1.0022e-019 9.72612 	0.00130219 	-1.00209e-019 9.72194 	0.000793911 	-7.53832e-020 9.71503 	0.000164832 	-4.65745e-020 9.70811 	-0.000464628 	-1.77751e-020 9.70119 	-0.00109447 	1.1015e-020 9.68493 	-0.0021327 	4.92559e-020 9.68619 	-0.00238493 	5.0117e-020 9.67885 	-0.00300727 	5.12518e-020 9.6715 	-0.00363001 	5.23843e-020 9.66415 	-0.00425318 	5.35148e-020 9.64122 	-0.00553446 	5.68319e-020 9.64778 	-0.00556055 	4.47588e-020 9.64004 	-0.00617628 	3.26832e-020 9.63228 	-0.00679246 	2.06064e-020 9.62452 	-0.00740908 	8.52852e-021 9.59524 	-0.00889025 	-1.1009e-021 9.60682 	-0.0087326 	-8.02311e-021 9.59869 	-0.0093421 	-1.95482e-020 9.59055 	-0.00995208 	-3.10721e-020 9.58239 	-0.0105625 	-4.25948e-020 9.54724 	-0.0121922 	-5.41334e-020 9.56344 	-0.0119006 	-5.38111e-020 9.55495 	-0.0125058 	-6.11231e-020 9.54644 	-0.0131116 	-6.8432e-020 9.53793 	-0.0137179 	-7.57379e-020 9.49751 	-0.0154421 	-9.46822e-020 9.51783 	-0.0150671 	-1.50829e-019 9.509 	-0.0156684 	-1.41431e-019 9.50016 	-0.0162703 	-1.32046e-019 9.4913 	-0.0168728 	-1.22673e-019 9.44628 	-0.0186319 	-4.13513e-020 9.47015 	-0.0182249 	-2.63254e-020 9.46101 	-0.0188219 	-1.84334e-020 9.45186 	-0.0194194 	-1.05406e-020 9.44269 	-0.0200175 	-2.647e-021 9.3938 	-0.0217539 	0 9.42063 	-0.0213628 	0 9.4112 	-0.0219563 	0 9.40176 	-0.0225504 	0 9.3923 	-0.0231451 	0 9.34029 	-0.0248087 	0 9.36948 	-0.0244798 	1.52269e-021 9.35979 	-0.0250719 	8.86811e-021 9.35008 	-0.0256646 	1.62128e-020 9.34037 	-0.0262579 	2.35567e-020 9.28598 	-0.0278017 	4.15325e-020 9.31694 	-0.0275838 	1.6097e-019 9.30702 	-0.0281751 	1.63877e-019 9.29708 	-0.028767 	1.66797e-019 9.28712 	-0.0293596 	1.69732e-019 9.23108 	-0.0307323 	4.1723e-020 9.26304 	-0.030672 	2.22638e-020 9.25312 	-0.031258 	1.56357e-020 9.24297 	-0.0318479 	9.07259e-021 9.22978 	-0.032475 	3.90995e-021 9.17577 	-0.0335937 	1.76311e-020 9.2042 	-0.0337683 	1.04449e-019 9.19834 	-0.0343074 	1.1549e-019 9.188 	-0.0348945 	1.16696e-019 9.17063 	-0.0355288 	1.0073e-019 9.12023 	-0.0363819 	4.02032e-021 9.1453 	-0.0367734 	-9.87578e-020 9.14289 	-0.0373131 	-1.29986e-019 9.13239 	-0.0378969 	-1.40176e-019 9.11155 	-0.0384878 	-1.28482e-019 9.06461 	-0.0390955 	-6.15757e-020 9.08651 	-0.0396842 	-1.77912e-019 9.08701 	-0.0402671 	-2.1917e-019 9.07637 	-0.0408474 	-2.21408e-019 9.05271 	-0.0413505 	-1.73064e-019 9.00908 	-0.0417345 	-4.70483e-020 9.02802 	-0.0425001 	-2.49122e-020 9.0309 	-0.0431635 	-1.08266e-020 9.02014 	-0.0437402 	-3.57533e-021 8.99429 	-0.0441173 	0 8.95375 	-0.0443004 	0 8.96995 	-0.0452227 	0 8.97475 	-0.0459981 	0 8.96389 	-0.046571 	0 8.9364 	-0.0467908 	2.05092e-021 8.89877 	-0.0467953 	5.35112e-021 8.91244 	-0.0478545 	2.20422e-021 8.91874 	-0.0487676 	0 8.90781 	-0.0493369 	0 8.87917 	-0.0493741 	2.43827e-021 8.84423 	-0.0492222 	5.74258e-021 8.8556 	-0.0503996 	2.59512e-021 8.86303 	-0.0514705 	1.15448e-021 8.85204 	-0.0520363 	7.73829e-021 8.82269 	-0.0518719 	2.44478e-020 8.79025 	-0.0515848 	4.28573e-020 8.79952 	-0.052862 	1.67888e-019 8.80776 	-0.0541054 	2.86965e-019 8.79674 	-0.054668 	2.90396e-019 8.76704 	-0.054289 	1.68394e-019 8.73689 	-0.053887 	4.33652e-020 8.74427 	-0.0552477 	2.52193e-020 8.7516 	-0.0566098 	7.07447e-021 8.74035 	-0.0571291 	3.12944e-022 8.7123 	-0.0566312 	3.49239e-021 8.68426 	-0.056133 	6.67169e-021 8.68994 	-0.057561 	3.65283e-021 8.69556 	-0.0589904 	6.34743e-022 8.68467 	-0.0594793 	2.01289e-021 8.65854 	-0.0589037 	-1.90705e-021 8.63242 	-0.0583276 	-5.82603e-021 8.63656 	-0.0598093 	-4.90937e-020 8.64065 	-0.0612925 	-9.23651e-020 8.63016 	-0.0617515 	-9.37307e-020 8.60579 	-0.0611139 	-5.4141e-020 8.58143 	-0.0604758 	-1.45493e-020 8.58421 	-0.0620007 	8.43793e-020 8.58693 	-0.063527 	1.83303e-019 8.57688 	-0.0639573 	1.9185e-019 8.5541 	-0.0632703 	1.09463e-019 8.53135 	-0.0625829 	2.70769e-020 8.53291 	-0.0641429 	1.57346e-020 8.53442 	-0.0657044 	4.38887e-021 8.52484 	-0.0661073 	4.43721e-022 8.50352 	-0.065382 	5.04641e-021 8.48221 	-0.0646562 	9.65088e-021 8.48271 	-0.0662424 	4.14053e-021 8.48315 	-0.0678301 	-1.37479e-021 8.47407 	-0.0682069 	-2.07689e-020 8.45405 	-0.0674542 	-7.07105e-020 8.43405 	-0.0667009 	-1.20655e-019 8.43362 	-0.0682987 	-2.51388e-019 8.43312 	-0.0698981 	-3.82116e-019 8.42455 	-0.0702498 	-3.66993e-019 8.40571 	-0.0694857 	-2.17145e-019 8.3869 	-0.0687212 	-6.73002e-020 8.38564 	-0.0703182 	5.64301e-020 8.3843 	-0.0719131 	1.79817e-019 8.37595 	-0.0722111 	1.77438e-019 8.3585 	-0.0714874 	9.03488e-020 8.34076 	-0.0707281 	3.49923e-022 8.33877 	-0.0723202 	-8.89791e-020 8.33588 	-0.0737347 	-1.672e-019 8.32768 	-0.0740386 	-1.76486e-019 8.31242 	-0.0734789 	-1.14283e-019 8.29565 	-0.0727333 	-3.67367e-020 8.29302 	-0.0743165 	-2.55081e-020 8.28887 	-0.0755491 	-1.43786e-020 8.28081 	-0.0758606 	-3.50237e-021 8.26744 	-0.0754693 	1.39375e-020 8.25156 	-0.0747438 	3.44971e-020 8.24836 	-0.0763153 	1.2731e-020 8.24319 	-0.0773678 	-2.40523e-021 8.23528 	-0.0776884 	-8.19831e-021 8.22356 	-0.0774673 	-3.00647e-021 8.20848 	-0.0767672 	1.18984e-020 8.20479 	-0.0783259 	-4.59463e-021 8.19881 	-0.0792027 	-1.54758e-020 8.19103 	-0.0795339 	-2.18675e-020 8.18074 	-0.0794828 	-3.40759e-020 8.1664 	-0.0788119 	-5.57057e-020 8.16226 	-0.0803574 	5.2703e-020 8.15567 	-0.0810642 	8.72026e-020 8.14801 	-0.0814075 	8.96672e-020 8.13896 	-0.0815246 	7.01456e-020 8.1253 	-0.0808863 	-2.26751e-020 8.12076 	-0.0824188 	6.88767e-020 8.11371 	-0.0829623 	8.61718e-020 8.10617 	-0.0833192 	8.94433e-020 8.09819 	-0.0836018 	8.65338e-020 8.08514 	-0.0829984 	1.03544e-020 8.08025 	-0.0845185 	-5.65949e-022 8.07288 	-0.0849058 	-4.84817e-022 8.06545 	-0.0852776 	-2.51416e-022 8.05801 	-0.0856498 	-1.80362e-023 8.04591 	-0.0851559 	1.83599e-020 8.04043 	-0.0865151 	0 8.03313 	-0.086903 	0 8.02581 	-0.087291 	0 8.01847 	-0.0876794 	0 8.00758 	-0.0873662 	1.53581e-020 8.00163 	-0.0885566 	0 7.99442 	-0.0889619 	0 7.98719 	-0.0893674 	0 7.97995 	-0.0897733 	0 7.97011 	-0.089637 	0 7.9638 	-0.0906665 	0 7.95668 	-0.0910905 	0 7.94954 	-0.0915148 	0 7.94239 	-0.0919393 	0 7.93348 	-0.0919758 	-8.67267e-021 7.92692 	-0.0928523 	0 7.91987 	-0.0932962 	0 7.91282 	-0.0937404 	0 7.90574 	-0.0941848 	0 7.89763 	-0.0943902 	-1.09732e-020 7.89091 	-0.0951211 	0 7.88394 	-0.095586 	0 7.87695 	-0.0960511 	0 7.86995 	-0.0965165 	0 7.86254 	-0.0968865 	-4.46592e-021 7.85787 	-0.0973278 	-6.00774e-021 7.85312 	-0.097663 	-1.31308e-020 7.84836 	-0.0979983 	-2.02544e-020 7.84359 	-0.0983338 	-2.73786e-020 7.83895 	-0.0986602 	-3.43084e-020 7.83669 	-0.0988144 	-3.73575e-020 7.83444 	-0.0989687 	-4.04066e-020 7.83218 	-0.099123 	-4.34555e-020 7.82992 	-0.0992773 	-4.65043e-020 7.82792 	-0.0993828 	-4.95552e-020 7.8208 	-0.0999383 	-4.84006e-020 7.81375 	-0.10045 	-4.77816e-020 7.80669 	-0.100962 	-4.716e-020 7.7996 	-0.101475 	-4.65357e-020 7.79353 	-0.101787 	-4.81856e-020 7.78616 	-0.102503 	-3.77497e-020 7.77916 	-0.103039 	-2.73022e-020 7.77215 	-0.103575 	-1.68534e-020 7.76511 	-0.104112 	-6.40318e-021 7.75986 	-0.104303 	0 7.75222 	-0.105176 	-2.82027e-021 7.74526 	-0.105738 	-7.6336e-021 7.73828 	-0.106299 	-1.24462e-020 7.73128 	-0.106861 	-1.72581e-020 7.72682 	-0.106938 	-2.20349e-020 7.71892 	-0.107966 	-5.07459e-020 7.712 	-0.108554 	-7.04978e-020 7.70505 	-0.109142 	-9.02512e-020 7.69807 	-0.109731 	-1.10006e-019 7.69438 	-0.109699 	-1.03316e-019 7.68621 	-0.110877 	-8.12368e-020 7.67931 	-0.111493 	-7.01356e-020 7.67238 	-0.11211 	-5.90282e-020 7.66543 	-0.112726 	-4.79148e-020 7.66248 	-0.112594 	-6.8928e-020 7.65403 	-0.113919 	-8.21582e-020 7.64715 	-0.114564 	-6.36832e-020 7.64024 	-0.11521 	-4.5213e-020 7.63367 	-0.115788 	-2.54867e-020 7.63107 	-0.11563 	7.82905e-021 7.62262 	-0.116985 	1.22248e-020 7.61547 	-0.117775 	8.75705e-021 7.60857 	-0.118452 	3.70842e-021 7.60278 	-0.11892 	0 7.60012 	-0.118812 	0 7.59169 	-0.120181 	0 7.58423 	-0.12113 	0 7.57733 	-0.121838 	0 7.57229 	-0.122203 	0 7.56956 	-0.122148 	0 7.56115 	-0.123531 	0 7.55338 	-0.124635 	-7.71767e-021 7.54647 	-0.125376 	-2.54435e-020 7.54216 	-0.125644 	-4.32186e-020 7.53935 	-0.125641 	-6.10229e-020 7.53095 	-0.127041 	-4.18463e-020 7.52286 	-0.128297 	-2.16915e-020 7.51593 	-0.129072 	1.70739e-021 7.51233 	-0.129249 	9.21216e-021 7.50943 	-0.129299 	1.33353e-020 7.50104 	-0.130718 	4.59231e-020 7.49263 	-0.132123 	7.82156e-020 7.48574 	-0.132921 	9.68342e-020 7.48276 	-0.133024 	8.19017e-020 7.47976 	-0.133127 	6.69681e-020 7.47136 	-0.134566 	4.29702e-020 7.46291 	-0.136005 	1.89639e-020 7.45648 	-0.136817 	2.00834e-021 7.45339 	-0.136973 	1.13784e-020 7.45029 	-0.13713 	2.07493e-020 7.44188 	-0.13859 	8.42088e-020 7.43342 	-0.140051 	1.47671e-019 7.42737 	-0.140893 	1.48318e-019 7.42417 	-0.141103 	8.54697e-020 7.42096 	-0.141312 	2.26203e-020 7.41253 	-0.142796 	1.40288e-020 7.40405 	-0.14428 	5.4408e-021 7.39838 	-0.145153 	5.62901e-021 7.39506 	-0.145416 	1.47797e-020 7.39173 	-0.145679 	2.39313e-020 7.38327 	-0.147187 	8.59443e-020 7.37476 	-0.148696 	1.4796e-019 7.36944 	-0.149601 	1.4864e-019 7.36599 	-0.149917 	8.72675e-020 7.36253 	-0.150233 	2.58931e-020 7.35403 	-0.151767 	1.75462e-020 7.34562 	-0.153279 	9.19899e-021 7.34064 	-0.154193 	7.56269e-022 7.33692 	-0.15461 	0 7.33331 	-0.15498 	0 7.32477 	-0.156541 	0 7.31708 	-0.157948 	0 7.31198 	-0.158902 	0 7.30779 	-0.159499 	0 7.30403 	-0.159921 	0 7.29544 	-0.161509 	0 7.28844 	-0.162816 	0 7.28323 	-0.163812 	0 7.27856 	-0.164584 	6.83617e-021 7.27463 	-0.165059 	2.27763e-020 7.26598 	-0.166677 	5.23626e-021 7.25965 	-0.167887 	6.04442e-021 7.25431 	-0.168924 	1.46624e-020 7.24916 	-0.16987 	2.40467e-020 7.24507 	-0.170397 	3.6951e-020 7.23634 	-0.172044 	1.23549e-019 7.23066 	-0.173161 	1.33748e-019 7.22518 	-0.174239 	1.3837e-019 7.21965 	-0.175318 	1.4297e-019 7.21528 	-0.175936 	4.60254e-020 7.20701 	-0.177519 	1.34149e-019 7.20141 	-0.178639 	1.22315e-019 7.19578 	-0.179759 	1.10459e-019 7.19011 	-0.180879 	9.85811e-020 7.18521 	-0.181677 	3.81271e-020 7.17762 	-0.183161 	3.14801e-020 7.17186 	-0.184322 	3.19521e-020 7.16607 	-0.185483 	3.24291e-020 7.16024 	-0.186645 	3.29111e-020 7.15483 	-0.187621 	4.8051e-020 7.14788 	-0.189008 	5.40085e-020 7.14196 	-0.190211 	5.15259e-020 7.136 	-0.191413 	4.90277e-020 7.12999 	-0.192615 	4.6514e-020 7.12407 	-0.193768 	3.96838e-020 7.12157 	-0.194273 	3.3299e-020 7.11935 	-0.194728 	3.11691e-020 7.11712 	-0.195184 	2.9041e-020 7.11488 	-0.195639 	2.69146e-020 7.11269 	-0.196084 	2.48412e-020 7.10869 	-0.196872 	2.06256e-020 7.10466 	-0.197661 	1.64133e-020 7.10062 	-0.19845 	1.22043e-020 7.09656 	-0.199239 	7.99865e-021 7.09321 	-0.199951 	3.77191e-022 7.08636 	-0.20131 	-2.41958e-022 7.0799 	-0.202592 	-1.73987e-022 7.0734 	-0.203873 	-1.05993e-022 7.06685 	-0.205155 	-3.79751e-023 7.06215 	-0.206241 	0 7.05442 	-0.207761 	-6.98542e-021 7.04776 	-0.209082 	-2.08104e-020 7.04105 	-0.210404 	-3.46296e-020 7.0343 	-0.211725 	-4.84431e-020 7.03058 	-0.212733 	-5.95154e-020 7.02194 	-0.214413 	-4.68243e-020 7.01507 	-0.215773 	-3.15622e-020 7.00816 	-0.217133 	-1.62943e-020 7.00121 	-0.218492 	-1.05684e-021 6.99846 	-0.219424 	6.30279e-021 6.98918 	-0.22121 	-1.3439e-022 6.98179 	-0.222661 	1.11281e-020 6.97466 	-0.224059 	2.51281e-020 6.96872 	-0.225333 	4.1265e-020 6.96573 	-0.226309 	6.25046e-020 6.95623 	-0.228127 	4.04052e-020 6.94787 	-0.229742 	2.1884e-020 6.9405 	-0.231178 	6.52008e-021 6.93559 	-0.232366 	-1.71426e-021 6.93236 	-0.233386 	-5.0615e-021 6.92263 	-0.235235 	-5.68994e-020 6.91326 	-0.237014 	-9.97818e-020 6.90566 	-0.238485 	-1.03377e-019 6.90178 	-0.239588 	-6.71313e-020 6.89829 	-0.240648 	-2.63587e-020 6.88833 	-0.242527 	-6.77081e-020 6.8783 	-0.244406 	-1.09065e-019 6.87094 	-0.245891 	-1.09404e-019 6.86723 	-0.246991 	-6.59672e-020 6.86348 	-0.248092 	-2.25299e-020 6.85328 	-0.25 	-6.61023e-020 6.843 	-0.251908 	-1.0968e-019 6.8359 	-0.253434 	-1.06881e-019 6.83192 	-0.254572 	-5.76175e-020 6.8279 	-0.255711 	-8.35036e-021 6.81744 	-0.257647 	-5.54281e-021 6.8069 	-0.259582 	-2.73741e-021 6.80005 	-0.261149 	0 6.79579 	-0.262324 	0 6.79149 	-0.263499 	0 6.78077 	-0.265461 	0 6.77077 	-0.267347 	0 6.76404 	-0.268919 	0 6.75881 	-0.270239 	0 6.75423 	-0.271448 	0 6.74323 	-0.273436 	0 6.73438 	-0.275215 	-1.69937e-021 6.72736 	-0.276815 	-4.85085e-021 6.72095 	-0.278311 	-4.66086e-021 6.71607 	-0.279553 	3.61691e-021 6.70479 	-0.281564 	-5.47181e-020 6.6971 	-0.283233 	-5.82145e-020 6.6898 	-0.284861 	-5.5052e-020 6.68244 	-0.286488 	-5.18677e-020 6.67698 	-0.287804 	-2.28586e-021 6.66645 	-0.289742 	-8.1357e-021 6.65891 	-0.291394 	6.48711e-022 6.65131 	-0.293047 	9.43444e-021 6.64365 	-0.294699 	1.82215e-020 6.63693 	-0.296194 	2.09759e-020 6.62761 	-0.298013 	4.11512e-020 6.61976 	-0.299689 	4.14117e-020 6.61186 	-0.301364 	4.1655e-020 6.6039 	-0.303039 	4.1881e-020 6.59589 	-0.304714 	4.2034e-020 6.59586 	-0.304719 	4.20363e-020 6.59584 	-0.304723 	4.20316e-020 6.59582 	-0.304728 	4.2027e-020 6.5958 	-0.304732 	4.20223e-020 6.59578 	-0.304736 	4.20176e-020 6.5872 	-0.306426 	3.97878e-020 6.57856 	-0.308115 	3.75629e-020 6.56986 	-0.309804 	3.5343e-020 6.56109 	-0.311493 	3.31281e-020 6.55336 	-0.313053 	2.26392e-020 6.54385 	-0.31491 	2.92511e-020 6.53484 	-0.316622 	2.30433e-020 6.52577 	-0.318334 	1.68472e-020 6.51663 	-0.320046 	1.06629e-020 6.50965 	-0.3215 	-1.46525e-020 6.49919 	-0.323518 	-7.40513e-021 6.48982 	-0.325248 	-9.34844e-021 6.48039 	-0.326977 	-1.133e-020 6.47161 	-0.328624 	-1.26282e-020 6.46475 	-0.330044 	-1.20516e-020 6.45391 	-0.332074 	-1.07158e-020 6.44354 	-0.33397 	-7.35813e-021 6.43374 	-0.335713 	-1.65373e-021 6.42581 	-0.337239 	3.78015e-021 6.41861 	-0.338676 	9.10605e-021 6.40739 	-0.340714 	4.75063e-021 6.39609 	-0.342752 	3.99169e-022 6.38626 	-0.344482 	0 6.37876 	-0.345933 	0 6.37121 	-0.347383 	0 6.35959 	-0.349428 	0 6.3479 	-0.351472 	0 6.33828 	-0.353232 	0 6.33042 	-0.354693 	0 6.32251 	-0.356154 	0 6.3105 	-0.358203 	0 6.29872 	-0.360218 	5.18719e-022 6.28932 	-0.361965 	5.14607e-021 6.28078 	-0.363507 	9.78638e-021 6.2725 	-0.364975 	1.44339e-020 6.26008 	-0.367027 	1.07188e-020 6.24927 	-0.368896 	9.74078e-021 6.2395 	-0.370646 	1.05612e-020 6.2298 	-0.372363 	1.16119e-020 6.22115 	-0.373836 	1.43e-020 6.20862 	-0.375854 	-2.5467e-021 6.19853 	-0.377605 	-8.70488e-021 6.18837 	-0.379355 	-1.48503e-020 6.17813 	-0.381104 	-2.09828e-020 6.16843 	-0.382722 	-1.91241e-020 6.15981 	-0.384103 	-1.57497e-020 6.15222 	-0.385371 	-1.33471e-020 6.14459 	-0.386638 	-1.09462e-020 6.13693 	-0.387905 	-8.54703e-021 6.1296 	-0.38911 	-6.26611e-021 6.12671 	-0.389604 	-6.06358e-021 6.12381 	-0.390097 	-5.86263e-021 6.12091 	-0.39059 	-5.66327e-021 6.118 	-0.391083 	-5.46548e-021 6.11514 	-0.391531 	-2.05203e-021 6.10486 	-0.393329 	5.12244e-021 6.0944 	-0.395075 	5.81775e-021 6.08386 	-0.39682 	6.5381e-021 6.07325 	-0.398565 	7.28361e-021 6.06278 	-0.400107 	-1.99234e-020 6.05255 	-0.402081 	-6.08891e-020 6.04169 	-0.403818 	-7.02978e-020 6.03075 	-0.405555 	-7.97421e-020 6.01981 	-0.40723 	-7.57727e-020 6.00905 	-0.408662 	-1.75926e-020 5.99853 	-0.410666 	-1.51827e-020 5.98761 	-0.41254 	-1.02022e-020 5.97627 	-0.414265 	-2.31574e-021 5.9651 	-0.415764 	7.88905e-021 5.95393 	-0.417186 	1.88986e-020 5.943 	-0.419173 	3.62783e-020 5.93199 	-0.42116 	5.36664e-020 5.9205 	-0.422848 	5.48043e-020 5.90899 	-0.424256 	3.92348e-020 5.89741 	-0.425664 	2.36677e-020 5.88607 	-0.427631 