# vtk DataFile Version 2.0
track0
ASCII
DATASET POLYDATA
POINTS 11980 float
-0.0205 0.001 1e-005
-0.0202034 0.00100022 1e-005
-0.0199069 0.00100067 1e-005
-0.0196103 0.00100132 1e-005
-0.0193137 0.00100219 1e-005
-0.0190172 0.00100326 1e-005
-0.0187132 0.00100466 1e-005
-0.0184093 0.00100588 1e-005
-0.0181054 0.0010071 1e-005
-0.0178015 0.00100832 1e-005
-0.0174976 0.00100953 1e-005
-0.0172058 0.00101083 1e-005
-0.016914 0.00101193 1e-005
-0.0166222 0.00101303 1e-005
-0.0163305 0.00101413 1e-005
-0.0160387 0.00101522 1e-005
-0.0157586 0.00101636 1e-005
-0.0154784 0.00101744 1e-005
-0.0151983 0.00101856 1e-005
-0.0149182 0.00101971 1e-005
-0.0146381 0.0010209 1e-005
-0.0143744 0.00102208 1e-005
-0.0141107 0.00102327 1e-005
-0.013847 0.00102449 1e-005
-0.0135833 0.00102574 1e-005
-0.0133606 0.00102682 1e-005
-0.0133472 0.00102688 1e-005
-0.0133337 0.00102695 1e-005
-0.0133203 0.00102702 1e-005
-0.0133069 0.00102708 1e-005
-0.0132934 0.00102715 1e-005
-0.0130353 0.00102844 1e-005
-0.0127771 0.00102974 1e-005
-0.0125189 0.00103106 1e-005
-0.0122607 0.00103239 1e-005
-0.0120025 0.00103374 1e-005
-0.0117547 0.00103505 1e-005
-0.0115068 0.00103637 1e-005
-0.0112589 0.00103769 1e-005
-0.0110111 0.00103901 1e-005
-0.0107632 0.00104034 1e-005
-0.0105252 0.00104161 1e-005
-0.0102873 0.00104289 1e-005
-0.0100493 0.00104417 1e-005
-0.00981133 0.00104545 1e-005
-0.00957337 0.00104672 1e-005
-0.00934491 0.00104794 1e-005
-0.00911645 0.00104916 1e-005
-0.00888799 0.00105038 1e-005
-0.00865954 0.0010516 1e-005
-0.00843108 0.00105281 1e-005
-0.00821175 0.00105396 1e-005
-0.00799242 0.00105512 1e-005
-0.00777309 0.00105627 1e-005
-0.00755376 0.00105742 1e-005
-0.00733443 0.00105856 1e-005
-0.00712387 0.00105965 1e-005
-0.0069133 0.00106074 1e-005
-0.00670273 0.00106183 1e-005
-0.00649216 0.00106291 1e-005
-0.0062816 0.00106398 1e-005
-0.00607944 0.001065 1e-005
-0.00587729 0.00106603 1e-005
-0.00567514 0.00106705 1e-005
-0.00547298 0.00106806 1e-005
-0.00527083 0.00106907 1e-005
-0.00507675 0.00107003 1e-005
-0.00488267 0.00107099 1e-005
-0.0046886 0.00107195 1e-005
-0.00449452 0.0010729 1e-005
-0.00430044 0.00107385 1e-005
-0.00411412 0.00107476 1e-005
-0.0039278 0.00107566 1e-005
-0.00374147 0.00107656 1e-005
-0.00355515 0.00107745 1e-005
-0.00336883 0.00107835 1e-005
-0.00318995 0.00107919 1e-005
-0.00301107 0.00108004 1e-005
-0.00283219 0.00108089 1e-005
-0.00265331 0.00108174 1e-005
-0.00247443 0.00108258 1e-005
-0.0023027 0.00108338 1e-005
-0.00213097 0.00108418 1e-005
-0.00195924 0.00108498 1e-005
-0.0017875 0.00108578 1e-005
-0.00161577 0.00108657 1e-005
-0.0014509 0.00108732 1e-005
-0.00128603 0.00108808 1e-005
-0.00112116 0.00108884 1e-005
-0.000956289 0.00108959 1e-005
-0.000791418 0.00109035 1e-005
-0.000633135 0.00109107 1e-005
-0.000474851 0.00109179 1e-005
-0.000316567 0.00109251 1e-005
-0.000158284 0.00109322 1e-005
0 0.00109394 1e-005
0.000105677 0.00109441 1e-005
0.000211355 0.00109488 1e-005
0.000317032 0.00109535 1e-005
0.00042271 0.00109581 1e-005
0.000528387 0.00109627 1e-005
0.000634886 0.00109673 1e-005
0.000741385 0.00109718 1e-005
0.000847885 0.00109763 1e-005
0.000954384 0.00109808 1e-005
0.00106088 0.00109853 1e-005
0.00116821 0.00109897 1e-005
0.00127554 0.00109942 1e-005
0.00138286 0.00109985 1e-005
0.00149019 0.00110028 1e-005
0.00159752 0.00110071 1e-005
0.00170568 0.00110113 1e-005
0.00181384 0.00110154 1e-005
0.001922 0.00110195 1e-005
0.00203016 0.00110235 1e-005
0.00213833 0.00110274 1e-005
0.00224733 0.00110312 1e-005
0.00235633 0.0011035 1e-005
0.00246533 0.00110387 1e-005
0.00257434 0.00110423 1e-005
0.00268334 0.00110458 1e-005
0.00279319 0.00110492 1e-005
0.00290304 0.00110527 1e-005
0.00301289 0.0011056 1e-005
0.00312274 0.00110592 1e-005
0.00323259 0.00110624 1e-005
0.00334329 0.00110654 1e-005
0.003454 0.00110685 1e-005
0.0035647 0.00110714 1e-005
0.0036754 0.00110743 1e-005
0.00378611 0.00110771 1e-005
0.00389767 0.00110798 1e-005
0.00400924 0.00110825 1e-005
0.0041208 0.00110851 1e-005
0.00423237 0.00110876 1e-005
0.00434393 0.00110901 1e-005
0.00445636 0.00110924 1e-005
0.00456879 0.00110948 1e-005
0.00468123 0.0011097 1e-005
0.00479366 0.00110992 1e-005
0.00490609 0.00111012 1e-005
0.0050194 0.00111032 1e-005
0.0051327 0.00111052 1e-005
0.00524601 0.0011107 1e-005
0.00535932 0.00111088 1e-005
0.00547262 0.00111106 1e-005
0.00558681 0.00111122 1e-005
0.005701 0.00111138 1e-005
0.00581518 0.00111153 1e-005
0.00592937 0.00111167 1e-005
0.00604356 0.0011118 1e-005
0.00615863 0.00111193 1e-005
0.00627371 0.00111205 1e-005
0.00638878 0.00111217 1e-005
0.00650386 0.00111227 1e-005
0.00661893 0.00111237 1e-005
0.0067349 0.00111246 1e-005
0.00685087 0.00111255 1e-005
0.00696684 0.00111262 1e-005
0.00708281 0.00111269 1e-005
0.00719878 0.00111276 1e-005
0.00726196 0.00111278 1e-005
0.00732515 0.00111281 1e-005
0.00738833 0.00111284 1e-005
0.00745152 0.00111286 1e-005
0.00751286 0.00111288 1e-005
0.00756692 0.0011129 1e-005
0.00762097 0.00111291 1e-005
0.00767503 0.00111292 1e-005
0.00772908 0.00111294 1e-005
0.00778313 0.00111295 1e-005
0.00790091 0.00111296 1e-005
0.00801869 0.00111297 1e-005
0.00813647 0.00111297 1e-005
0.00825425 0.00111297 1e-005
0.00837203 0.00111295 1e-005
0.00849073 0.00111293 1e-005
0.00860942 0.0011129 1e-005
0.00872812 0.00111286 1e-005
0.00884682 0.00111282 1e-005
0.00896551 0.00111277 1e-005
0.00908513 0.0011127 1e-005
0.00920475 0.00111263 1e-005
0.00932437 0.00111255 1e-005
0.00944398 0.00111247 1e-005
0.0095636 0.00111237 1e-005
0.00968415 0.00111226 1e-005
0.0098047 0.00111215 1e-005
0.00992525 0.00111204 1e-005
0.0100458 0.00111191 1e-005
0.0101663 0.00111178 1e-005
0.0102878 0.00111162 1e-005
0.0104093 0.00111147 1e-005
0.0105308 0.00111131 1e-005
0.0106523 0.00111115 1e-005
0.0107738 0.00111097 1e-005
0.0108962 0.00111077 1e-005
0.0110186 0.00111058 1e-005
0.0111411 0.00111038 1e-005
0.0112635 0.00111017 1e-005
0.0113859 0.00110995 1e-005
0.0115093 0.00110971 1e-005
0.0116327 0.00110947 1e-005
0.0117561 0.00110922 1e-005
0.0118795 0.00110897 1e-005
0.0120028 0.00110871 1e-005
0.0121272 0.00110842 1e-005
0.0122515 0.00110814 1e-005
0.0123759 0.00110785 1e-005
0.0125002 0.00110755 1e-005
0.0126245 0.00110724 1e-005
0.0127498 0.00110691 1e-005
0.0128752 0.00110658 1e-005
0.0130005 0.00110625 1e-005
0.0131258 0.0011059 1e-005
0.0132511 0.00110555 1e-005
0.0133774 0.00110517 1e-005
0.0135036 0.0011048 1e-005
0.0136299 0.00110442 1e-005
0.0137562 0.00110403 1e-005
0.0138825 0.00110363 1e-005
0.0140098 0.0011032 1e-005
0.014137 0.00110278 1e-005
0.0142643 0.00110235 1e-005
0.0143915 0.00110191 1e-005
0.0145188 0.00110147 1e-005
0.0146471 0.001101 1e-005
0.0147753 0.00110053 1e-005
0.0149036 0.00110005 1e-005
0.0150318 0.00109956 1e-005
0.0151601 0.00109906 1e-005
0.0152893 0.00109855 1e-005
0.0154186 0.00109803 1e-005
0.0155478 0.0010975 1e-005
0.0156771 0.00109696 1e-005
0.0158063 0.00109642 1e-005
0.0159366 0.00109586 1e-005
0.0160668 0.00109529 1e-005
0.0161971 0.00109471 1e-005
0.0163274 0.00109412 1e-005
0.0164576 0.00109353 1e-005
0.0165889 0.00109292 1e-005
0.0167201 0.0010923 1e-005
0.0168514 0.00109168 1e-005
0.0169827 0.00109104 1e-005
0.0171139 0.0010904 1e-005
0.0172462 0.00108974 1e-005
0.0173785 0.00108907 1e-005
0.0175108 0.0010884 1e-005
0.0176431 0.00108771 1e-005
0.0177754 0.00108702 1e-005
0.0179087 0.00108631 1e-005
0.018042 0.0010856 1e-005
0.0181753 0.00108487 1e-005
0.0183087 0.00108413 1e-005
0.018442 0.00108339 1e-005
0.0185763 0.00108264 1e-005
0.0187107 0.00108188 1e-005
0.018845 0.0010811 1e-005
0.0189794 0.00108031 1e-005
0.0191137 0.00107952 1e-005
0.0192491 0.00107872 1e-005
0.0193845 0.00107791 1e-005
0.0195199 0.00107708 1e-005
0.0196553 0.00107624 1e-005
0.0197907 0.0010754 1e-005
0.0199272 0.00107456 1e-005
0.0200636 0.00107369 1e-005
0.0202001 0.00107281 1e-005
0.0203365 0.00107192 1e-005
0.020473 0.00107103 1e-005
0.0206105 0.00107014 1e-005
0.020748 0.00106923 1e-005
0.0208855 0.0010683 1e-005
0.021023 0.00106736 1e-005
0.0211606 0.00106642 1e-005
0.0212991 0.00106549 1e-005
0.0214377 0.00106453 1e-005
0.0215763 0.00106354 1e-005
0.0217149 0.00106255 1e-005
0.0218535 0.00106157 1e-005
0.0219931 0.00106058 1e-005
0.0221328 0.00105958 1e-005
0.0222724 0.00105854 1e-005
0.0224121 0.0010575 1e-005
0.0225517 0.00105647 1e-005
0.0226925 0.00105544 1e-005
0.0228332 0.00105438 1e-005
0.022974 0.00105329 1e-005
0.0231147 0.0010522 1e-005
0.0232555 0.00105112 1e-005
0.0233973 0.00105004 1e-005
0.0235391 0.00104893 1e-005
0.023681 0.0010478 1e-005
0.0238228 0.00104666 1e-005
0.0239647 0.00104552 1e-005
0.0241076 0.00104439 1e-005
0.0242505 0.00104324 1e-005
0.0243935 0.00104205 1e-005
0.0245364 0.00104086 1e-005
0.0246794 0.00103968 1e-005
0.0248234 0.0010385 1e-005
0.0249675 0.00103729 1e-005
0.0251115 0.00103605 1e-005
0.0252556 0.00103481 1e-005
0.0253996 0.00103358 1e-005
0.0255448 0.00103235 1e-005
0.02569 0.00103109 1e-005
0.0258351 0.00102981 1e-005
0.0259803 0.00102851 1e-005
0.0261255 0.00102723 1e-005
0.0262718 0.00102595 1e-005
0.0264181 0.00102464 1e-005
0.0265644 0.0010233 1e-005
0.0267107 0.00102196 1e-005
0.026857 0.00102063 1e-005
0.0270044 0.00101929 1e-005
0.0271519 0.00101793 1e-005
0.0272993 0.00101655 1e-005
0.0274468 0.00101515 1e-005
0.0275942 0.00101377 1e-005
0.0277428 0.00101238 1e-005
0.0278914 0.00101096 1e-005
0.0280399 0.00100952 1e-005
0.0281885 0.00100808 1e-005
0.0283371 0.00100664 1e-005
0.0284869 0.00100519 1e-005
0.0286366 0.00100372 1e-005
0.0287863 0.00100223 1e-005
0.0289361 0.00100073 1e-005
0.0290858 0.000999232 1e-005
0.0292367 0.00099773 1e-005
0.0293876 0.000996198 1e-005
0.0295385 0.000994655 1e-005
0.0296894 0.000993104 1e-005
0.0298403 0.000991546 1e-005
0.0299924 0.000989985 1e-005
0.0301445 0.000988394 1e-005
0.0302966 0.000986795 1e-005
0.0304486 0.000985187 1e-005
0.0306007 0.000983571 1e-005
0.030754 0.000981948 1e-005
0.0309072 0.000980299 1e-005
0.0310605 0.000978641 1e-005
0.0312138 0.000976975 1e-005
0.031367 0.000975299 1e-005
0.0315215 0.000973614 1e-005
[...]
POINT_DATA 11980
 FIELD attributes 2
p 1 11980 float
-4.83434 -4.83363 -4.83002 -4.82633 -4.82256 -4.81419 -4.82805 -4.84304 -4.85803 -4.87302 -4.89746 -4.91925 -4.94921 -4.97918 -5.00914 -5.04191 -5.0576 -5.07934 -5.10108 -5.12282 -5.14618 -5.16513 -5.18608 -5.20704 -5.22801 -5.24572 -5.24678 -5.24785 -5.24891 -5.24998 -5.25104 -5.27276 -5.29447 -5.31619 -5.3379 -5.35935 -5.37817 -5.39681 -5.41545 -5.43409 -5.45215 -5.46786 -5.48328 -5.49871 -5.51413 -5.52901 -5.54288 -5.5565 -5.57012 -5.58375 -5.59693 -5.60975 -5.62231 -5.63487 -5.64743 -5.65957 -5.6715 -5.68314 -5.69477 -5.7064 -5.71762 -5.72874 -5.7396 -5.75045 -5.7613 -5.7718 -5.78232 -5.79259 -5.80285 -5.81311 -5.82305 -5.8331 -5.84296 -5.85283 -5.86269 -5.87234 -5.88209 -5.89159 -5.90109 -5.91059 -5.91987 -5.92943 -5.93912 -5.94881 -5.95851 -5.96832 -5.97833 -5.98811 -5.99788 -6.00766 -6.01723 -6.02723 -6.038 -6.04876 -6.05952 -6.0704 -6.08016 -6.09054 -6.10091 -6.11129 -6.12119 -6.1302 -6.1387 -6.1472 -6.1557 -6.16343 -6.17041 -6.17849 -6.18656 -6.19464 -6.20348 -6.21158 -6.22018 -6.22877 -6.23736 -6.24608 -6.25413 -6.26122 -6.2683 -6.27539 -6.28165 -6.28827 -6.29363 -6.29898 -6.30433 -6.30866 -6.31424 -6.31879 -6.32334 -6.32789 -6.3315 -6.33635 -6.34031 -6.34427 -6.34823 -6.35137 -6.35526 -6.3584 -6.36154 -6.36468 -6.36721 -6.37007 -6.37238 -6.37469 -6.377 -6.37894 -6.38104 -6.3828 -6.38456 -6.38632 -6.38789 -6.38962 -6.39115 -6.39268 -6.39421 -6.39565 -6.39719 -6.39862 -6.40005 -6.40148 -6.40288 -6.40364 -6.40436 -6.40508 -6.40581 -6.40651 -6.40712 -6.40774 -6.40836 -6.40898 -6.40964 -6.41086 -6.41212 -6.41339 -6.41466 -6.41612 -6.41716 -6.41842 -6.41968 -6.42094 -6.42262 -6.42345 -6.42475 -6.42604 -6.42734 -6.42936 -6.42997 -6.43136 -6.43276 -6.43415 -6.43662 -6.43704 -6.43856 -6.44008 -6.4416 -6.44453 -6.44474 -6.44635 -6.44796 -6.44958 -6.45296 -6.45294 -6.45466 -6.45638 -6.4581 -6.46195 -6.4618 -6.46366 -6.46551 -6.46737 -6.47167 -6.47142 -6.47343 -6.47543 -6.47743 -6.4821 -6.4818 -6.48394 -6.48609 -6.48823 -6.49323 -6.49292 -6.4952 -6.49748 -6.49996 -6.50505 -6.50506 -6.50721 -6.50965 -6.51254 -6.5176 -6.51794 -6.52002 -6.52261 -6.52588 -6.53088 -6.53158 -6.53362 -6.53636 -6.53997 -6.54491 -6.54596 -6.54801 -6.5509 -6.55479 -6.55966 -6.56107 -6.56316 -6.5662 -6.57034 -6.57515 -6.57689 -6.57907 -6.58226 -6.5866 -6.59134 -6.59342 -6.59572 -6.59905 -6.60355 -6.60824 -6.61063 -6.61307 -6.61654 -6.62117 -6.62583 -6.62851 -6.63118 -6.63482 -6.63946 -6.64409 -6.64703 -6.64997 -6.65375 -6.65837 -6.663 -6.66619 -6.66939 -6.6733 -6.67794 -6.68257 -6.68602 -6.68947 -6.69351 -6.69814 -6.70278 -6.70646 -6.71016 -6.71431 -6.71894 -6.72356 -6.72746 -6.73136 -6.73562 -6.74023 -6.74484 -6.74891 -6.75298 -6.75733 -6.76195 -6.76657 -6.77077 -6.77497 -6.77941 -6.78406 -6.78871 -6.79302 -6.79736 -6.80188 -6.80654 -6.81124 -6.81564 -6.8201 -6.82469 -6.82938 -6.83412 -6.83861 -6.84316 -6.84782 -6.85254 -6.85733 -6.86188 -6.86652 -6.87123 -6.87598 -6.88082 -6.88542 -6.89013 -6.89489 -6.89968 -6.90455 -6.90919 -6.91396 -6.91876 -6.92356 -6.92846 -6.93313 -6.93795 -6.94277 -6.94758 -6.95249 -6.9572 -6.96203 -6.96686 -6.97169 -6.9766 -6.98133 -6.98616 -6.991 -6.99583 -7.00071 -7.00546 -7.01028 -7.0151 -7.01992 -7.02478 -7.02952 -7.03432 -7.03912 -7.04392 -7.04873 -7.05346 -7.05822 -7.06297 -7.06773 -7.0725 -7.07573 -7.07896 -7.0822 -7.08544 -7.08859 -7.09007 -7.09156 -7.09304 -7.09453 -7.09602 -7.10065 -7.10529 -7.10993 -7.11458 -7.11923 -7.12379 -7.12834 -7.1329 -7.13745 -7.14203 -7.14649 -7.15095 -7.15541 -7.15987 -7.16435 -7.16871 -7.17305 -7.17739 -7.18174 -7.1861 -7.19035 -7.19455 -7.19876 -7.20297 -7.20718 -7.2113 -7.21534 -7.21939 -7.22344 -7.22748 -7.23144 -7.23532 -7.2392 -7.24307 -7.24692 -7.2507 -7.25441 -7.25809 -7.26174 -7.26538 -7.26895 -7.27247 -7.27592 -7.27933 -7.28272 -7.28607 -7.28939 -7.29259 -7.29572 -7.29884 -7.30194 -7.30503 -7.30796 -7.31078 -7.31361 -7.31643 -7.31925 -7.32189 -7.3244 -7.32691 -7.32942 -7.33194 -7.33427 -7.33643 -7.33859 -7.34077 -7.34296 -7.34495 -7.34674 -7.34853 -7.35035 -7.35217 -7.35381 -7.3552 -7.35658 -7.35801 -7.35944 -7.36067 -7.36165 -7.3626 -7.36361 -7.36457 -7.36536 -7.36595 -7.36644 -7.367 -7.36745 -7.36777 -7.36796 -7.36796 -7.36804 -7.36793 -7.36775 -7.36751 -7.36698 -7.36655 -7.36585 -7.36513 -7.36442 -7.36337 -7.36234 -7.36105 -7.35977 -7.35849 -7.35696 -7.35527 -7.35338 -7.3515 -7.34962 -7.34759 -7.34519 -7.34267 -7.34015 -7.33764 -7.33509 -7.33396 -7.33279 -7.33162 -7.33046 -7.32932 -7.32733 -7.32535 -7.32336 -7.32138 -7.31932 -7.31558 -7.31176 -7.30794 -7.30412 -7.3001 -7.2958 -7.29125 -7.2867 -7.28216 -7.27728 -7.27239 -7.26708 -7.26178 -7.25648 -7.25068 -7.24511 -7.23909 -7.233 -7.22676 -7.22014 -7.21378 -7.20712 -7.20022 -7.19298 -7.18552 -7.17832 -7.17102 -7.16326 -7.15499 -7.14666 -7.13859 -7.13052 -7.12186 -7.11262 -7.10339 -7.09443 -7.08547 -7.07591 -7.06574 -7.05557 -7.04568 -7.0358 -7.02532 -7.01419 -7.00306 -6.99222 -6.98125 -6.96975 -6.95782 -6.9457 -6.93388 -6.92169 -6.90918 -6.8965 -6.88337 -6.87054 -6.85708 -6.84354 -6.83001 -6.81592 -6.80188 -6.78728 -6.77269 -6.7581 -6.74323 -6.72784 -6.71217 -6.6965 -6.68084 -6.66518 -6.66514 -6.6651 -6.66505 -6.66501 -6.66497 -6.64838 -6.63179 -6.61522 -6.59865 -6.58181 -6.56434 -6.5466 -6.52887 -6.51115 -6.49286 -6.47454 -6.45568 -6.43683 -6.41779 -6.39824 -6.37878 -6.35907 -6.33907 -6.31857 -6.29785 -6.27724 -6.25663 -6.2354 -6.21351 -6.19162 -6.16983 -6.14806 -6.12562 -6.10254 -6.07946 -6.0565 -6.03346 -6.00973 -5.9856 -5.96133 -5.93717 -5.91255 -5.88762 -5.86263 -5.83715 -5.81171 -5.78557 -5.75943 -5.73329 -5.7069 -5.68735 -5.66751 -5.64766 -5.62782 -5.60895 -5.60127 -5.59359 -5.58592 -5.57824 -5.57049 -5.54205 -5.51357 -5.48509 -5.45663 -5.42777 -5.39835 -5.36866 -5.33897 -5.30918 -5.27891 -5.24833 -5.2176 -5.18671 -5.15538 -5.12391 -5.09211 -5.06033 -5.02813 -4.99545 -4.96277 -4.92977 -4.89678 -4.86328 -4.8294 -4.79551 -4.76132 -4.72686 -4.69209 -4.65725 -4.62219 -4.58677 -4.55081 -4.51486 -4.47892 -4.44285 -4.42324 -4.40343 -4.38363 -4.36383 -4.34469 -4.32729 -4.30989 -4.29249 -4.2751 -4.25752 -4.21946 -4.18129 -4.14314 -4.10499 -4.06625 -4.02725 -3.98802 -3.94874 -3.90913 -3.86921 -3.82909 -3.78897 -3.7485 -3.7075 -3.66649 -3.62527 -3.58406 -3.54234 -3.50028 -3.45821 -3.41593 -3.37336 -3.3305 -3.28762 -3.24452 -3.20109 -3.15721 -3.11333 -3.06946 -3.02555 -3.01916 -3.01271 -3.00626 -2.99982 -2.99342 -2.95505 -2.9167 -2.87834 -2.84 -2.80128 -2.75571 -2.70997 -2.66425 -2.61835 -2.57202 -2.52556 -2.47908 -2.43243 -2.38522 -2.338 -2.29065 -2.2433 -2.19553 -2.14748 -2.09942 -2.05121 -2.00274 -1.95403 -1.90533 -1.85646 -1.81017 -1.76354 -1.71691 -1.6703 -1.62607 -1.62272 -1.61938 -1.61604 -1.61269 -1.60932 -1.55913 -1.50894 -1.45876 -1.4086 -1.35798 -1.3072 -1.25634 -1.20547 -1.15432 -1.10295 -1.0515 -1.00006 -0.948394 -0.896444 -0.844469 -0.7924 -0.740251 -0.687797 -0.635327 -0.582794 -0.530142 -0.47714 -0.424147 -0.371164 -0.318146 -0.311916 -0.305652 -0.299388 -0.293124 -0.286898 -0.239657 -0.192423 -0.145196 -0.0979773 -0.0504488 0.00347801 0.0574146 0.111344 0.165463 0.219752 0.274099 0.328436 0.382876 0.437447 0.492053 0.546731 0.60148 0.656381 0.711264 0.766147 0.812668 0.859341 0.906007 0.952666 0.997452 1.00632 1.0152 1.02407 1.03294 1.04185 1.09728 1.15269 1.2081 1.2635 1.31915 1.3748 1.43042 1.48599 1.5417 1.59747 1.65325 1.70903 1.76491 1.8207 1.87652 1.93238 1.98829 2.04421 2.10012 2.15603 2.16706 2.17809 2.18913 2.20016 2.2111 2.25607 2.30104 2.34601 2.39096 2.436 2.49209 2.54806 2.60399 2.65993 2.71593 2.77192 2.82789 2.88383 2.93962 2.99546 3.05129 3.10708 3.16285 3.21861 3.27433 3.28892 3.30349 3.31806 3.33263 3.34705 3.38816 3.42927 3.47038 3.51148 3.55256 3.60817 3.66363 3.71904 3.77436 3.82969 3.885 3.9403 3.99547 4.0504 4.10537 4.16032 4.21511 4.26986 4.32461 4.37936 4.38428 4.38917 4.39407 4.39896 4.40384 4.45347 4.50309 4.55271 4.60231 4.65178 4.70609 4.76031 4.81437 4.86819 4.92206 4.97587 5.02965 5.08319 5.13662 5.18994 5.22881 5.26748 5.30613 5.34477 5.38261 5.39717 5.41173 5.42629 5.44084 5.45533 5.5081 5.56073 5.61335 5.66586 5.71823 5.77049 5.82275 5.87472 5.92639 5.9781 6.02972 6.08111 6.13236 6.18362 6.23478 6.24565 6.25646 6.26725 6.27805 6.28879 6.32879 6.36878 6.40877 6.44873 6.48847 6.53884 6.58911 6.63921 6.68895 6.73871 6.78834 6.83789 6.88712 6.93627 6.98525 7.01406 7.04267 7.07123 7.0998 7.12816 7.1482 7.16824 7.18828 7.20829 7.22815 7.27636 7.3243 7.37224 7.41987 7.46737 7.51476 7.56215 7.60912 7.65582 7.70246 7.73749 7.77222 7.80687 7.84152 7.87612 7.88761 7.89911 7.9106 7.92207 7.93345 7.97913 8.02465 8.07018 8.11544 8.16046 8.20537 8.25027 8.29479 8.3389 8.38301 8.41961 8.45588 8.49205 8.52822 8.56472 8.57201 8.5793 8.5866 8.59387 8.60108 8.64409 8.68699 8.7299 8.77258 8.81495 8.85717 8.8994 8.94123 8.98265 9.02405 9.06096 9.09749 9.13392 9.17035 9.20762 9.21178 9.21595 9.22011 9.22426 9.22838 9.26856 9.30869 9.34881 9.38876 9.42833 9.46773 9.50712 9.54613 9.58473 9.62329 9.66168 9.69967 9.73753 9.7754 9.81322 9.81393 9.81462 9.81532 9.81601 9.81671 9.85323 9.88975 9.92627 9.96269 9.99868 10.0351 10.0716 10.1077 10.1433 10.179 10.2144 10.2496 10.2845 10.3194 10.3541 10.3638 10.3733 10.3829 10.3924 10.4021 10.4267 10.4512 10.4758 10.5003 10.5245 10.5579 10.5912 10.6244 10.6571 10.6898 10.7221 10.7545 10.7864 10.8182 10.8498 10.8752 10.9003 10.9254 10.9505 10.9774 10.9828 10.9883 10.9938 10.9993 11.0047 11.0349 11.065 11.0952 11.1252 11.1549 11.1842 11.2135 11.2425 11.2713 11.3 11.3284 11.3566 11.3843 11.4117 11.4386 11.4633 11.489 11.5147 11.5404 11.5705 11.5715 11.5726 11.5736 11.5746 11.5757 11.5992 11.6225 11.6457 11.6689 11.6867 11.7032 11.7253 11.7496 11.7814 11.8174 11.8528 11.8881 11.9087 11.9146 11.9205 11.925 11.9335 11.9433 11.9531 11.9643 11.9651 11.966 11.9669 11.9679 11.9693 11.9825 11.9956 12.0086 12.0213 12.0333 12.0445 12.0556 12.065 12.0727 12.0803 12.0869 12.0926 12.0976 12.1026 12.107 12.1077 12.108 12.1082 12.1084 12.1086 12.1102 12.1116 12.1131 12.1144 12.1146 12.1134 12.1112 12.1083 12.1039 12.0991 12.0925 12.0858 12.0772 12.0668 12.0561 12.0434 12.0285 12.0132 11.9977 11.9817 11.9774 11.9726 11.9678 11.963 11.9579 11.9414 11.9248 11.9082 11.8915 11.873 11.8461 11.8171 11.7877 11.7565 11.724 11.6882 11.6523 11.6132 11.571 11.5287 11.4828 11.4359 11.3858 11.3344 11.281 11.2237 11.1618 11.0998 11.0379 10.9746 10.951 10.9261 10.9012 10.8763 10.849 10.8003 10.7515 10.7026 10.6537 10.6026 10.517 10.4287 10.3402 10.251 10.157 10.0574 9.9548 9.84924 9.7384 9.62568 9.50679 9.38783 9.26313 9.13304 9.00282 8.86592 8.72895 8.58115 8.42249 8.26364 8.09716 7.92972 7.76103 7.59163 7.42089 7.24219 7.03544 6.82594 6.6165 6.3877 6.15331 5.93718 5.72099 5.50475 5.29386 5.18401 5.05072 4.91752 4.78442 4.62836 4.45291 4.2773 4.10154 3.92562 3.72233 3.41137 3.15004 2.888 2.62529 2.49436 2.36313 1.928 1.4979 0.941046 0