# vtk DataFile Version 2.0
track0
ASCII
DATASET POLYDATA
POINTS 11930 float
-0.0205 0.001 1e-005
-0.0203851 0.00100536 1.50242e-005
-0.0202701 0.00101047 1.96638e-005
-0.0201551 0.00101535 2.39717e-005
-0.0200401 0.00102 2.7943e-005
-0.0198624 0.00102682 3.35509e-005
-0.0196933 0.00103276 3.80976e-005
-0.0195242 0.00103809 4.16126e-005
-0.0193551 0.00104281 4.41051e-005
-0.019186 0.00104692 4.55843e-005
-0.0190172 0.00105042 4.60587e-005
-0.0187132 0.00105593 4.60587e-005
-0.0184093 0.00106079 4.60587e-005
-0.0181054 0.00106514 4.60587e-005
-0.0178014 0.00106896 4.60587e-005
-0.0174976 0.00107226 4.60587e-005
-0.0172058 0.00107513 4.60587e-005
-0.016914 0.00107792 4.60587e-005
-0.0166222 0.00108065 4.60587e-005
-0.0163305 0.00108331 4.60587e-005
-0.0160387 0.00108591 4.60587e-005
-0.0157586 0.00108831 4.60587e-005
-0.0154784 0.00109063 4.60587e-005
-0.0151983 0.00109287 4.60587e-005
-0.0149182 0.00109503 4.60587e-005
-0.0146381 0.00109711 4.60587e-005
-0.0143692 0.00109898 4.60587e-005
-0.0141002 0.00110075 4.60587e-005
-0.0138313 0.00110244 4.60587e-005
-0.0135624 0.00110406 4.60587e-005
-0.0132934 0.00110561 4.60587e-005
-0.0130353 0.00110701 4.60587e-005
-0.0127771 0.00110836 4.60587e-005
-0.0125189 0.00110967 4.60587e-005
-0.0122607 0.00111095 4.60587e-005
-0.0120025 0.00111218 4.60587e-005
-0.0117547 0.00111334 4.60587e-005
-0.0115068 0.00111447 4.60587e-005
-0.0112589 0.00111559 4.60587e-005
-0.0110111 0.00111669 4.60587e-005
-0.0107632 0.00111777 4.60587e-005
-0.0105252 0.00111879 4.60587e-005
-0.0102873 0.00111979 4.60587e-005
-0.0100493 0.00112079 4.60587e-005
-0.00981133 0.00112177 4.60587e-005
-0.00957337 0.00112274 4.60587e-005
-0.00934491 0.00112366 4.60587e-005
-0.00911645 0.00112456 4.60587e-005
-0.00888799 0.00112546 4.60587e-005
-0.00865954 0.00112635 4.60587e-005
-0.00843108 0.00112723 4.60587e-005
-0.00821175 0.00112806 4.60587e-005
-0.00799242 0.00112889 4.60587e-005
-0.00777309 0.00112971 4.60587e-005
-0.00755376 0.00113053 4.60587e-005
-0.00733443 0.00113134 4.60587e-005
-0.00712387 0.00113211 4.60587e-005
-0.0069133 0.00113287 4.60587e-005
-0.00670273 0.00113364 4.60587e-005
-0.00649216 0.00113439 4.60587e-005
-0.0062816 0.00113515 4.60587e-005
-0.00607944 0.00113588 4.60587e-005
-0.00587729 0.00113659 4.60587e-005
-0.00567514 0.00113731 4.60587e-005
-0.00547298 0.00113802 4.60587e-005
-0.00527083 0.00113874 4.60587e-005
-0.00507675 0.00113943 4.60587e-005
-0.00488267 0.00114011 4.60587e-005
-0.0046886 0.00114079 4.60587e-005
-0.00449452 0.00114147 4.60587e-005
-0.00430044 0.00114215 4.60587e-005
-0.00411412 0.0011428 4.60587e-005
-0.0039278 0.00114345 4.60587e-005
-0.00374147 0.0011441 4.60587e-005
-0.00355515 0.00114475 4.60587e-005
-0.00336883 0.0011454 4.60587e-005
-0.00318995 0.00114604 4.60587e-005
-0.00301107 0.00114666 4.60587e-005
-0.00283219 0.00114728 4.60587e-005
-0.00265331 0.00114791 4.60587e-005
-0.00247443 0.00114854 4.60587e-005
-0.0023027 0.00114915 4.60587e-005
-0.00213097 0.00114976 4.60587e-005
-0.00195924 0.00115036 4.60587e-005
-0.0017875 0.00115097 4.60587e-005
-0.00161577 0.00115158 4.60587e-005
-0.0014509 0.00115217 4.60587e-005
-0.00128603 0.00115276 4.60587e-005
-0.00112116 0.00115335 4.60587e-005
-0.000956289 0.00115394 4.60587e-005
-0.000791418 0.00115454 4.60587e-005
-0.000633135 0.00115513 4.60587e-005
-0.000474851 0.00115571 4.60587e-005
-0.000316567 0.00115629 4.60587e-005
-0.000158284 0.00115688 4.60587e-005
0 0.00115748 4.60587e-005
0.000105677 0.00115789 4.60587e-005
0.000211355 0.00115829 4.60587e-005
0.000317032 0.00115869 4.60587e-005
0.00042271 0.0011591 4.60587e-005
0.000528387 0.00115952 4.60587e-005
0.000634886 0.00115995 4.60587e-005
0.000741385 0.00116037 4.60587e-005
0.000847885 0.0011608 4.60587e-005
0.000954384 0.00116123 4.60587e-005
0.00106088 0.00116166 4.60587e-005
0.00116821 0.00116212 4.60587e-005
0.00127554 0.00116257 4.60587e-005
0.00138286 0.00116302 4.60587e-005
0.00149019 0.00116348 4.60587e-005
0.00159752 0.00116394 4.60587e-005
0.00170568 0.00116442 4.60587e-005
0.00181384 0.0011649 4.60587e-005
0.001922 0.00116537 4.60587e-005
0.00203016 0.00116585 4.60587e-005
0.00213833 0.00116634 4.60587e-005
0.00224733 0.00116683 4.60587e-005
0.00235633 0.00116732 4.60587e-005
0.00246533 0.00116782 4.60587e-005
0.00257434 0.00116832 4.60587e-005
0.00268334 0.00116881 4.60587e-005
0.00279319 0.00116931 4.60587e-005
0.00290304 0.00116982 4.60587e-005
0.00301289 0.00117034 4.60587e-005
0.00312274 0.00117085 4.60587e-005
0.00323259 0.00117136 4.60587e-005
0.00334329 0.00117186 4.60587e-005
0.003454 0.00117238 4.60587e-005
0.0035647 0.00117291 4.60587e-005
0.0036754 0.00117343 4.60587e-005
0.00378611 0.00117395 4.60587e-005
0.00389767 0.00117446 4.60587e-005
0.00400924 0.00117499 4.60587e-005
0.0041208 0.00117552 4.60587e-005
0.00423237 0.00117606 4.60587e-005
0.00434393 0.00117658 4.60587e-005
0.00445636 0.0011771 4.60587e-005
0.00456879 0.00117763 4.60587e-005
0.00468123 0.00117817 4.60587e-005
0.00479366 0.00117871 4.60587e-005
0.00490609 0.00117924 4.60587e-005
0.0050194 0.00117976 4.60587e-005
0.0051327 0.0011803 4.60587e-005
0.00524601 0.00118084 4.60587e-005
0.00535931 0.00118138 4.60587e-005
0.00547262 0.00118192 4.60587e-005
0.00558681 0.00118244 4.60587e-005
0.005701 0.00118298 4.60587e-005
0.00581518 0.00118352 4.60587e-005
0.00592937 0.00118406 4.60587e-005
0.00604356 0.0011846 4.60587e-005
0.00615863 0.00118512 4.60587e-005
0.00627371 0.00118566 4.60587e-005
0.00638878 0.00118621 4.60587e-005
0.00650386 0.00118675 4.60587e-005
0.00661893 0.00118729 4.60587e-005
0.0067349 0.00118781 4.60587e-005
0.00685087 0.00118835 4.60587e-005
0.00696684 0.00118889 4.60587e-005
0.00708281 0.00118943 4.60587e-005
0.00719878 0.00118997 4.60587e-005
0.00731565 0.00119049 4.60587e-005
0.00743252 0.00119102 4.60587e-005
0.00754939 0.00119156 4.60587e-005
0.00766626 0.00119209 4.60587e-005
0.00778313 0.00119262 4.60587e-005
0.00790091 0.00119314 4.60587e-005
0.00801869 0.00119367 4.60587e-005
0.00813647 0.0011942 4.60587e-005
0.00825425 0.00119473 4.60587e-005
0.00837203 0.00119526 4.60587e-005
0.00849073 0.00119578 4.60587e-005
0.00860942 0.0011963 4.60587e-005
0.00872812 0.00119682 4.60587e-005
0.00884682 0.00119735 4.60587e-005
0.00896551 0.00119787 4.60587e-005
0.00908513 0.00119838 4.60587e-005
0.00920475 0.0011989 4.60587e-005
0.00932437 0.00119942 4.60587e-005
0.00944398 0.00119993 4.60587e-005
0.0095636 0.00120044 4.60587e-005
0.00968415 0.00120095 4.60587e-005
0.0098047 0.00120146 4.60587e-005
0.00992525 0.00120197 4.60587e-005
0.0100458 0.00120248 4.60587e-005
0.0101663 0.00120298 4.60587e-005
0.0102878 0.00120348 4.60587e-005
0.0104093 0.00120399 4.60587e-005
0.0105308 0.00120449 4.60587e-005
0.0106523 0.00120499 4.60587e-005
0.0107738 0.00120548 4.60587e-005
0.0108962 0.00120597 4.60587e-005
0.0110186 0.00120647 4.60587e-005
0.0111411 0.00120696 4.60587e-005
0.0112635 0.00120745 4.60587e-005
0.0113859 0.00120794 4.60587e-005
0.0115093 0.00120842 4.60587e-005
0.0116327 0.0012089 4.60587e-005
0.0117561 0.00120939 4.60587e-005
0.0118795 0.00120986 4.60587e-005
0.0120028 0.00121034 4.60587e-005
0.0121272 0.00121081 4.60587e-005
0.0122515 0.00121129 4.60587e-005
0.0123759 0.00121176 4.60587e-005
0.0125002 0.00121222 4.60587e-005
0.0126245 0.00121269 4.60587e-005
0.0127498 0.00121315 4.60587e-005
0.0128752 0.00121361 4.60587e-005
0.0130005 0.00121407 4.60587e-005
0.0131258 0.00121452 4.60587e-005
0.0132511 0.00121498 4.60587e-005
0.0133774 0.00121542 4.60587e-005
0.0135036 0.00121587 4.60587e-005
0.0136299 0.00121631 4.60587e-005
0.0137562 0.00121675 4.60587e-005
0.0138825 0.00121719 4.60587e-005
0.0140098 0.00121762 4.60587e-005
0.014137 0.00121805 4.60587e-005
0.0142643 0.00121848 4.60587e-005
0.0143915 0.0012189 4.60587e-005
0.0145188 0.00121932 4.60587e-005
0.0146471 0.00121973 4.60587e-005
0.0147753 0.00122015 4.60587e-005
0.0149036 0.00122056 4.60587e-005
0.0150318 0.00122096 4.60587e-005
0.0151601 0.00122136 4.60587e-005
0.0152893 0.00122175 4.60587e-005
0.0154186 0.00122215 4.60587e-005
0.0155478 0.00122254 4.60587e-005
0.0156771 0.00122292 4.60587e-005
0.0158063 0.0012233 4.60587e-005
0.0159366 0.00122367 4.60587e-005
0.0160668 0.00122404 4.60587e-005
0.0161971 0.0012244 4.60587e-005
0.0163274 0.00122476 4.60587e-005
0.0164576 0.00122512 4.60587e-005
0.0165889 0.00122546 4.60587e-005
0.0167201 0.00122581 4.60587e-005
0.0168514 0.00122614 4.60587e-005
0.0169827 0.00122648 4.60587e-005
0.0171139 0.0012268 4.60587e-005
0.017201 0.00122701 4.60587e-005
0.017288 0.00122722 4.60587e-005
0.0173751 0.00122743 4.60587e-005
0.0174621 0.00122763 4.60587e-005
0.0175466 0.00122782 4.60587e-005
0.0175923 0.00122793 4.60587e-005
0.0176381 0.00122803 4.60587e-005
0.0176839 0.00122813 4.60587e-005
0.0177296 0.00122823 4.60587e-005
0.0177754 0.00122833 4.60587e-005
0.0179087 0.00122862 4.60587e-005
0.018042 0.0012289 4.60587e-005
0.0181753 0.00122918 4.60587e-005
0.0183087 0.00122945 4.60587e-005
0.018442 0.00122971 4.60587e-005
0.0185763 0.00122996 4.60587e-005
0.0187107 0.0012302 4.60587e-005
0.018845 0.00123044 4.60587e-005
0.0189794 0.00123067 4.60587e-005
0.0191137 0.00123089 4.60587e-005
0.0192491 0.0012311 4.60587e-005
0.0193845 0.00123131 4.60587e-005
0.0195199 0.00123151 4.60587e-005
0.0196553 0.0012317 4.60587e-005
0.0197907 0.00123188 4.60587e-005
0.0199272 0.00123205 4.60587e-005
0.0200636 0.00123221 4.60587e-005
0.0202001 0.00123236 4.60587e-005
0.0203365 0.00123251 4.60587e-005
0.020473 0.00123264 4.60587e-005
0.0206105 0.00123277 4.60587e-005
0.020748 0.00123289 4.60587e-005
0.0208855 0.00123299 4.60587e-005
0.021023 0.00123309 4.60587e-005
0.0211606 0.00123318 4.60587e-005
0.0212991 0.00123326 4.60587e-005
0.0214377 0.00123332 4.60587e-005
0.0215763 0.00123338 4.60587e-005
0.0217149 0.00123343 4.60587e-005
0.0218535 0.00123346 4.60587e-005
0.0219931 0.00123349 4.60587e-005
0.0221328 0.00123351 4.60587e-005
0.0222724 0.00123351 4.60587e-005
0.0224121 0.0012335 4.60587e-005
0.0225517 0.00123349 4.60587e-005
[...]
POINT_DATA 11930
 FIELD attributes 2
p 1 11930 float
-1547.94 -1535.35 -1521.55 -1507.9 -1494.4 -1473.79 -1459.13 -1444.4 -1429.59 -1414.71 -1393.95 -1345.85 -1297.83 -1249.88 -1202 -1159.58 -1127.98 -1102.55 -1077.13 -1051.73 -1034.92 -1023.13 -1013.62 -1004.1 -994.595 -986.941 -980.11 -972.169 -964.228 -956.286 -947.265 -938.814 -930.177 -921.536 -912.914 -904.523 -896.578 -889.401 -882.313 -875.374 -869.333 -863.575 -858.38 -853.305 -848.379 -844.026 -839.867 -835.932 -832.065 -828.283 -824.739 -821.336 -818.066 -814.85 -811.707 -808.717 -805.823 -803.057 -800.359 -797.743 -795.271 -792.854 -790.549 -788.317 -786.172 -784.151 -782.153 -780.238 -778.388 -776.617 -774.939 -773.258 -771.641 -770.083 -768.598 -767.188 -765.75 -764.361 -763.027 -761.762 -760.558 -759.307 -758.101 -756.952 -755.879 -754.86 -753.773 -752.714 -751.699 -750.759 -749.866 -748.884 -747.951 -747.105 -746.379 -745.717 -744.981 -744.306 -743.741 -743.313 -742.966 -742.456 -741.986 -741.573 -741.253 -741.003 -740.584 -740.271 -740.077 -739.998 -740.031 -739.892 -739.842 -739.871 -739.963 -740.129 -740.255 -740.369 -740.474 -740.566 -740.639 -740.917 -741.089 -741.198 -741.246 -741.178 -741.557 -741.765 -741.893 -741.939 -741.783 -742.237 -742.471 -742.627 -742.696 -742.493 -742.974 -743.193 -743.343 -743.419 -743.176 -743.618 -743.786 -743.901 -743.967 -743.708 -744.077 -744.2 -744.294 -744.362 -744.139 -744.434 -744.535 -744.623 -744.704 -744.547 -744.772 -744.851 -744.93 -745.008 -744.919 -745.069 -745.13 -745.191 -745.252 -745.221 -745.312 -745.363 -745.414 -745.466 -745.484 -745.542 -745.596 -745.649 -745.702 -745.759 -745.806 -745.864 -745.922 -745.98 -746.06 -746.109 -746.171 -746.234 -746.297 -746.388 -746.449 -746.518 -746.587 -746.656 -746.748 -746.831 -746.91 -746.989 -747.068 -747.158 -747.268 -747.361 -747.453 -747.546 -747.634 -747.772 -747.879 -747.986 -748.093 -748.181 -748.342 -748.463 -748.583 -748.703 -748.793 -748.973 -749.105 -749.237 -749.369 -749.464 -749.657 -749.801 -749.946 -750.09 -750.196 -750.397 -750.554 -750.71 -750.867 -750.988 -751.195 -751.363 -751.532 -751.7 -751.841 -752.052 -752.236 -752.419 -752.603 -752.769 -752.986 -753.187 -753.387 -753.588 -753.782 -753.929 -754.07 -754.212 -754.353 -754.49 -754.564 -754.638 -754.712 -754.787 -754.873 -755.088 -755.315 -755.541 -755.768 -756.04 -756.238 -756.477 -756.715 -756.954 -757.269 -757.454 -757.704 -757.955 -758.205 -758.556 -758.734 -758.995 -759.257 -759.519 -759.898 -760.075 -760.347 -760.62 -760.892 -761.291 -761.475 -761.758 -762.042 -762.325 -762.734 -762.933 -763.227 -763.52 -763.814 -764.225 -764.446 -764.75 -765.054 -765.357 -765.761 -766.011 -766.324 -766.637 -766.951 -767.341 -767.623 -767.946 -768.268 -768.59 -768.96 -769.279 -769.61 -769.94 -770.271 -770.617 -770.974 -771.313 -771.652 -771.99 -772.31 -772.703 -773.052 -773.399 -773.74 -774.039 -774.459 -774.824 -775.178 -775.517 -775.8 -776.243 -776.627 -776.988 -777.321 -777.594 -778.053 -778.456 -778.825 -779.15 -779.42 -779.891 -780.315 -780.691 -781.01 -781.282 -781.764 -782.208 -782.593 -782.905 -783.179 -783.669 -784.133 -784.524 -784.827 -785.103 -785.597 -786.077 -786.472 -786.764 -787.043 -787.533 -788.023 -788.417 -788.702 -788.988 -789.471 -789.954 -790.345 -790.641 -790.936 -791.408 -791.881 -792.272 -792.579 -792.886 -793.346 -793.806 -794.196 -794.515 -794.833 -795.279 -795.724 -796.112 -796.443 -796.772 -797.202 -797.632 -798.017 -798.357 -798.696 -799.11 -799.524 -799.904 -800.252 -800.599 -800.996 -801.394 -801.769 -802.121 -802.474 -802.855 -803.236 -803.604 -803.96 -804.315 -804.681 -805.045 -805.406 -805.762 -806.118 -806.467 -806.818 -807.17 -807.522 -807.874 -808.208 -808.545 -808.886 -809.23 -809.576 -809.894 -810.218 -810.548 -810.88 -811.217 -811.518 -811.83 -812.145 -812.463 -812.788 -813.073 -813.372 -813.672 -813.973 -814.285 -814.553 -814.836 -815.12 -815.404 -815.697 -815.948 -816.213 -816.478 -816.743 -817.018 -817.251 -817.496 -817.741 -817.986 -818.24 -818.453 -818.677 -818.901 -819.125 -819.356 -819.55 -819.751 -819.952 -820.154 -820.359 -820.521 -820.687 -820.853 -821.02 -821.178 -821.191 -821.205 -821.218 -821.232 -821.245 -821.399 -821.552 -821.706 -821.859 -822.011 -822.139 -822.264 -822.389 -822.515 -822.636 -822.737 -822.833 -822.929 -823.024 -823.115 -823.188 -823.253 -823.318 -823.383 -823.44 -823.484 -823.516 -823.549 -823.581 -823.602 -823.616 -823.614 -823.611 -823.606 -823.59 -823.568 -823.533 -823.493 -823.448 -823.393 -823.334 -823.265 -823.185 -823.097 -823.001 -822.903 -822.797 -822.677 -822.542 -822.403 -822.262 -822.119 -821.954 -821.77 -821.585 -821.399 -821.213 -821.001 -820.767 -820.533 -820.3 -820.066 -819.806 -819.521 -819.236 -818.951 -818.666 -818.356 -818.016 -817.677 -817.338 -817 -816.636 -816.239 -815.843 -815.448 -815.05 -814.626 -814.174 -813.717 -813.262 -812.796 -812.31 -811.804 -811.284 -810.765 -810.226 -809.675 -809.113 -808.526 -807.94 -807.325 -806.705 -806.085 -805.429 -804.77 -804.078 -803.387 -802.696 -801.979 -801.238 -800.472 -799.708 -798.943 -798.163 -797.336 -796.494 -795.653 -794.812 -793.967 -793.697 -793.423 -793.149 -792.876 -792.607 -791.964 -791.32 -790.677 -790.033 -789.379 -788.395 -787.399 -786.404 -785.409 -784.387 -783.337 -782.258 -781.18 -780.102 -778.978 -777.862 -776.698 -775.535 -774.365 -773.144 -771.945 -770.709 -769.459 -768.183 -766.873 -765.586 -764.281 -762.942 -761.557 -760.156 -758.779 -757.403 -755.97 -754.478 -752.987 -751.518 -750.05 -748.525 -746.94 -745.356 -743.795 -742.235 -740.615 -738.936 -737.258 -735.603 -733.94 -732.219 -730.459 -728.686 -726.936 -725.152 -723.336 -721.502 -719.633 -717.787 -715.882 -713.968 -712.055 -710.096 -708.135 -706.124 -704.113 -702.103 -700.071 -698.221 -696.347 -694.474 -692.601 -690.836 -690.582 -690.327 -690.072 -689.818 -689.559 -687.37 -685.178 -682.986 -680.795 -678.573 -676.311 -674.022 -671.734 -669.446 -667.097 -664.757 -662.379 -659.994 -657.583 -655.133 -652.696 -650.248 -647.768 -645.229 -642.683 -640.15 -637.618 -635.033 -632.391 -629.749 -627.121 -624.493 -621.807 -619.07 -616.334 -613.611 -610.865 -608.077 -605.272 -602.442 -599.625 -596.752 -593.87 -590.989 -588.076 -585.141 -582.166 -579.192 -576.219 -573.242 -572.881 -572.516 -572.151 -571.786 -571.424 -568.728 -566.034 -563.34 -560.646 -557.93 -554.796 -551.648 -548.501 -545.354 -542.161 -538.947 -535.718 -532.483 -529.223 -525.943 -522.642 -519.342 -516.015 -512.649 -509.283 -505.896 -502.509 -499.088 -495.639 -492.189 -488.718 -485.235 -481.722 -478.202 -474.67 -471.117 -467.528 -463.935 -460.342 -456.737 -453.811 -450.865 -447.919 -444.973 -442.157 -441.407 -440.656 -439.906 -439.155 -438.399 -434.659 -430.917 -427.175 -423.434 -419.659 -415.86 -412.043 -408.228 -404.397 -400.538 -396.666 -392.792 -388.905 -384.977 -381.049 -377.107 -373.165 -369.194 -365.2 -361.205 -357.196 -353.175 -349.129 -345.079 -341.02 -336.947 -332.838 -328.73 -324.623 -320.51 -318.668 -316.817 -314.966 -313.115 -311.306 -308.983 -306.661 -304.339 -302.017 -299.681 -295.466 -291.246 -287.027 -282.805 -278.551 -274.286 -270.018 -265.746 -261.449 -257.144 -252.828 -248.513 -244.18 -239.829 -235.477 -231.113 -226.744 -222.354 -217.963 -213.567 -209.16 -204.729 -200.298 -195.867 -191.434 -189.866 -188.292 -186.719 -185.145 -183.598 -180.697 -177.797 -174.897 -171.997 -169.084 -164.582 -160.079 -155.576 -151.068 -146.542 -142.008 -137.474 -132.94 -128.387 -123.832 -119.269 -114.707 -110.13 -105.551 -100.969 -96.3787 -91.7807 -87.178 -82.5757 -77.9739 -74.7191 -71.4598 -68.2007 -64.9419 -61.7841 -60.403 -59.0219 -57.6409 -56.2599 -54.8759 -50.2383 -45.6026 -40.9673 -36.3318 -31.6836 -27.0301 -22.3793 -17.7321 -13.0772 -8.41937 -3.75564 0.907515 5.57301 10.2334 14.8959 19.565 24.235 28.9054 33.5754 38.2402 41.1135 43.9865 46.8592 49.7318 52.533 54.347 56.1609 57.9748 59.7886 61.6033 66.2816 70.9544 75.6268 80.2986 84.9719 89.6489 94.3241 98.9886 103.65 108.313 112.981 117.648 122.308 126.96 131.61 136.265 140.911 145.557 150.202 154.846 155.63 156.412 157.195 157.977 158.755 162.611 166.466 170.321 174.176 178.025 182.658 187.279 191.896 196.506 201.115 205.725 210.334 214.931 219.512 224.095 228.68 233.255 237.824 242.393 246.953 248.921 250.883 252.844 254.806 256.739 259.331 261.922 264.514 267.105 269.689 274.226 278.748 283.27 287.782 292.289 296.794 301.298 305.785 310.254 314.726 319.195 323.654 328.102 332.551 336.989 338.952 340.906 342.86 344.813 346.741 349.212 351.683 354.154 356.625 359.086 363.488 367.875 372.261 376.635 381.003 385.364 389.725 394.067 398.39 402.714 407.032 411.334 415.628 419.922 424.211 425.201 426.186 427.17 428.154 429.132 432.412 435.692 438.973 442.252 445.516 449.752 453.979 458.2 462.399 466.598 470.785 474.973 479.136 483.289 487.439 490.838 494.218 497.595 500.973 504.287 505.039 505.79 506.541 507.292 508.039 512.126 516.208 520.289 524.363 528.421 532.464 536.507 540.53 544.532 548.537 552.525 556.497 560.459 564.42 568.376 569.228 570.075 570.921 571.768 572.611 575.688 578.764 581.841 584.914 587.97 591.854 595.735 599.599 603.438 607.278 611.101 614.914 618.706 622.499 626.276 627.743 629.201 630.656 632.111 633.561 635.85 638.139 640.427 642.712 644.982 648.687 652.381 656.065 659.717 663.368 667.001 670.626 674.219 677.81 681.379 682.941 684.494 686.043 687.592 689.148 691.133 693.118 695.104 697.085 699.054 702.555 706.022 709.468 712.83 716.186 719.521 722.882 726.361 729.849 733.387 735.024 736.352 737.583 738.815 740.074 741.722 743.369 745.016 746.563 747.762 749.98 752.829 755.919 760.476 765.245 769.898 773.97 776.41 778.854 780.931 781.099 781.304 781.569 781.833 782.099 783.905 785.713 787.521 789.818 792.434 795.383 798.324 801.127 803.93 806.667 807.225 807.771 808.296 808.822 809.357 811.544 813.73 815.915 818.029 820.099 822.707 825.314 827.826 830.32 832.763 833.394 834.012 834.602 835.192 835.802 837.612 839.42 841.226 842.964 844.656 846.929 849.198 851.309 853.332 855.308 855.998 856.656 857.262 857.868 858.513 859.746 860.976 862.202 863.349 864.432 866.068 867.696 869.125 870.346 871.558 872.227 872.808 873.285 873.761 874.298 874.717 875.134 875.55 875.909 876.204 876.841 877.36 877.775 877.842 877.898 877.819 877.542 877.026 876.504 875.882 875.753 875.578 875.38 875.18 874.973 874.042 873.098 872.143 871.056 869.688 867.875 866.051 863.785 861.108 858.419 855.471 852.137 848.541 844.939 841.154 840.204 839.129 838.033 836.937 835.761 832.189 828.606 825.012 821.369 817.29 811.625 805.655 799.419 792.444 785.36 777.806 770.239 762.1 753.476 744.794 735.588 725.216 714.544 703.869 692.688 687.937 683.178 678.416 673.654 668.239 660.82 653.397 645.97 638.539 631.066 617.224 601.517 585.778 569.091 549.759 529.455 509.75 492.19 478.208 464.299 449.642 434.986 407.525 367.73 327.902 286.278 253.391 236.99 228.348 231.272 234.006 177.375 119.994 62.3193 0