# vtk DataFile Version 2.0
track0
ASCII
DATASET POLYDATA
POINTS 12000 float
-0.0205 0.001 1e-005
-0.020385 0.00100536 1.50261e-005
-0.02027 0.00101047 1.96673e-005
-0.020155 0.00101535 2.39766e-005
-0.0200399 0.00102 2.7949e-005
-0.0198621 0.00102682 3.35579e-005
-0.0196931 0.00103276 3.81026e-005
-0.0195241 0.00103808 4.16162e-005
-0.019355 0.0010428 4.41077e-005
-0.0191859 0.00104691 4.55864e-005
-0.0190172 0.00105041 4.60607e-005
-0.0187132 0.00105592 4.60607e-005
-0.0184093 0.00106078 4.60607e-005
-0.0181054 0.00106513 4.60607e-005
-0.0178014 0.00106895 4.60607e-005
-0.0174976 0.00107225 4.60607e-005
-0.0172058 0.00107512 4.60607e-005
-0.016914 0.00107792 4.60607e-005
-0.0166222 0.00108064 4.60607e-005
-0.0163305 0.0010833 4.60607e-005
-0.0160387 0.00108589 4.60607e-005
-0.0157586 0.00108828 4.60607e-005
-0.0154784 0.00109061 4.60607e-005
-0.0151983 0.00109285 4.60607e-005
-0.0149182 0.001095 4.60607e-005
-0.0146381 0.00109708 4.60607e-005
-0.0143692 0.00109895 4.60607e-005
-0.0141002 0.00110072 4.60607e-005
-0.0138313 0.00110242 4.60607e-005
-0.0135624 0.00110404 4.60607e-005
-0.0132934 0.00110558 4.60607e-005
-0.0130353 0.00110699 4.60607e-005
-0.0127771 0.00110834 4.60607e-005
-0.0125189 0.00110965 4.60607e-005
-0.0122607 0.00111092 4.60607e-005
-0.0120025 0.00111216 4.60607e-005
-0.0117547 0.00111331 4.60607e-005
-0.0115068 0.00111443 4.60607e-005
-0.0112589 0.00111555 4.60607e-005
-0.0110111 0.00111664 4.60607e-005
-0.0107632 0.00111772 4.60607e-005
-0.0105252 0.00111873 4.60607e-005
-0.0102873 0.00111973 4.60607e-005
-0.0100493 0.00112071 4.60607e-005
-0.00981133 0.00112169 4.60607e-005
-0.00957337 0.00112265 4.60607e-005
-0.00934491 0.00112356 4.60607e-005
-0.00911645 0.00112445 4.60607e-005
-0.00888799 0.00112534 4.60607e-005
-0.00865954 0.00112622 4.60607e-005
-0.00843108 0.00112709 4.60607e-005
-0.00821175 0.00112791 4.60607e-005
-0.00799242 0.00112873 4.60607e-005
-0.00777309 0.00112954 4.60607e-005
-0.00755376 0.00113035 4.60607e-005
-0.00733443 0.00113115 4.60607e-005
-0.00712387 0.00113191 4.60607e-005
-0.0069133 0.00113266 4.60607e-005
-0.00670273 0.00113342 4.60607e-005
-0.00649216 0.00113417 4.60607e-005
-0.0062816 0.00113491 4.60607e-005
-0.00607944 0.00113563 4.60607e-005
-0.00587729 0.00113634 4.60607e-005
-0.00567514 0.00113704 4.60607e-005
-0.00547298 0.00113775 4.60607e-005
-0.00527083 0.00113845 4.60607e-005
-0.00507675 0.00113912 4.60607e-005
-0.00488267 0.00113979 4.60607e-005
-0.0046886 0.00114046 4.60607e-005
-0.00449452 0.00114113 4.60607e-005
-0.00430044 0.0011418 4.60607e-005
-0.00411412 0.00114244 4.60607e-005
-0.0039278 0.00114308 4.60607e-005
-0.00374147 0.00114371 4.60607e-005
-0.00355515 0.00114435 4.60607e-005
-0.00336883 0.00114499 4.60607e-005
-0.00318995 0.0011456 4.60607e-005
-0.00301107 0.00114621 4.60607e-005
-0.00283219 0.00114682 4.60607e-005
-0.00265331 0.00114742 4.60607e-005
-0.00247443 0.00114803 4.60607e-005
-0.0023027 0.00114862 4.60607e-005
-0.00213097 0.0011492 4.60607e-005
-0.00195924 0.00114979 4.60607e-005
-0.0017875 0.00115037 4.60607e-005
-0.00161577 0.00115095 4.60607e-005
-0.0014509 0.00115152 4.60607e-005
-0.00128603 0.00115208 4.60607e-005
-0.00112116 0.00115263 4.60607e-005
-0.000956289 0.00115319 4.60607e-005
-0.000791418 0.00115376 4.60607e-005
-0.000633135 0.00115431 4.60607e-005
-0.000474851 0.00115485 4.60607e-005
-0.000316567 0.0011554 4.60607e-005
-0.000158284 0.00115594 4.60607e-005
0 0.00115649 4.60607e-005
0.000105677 0.00115686 4.60607e-005
0.000211355 0.00115723 4.60607e-005
0.000317032 0.00115759 4.60607e-005
0.00042271 0.00115796 4.60607e-005
0.000528387 0.00115833 4.60607e-005
0.000634886 0.00115871 4.60607e-005
0.000741385 0.00115909 4.60607e-005
0.000847885 0.00115946 4.60607e-005
0.000954384 0.00115984 4.60607e-005
0.00106088 0.00116022 4.60607e-005
0.00116821 0.00116062 4.60607e-005
0.00127554 0.00116101 4.60607e-005
0.00138286 0.00116139 4.60607e-005
0.00149019 0.00116177 4.60607e-005
0.00159752 0.00116216 4.60607e-005
0.00170568 0.00116255 4.60607e-005
0.00181384 0.00116294 4.60607e-005
0.001922 0.00116333 4.60607e-005
0.00203016 0.00116371 4.60607e-005
0.00213833 0.00116409 4.60607e-005
0.00224733 0.00116447 4.60607e-005
0.00235633 0.00116485 4.60607e-005
0.00246533 0.00116523 4.60607e-005
0.00257434 0.00116561 4.60607e-005
0.00268334 0.00116599 4.60607e-005
0.00279319 0.00116636 4.60607e-005
0.00290304 0.00116674 4.60607e-005
0.00301289 0.00116713 4.60607e-005
0.00312274 0.00116752 4.60607e-005
0.00323259 0.0011679 4.60607e-005
0.00334329 0.00116827 4.60607e-005
0.003454 0.00116866 4.60607e-005
0.0035647 0.00116906 4.60607e-005
0.0036754 0.00116945 4.60607e-005
0.00378611 0.00116985 4.60607e-005
0.00389767 0.00117022 4.60607e-005
0.00400924 0.00117062 4.60607e-005
0.0041208 0.00117103 4.60607e-005
0.00423237 0.00117144 4.60607e-005
0.00434393 0.00117184 4.60607e-005
0.00445636 0.00117223 4.60607e-005
0.00456879 0.00117264 4.60607e-005
0.00468123 0.00117306 4.60607e-005
0.00479366 0.00117348 4.60607e-005
0.00490609 0.0011739 4.60607e-005
0.0050194 0.00117429 4.60607e-005
0.0051327 0.00117472 4.60607e-005
0.00524601 0.00117515 4.60607e-005
0.00535931 0.00117558 4.60607e-005
0.00547262 0.00117602 4.60607e-005
0.00558681 0.00117643 4.60607e-005
0.005701 0.00117687 4.60607e-005
0.00581518 0.00117731 4.60607e-005
0.00592937 0.00117776 4.60607e-005
0.00604356 0.00117821 4.60607e-005
0.00615863 0.00117864 4.60607e-005
0.00627371 0.00117909 4.60607e-005
0.00638878 0.00117955 4.60607e-005
0.00650386 0.00118 4.60607e-005
0.00661893 0.00118046 4.60607e-005
0.0067349 0.00118091 4.60607e-005
0.00685087 0.00118138 4.60607e-005
0.00696684 0.00118184 4.60607e-005
0.00708281 0.00118231 4.60607e-005
0.00719878 0.00118279 4.60607e-005
0.00731565 0.00118325 4.60607e-005
0.00743252 0.00118373 4.60607e-005
0.00754939 0.00118421 4.60607e-005
0.00766626 0.00118469 4.60607e-005
0.00778313 0.00118517 4.60607e-005
0.00790091 0.00118565 4.60607e-005
0.00801869 0.00118614 4.60607e-005
0.00813647 0.00118663 4.60607e-005
0.00825425 0.00118713 4.60607e-005
0.00837203 0.00118762 4.60607e-005
0.00849073 0.00118811 4.60607e-005
0.00860942 0.00118861 4.60607e-005
0.00872812 0.00118912 4.60607e-005
0.00884682 0.00118962 4.60607e-005
0.00896551 0.00119013 4.60607e-005
0.00908513 0.00119063 4.60607e-005
0.00920475 0.00119114 4.60607e-005
0.00932437 0.00119166 4.60607e-005
0.00944398 0.00119217 4.60607e-005
0.0095636 0.00119268 4.60607e-005
0.00968415 0.0011932 4.60607e-005
0.0098047 0.00119372 4.60607e-005
0.00992525 0.00119424 4.60607e-005
0.0100458 0.00119476 4.60607e-005
0.0101663 0.00119528 4.60607e-005
0.0102878 0.0011958 4.60607e-005
0.0104093 0.00119633 4.60607e-005
0.0105308 0.00119685 4.60607e-005
0.0106523 0.00119738 4.60607e-005
0.0107738 0.00119791 4.60607e-005
0.0108962 0.00119843 4.60607e-005
0.0110186 0.00119896 4.60607e-005
0.0111411 0.00119948 4.60607e-005
0.0112635 0.00120001 4.60607e-005
0.0113859 0.00120053 4.60607e-005
0.0115093 0.00120105 4.60607e-005
0.0116327 0.00120158 4.60607e-005
0.0117561 0.00120211 4.60607e-005
0.0118795 0.00120263 4.60607e-005
0.0120028 0.00120315 4.60607e-005
0.0121272 0.00120366 4.60607e-005
0.0122515 0.00120418 4.60607e-005
0.0123759 0.00120469 4.60607e-005
0.0125002 0.00120521 4.60607e-005
0.0126245 0.00120571 4.60607e-005
0.0127498 0.00120621 4.60607e-005
0.0128752 0.00120671 4.60607e-005
0.0130005 0.00120721 4.60607e-005
0.0131258 0.00120771 4.60607e-005
0.0132511 0.0012082 4.60607e-005
0.0133774 0.00120867 4.60607e-005
0.0135036 0.00120915 4.60607e-005
0.0136299 0.00120963 4.60607e-005
0.0137562 0.00121009 4.60607e-005
0.0138825 0.00121056 4.60607e-005
0.0140098 0.001211 4.60607e-005
0.014137 0.00121145 4.60607e-005
0.0142643 0.00121189 4.60607e-005
0.0143915 0.00121233 4.60607e-005
0.0145188 0.00121275 4.60607e-005
0.0146471 0.00121316 4.60607e-005
0.0147753 0.00121357 4.60607e-005
0.0149036 0.00121397 4.60607e-005
0.0150318 0.00121435 4.60607e-005
0.0151601 0.00121473 4.60607e-005
0.0152893 0.00121509 4.60607e-005
0.0154186 0.00121545 4.60607e-005
0.0155478 0.00121579 4.60607e-005
0.0156771 0.00121612 4.60607e-005
0.0158063 0.00121644 4.60607e-005
0.0159366 0.00121675 4.60607e-005
0.0160668 0.00121704 4.60607e-005
0.0161971 0.00121732 4.60607e-005
0.0163274 0.00121758 4.60607e-005
0.0164576 0.00121783 4.60607e-005
0.0165088 0.00121792 4.60607e-005
0.0165599 0.00121801 4.60607e-005
0.0166111 0.00121809 4.60607e-005
0.0166623 0.00121818 4.60607e-005
0.0167111 0.00121825 4.60607e-005
0.0167916 0.00121837 4.60607e-005
0.0168722 0.00121849 4.60607e-005
0.0169528 0.0012186 4.60607e-005
0.0170334 0.0012187 4.60607e-005
0.0171139 0.0012188 4.60607e-005
0.0172462 0.00121895 4.60607e-005
0.0173785 0.00121907 4.60607e-005
0.0175108 0.00121918 4.60607e-005
0.0176431 0.00121926 4.60607e-005
0.0177754 0.00121933 4.60607e-005
0.0179087 0.00121937 4.60607e-005
0.018042 0.0012194 4.60607e-005
0.0181753 0.00121939 4.60607e-005
0.0183087 0.00121937 4.60607e-005
0.018442 0.00121932 4.60607e-005
0.0185763 0.00121926 4.60607e-005
0.0187107 0.00121916 4.60607e-005
0.018845 0.00121904 4.60607e-005
0.0189794 0.00121889 4.60607e-005
0.0191137 0.00121872 4.60607e-005
0.0192491 0.00121852 4.60607e-005
0.0193845 0.0012183 4.60607e-005
0.0195199 0.00121804 4.60607e-005
0.0196553 0.00121776 4.60607e-005
0.0197907 0.00121745 4.60607e-005
0.0199272 0.00121712 4.60607e-005
0.0200636 0.00121674 4.60607e-005
0.0202001 0.00121634 4.60607e-005
0.0203365 0.00121591 4.60607e-005
0.020473 0.00121545 4.60607e-005
0.0206105 0.00121497 4.60607e-005
0.020748 0.00121444 4.60607e-005
0.0208855 0.00121389 4.60607e-005
0.021023 0.00121329 4.60607e-005
0.0211606 0.00121267 4.60607e-005
0.0212991 0.00121203 4.60607e-005
0.0214377 0.00121134 4.60607e-005
0.0215763 0.00121061 4.60607e-005
0.0217149 0.00120985 4.60607e-005
0.0218535 0.00120905 4.60607e-005
0.0219931 0.00120825 4.60607e-005
0.0221328 0.00120737 4.60607e-005
0.0222724 0.00120647 4.60607e-005
0.0224121 0.00120552 4.60607e-005
0.0225517 0.00120454 4.60607e-005
0.0226925 0.00120355 4.60607e-005
[...]
POINT_DATA 12000
 FIELD attributes 2
p 1 12000 float
-1615.82 -1603.22 -1589.42 -1575.76 -1562.26 -1541.63 -1526.98 -1512.25 -1497.45 -1482.57 -1461.82 -1413.72 -1365.7 -1317.75 -1269.86 -1227.42 -1195.82 -1170.4 -1144.99 -1119.58 -1102.79 -1091.03 -1081.55 -1072.07 -1062.6 -1054.99 -1048.21 -1040.3 -1032.39 -1024.48 -1015.47 -1007.03 -998.395 -989.755 -981.131 -972.726 -964.77 -957.586 -950.491 -943.546 -937.507 -931.746 -926.559 -921.492 -916.578 -912.251 -908.113 -904.201 -900.359 -896.604 -893.093 -889.725 -886.489 -883.308 -880.199 -877.247 -874.399 -871.68 -869.027 -866.455 -864.027 -861.668 -859.423 -857.251 -855.162 -853.194 -851.266 -849.424 -847.648 -845.947 -844.336 -842.738 -841.207 -839.739 -838.342 -837.017 -835.676 -834.39 -833.161 -831.999 -830.898 -829.756 -828.665 -827.637 -826.681 -825.78 -824.814 -823.876 -822.979 -822.145 -821.352 -820.487 -819.689 -819.002 -818.426 -817.912 -817.32 -816.787 -816.356 -816.016 -815.734 -815.228 -814.776 -814.395 -814.103 -813.885 -813.336 -812.938 -812.697 -812.615 -812.698 -812.471 -812.293 -812.154 -812.076 -812.08 -812.135 -812.036 -811.838 -811.582 -811.223 -811.384 -811.29 -811.069 -810.741 -810.165 -810.386 -810.308 -810.119 -809.821 -809.186 -809.418 -809.326 -809.147 -808.887 -808.258 -808.451 -808.338 -808.171 -807.955 -807.391 -807.522 -807.408 -807.269 -807.111 -806.666 -806.737 -806.644 -806.545 -806.445 -806.153 -806.182 -806.125 -806.067 -806.01 -805.869 -805.882 -805.866 -805.851 -805.835 -805.811 -805.839 -805.879 -805.918 -805.958 -806.028 -806.108 -806.215 -806.322 -806.43 -806.576 -806.731 -806.903 -807.075 -807.246 -807.446 -807.68 -807.908 -808.135 -808.363 -808.599 -808.911 -809.196 -809.48 -809.765 -810.037 -810.434 -810.787 -811.14 -811.493 -811.813 -812.297 -812.723 -813.15 -813.576 -813.949 -814.51 -815.002 -815.495 -815.988 -816.412 -817.029 -817.576 -818.123 -818.669 -819.144 -819.799 -820.391 -820.984 -821.576 -822.102 -822.79 -823.431 -824.072 -824.713 -825.302 -826.027 -826.726 -827.425 -828.123 -828.787 -829.549 -830.304 -831.059 -831.813 -832.551 -833.344 -834.146 -834.948 -835.75 -836.548 -837.371 -838.208 -839.045 -839.882 -840.721 -841.05 -841.385 -841.721 -842.056 -842.377 -842.905 -843.434 -843.963 -844.492 -845.043 -845.907 -846.783 -847.66 -848.537 -849.458 -850.322 -851.205 -852.088 -852.971 -853.903 -854.773 -855.653 -856.533 -857.414 -858.33 -859.211 -860.08 -860.949 -861.819 -862.698 -863.59 -864.44 -865.291 -866.142 -866.97 -867.868 -868.691 -869.514 -870.337 -871.104 -871.998 -872.783 -873.569 -874.356 -875.054 -875.929 -876.668 -877.407 -878.148 -878.777 -879.611 -880.296 -880.982 -881.668 -882.234 -882.998 -883.633 -884.258 -884.868 -885.392 -886.06 -886.644 -887.203 -887.737 -888.216 -888.784 -889.302 -889.786 -890.242 -890.668 -891.131 -891.569 -891.97 -892.344 -892.706 -893.061 -893.407 -893.717 -894.007 -894.295 -894.541 -894.789 -895.002 -895.205 -895.408 -895.545 -895.684 -895.8 -895.907 -896.014 -896.041 -896.069 -896.083 -896.084 -896.085 -896 -895.917 -895.824 -895.71 -895.597 -895.399 -895.202 -894.999 -894.763 -894.528 -894.213 -893.897 -893.57 -893.217 -892.854 -892.415 -891.972 -891.521 -891.056 -890.572 -890.023 -889.454 -888.878 -888.298 -887.677 -887.003 -886.286 -885.569 -884.854 -884.097 -883.257 -882.397 -881.538 -880.681 -879.812 -878.828 -877.841 -876.856 -875.872 -874.889 -874.739 -874.588 -874.437 -874.287 -874.138 -873.2 -872.264 -871.329 -870.395 -869.45 -868.264 -867.069 -865.877 -864.686 -863.473 -862.186 -860.88 -859.577 -858.274 -856.939 -855.54 -854.133 -852.724 -851.308 -849.881 -848.382 -846.884 -845.383 -843.875 -842.366 -840.779 -839.195 -837.611 -836.027 -834.443 -832.776 -831.11 -829.454 -827.807 -826.161 -824.421 -822.685 -820.972 -819.275 -817.583 -815.784 -814.014 -812.266 -810.53 -808.829 -807.004 -805.247 -803.491 -801.736 -800.024 -798.232 -796.486 -794.741 -792.998 -791.262 -791.058 -790.861 -790.663 -790.466 -790.27 -788.757 -787.245 -785.734 -784.224 -782.755 -781.046 -779.39 -777.735 -776.081 -774.526 -772.833 -771.228 -769.642 -768.108 -766.636 -765.014 -763.414 -761.907 -760.517 -759.13 -757.589 -756.048 -754.633 -753.342 -752.05 -750.601 -749.153 -747.832 -746.63 -745.443 -744.097 -742.817 -741.602 -740.421 -739.344 -738.112 -737.006 -735.9 -734.794 -733.775 -732.746 -731.778 -730.809 -729.84 -728.857 -728.833 -728.809 -728.785 -728.76 -728.738 -727.846 -726.956 -726.065 -725.173 -724.332 -723.464 -722.681 -721.898 -721.116 -720.42 -719.612 -718.898 -718.218 -717.578 -716.975 -716.268 -715.575 -714.995 -714.482 -713.968 -713.357 -712.745 -712.227 -711.797 -711.364 -710.843 -710.321 -709.839 -709.479 -709.121 -708.682 -708.253 -707.845 -707.487 -707.194 -706.828 -706.479 -706.133 -705.785 -705.542 -705.243 -704.954 -704.663 -704.371 -704.125 -703.901 -703.678 -703.453 -703.227 -702.983 -702.967 -702.952 -702.936 -702.921 -702.905 -702.692 -702.48 -702.267 -702.053 -701.83 -701.614 -701.436 -701.257 -701.077 -700.878 -700.659 -700.505 -700.35 -700.191 -699.997 -699.784 -699.628 -699.485 -699.325 -699.136 -698.932 -698.756 -698.617 -698.442 -698.25 -698.046 -697.847 -697.698 -697.49 -697.279 -697.057 -696.835 -696.636 -696.396 -696.156 -695.907 -695.658 -695.388 -695.101 -694.814 -694.521 -694.227 -693.877 -693.537 -693.196 -692.851 -692.502 -692.073 -691.664 -691.258 -690.847 -690.413 -689.922 -689.442 -688.97 -688.495 -687.975 -687.418 -686.864 -686.319 -685.771 -685.164 -684.54 -683.916 -683.304 -682.689 -681.999 -681.31 -680.62 -679.936 -679.236 -678.484 -677.731 -676.979 -676.232 -675.456 -674.645 -673.835 -673.024 -672.215 -671.368 -670.505 -669.642 -668.779 -667.917 -667.877 -667.837 -667.797 -667.757 -667.717 -666.849 -665.982 -665.114 -664.246 -663.365 -662.415 -661.467 -660.52 -659.572 -658.6 -657.615 -656.637 -655.658 -654.679 -653.666 -652.652 -651.651 -650.649 -649.648 -648.605 -647.572 -646.555 -645.538 -644.513 -643.453 -642.405 -641.372 -640.346 -639.301 -638.236 -637.183 -636.138 -635.103 -634.038 -632.96 -631.895 -630.833 -629.786 -628.699 -627.61 -626.534 -625.458 -624.383 -623.275 -622.167 -621.074 -619.98 -618.869 -617.738 -616.607 -615.494 -614.38 -613.23 -612.069 -610.908 -609.765 -608.622 -607.432 -606.244 -605.057 -603.887 -602.703 -601.483 -600.262 -599.042 -597.837 -596.605 -595.351 -594.098 -592.847 -591.607 -590.324 -589.033 -587.741 -586.452 -585.161 -583.827 -582.493 -581.159 -579.831 -578.478 -577.096 -575.713 -574.33 -572.951 -571.788 -570.614 -569.44 -568.265 -567.164 -566.889 -566.614 -566.338 -566.063 -565.783 -564.298 -562.812 -561.326 -559.839 -558.329 -556.784 -555.243 -553.703 -552.161 -550.577 -548.957 -547.358 -545.759 -544.156 -542.503 -540.805 -539.128 -537.457 -535.762 -534.035 -532.244 -530.459 -528.69 -526.876 -525.049 -523.15 -521.25 -519.345 -517.391 -515.435 -513.414 -511.392 -509.325 -507.22 -505.113 -502.962 -500.807 -498.563 -496.265 -493.957 -491.641 -489.255 -486.791 -484.288 -481.688 -479.13 -476.37 -473.601 -470.828 -467.91 -465.077 -462.087 -459.093 -456.096 -453.613 -453.305 -452.998 -452.69 -452.383 -452.06 -448.379 -444.668 -440.954 -437.237 -433.25 -429.248 -424.766 -420.281 -415.635 -410.591 -405.819 -400.903 -395.439 -389.276 -383.096 -377.248 -371.398 -364.822 -357.325 -349.804 -342.662 -334.888 -326.744 -318.594 -309.816 -306.277 -302.274 -298.267 -294.259 -290.772 -285.153 -279.537 -273.925 -268.277 -261.931 -251.825 -240.94 -229.94 -217.936 -205.532 -193.62 -181.674 -168.376 -154.801 -140.527 -134.874 -128.889 -122.646 -116.406 -110.95 -102.288 -93.6392 -85.0044 -75.9345 -66.3097 -50.7942 -35.3093 -18.8158 -1.31151 16.5281 24.4559 32.5241 41.0407 49.5494 56.9946 66.7765 76.5386 86.2804 96.6035 107.222 125.914 144.546 164.074 183.655 203.992 204.864 205.736 206.635 207.537 208.429 227.543 246.576 265.565 285.058 305.258 313.034 320.797 328.602 336.41 343.57 356.377 369.143 381.896 394.704 407.891 419.072 430.22 441.23 452.16 461.975 471.497 480.994 490.427 499.77 509.332 521.336 533.304 545.004 556.496 567.016 575.207 583.383 591.424 599.308 607.324 618.762 630.175 641.26 652.029 662.284 670.049 677.807 685.319 692.642 700.023 709.577 719.125 728.379 737.234 746.025 754.331 762.639 770.622 778.375 786.106 793.875 801.65 809.172 816.343 823.693 832.304 840.926 849.203 857.208 865.1 871.839 878.589 885.088 891.304 897.831 906.012 914.209 922.118 929.716 937.153 943.94 950.743 957.248 963.528 970.309 977.013 983.728 990.27 996.499 1002.6 1010.72 1018.86 1026.6 1034.15 1042.72 1046.67 1050.63 1054.53 1058.22 1061.86 1072.72 1083.62 1093.93 1104.14 1115.39 1115.64 1115.9 1116.14 1116.37 1116.61 1126.37 1136.15 1145.94 1155.13 1164.03 1169.66 1175.25 1180.54 1185.85 1192.04 1195.23 1198.43 1201.62 1204.68 1207.67 1215.84 1224.01 1231.93 1239.56 1247.03 1252.02 1256.9 1261.63 1266.36 1272.03 1274.1 1276.16 1278.23 1280.25 1282.2 1288.74 1295.19 1301.63 1307.82 1313.86 1319.69 1325.48 1331.03 1336.56 1341.96 1344.94 1347.81 1350.65 1353.5 1356.81 1358.88 1360.95 1363.02 1365.09 1367.06 1371.66 1376.21 1380.76 1385.22 1389.56 1393.66 1397.76 1401.77 1405.67 1409.55 1413.21 1416.83 1420.36 1423.87 1427.35 1430.62 1433.78 1436.94 1440.1 1443.25 1444.02 1444.77 1445.52 1446.27 1447.07 1449.19 1451.31 1453.42 1455.53 1457.61 1460.2 1462.81 1465.41 1468 1470.54 1472.87 1475.22 1477.57 1479.89 1482.19 1484.3 1486.41 1488.53 1490.63 1492.73 1494.65 1496.56 1498.47 1500.39 1502.3 1504.06 1505.81 1507.54 1509.3 1511.06 1512.67 1514.28 1515.88 1517.49 1519.12 1520.61 1522.11 1523.61 1525.1 1526.62 1528.03 1529.45 1530.86 1532.28 1533.71 1535.07 1536.44 1537.81 1539.18 1540.56 1541.91 1543.28 1544.64 1546.01 1547.37 1547.58 1547.78 1547.99 1548.2 1548.42 1549.62 1550.83 1552.03 1553.24 1554.46 1555.96 1557.46 1558.96 1560.46 1562 1563.68 1565.38 1567.08 1568.78 1570.62 1572.44 1574.1 1575.75 1577.4 1579.09 1580.86 1582.68 1584.5 1586.3 1588.32 1589.28 1589.53 1589.74 1589.92 1587.7 1584.51 1581.28 1578.04 1574.57 1570.59 1566.41 1562.52 1559.09 1556.07 1553.17 1550.12 1547.07 1544.04 1541.05 1538.05 1534.84 1531.63 1528.15 1524.4 1520.65 1516.64 1512.63 1508.47 1504.2 1499.93 1495.39 1490.83 1486.19 1481.51 1476.8 1471.83 1466.8 1461.71 1456.56 1451.36 1445.87 1440.25 1434.57 1428.88 1423.04 1416.89 1410.57 1404.25 1397.92 1391.46 1384.58 1377.53 1370.49 1363.44 1356.27 1348.54 1340.7 1332.87 1325.03 1317.13 1308.79 1300.38 1291.96 1283.55 1273.62 1273.56 1273.5 1273.45 1273.39 1273.33 1263.68 1254.03 1244.37 1234.71 1224.96 1214.2 1203.33 1192.45 1181.58 1170.5 1158.58 1146.42 1134.26 1122.1 1109.64 1096.42 1082.78 1069.14 1055.5 1041.35 1026.61 1011.33 996.048 980.737 964.881 948.495 931.277 913.919 896.324 877.985 859.025 839.866 820.601 801.211 781.65 761.419 740.269 718.02 694.512 670.218 645.09 620.486 597.393 575.976 555 533.299 510.966 479.281 437.226 395.123 351.507 307.88 281.207 270.491 259.794 248.692 237.614 184.857 92.3502 0