# vtk DataFile Version 2.0
track0
ASCII
DATASET POLYDATA
POINTS 11980 float
-0.0205 0.001 1e-005
-0.0202034 0.00100022 1e-005
-0.0199069 0.00100067 1e-005
-0.0196103 0.00100132 1e-005
-0.0193137 0.00100219 1e-005
-0.0190172 0.00100326 1e-005
-0.0187132 0.00100466 1e-005
-0.0184093 0.00100588 1e-005
-0.0181054 0.0010071 1e-005
-0.0178015 0.00100832 1e-005
-0.0174976 0.00100953 1e-005
-0.0172058 0.00101083 1e-005
-0.016914 0.00101193 1e-005
-0.0166222 0.00101303 1e-005
-0.0163305 0.00101413 1e-005
-0.0160387 0.00101522 1e-005
-0.0157586 0.00101636 1e-005
-0.0154784 0.00101744 1e-005
-0.0151983 0.00101856 1e-005
-0.0149182 0.00101971 1e-005
-0.0146381 0.0010209 1e-005
-0.0143744 0.00102208 1e-005
-0.0141107 0.00102327 1e-005
-0.0138469 0.00102449 1e-005
-0.0135832 0.00102574 1e-005
-0.0133605 0.00102682 1e-005
-0.0133471 0.00102688 1e-005
-0.0133337 0.00102695 1e-005
-0.0133203 0.00102702 1e-005
-0.0133069 0.00102708 1e-005
-0.0132934 0.00102715 1e-005
-0.0130353 0.00102844 1e-005
-0.0127771 0.00102974 1e-005
-0.0125189 0.00103106 1e-005
-0.0122607 0.00103239 1e-005
-0.0120025 0.00103374 1e-005
-0.0117547 0.00103505 1e-005
-0.0115068 0.00103637 1e-005
-0.0112589 0.00103768 1e-005
-0.0110111 0.00103901 1e-005
-0.0107632 0.00104034 1e-005
-0.0105252 0.00104161 1e-005
-0.0102873 0.00104289 1e-005
-0.0100493 0.00104417 1e-005
-0.00981133 0.00104545 1e-005
-0.00957337 0.00104672 1e-005
-0.00934491 0.00104794 1e-005
-0.00911645 0.00104916 1e-005
-0.00888799 0.00105038 1e-005
-0.00865954 0.0010516 1e-005
-0.00843108 0.00105281 1e-005
-0.00821175 0.00105396 1e-005
-0.00799242 0.00105512 1e-005
-0.00777309 0.00105627 1e-005
-0.00755376 0.00105742 1e-005
-0.00733443 0.00105856 1e-005
-0.00712387 0.00105965 1e-005
-0.0069133 0.00106074 1e-005
-0.00670273 0.00106182 1e-005
-0.00649216 0.0010629 1e-005
-0.0062816 0.00106398 1e-005
-0.00607944 0.001065 1e-005
-0.00587729 0.00106603 1e-005
-0.00567514 0.00106705 1e-005
-0.00547298 0.00106806 1e-005
-0.00527083 0.00106907 1e-005
-0.00507675 0.00107003 1e-005
-0.00488267 0.00107099 1e-005
-0.0046886 0.00107195 1e-005
-0.00449452 0.0010729 1e-005
-0.00430044 0.00107385 1e-005
-0.00411412 0.00107475 1e-005
-0.0039278 0.00107566 1e-005
-0.00374147 0.00107656 1e-005
-0.00355515 0.00107745 1e-005
-0.00336883 0.00107835 1e-005
-0.00318995 0.00107919 1e-005
-0.00301107 0.00108004 1e-005
-0.00283219 0.00108089 1e-005
-0.00265331 0.00108173 1e-005
-0.00247443 0.00108258 1e-005
-0.0023027 0.00108338 1e-005
-0.00213097 0.00108418 1e-005
-0.00195924 0.00108498 1e-005
-0.0017875 0.00108577 1e-005
-0.00161577 0.00108657 1e-005
-0.0014509 0.00108732 1e-005
-0.00128603 0.00108808 1e-005
-0.00112116 0.00108884 1e-005
-0.000956289 0.00108959 1e-005
-0.000791418 0.00109035 1e-005
-0.000633135 0.00109106 1e-005
-0.000474851 0.00109179 1e-005
-0.000316567 0.00109251 1e-005
-0.000158284 0.00109322 1e-005
0 0.00109393 1e-005
0.000105677 0.0010944 1e-005
0.000211355 0.00109487 1e-005
0.000317032 0.00109534 1e-005
0.00042271 0.0010958 1e-005
0.000528387 0.00109626 1e-005
0.000634886 0.00109672 1e-005
0.000741385 0.00109718 1e-005
0.000847885 0.00109763 1e-005
0.000954384 0.00109808 1e-005
0.00106088 0.00109853 1e-005
0.00116821 0.00109897 1e-005
0.00127554 0.00109941 1e-005
0.00138286 0.00109985 1e-005
0.00149019 0.00110028 1e-005
0.00159752 0.0011007 1e-005
0.00170568 0.00110112 1e-005
0.00181384 0.00110154 1e-005
0.001922 0.00110195 1e-005
0.00203016 0.00110235 1e-005
0.00213833 0.00110274 1e-005
0.00224733 0.00110312 1e-005
0.00235633 0.0011035 1e-005
0.00246533 0.00110387 1e-005
0.00257434 0.00110423 1e-005
0.00268334 0.00110458 1e-005
0.00279319 0.00110493 1e-005
0.00290304 0.00110527 1e-005
0.00301289 0.0011056 1e-005
0.00312274 0.00110592 1e-005
0.00323259 0.00110624 1e-005
0.00334329 0.00110655 1e-005
0.003454 0.00110685 1e-005
0.0035647 0.00110715 1e-005
0.0036754 0.00110744 1e-005
0.00378611 0.00110772 1e-005
0.00389767 0.00110799 1e-005
0.00400924 0.00110825 1e-005
0.0041208 0.00110852 1e-005
0.00423237 0.00110877 1e-005
0.00434393 0.00110901 1e-005
0.00445636 0.00110925 1e-005
0.00456879 0.00110948 1e-005
0.00468123 0.0011097 1e-005
0.00479366 0.00110992 1e-005
0.00490609 0.00111013 1e-005
0.0050194 0.00111033 1e-005
0.0051327 0.00111052 1e-005
0.00524601 0.00111071 1e-005
0.00535932 0.00111089 1e-005
0.00547262 0.00111106 1e-005
0.00558681 0.00111122 1e-005
0.005701 0.00111138 1e-005
0.00581518 0.00111153 1e-005
0.00592937 0.00111167 1e-005
0.00604356 0.00111181 1e-005
0.00615863 0.00111193 1e-005
0.00627371 0.00111206 1e-005
0.00638878 0.00111217 1e-005
0.00650386 0.00111228 1e-005
0.00661893 0.00111237 1e-005
0.0067349 0.00111246 1e-005
0.00685087 0.00111255 1e-005
0.00696684 0.00111263 1e-005
0.00708281 0.0011127 1e-005
0.00719878 0.00111276 1e-005
0.00726202 0.00111279 1e-005
0.00732525 0.00111282 1e-005
0.00738849 0.00111284 1e-005
0.00745173 0.00111286 1e-005
0.00751312 0.00111288 1e-005
0.00756712 0.0011129 1e-005
0.00762113 0.00111291 1e-005
0.00767513 0.00111293 1e-005
0.00772913 0.00111294 1e-005
0.00778313 0.00111295 1e-005
0.00790091 0.00111296 1e-005
0.00801869 0.00111297 1e-005
0.00813647 0.00111298 1e-005
0.00825425 0.00111297 1e-005
0.00837203 0.00111296 1e-005
0.00849073 0.00111293 1e-005
0.00860942 0.0011129 1e-005
0.00872812 0.00111286 1e-005
0.00884682 0.00111282 1e-005
0.00896551 0.00111277 1e-005
0.00908513 0.0011127 1e-005
0.00920475 0.00111263 1e-005
0.00932437 0.00111255 1e-005
0.00944398 0.00111247 1e-005
0.0095636 0.00111237 1e-005
0.00968415 0.00111226 1e-005
0.0098047 0.00111215 1e-005
0.00992525 0.00111203 1e-005
0.0100458 0.00111191 1e-005
0.0101663 0.00111178 1e-005
0.0102878 0.00111162 1e-005
0.0104093 0.00111147 1e-005
0.0105308 0.00111131 1e-005
0.0106523 0.00111114 1e-005
0.0107738 0.00111097 1e-005
0.0108962 0.00111077 1e-005
0.0110186 0.00111058 1e-005
0.0111411 0.00111037 1e-005
0.0112635 0.00111016 1e-005
0.0113859 0.00110995 1e-005
0.0115093 0.0011097 1e-005
0.0116327 0.00110946 1e-005
0.0117561 0.00110922 1e-005
0.0118795 0.00110896 1e-005
0.0120028 0.0011087 1e-005
0.0121272 0.00110841 1e-005
0.0122515 0.00110813 1e-005
0.0123759 0.00110784 1e-005
0.0125002 0.00110754 1e-005
0.0126245 0.00110724 1e-005
0.0127498 0.0011069 1e-005
0.0128752 0.00110658 1e-005
0.0130005 0.00110624 1e-005
0.0131258 0.0011059 1e-005
0.0132511 0.00110554 1e-005
0.0133774 0.00110517 1e-005
0.0135036 0.00110479 1e-005
0.0136299 0.00110441 1e-005
0.0137562 0.00110402 1e-005
0.0138825 0.00110362 1e-005
0.0140098 0.00110319 1e-005
0.014137 0.00110277 1e-005
0.0142643 0.00110234 1e-005
0.0143915 0.0011019 1e-005
0.0145188 0.00110146 1e-005
0.0146471 0.00110099 1e-005
0.0147753 0.00110052 1e-005
0.0149036 0.00110004 1e-005
0.0150318 0.00109955 1e-005
0.0151601 0.00109905 1e-005
0.0152893 0.00109854 1e-005
0.0154186 0.00109802 1e-005
0.0155478 0.00109749 1e-005
0.0156771 0.00109695 1e-005
0.0158063 0.00109641 1e-005
0.0159366 0.00109585 1e-005
0.0160668 0.00109528 1e-005
0.0161971 0.0010947 1e-005
0.0163274 0.00109411 1e-005
0.0164576 0.00109352 1e-005
0.0165889 0.00109291 1e-005
0.0167201 0.00109229 1e-005
0.0168514 0.00109166 1e-005
0.0169827 0.00109103 1e-005
0.0171139 0.00109038 1e-005
0.0172462 0.00108973 1e-005
0.0173785 0.00108906 1e-005
0.0175108 0.00108838 1e-005
0.0176431 0.0010877 1e-005
0.0177754 0.001087 1e-005
0.0179087 0.0010863 1e-005
0.018042 0.00108559 1e-005
0.0181753 0.00108486 1e-005
0.0183087 0.00108412 1e-005
0.018442 0.00108338 1e-005
0.0185763 0.00108263 1e-005
0.0187107 0.00108187 1e-005
0.018845 0.00108109 1e-005
0.0189794 0.0010803 1e-005
0.0191137 0.00107951 1e-005
0.0192491 0.00107871 1e-005
0.0193845 0.0010779 1e-005
0.0195199 0.00107707 1e-005
0.0196553 0.00107623 1e-005
0.0197907 0.00107539 1e-005
0.0199272 0.00107455 1e-005
0.0200636 0.00107369 1e-005
0.0202001 0.0010728 1e-005
0.0203365 0.00107191 1e-005
0.020473 0.00107102 1e-005
0.0206105 0.00107014 1e-005
0.020748 0.00106923 1e-005
0.0208855 0.00106829 1e-005
0.021023 0.00106735 1e-005
0.0211606 0.00106642 1e-005
0.0212991 0.00106548 1e-005
0.0214377 0.00106452 1e-005
0.0215763 0.00106354 1e-005
0.0217149 0.00106255 1e-005
0.0218535 0.00106156 1e-005
0.0219931 0.00106058 1e-005
0.0221328 0.00105957 1e-005
0.0222724 0.00105854 1e-005
0.0224121 0.00105749 1e-005
0.0225517 0.00105646 1e-005
0.0226925 0.00105543 1e-005
0.0228332 0.00105437 1e-005
0.022974 0.00105329 1e-005
0.0231147 0.0010522 1e-005
0.0232555 0.00105112 1e-005
0.0233973 0.00105003 1e-005
0.0235391 0.00104893 1e-005
0.023681 0.00104779 1e-005
0.0238228 0.00104665 1e-005
0.0239647 0.00104552 1e-005
0.0241076 0.00104439 1e-005
0.0242505 0.00104323 1e-005
0.0243935 0.00104205 1e-005
0.0245364 0.00104085 1e-005
0.0246794 0.00103967 1e-005
0.0248234 0.00103849 1e-005
0.0249675 0.00103729 1e-005
0.0251115 0.00103605 1e-005
0.0252556 0.00103481 1e-005
0.0253996 0.00103358 1e-005
0.0255448 0.00103234 1e-005
0.02569 0.00103109 1e-005
0.0258351 0.0010298 1e-005
0.0259803 0.00102851 1e-005
0.0261255 0.00102723 1e-005
0.0262718 0.00102595 1e-005
0.0264181 0.00102463 1e-005
0.0265644 0.0010233 1e-005
0.0267107 0.00102196 1e-005
0.026857 0.00102062 1e-005
0.0270044 0.00101929 1e-005
0.0271519 0.00101792 1e-005
0.0272993 0.00101654 1e-005
0.0274468 0.00101515 1e-005
0.0275942 0.00101376 1e-005
0.0277428 0.00101237 1e-005
0.0278914 0.00101095 1e-005
0.0280399 0.00100952 1e-005
0.0281885 0.00100807 1e-005
0.0283371 0.00100663 1e-005
0.0284869 0.00100519 1e-005
0.0286366 0.00100371 1e-005
0.0287863 0.00100222 1e-005
0.0289361 0.00100073 1e-005
0.0290858 0.000999227 1e-005
0.0292367 0.000997724 1e-005
0.0293876 0.000996193 1e-005
0.0295385 0.000994649 1e-005
0.0296894 0.000993098 1e-005
0.0298403 0.00099154 1e-005
0.0299924 0.000989979 1e-005
0.0301445 0.000988388 1e-005
0.0302966 0.000986788 1e-005
0.0304486 0.00098518 1e-005
0.0306007 0.000983564 1e-005
0.030754 0.000981942 1e-005
0.0309072 0.000980292 1e-005
0.0310605 0.000978634 1e-005
0.0312138 0.000976967 1e-005
0.031367 0.000975291 1e-005
0.0315215 0.000973606 1e-005
[...]
POINT_DATA 11980
 FIELD attributes 1
U 3 11980 float
10.0004 	0.00731842 	0 10.0024 	0.0151689 	0 10.0045 	0.0221878 	0 10.0065 	0.0291625 	0 10.0085 	0.0360933 	0 10.0135 	0.0463086 	0 10.0163 	0.0402073 	0 10.0207 	0.0401649 	0 10.0252 	0.0401227 	0 10.0296 	0.0400807 	0 10.0356 	0.0445403 	0 10.0385 	0.0378985 	0 10.0424 	0.0378533 	0 10.0464 	0.0378081 	0 10.0504 	0.0377628 	0 10.0545 	0.0408632 	0 10.0567 	0.0387841 	0 10.0592 	0.0400923 	0 10.0616 	0.0414021 	0 10.0641 	0.0427135 	0 10.0662 	0.0451712 	0 10.0677 	0.0452814 	0 10.0691 	0.0464833 	0 10.0704 	0.0476864 	0 10.0718 	0.0488906 	0 10.0729 	0.0499086 	0 10.073 	0.0499703 	0 10.073 	0.0500321 	0 10.0731 	0.0500938 	0 10.0732 	0.0501555 	0 10.0732 	0.0502079 	0 10.0738 	0.0508332 	0 10.0743 	0.0514526 	0 10.0748 	0.0520726 	0 10.0753 	0.052693 	0 10.0758 	0.0531495 	0 10.0757 	0.0534437 	0 10.0754 	0.0536325 	0 10.075 	0.0538214 	0 10.0747 	0.0540104 	0 10.0742 	0.053961 	0 10.0737 	0.0541041 	0 10.0727 	0.0540789 	0 10.0716 	0.0540537 	0 10.0705 	0.0540285 	0 10.069 	0.053734 	0 10.0686 	0.053812 	0 10.067 	0.0536763 	0 10.0653 	0.0535406 	0 10.0637 	0.0534048 	0 10.0612 	0.0529825 	0 10.0612 	0.0530336 	0 10.0592 	0.0528361 	0 10.0572 	0.0526385 	0 10.0552 	0.0524408 	0 10.0516 	0.0519439 	0 10.0522 	0.0519927 	0 10.0499 	0.0517678 	0 10.0476 	0.0515428 	0 10.0453 	0.0513177 	0 10.0407 	0.0507853 	0 10.0422 	0.0508524 	0 10.0397 	0.050621 	0 10.0372 	0.0503896 	0 10.0347 	0.0501581 	0 10.029 	0.0496055 	0 10.0314 	0.0496962 	0 10.0288 	0.0494735 	0 10.0262 	0.0492506 	0 10.0235 	0.0490277 	0 10.0167 	0.048476 	0 10.0203 	0.0485983 	0 10.0176 	0.0483843 	0 10.0149 	0.0481702 	0 10.0122 	0.047956 	0 10.0041 	0.0473947 	0 10.009 	0.0475448 	0 10.0063 	0.0473714 	0 10.0035 	0.047198 	0 10.0008 	0.0470246 	0 9.99161 	0.0465119 	0 9.9978 	0.0467167 	0 9.99513 	0.0465463 	0 9.99246 	0.0463759 	0 9.98978 	0.0462055 	0 9.97938 	0.0456457 	0 9.98693 	0.0458502 	0 9.98434 	0.045788 	0 9.98175 	0.0457259 	0 9.97916 	0.0456637 	0 9.96758 	0.0452586 	0 9.97658 	0.0455089 	9.22563e-022 9.97457 	0.0453133 	5.95474e-021 9.97255 	0.0451176 	1.09871e-020 9.97054 	0.0449219 	1.60197e-020 9.95846 	0.0442749 	1.36143e-020 9.96866 	0.044355 	9.3417e-020 9.96683 	0.0440232 	8.66896e-020 9.96499 	0.0436914 	7.99584e-020 9.96316 	0.0433595 	7.32233e-020 9.95087 	0.0426673 	-1.48568e-020 9.9609 	0.0426282 	-4.02526e-020 9.95911 	0.0423409 	-4.47859e-020 9.95733 	0.0420537 	-4.93176e-020 9.95553 	0.0417663 	-5.38479e-020 9.94346 	0.0412016 	-2.12756e-020 9.95303 	0.0410066 	-1.87116e-020 9.95111 	0.0404579 	-1.30303e-020 9.94919 	0.039909 	-7.34945e-021 9.94726 	0.0393601 	-1.669e-021 9.93542 	0.0385861 	6.95455e-021 9.94458 	0.0382707 	-5.729e-021 9.94248 	0.0374698 	-2.41918e-020 9.94036 	0.0366687 	-4.26566e-020 9.93825 	0.0358674 	-6.11234e-020 9.92653 	0.0348056 	-8.71157e-020 9.93511 	0.0345507 	-1.22692e-019 9.93266 	0.033734 	-1.10419e-019 9.9302 	0.032917 	-9.81378e-020 9.92773 	0.0320999 	-8.58495e-020 9.91603 	0.0309052 	-2.97109e-020 9.92387 	0.0307735 	3.35977e-020 9.92103 	0.030034 	4.69659e-020 9.91818 	0.0292944 	6.03248e-020 9.91532 	0.0285545 	7.36745e-020 9.90369 	0.0273347 	3.65233e-020 9.9107 	0.0272476 	-4.51808e-020 9.90748 	0.0265457 	-5.11882e-020 9.90425 	0.0258436 	-5.71814e-020 9.90102 	0.0251412 	-6.31604e-020 9.88957 	0.0239306 	-3.39058e-022 9.89563 	0.0238064 	5.88152e-020 9.892 	0.0231112 	4.94805e-020 9.88836 	0.0224157 	4.01316e-020 9.88473 	0.02172 	3.07685e-020 9.87354 	0.0205553 	-2.8562e-020 9.87845 	0.020366 	-8.22275e-020 9.87437 	0.0196777 	-1.04205e-019 9.87029 	0.018989 	-1.26178e-019 9.8662 	0.0183001 	-1.48145e-019 9.85537 	0.0172151 	-1.35801e-019 9.8589 	0.0169559 	-1.5415e-019 9.85435 	0.0162791 	-1.41825e-019 9.8498 	0.0156019 	-1.29496e-019 9.84523 	0.0149245 	-1.17163e-019 9.83492 	0.0139363 	-8.31084e-020 9.83683 	0.013614 	-6.97065e-020 9.8318 	0.0129542 	-5.13925e-020 9.82677 	0.0122941 	-3.30803e-020 9.82173 	0.0116338 	-1.47697e-020 9.81217 	0.0107466 	1.94447e-021 9.81215 	0.0103562 	0 9.80666 	0.00970939 	0 9.80117 	0.00906226 	0 9.79567 	0.00841484 	0 9.78715 	0.00762421 	0 9.78484 	0.00715165 	-1.66108e-020 9.7789 	0.00651155 	-3.5382e-020 9.77295 	0.00587113 	-5.41549e-020 9.767 	0.00523042 	-7.29295e-020 9.75988 	0.00453616 	-9.22027e-020 9.75781 	0.00425724 	-9.5211e-020 9.75436 	0.00391444 	-9.56096e-020 9.7509 	0.00357155 	-9.60068e-020 9.74744 	0.00322856 	-9.64025e-020 9.74408 	0.00289547 	-9.67852e-020 9.74108 	0.0026008 	-9.7639e-020 9.73809 	0.00230606 	-9.84931e-020 9.73509 	0.00201123 	-9.93476e-020 9.73209 	0.00171633 	-1.00202e-019 9.72616 	0.00128992 	-1.00191e-019 9.72197 	0.000781098 	-7.53672e-020 9.71506 	0.00015156 	-4.65638e-020 9.70815 	-0.000478358 	-1.77698e-020 9.70122 	-0.00110866 	1.1015e-020 9.68496 	-0.00214732 	4.92472e-020 9.68622 	-0.00239997 	5.01083e-020 9.67888 	-0.00302269 	5.12428e-020 9.67154 	-0.00364582 	5.23751e-020 9.66418 	-0.00426936 	5.35053e-020 9.64125 	-0.005551 	5.68217e-020 9.64781 	-0.00557739 	4.47508e-020 9.64007 	-0.00619338 	3.26774e-020 9.63231 	-0.00680982 	2.06027e-020 9.62455 	-0.0074267 	8.52697e-021 9.59527 	-0.00890809 	-1.10072e-021 9.60685 	-0.00875063 	-8.02168e-021 9.59872 	-0.00936027 	-1.95447e-020 9.59058 	-0.00997039 	-3.10666e-020 9.58242 	-0.010581 	-4.25874e-020 9.54727 	-0.0122108 	-5.4124e-020 9.56347 	-0.0119192 	-5.38014e-020 9.55498 	-0.0125245 	-6.11121e-020 9.54647 	-0.0131303 	-6.84198e-020 9.53796 	-0.0137367 	-7.57244e-020 9.49753 	-0.0154609 	-9.46663e-020 9.51785 	-0.0150859 	-1.50809e-019 9.50902 	-0.0156872 	-1.41413e-019 9.50018 	-0.0162891 	-1.3203e-019 9.49133 	-0.0168915 	-1.22659e-019 9.4463 	-0.0186506 	-4.13449e-020 9.47018 	-0.0182435 	-2.63209e-020 9.46104 	-0.0188404 	-1.843e-020 9.45188 	-0.0194378 	-1.05385e-020 9.44271 	-0.0200358 	-2.64613e-021 9.39381 	-0.0217721 	0 9.42065 	-0.0213809 	0 9.41122 	-0.0219741 	0 9.40178 	-0.0225681 	0 9.39232 	-0.0231626 	0 9.3403 	-0.024826 	0 9.3695 	-0.0244968 	1.52192e-021 9.35981 	-0.0250886 	8.86644e-021 9.3501 	-0.025681 	1.62102e-020 9.34038 	-0.0262741 	2.35532e-020 9.28599 	-0.0278176 	4.15278e-020 9.31696 	-0.0275993 	1.60963e-019 9.30703 	-0.0281902 	1.6387e-019 9.29709 	-0.0287817 	1.6679e-019 9.28714 	-0.0293739 	1.69724e-019 9.23109 	-0.0307463 	4.17184e-020 9.26305 	-0.0306855 	2.22616e-020 9.25313 	-0.0312709 	1.5633e-020 9.24298 	-0.0318604 	9.07066e-021 9.22978 	-0.0324871 	3.91081e-021 9.17577 	-0.0336055 	1.76306e-020 9.2042 	-0.0337793 	1.04439e-019 9.19834 	-0.0343178 	1.15489e-019 9.18801 	-0.0349044 	1.16696e-019 9.17063 	-0.0355382 	1.0072e-019 9.12022 	-0.0363909 	4.02019e-021 9.14529 	-0.0367816 	-9.87484e-020 9.14289 	-0.0373206 	-1.29985e-019 9.1324 	-0.0379038 	-1.40174e-019 9.11154 	-0.0384942 	-1.28472e-019 9.06461 	-0.0391015 	-6.15726e-020 9.08651 	-0.0396893 	-1.779e-019 9.08701 	-0.0402715 	-2.19169e-019 9.07637 	-0.0408512 	-2.21406e-019 9.05271 	-0.0413537 	-1.73051e-019 9.00906 	-0.0417374 	-4.70456e-020 9.02801 	-0.0425021 	-2.49113e-020 9.03089 	-0.0431648 	-1.08248e-020 9.02013 	-0.0437408 	-3.57415e-021 8.99428 	-0.0441174 	0 8.95374 	-0.0443001 	0 8.96994 	-0.0452216 	0 8.97473 	-0.0459962 	0 8.96388 	-0.0465686 	0 8.93638 	-0.0467879 	2.05123e-021 8.89875 	-0.0467921 	5.35128e-021 8.91243 	-0.0478505 	2.20451e-021 8.91872 	-0.0487629 	0 8.9078 	-0.0493318 	0 8.87915 	-0.0493685 	2.43855e-021 8.84421 	-0.0492164 	5.7427e-021 8.85558 	-0.050393 	2.59539e-021 8.86301 	-0.0514634 	1.15366e-021 8.85203 	-0.0520288 	7.73733e-021 8.82267 	-0.0518641 	2.44478e-020 8.79023 	-0.0515768 	4.28568e-020 8.7995 	-0.0528535 	1.67884e-019 8.80775 	-0.0540964 	2.86972e-019 8.79673 	-0.0546587 	2.90403e-019 8.76702 	-0.0542795 	1.68391e-019 8.73688 	-0.0538774 	4.33648e-020 8.74425 	-0.0552377 	2.52192e-020 8.75159 	-0.0565994 	7.07483e-021 8.74034 	-0.0571185 	3.13254e-022 8.71229 	-0.0566206 	3.49272e-021 8.68425 	-0.0561224 	6.67204e-021 8.68992 	-0.0575501 	3.65315e-021 8.69555 	-0.0589794 	6.35032e-022 8.68466 	-0.0594682 	2.01165e-021 8.65852 	-0.0588926 	-1.90836e-021 8.63241 	-0.0583167 	-5.82742e-021 8.63655 	-0.0597983 	-4.90956e-020 8.64064 	-0.0612815 	-9.23674e-020 8.63015 	-0.0617406 	-9.37334e-020 8.60578 	-0.0611031 	-5.4143e-020 8.58142 	-0.0604652 	-1.45508e-020 8.58419 	-0.0619902 	8.43808e-020 8.58692 	-0.0635167 	1.83307e-019 8.57687 	-0.0639471 	1.91855e-019 8.5541 	-0.0632604 	1.09466e-019 8.53134 	-0.0625732 	2.70772e-020 8.5329 	-0.0641335 	1.57344e-020 8.53441 	-0.0656953 	4.3883e-021 8.52484 	-0.0660985 	4.42623e-022 8.50351 	-0.0653735 	5.04535e-021 8.48221 	-0.064648 	9.64986e-021 8.4827 	-0.0662346 	4.13948e-021 8.48315 	-0.0678228 	-1.37586e-021 8.47407 	-0.0681999 	-2.07692e-020 8.45405 	-0.0674475 	-7.07136e-020 8.43405 	-0.0666945 	-1.2066e-019 8.43362 	-0.0682929 	-2.51402e-019 8.43313 	-0.0698928 	-3.82138e-019 8.42455 	-0.0702449 	-3.67013e-019 8.40572 	-0.0694812 	-2.17157e-019 8.38691 	-0.068717 	-6.73021e-020 8.38565 	-0.0703146 	5.64356e-020 8.38431 	-0.0719101 	1.79824e-019 8.37596 	-0.0722085 	1.77445e-019 8.35851 	-0.0714852 	9.03544e-020 8.34077 	-0.0707263 	3.49797e-022 8.33879 	-0.072319 	-8.89852e-020 8.3359 	-0.073734 	-1.67208e-019 8.3277 	-0.0740384 	-1.76495e-019 8.31243 	-0.0734791 	-1.14292e-019 8.29566 	-0.0727338 	-3.67397e-020 8.29304 	-0.0743176 	-2.55103e-020 8.28888 	-0.0755507 	-1.438e-020 8.28083 	-0.0758627 	-3.50306e-021 8.26746 	-0.0754718 	1.39376e-020 8.25158 	-0.0747465 	3.44984e-020 8.24838 	-0.0763185 	1.27309e-020 8.24321 	-0.0773715 	-2.40567e-021 8.2353 	-0.0776925 	-8.19924e-021 8.22358 	-0.0774718 	-3.0081e-021 8.20851 	-0.0767719 	1.18976e-020 8.20481 	-0.078331 	-4.59642e-021 8.19883 	-0.0792082 	-1.54779e-020 8.19106 	-0.0795397 	-2.18701e-020 8.18077 	-0.0794889 	-3.40786e-020 8.16642 	-0.0788182 	-5.57099e-020 8.16228 	-0.080364 	5.27067e-020 8.15569 	-0.081071 	8.72035e-020 8.14804 	-0.0814147 	8.96681e-020 8.13899 	-0.081532 	7.01504e-020 8.12532 	-0.0808938 	-2.2677e-020 8.12078 	-0.0824265 	6.88809e-020 8.11373 	-0.0829701 	8.61722e-020 8.10619 	-0.0833272 	8.94439e-020 8.09822 	-0.0836099 	8.65391e-020 8.08516 	-0.0830066 	1.03545e-020 8.08027 	-0.0845267 	-5.66696e-022 8.0729 	-0.084914 	-4.84864e-022 8.06547 	-0.085286 	-2.51448e-022 8.05803 	-0.0856581 	-1.80539e-023 8.04593 	-0.0851643 	1.83593e-020 8.04045 	-0.0865234 	0 8.03315 	-0.0869112 	0 8.02583 	-0.0872992 	0 8.01849 	-0.0876875 	0 8.00759 	-0.0873743 	1.53572e-020 8.00164 	-0.0885645 	0 7.99443 	-0.0889697 	0 7.9872 	-0.0893751 	0 7.97996 	-0.0897808 	0 7.97013 	-0.0896445 	0 7.96382 	-0.0906737 	0 7.9567 	-0.0910975 	0 7.94956 	-0.0915216 	0 7.9424 	-0.0919459 	0 7.93349 	-0.0919823 	-8.67107e-021 7.92693 	-0.0928584 	0 7.91988 	-0.0933021 	0 7.91283 	-0.093746 	0 7.90575 	-0.0941902 	0 7.89764 	-0.0943954 	-1.09696e-020 7.89091 	-0.095126 	0 7.88395 	-0.0955906 	0 7.87696 	-0.0960554 	0 7.86995 	-0.0965206 	0 7.86255 	-0.0968903 	-4.46198e-021 7.85788 	-0.0973311 	-6.00223e-021 7.85313 	-0.0976658 	-1.31188e-020 7.84838 	-0.0980006 	-2.02359e-020 7.84361 	-0.0983355 	-2.73536e-020 7.83897 	-0.0986614 	-3.42773e-020 7.83671 	-0.0988159 	-3.73326e-020 7.83445 	-0.0989704 	-4.03878e-020 7.83219 	-0.0991249 	-4.34428e-020 7.82993 	-0.0992795 	-4.64977e-020 7.82792 	-0.099385 	-4.95548e-020 7.8208 	-0.0999403 	-4.83991e-020 7.81375 	-0.100452 	-4.77801e-020 7.80669 	-0.100964 	-4.71584e-020 7.7996 	-0.101476 	-4.65342e-020 7.79353 	-0.101788 	-4.81852e-020 7.78616 	-0.102504 	-3.77491e-020 7.77916 	-0.103039 	-2.73015e-020 7.77214 	-0.103575 	-1.68525e-020 7.7651 	-0.104112 	-6.40216e-021 7.75985 	-0.104302 	0 7.75222 	-0.105176 	-2.81973e-021 7.74526 	-0.105737 	-7.63309e-021 7.73828 	-0.106298 	-1.24457e-020 7.73128 	-0.10686 	-1.72576e-020 7.72682 	-0.106937 	-2.20344e-020 7.71892 	-0.107964 	-5.07473e-020 7.71199 	-0.108552 	-7.04993e-020 7.70504 	-0.10914 	-9.02529e-020 7.69807 	-0.109729 	-1.10008e-019 7.69438 	-0.109697 	-1.03314e-019 7.6862 	-0.110875 	-8.12334e-020 7.6793 	-0.111491 	-7.01321e-020 7.67238 	-0.112107 	-5.90248e-020 7.66543 	-0.112723 	-4.79112e-020 7.66248 	-0.112591 	-6.89282e-020 7.65403 	-0.113916 	-8.21619e-020 7.64714 	-0.114561 	-6.36868e-020 7.64023 	-0.115207 	-4.52164e-020 7.63367 	-0.115785 	-2.54884e-020 7.63107 	-0.115626 	7.82764e-021 7.62261 	-0.116982 	1.22234e-020 7.61547 	-0.117772 	8.75663e-021 7.60856 	-0.118448 	3.70798e-021 7.60277 	-0.118917 	0 7.60011 	-0.118809 	0 7.59168 	-0.120178 	0 7.58423 	-0.121126 	0 7.57733 	-0.121835 	0 7.57229 	-0.1222 	0 7.56956 	-0.122144 	0 7.56115 	-0.123528 	0 7.55338 	-0.124632 	-7.71622e-021 7.54647 	-0.125373 	-2.54425e-020 7.54216 	-0.125641 	-4.32179e-020 7.53935 	-0.125638 	-6.10226e-020 7.53095 	-0.127039 	-4.18456e-020 7.52286 	-0.128295 	-2.16908e-020 7.51594 	-0.12907 	1.70867e-021 7.51233 	-0.129247 	9.21213e-021 7.50944 	-0.129297 	1.33354e-020 7.50104 	-0.130716 	4.59238e-020 7.49263 	-0.132122 	7.82181e-020 7.48575 	-0.132919 	9.68344e-020 7.48276 	-0.133023 	8.19018e-020 7.47977 	-0.133126 	6.69678e-020 7.47137 	-0.134565 	4.29694e-020 7.46292 	-0.136004 	1.89626e-020 7.45648 	-0.136817 	2.0091e-021 7.45339 	-0.136973 	1.13795e-020 7.4503 	-0.13713 	2.07506e-020 7.44188 	-0.13859 	8.42119e-020 7.43342 	-0.140051 	1.47676e-019 7.42738 	-0.140893 	1.48323e-019 7.42418 	-0.141103 	8.54729e-020 7.42097 	-0.141313 	2.26216e-020 7.41254 	-0.142797 	1.40299e-020 7.40406 	-0.144281 	5.44167e-021 7.39839 	-0.145154 	5.62989e-021 7.39506 	-0.145417 	1.47809e-020 7.39173 	-0.14568 	2.39328e-020 7.38327 	-0.147189 	8.5948e-020 7.37476 	-0.148698 	1.47966e-019 7.36945 	-0.149603 	1.48646e-019 7.366 	-0.14992 	8.72712e-020 7.36253 	-0.150236 	2.58947e-020 7.35404 	-0.15177 	1.75475e-020 7.34562 	-0.153281 	9.20003e-021 7.34064 	-0.154196 	7.57018e-022 7.33692 	-0.154614 	0 7.33331 	-0.154983 	0 7.32477 	-0.156544 	0 7.31708 	-0.157951 	0 7.31199 	-0.158906 	0 7.30779 	-0.159502 	0 7.30403 	-0.159925 	0 7.29544 	-0.161514 	0 7.28845 	-0.16282 	0 7.28323 	-0.163816 	0 7.27856 	-0.164589 	6.83496e-021 7.27464 	-0.165064 	2.27757e-020 7.26598 	-0.166681 	5.23494e-021 7.25966 	-0.167891 	6.04544e-021 7.25431 	-0.168928 	1.46638e-020 7.24916 	-0.169875 	2.4048e-020 7.24507 	-0.170402 	3.69529e-020 7.23634 	-0.172049 	1.23554e-019 7.23066 	-0.173166 	1.33746e-019 7.22518 	-0.174244 	1.38368e-019 7.21965 	-0.175323 	1.42969e-019 7.21528 	-0.175941 	4.60315e-020 7.20701 	-0.177524 	1.34147e-019 7.20141 	-0.178644 	1.22313e-019 7.19578 	-0.179764 	1.10456e-019 7.19011 	-0.180884 	9.85776e-020 7.18521 	-0.181682 	3.81293e-020 7.17762 	-0.183166 	3.14832e-020 7.17186 	-0.184327 	3.19552e-020 7.16607 	-0.185488 	3.24323e-020 7.16024 	-0.18665 	3.29144e-020 7.15483 	-0.187626 	4.80505e-020 7.14787 	-0.189013 	5.40055e-020 7.14195 	-0.190215 	5.15228e-020 7.13599 	-0.191418 	4.90245e-020 7.12999 	-0.19262 	4.65106e-020 7.12407 	-0.193773 	3.96851e-020 7.12157 	-0.194277 	3.33076e-020 7.11935 	-0.194732 	3.11801e-020 7.11712 	-0.195187 	2.90545e-020 7.11489 	-0.195642 	2.69306e-020 7.1127 	-0.196086 	2.48595e-020 7.10869 	-0.196875 	2.06409e-020 7.10466 	-0.197664 	1.64255e-020 7.10062 	-0.198453 	1.22135e-020 7.09655 	-0.199243 	8.00473e-021 7.0932 	-0.199956 	3.77696e-022 7.08636 	-0.201314 	-2.4196e-022 7.0799 	-0.202596 	-1.73986e-022 7.07339 	-0.203878 	-1.05989e-022 7.06684 	-0.205159 	-3.79684e-023 7.06214 	-0.206245 	0 7.05441 	-0.207765 	-6.98382e-021 7.04775 	-0.209086 	-2.08094e-020 7.04105 	-0.210408 	-3.46293e-020 7.03429 	-0.211729 	-4.84434e-020 7.03057 	-0.212737 	-5.95156e-020 7.02193 	-0.214416 	-4.68244e-020 7.01506 	-0.215776 	-3.15616e-020 7.00815 	-0.217137 	-1.62929e-020 7.0012 	-0.218495 	-1.05583e-021 6.99845 	-0.219427 	6.30413e-021 6.98917 	-0.221213 	-1.33331e-022 6.98178 	-0.222664 	1.11266e-020 6.97464 	-0.224062 	2.51273e-020 6.96871 	-0.225336 	4.12659e-020 6.96572 	-0.226312 	6.25064e-020 6.95622 	-0.22813 	4.0406e-020 6.94786 	-0.229745 	2.18829e-020 6.94049 	-0.23118 	6.51828e-021 6.93558 	-0.232369 	-1.71484e-021 6.93234 	-0.233388 	-5.06224e-021 6.92262 	-0.235237 	-5.69025e-020 6.91325 	-0.237016 	-9.97944e-020 6.90564 	-0.238487 	-1.0339e-019 6.90176 	-0.239589 	-6.71364e-020 6.89827 	-0.24065 	-2.63619e-020 6.88831 	-0.242529 	-6.77132e-020 6.87829 	-0.244408 	-1.09072e-019 6.87093 	-0.245893 	-1.0941e-019 6.86722 	-0.246993 	-6.59718e-020 6.86347 	-0.248093 	-2.25325e-020 6.85326 	-0.250001 	-6.61069e-020 6.84298 	-0.251909 	-1.09687e-019 6.83588 	-0.253435 	-1.06886e-019 6.8319 	-0.254573 	-5.76207e-020 6.82788 	-0.255711 	-8.35127e-021 6.81742 	-0.257647 	-5.54359e-021 6.80689 	-0.259583 	-2.73805e-021 6.80003 	-0.261149 	0 6.79577 	-0.262324 	0 6.79147 	-0.263499 	0 6.78075 	-0.265461 	0 6.77075 	-0.267347 	0 6.76402 	-0.268919 	0 6.75879 	-0.270239 	0 6.75421 	-0.271448 	0 6.74321 	-0.273436 	0 6.73436 	-0.275214 	-1.69989e-021 6.72734 	-0.276815 	-4.85152e-021 6.72093 	-0.27831 	-4.66335e-021 6.71605 	-0.279552 	3.6148e-021 6.70477 	-0.281563 	-5.47229e-020 6.69708 	-0.283232 	-5.8211e-020 6.68978 	-0.284859 	-5.50483e-020 6.68242 	-0.286486 	-5.18639e-020 6.67696 	-0.287803 	-2.28824e-021 6.66643 	-0.28974 	-8.1357e-021 6.65888 	-0.291392 	6.49123e-022 6.65129 	-0.293045 	9.43526e-021 6.64363 	-0.294696 	1.82227e-020 6.63691 	-0.296192 	2.09794e-020 6.62758 	-0.298011 	4.11486e-020 6.61974 	-0.299686 	4.14091e-020 6.61184 	-0.301362 	4.16524e-020 6.60388 	-0.303037 	4.18784e-020 6.59587 	-0.304711 	4.20387e-020 6.59584 	-0.304715 	4.20408e-020 6.59583 	-0.304719 	4.20367e-020 6.59581 	-0.304723 	4.20327e-020 6.59579 	-0.304727 	4.20286e-020 6.59577 	-0.30473 	4.20245e-020 6.58719 	-0.30642 	3.97938e-020 6.57855 	-0.30811 	3.7568e-020 6.56984 	-0.309799 	3.53473e-020 6.56107 	-0.311489 	3.31315e-020 6.55333 	-0.313049 	2.26387e-020 6.54383 	-0.314906 	2.92551e-020 6.53482 	-0.316618 	2.3047e-020 6.52574 	-0.31833 	1.68505e-020 6.5166 	-0.320042 	1.06659e-020 6.50963 	-0.321496 	-1.46536e-020 6.49917 	-0.323513 	-7.40585e-021 6.4898 	-0.325244 	-9.34782e-021 6.48036 	-0.326972 	-1.13295e-020 6.47159 	-0.328619 	-1.26274e-020 6.46473 	-0.330039 	-1.20508e-020 6.45389 	-0.332068 	-1.07149e-020 6.44352 	-0.333965 	-7.35779e-021 6.43372 	-0.335708 	-1.65313e-021 6.42579 	-0.337233 	3.78094e-021 6.41859 	-0.33867 	9.10707e-021 6.40737 	-0.340708 	4.75145e-021 6.39606 	-0.342745 	3.99792e-022 6.38623 	-0.344476 	0 6.37874 	-0.345926 	0 6.37118 	-0.347376 	0 6.35957 	-0.349421 	0 6.34788 	-0.351465 	0 6.33826 	-0.353225 	0 6.3304 	-0.354686 	0 6.32249 	-0.356146 	0 6.31048 	-0.358195 	0 6.2987 	-0.36021 	5.19192e-022 6.2893 	-0.361958 	5.14676e-021 6.28076 	-0.363499 	9.78728e-021 6.27248 	-0.364968 	1.4435e-020 6.26006 	-0.367019 	1.07197e-020 6.24925 	-0.368888 	9.74205e-021 6.23948 	-0.370638 	1.05625e-020 6.22978 	-0.372354 	1.16131e-020 6.22113 	-0.373828 	1.43012e-020 6.2086 	-0.375846 	-2.54537e-021 6.19851 	-0.377596 	-8.7039e-021 6.18835 	-0.379346 	-1.48496e-020 6.17811 	-0.381095 	-2.09825e-020 6.16841 	-0.382714 	-1.91252e-020 6.15979 	-0.384094 	-1.57513e-020 6.1522 	-0.385362 	-1.33489e-020 6.14458 	-0.386629 	-1.09483e-020 6.13691 	-0.387895 	-8.54932e-021 6.12958 	-0.3891 	-6.26863e-021 6.12669 	-0.389594 	-6.06598e-021 6.1238 	-0.390087 	-5.86491e-021 6.12089 	-0.39058 	-5.66543e-021 6.11799 	-0.391073 	-5.46753e-021 6.11512 	-0.391522 	-2.05254e-021 6.10484 	-0.39332 	5.12475e-021 6.09438 	-0.395065 	5.81999e-021 6.08384 	-0.396811 	6.54027e-021 6.07323 	-0.398555 	7.28571e-021 6.06276 	-0.400097 	-1.99248e-020 6.05254 	-0.402071 	-6.08948e-020 6.04167 	-0.403808 	-7.03039e-020 6.03074 	-0.405545 	-7.97486e-020 6.01979 	-0.407221 	-7.57764e-020 6.00903 	-0.408653 	-1.75931e-020 5.99851 	-0.410656 	-1.51831e-020 5.9876 	-0.41253 	-1.02026e-020 5.97626 	-0.414255 	-2.31567e-021 5.96508 	-0.415755 	7.88979e-021 5.95392 	-0.417176 	1.88999e-020 5.94299 	-0.419163 	3.62808e-020 5.93197 	-0.42115 	5.367e-020 5.92048 	-0.422838 	5.48079e-020 5.90898 	-0.424246 	3.92375e-020 5.8974 	-0.425654 	2.36693e