# vtk DataFile Version 2.0
track0
ASCII
DATASET POLYDATA
POINTS 11930 float
-0.0205 0.001 1e-005
-0.0203851 0.00100536 1.50238e-005
-0.0202701 0.00101047 1.9663e-005
-0.0201551 0.00101536 2.39705e-005
-0.0200401 0.00102 2.79416e-005
-0.0198626 0.00102682 3.35446e-005
-0.0196935 0.00103276 3.80937e-005
-0.0195244 0.0010381 4.16105e-005
-0.0193552 0.00104283 4.4104e-005
-0.019186 0.00104695 4.55836e-005
-0.0190172 0.00105046 4.60577e-005
-0.0187132 0.00105599 4.60577e-005
-0.0184093 0.00106087 4.60577e-005
-0.0181054 0.00106523 4.60577e-005
-0.0178014 0.00106906 4.60577e-005
-0.0174976 0.00107238 4.60577e-005
-0.0172058 0.00107527 4.60577e-005
-0.016914 0.00107807 4.60577e-005
-0.0166222 0.00108081 4.60577e-005
-0.0163305 0.00108349 4.60577e-005
-0.0160387 0.0010861 4.60577e-005
-0.0157586 0.00108851 4.60577e-005
-0.0154784 0.00109084 4.60577e-005
-0.0151983 0.00109308 4.60577e-005
-0.0149182 0.00109525 4.60577e-005
-0.0146381 0.00109732 4.60577e-005
-0.0143692 0.00109919 4.60577e-005
-0.0141002 0.00110096 4.60577e-005
-0.0138313 0.00110265 4.60577e-005
-0.0135624 0.00110426 4.60577e-005
-0.0132934 0.00110579 4.60577e-005
-0.0130353 0.00110718 4.60577e-005
-0.0127771 0.00110851 4.60577e-005
-0.0125189 0.0011098 4.60577e-005
-0.0122607 0.00111105 4.60577e-005
-0.0120025 0.00111226 4.60577e-005
-0.0117547 0.00111338 4.60577e-005
-0.0115068 0.00111447 4.60577e-005
-0.0112589 0.00111554 4.60577e-005
-0.0110111 0.00111659 4.60577e-005
-0.0107632 0.00111762 4.60577e-005
-0.0105252 0.00111859 4.60577e-005
-0.0102873 0.00111954 4.60577e-005
-0.0100493 0.00112048 4.60577e-005
-0.00981133 0.00112141 4.60577e-005
-0.00957337 0.00112232 4.60577e-005
-0.00934491 0.00112319 4.60577e-005
-0.00911645 0.00112405 4.60577e-005
-0.00888799 0.00112489 4.60577e-005
-0.00865954 0.00112574 4.60577e-005
-0.00843108 0.00112657 4.60577e-005
-0.00821175 0.00112736 4.60577e-005
-0.00799242 0.00112815 4.60577e-005
-0.00777309 0.00112894 4.60577e-005
-0.00755376 0.00112972 4.60577e-005
-0.00733443 0.0011305 4.60577e-005
-0.00712387 0.00113124 4.60577e-005
-0.0069133 0.00113198 4.60577e-005
-0.00670273 0.00113272 4.60577e-005
-0.00649216 0.00113346 4.60577e-005
-0.0062816 0.0011342 4.60577e-005
-0.00607944 0.00113492 4.60577e-005
-0.00587729 0.00113562 4.60577e-005
-0.00567514 0.00113633 4.60577e-005
-0.00547298 0.00113704 4.60577e-005
-0.00527083 0.00113775 4.60577e-005
-0.00507675 0.00113844 4.60577e-005
-0.00488267 0.00113912 4.60577e-005
-0.0046886 0.0011398 4.60577e-005
-0.00449452 0.00114048 4.60577e-005
-0.00430044 0.00114117 4.60577e-005
-0.00411412 0.00114183 4.60577e-005
-0.0039278 0.00114249 4.60577e-005
-0.00374147 0.00114315 4.60577e-005
-0.00355515 0.00114381 4.60577e-005
-0.00336883 0.00114448 4.60577e-005
-0.00318995 0.00114512 4.60577e-005
-0.00301107 0.00114576 4.60577e-005
-0.00283219 0.0011464 4.60577e-005
-0.00265331 0.00114704 4.60577e-005
-0.00247443 0.00114768 4.60577e-005
-0.0023027 0.00114831 4.60577e-005
-0.00213097 0.00114894 4.60577e-005
-0.00195924 0.00114956 4.60577e-005
-0.0017875 0.00115018 4.60577e-005
-0.00161577 0.00115081 4.60577e-005
-0.0014509 0.00115143 4.60577e-005
-0.00128603 0.00115204 4.60577e-005
-0.00112116 0.00115265 4.60577e-005
-0.000956289 0.00115326 4.60577e-005
-0.000791418 0.00115388 4.60577e-005
-0.000633135 0.00115449 4.60577e-005
-0.000474851 0.00115509 4.60577e-005
-0.000316567 0.00115569 4.60577e-005
-0.000158284 0.0011563 4.60577e-005
0 0.00115692 4.60577e-005
0.000105677 0.00115734 4.60577e-005
0.000211355 0.00115775 4.60577e-005
0.000317032 0.00115817 4.60577e-005
0.00042271 0.00115858 4.60577e-005
0.000528387 0.00115901 4.60577e-005
0.000634886 0.00115945 4.60577e-005
0.000741385 0.00115988 4.60577e-005
0.000847885 0.00116031 4.60577e-005
0.000954384 0.00116075 4.60577e-005
0.00106088 0.0011612 4.60577e-005
0.00116821 0.00116166 4.60577e-005
0.00127554 0.00116212 4.60577e-005
0.00138286 0.00116258 4.60577e-005
0.00149019 0.00116304 4.60577e-005
0.00159752 0.0011635 4.60577e-005
0.00170568 0.00116399 4.60577e-005
0.00181384 0.00116446 4.60577e-005
0.001922 0.00116494 4.60577e-005
0.00203016 0.00116542 4.60577e-005
0.00213833 0.0011659 4.60577e-005
0.00224733 0.0011664 4.60577e-005
0.00235633 0.00116689 4.60577e-005
0.00246533 0.00116739 4.60577e-005
0.00257434 0.00116788 4.60577e-005
0.00268334 0.00116837 4.60577e-005
0.00279319 0.00116888 4.60577e-005
0.00290304 0.00116938 4.60577e-005
0.00301289 0.00116989 4.60577e-005
0.00312274 0.0011704 4.60577e-005
0.00323259 0.00117091 4.60577e-005
0.00334329 0.00117142 4.60577e-005
0.003454 0.00117194 4.60577e-005
0.0035647 0.00117246 4.60577e-005
0.0036754 0.00117298 4.60577e-005
0.00378611 0.0011735 4.60577e-005
0.00389767 0.00117401 4.60577e-005
0.00400924 0.00117454 4.60577e-005
0.0041208 0.00117508 4.60577e-005
0.00423237 0.00117561 4.60577e-005
0.00434393 0.00117614 4.60577e-005
0.00445636 0.00117666 4.60577e-005
0.00456879 0.00117719 4.60577e-005
0.00468123 0.00117774 4.60577e-005
0.00479366 0.00117828 4.60577e-005
0.00490609 0.00117881 4.60577e-005
0.0050194 0.00117933 4.60577e-005
0.0051327 0.00117988 4.60577e-005
0.00524601 0.00118042 4.60577e-005
0.00535931 0.00118097 4.60577e-005
0.00547262 0.00118151 4.60577e-005
0.00558681 0.00118203 4.60577e-005
0.005701 0.00118258 4.60577e-005
0.00581518 0.00118313 4.60577e-005
0.00592937 0.00118367 4.60577e-005
0.00604356 0.00118422 4.60577e-005
0.00615863 0.00118474 4.60577e-005
0.00627371 0.00118529 4.60577e-005
0.00638878 0.00118584 4.60577e-005
0.00650386 0.00118639 4.60577e-005
0.00661893 0.00118693 4.60577e-005
0.0067349 0.00118746 4.60577e-005
0.00685087 0.00118801 4.60577e-005
0.00696684 0.00118855 4.60577e-005
0.00708281 0.00118909 4.60577e-005
0.00719878 0.00118964 4.60577e-005
0.00731565 0.00119017 4.60577e-005
0.00743252 0.00119071 4.60577e-005
0.00754939 0.00119125 4.60577e-005
0.00766626 0.00119179 4.60577e-005
0.00778313 0.00119233 4.60577e-005
0.00790091 0.00119285 4.60577e-005
0.00801869 0.00119339 4.60577e-005
0.00813647 0.00119392 4.60577e-005
0.00825425 0.00119446 4.60577e-005
0.00837203 0.00119499 4.60577e-005
0.00849073 0.00119551 4.60577e-005
0.00860942 0.00119604 4.60577e-005
0.00872812 0.00119657 4.60577e-005
0.00884682 0.0011971 4.60577e-005
0.00896551 0.00119763 4.60577e-005
0.00908513 0.00119815 4.60577e-005
0.00920475 0.00119867 4.60577e-005
0.00932437 0.00119919 4.60577e-005
0.00944398 0.00119972 4.60577e-005
0.0095636 0.00120023 4.60577e-005
0.00968415 0.00120075 4.60577e-005
0.0098047 0.00120127 4.60577e-005
0.00992525 0.00120178 4.60577e-005
0.0100458 0.0012023 4.60577e-005
0.0101663 0.00120281 4.60577e-005
0.0102878 0.00120332 4.60577e-005
0.0104093 0.00120383 4.60577e-005
0.0105308 0.00120433 4.60577e-005
0.0106523 0.00120484 4.60577e-005
0.0107738 0.00120534 4.60577e-005
0.0108962 0.00120584 4.60577e-005
0.0110186 0.00120634 4.60577e-005
0.0111411 0.00120684 4.60577e-005
0.0112635 0.00120734 4.60577e-005
0.0113859 0.00120783 4.60577e-005
0.0115093 0.00120832 4.60577e-005
0.0116327 0.00120882 4.60577e-005
0.0117561 0.00120931 4.60577e-005
0.0118795 0.00120979 4.60577e-005
0.0120028 0.00121028 4.60577e-005
0.0121272 0.00121076 4.60577e-005
0.0122515 0.00121124 4.60577e-005
0.0123759 0.00121172 4.60577e-005
0.0125002 0.0012122 4.60577e-005
0.0126245 0.00121267 4.60577e-005
0.0127498 0.00121313 4.60577e-005
0.0128752 0.00121361 4.60577e-005
0.0130005 0.00121407 4.60577e-005
0.0131258 0.00121454 4.60577e-005
0.0132511 0.001215 4.60577e-005
0.0133774 0.00121545 4.60577e-005
0.0135036 0.00121591 4.60577e-005
0.0136299 0.00121636 4.60577e-005
0.0137562 0.00121681 4.60577e-005
0.0138825 0.00121726 4.60577e-005
0.0140098 0.0012177 4.60577e-005
0.014137 0.00121814 4.60577e-005
0.0142643 0.00121858 4.60577e-005
0.0143915 0.00121901 4.60577e-005
0.0145188 0.00121944 4.60577e-005
0.0146471 0.00121986 4.60577e-005
0.0147753 0.00122028 4.60577e-005
0.0149036 0.0012207 4.60577e-005
0.0150318 0.00122112 4.60577e-005
0.0151601 0.00122153 4.60577e-005
0.0152893 0.00122193 4.60577e-005
0.0154186 0.00122233 4.60577e-005
0.0155478 0.00122273 4.60577e-005
0.0156771 0.00122313 4.60577e-005
0.0158063 0.00122352 4.60577e-005
0.0159366 0.00122389 4.60577e-005
0.0160668 0.00122428 4.60577e-005
0.0161971 0.00122465 4.60577e-005
0.0163274 0.00122502 4.60577e-005
0.0164576 0.00122538 4.60577e-005
0.0165889 0.00122574 4.60577e-005
0.0167201 0.0012261 4.60577e-005
0.0168514 0.00122644 4.60577e-005
0.0169827 0.00122679 4.60577e-005
0.0171139 0.00122712 4.60577e-005
0.0172089 0.00122736 4.60577e-005
0.0173039 0.00122759 4.60577e-005
0.0173989 0.00122783 4.60577e-005
0.0174938 0.00122805 4.60577e-005
0.0175857 0.00122827 4.60577e-005
0.0176236 0.00122836 4.60577e-005
0.0176616 0.00122845 4.60577e-005
0.0176995 0.00122853 4.60577e-005
0.0177374 0.00122862 4.60577e-005
0.0177754 0.00122871 4.60577e-005
0.0179087 0.00122901 4.60577e-005
0.018042 0.0012293 4.60577e-005
0.0181753 0.00122958 4.60577e-005
0.0183087 0.00122986 4.60577e-005
0.018442 0.00123013 4.60577e-005
0.0185763 0.00123039 4.60577e-005
0.0187107 0.00123065 4.60577e-005
0.018845 0.00123089 4.60577e-005
0.0189794 0.00123113 4.60577e-005
0.0191137 0.00123136 4.60577e-005
0.0192491 0.00123159 4.60577e-005
0.0193845 0.0012318 4.60577e-005
0.0195199 0.00123201 4.60577e-005
0.0196553 0.0012322 4.60577e-005
0.0197907 0.00123239 4.60577e-005
0.0199272 0.00123257 4.60577e-005
0.0200636 0.00123274 4.60577e-005
0.0202001 0.0012329 4.60577e-005
0.0203365 0.00123305 4.60577e-005
0.020473 0.00123319 4.60577e-005
0.0206105 0.00123332 4.60577e-005
0.020748 0.00123345 4.60577e-005
0.0208855 0.00123356 4.60577e-005
0.021023 0.00123366 4.60577e-005
0.0211606 0.00123375 4.60577e-005
0.0212991 0.00123384 4.60577e-005
0.0214377 0.00123391 4.60577e-005
0.0215763 0.00123397 4.60577e-005
0.0217149 0.00123402 4.60577e-005
0.0218535 0.00123406 4.60577e-005
0.0219931 0.00123409 4.60577e-005
0.0221328 0.0012341 4.60577e-005
0.0222724 0.00123411 4.60577e-005
0.0224121 0.0012341 4.60577e-005
0.0225517 0.00123409 4.60577e-005
0.0226925 0.00123406 4.60577e-005
[...]
POINT_DATA 11930
 FIELD attributes 2
p 1 11930 float
-1548.45 -1535.88 -1522.1 -1508.46 -1494.98 -1474.41 -1459.77 -1445.05 -1430.26 -1415.39 -1394.66 -1346.64 -1298.69 -1250.82 -1203.01 -1160.65 -1129.12 -1103.8 -1078.5 -1053.2 -1036.55 -1024.84 -1015.45 -1006.06 -996.672 -989.153 -982.386 -974.53 -966.674 -958.817 -949.905 -941.508 -932.891 -924.269 -915.663 -907.251 -899.242 -891.945 -884.732 -877.662 -871.458 -865.515 -860.122 -854.843 -849.714 -845.18 -840.834 -836.718 -832.67 -828.715 -825.025 -821.485 -818.084 -814.737 -811.467 -808.368 -805.382 -802.533 -799.752 -797.057 -794.519 -792.054 -789.712 -787.445 -785.267 -783.221 -781.214 -779.301 -777.457 -775.692 -774.027 -772.369 -770.783 -769.262 -767.812 -766.439 -765.044 -763.704 -762.423 -761.21 -760.058 -758.856 -757.703 -756.612 -755.592 -754.628 -753.585 -752.575 -751.615 -750.728 -749.89 -748.946 -748.06 -747.271 -746.603 -746.002 -745.296 -744.656 -744.136 -743.753 -743.455 -742.953 -742.498 -742.108 -741.815 -741.599 -741.165 -740.84 -740.635 -740.549 -740.582 -740.399 -740.301 -740.281 -740.329 -740.463 -740.529 -740.587 -740.64 -740.692 -740.741 -740.979 -741.123 -741.212 -741.249 -741.184 -741.55 -741.752 -741.881 -741.931 -741.785 -742.236 -742.471 -742.63 -742.707 -742.512 -742.993 -743.215 -743.371 -743.456 -743.222 -743.666 -743.839 -743.962 -744.038 -743.79 -744.161 -744.291 -744.392 -744.469 -744.255 -744.554 -744.658 -744.752 -744.84 -744.69 -744.917 -744.998 -745.079 -745.16 -745.077 -745.228 -745.29 -745.353 -745.416 -745.388 -745.481 -745.534 -745.587 -745.641 -745.662 -745.724 -745.779 -745.835 -745.89 -745.948 -745.999 -746.058 -746.117 -746.177 -746.256 -746.308 -746.371 -746.434 -746.497 -746.585 -746.65 -746.72 -746.789 -746.859 -746.948 -747.035 -747.114 -747.193 -747.273 -747.359 -747.472 -747.564 -747.657 -747.749 -747.834 -747.973 -748.08 -748.187 -748.294 -748.38 -748.545 -748.667 -748.788 -748.91 -749 -749.184 -749.319 -749.454 -749.589 -749.685 -749.882 -750.03 -750.177 -750.324 -750.432 -750.638 -750.798 -750.959 -751.119 -751.243 -751.455 -751.629 -751.802 -751.976 -752.12 -752.338 -752.527 -752.716 -752.906 -753.076 -753.299 -753.505 -753.711 -753.917 -754.115 -754.278 -754.435 -754.592 -754.749 -754.901 -754.964 -755.027 -755.089 -755.152 -755.225 -755.445 -755.674 -755.903 -756.132 -756.405 -756.605 -756.845 -757.084 -757.323 -757.636 -757.822 -758.071 -758.32 -758.569 -758.916 -759.093 -759.351 -759.61 -759.869 -760.242 -760.418 -760.686 -760.954 -761.222 -761.614 -761.795 -762.073 -762.35 -762.627 -763.028 -763.223 -763.508 -763.794 -764.08 -764.48 -764.695 -764.989 -765.282 -765.576 -765.967 -766.209 -766.51 -766.811 -767.112 -767.485 -767.76 -768.068 -768.376 -768.684 -769.035 -769.346 -769.661 -769.977 -770.292 -770.617 -770.966 -771.29 -771.614 -771.937 -772.235 -772.62 -772.956 -773.288 -773.614 -773.891 -774.305 -774.659 -775.001 -775.326 -775.59 -776.028 -776.403 -776.755 -777.077 -777.336 -777.792 -778.192 -778.556 -778.875 -779.136 -779.609 -780.034 -780.411 -780.728 -780.995 -781.482 -781.932 -782.32 -782.633 -782.907 -783.404 -783.876 -784.274 -784.583 -784.866 -785.367 -785.855 -786.261 -786.569 -786.863 -787.363 -787.861 -788.274 -788.586 -788.897 -789.392 -789.887 -790.304 -790.634 -790.964 -791.452 -791.941 -792.362 -792.711 -793.059 -793.539 -794.019 -794.443 -794.809 -795.175 -795.645 -796.115 -796.541 -796.922 -797.303 -797.762 -798.221 -798.647 -799.041 -799.435 -799.882 -800.329 -800.755 -801.158 -801.561 -801.996 -802.431 -802.853 -803.262 -803.671 -804.093 -804.515 -804.931 -805.342 -805.753 -806.16 -806.568 -806.978 -807.386 -807.794 -808.187 -808.581 -808.98 -809.381 -809.782 -810.159 -810.539 -810.926 -811.315 -811.705 -812.065 -812.431 -812.802 -813.175 -813.552 -813.892 -814.242 -814.595 -814.95 -815.309 -815.629 -815.96 -816.292 -816.625 -816.963 -817.26 -817.569 -817.877 -818.186 -818.499 -818.771 -819.053 -819.335 -819.617 -819.904 -820.149 -820.403 -820.657 -820.911 -821.171 -821.388 -821.613 -821.837 -822.062 -822.292 -822.48 -822.674 -822.869 -823.063 -823.26 -823.419 -823.581 -823.744 -823.906 -824.069 -824.082 -824.095 -824.108 -824.122 -824.135 -824.251 -824.368 -824.485 -824.602 -824.717 -824.814 -824.908 -825.002 -825.096 -825.185 -825.248 -825.305 -825.362 -825.419 -825.468 -825.498 -825.518 -825.538 -825.557 -825.566 -825.562 -825.544 -825.526 -825.508 -825.475 -825.437 -825.381 -825.324 -825.266 -825.192 -825.116 -825.025 -824.929 -824.827 -824.714 -824.598 -824.471 -824.335 -824.189 -824.035 -823.878 -823.715 -823.537 -823.345 -823.149 -822.951 -822.75 -822.53 -822.291 -822.051 -821.81 -821.569 -821.304 -821.02 -820.735 -820.449 -820.163 -819.854 -819.523 -819.192 -818.86 -818.528 -818.173 -817.793 -817.413 -817.032 -816.652 -816.249 -815.818 -815.387 -814.956 -814.522 -814.066 -813.587 -813.103 -812.619 -812.125 -811.614 -811.087 -810.547 -810.007 -809.449 -808.881 -808.305 -807.705 -807.106 -806.481 -805.851 -805.222 -804.561 -803.896 -803.202 -802.508 -801.815 -801.098 -800.357 -799.596 -798.834 -798.073 -797.299 -796.478 -795.645 -794.812 -793.98 -793.145 -792.964 -792.78 -792.597 -792.414 -792.233 -791.512 -790.791 -790.07 -789.35 -788.618 -787.649 -786.668 -785.687 -784.707 -783.698 -782.665 -781.602 -780.539 -779.477 -778.367 -777.269 -776.12 -774.971 -773.815 -772.607 -771.424 -770.204 -768.967 -767.701 -766.403 -765.129 -763.838 -762.51 -761.13 -759.738 -758.371 -757.004 -755.577 -754.088 -752.599 -751.136 -749.674 -748.15 -746.562 -744.975 -743.414 -741.854 -740.229 -738.542 -736.854 -735.194 -733.521 -731.789 -730.017 -728.228 -726.466 -724.665 -722.831 -720.981 -719.089 -717.224 -715.293 -713.355 -711.417 -709.432 -707.442 -705.4 -703.358 -701.316 -699.253 -697.565 -695.853 -694.141 -692.43 -690.81 -690.36 -689.911 -689.461 -689.011 -688.555 -686.324 -684.088 -681.852 -679.617 -677.345 -675.038 -672.699 -670.361 -668.023 -665.615 -663.222 -660.792 -658.352 -655.88 -653.37 -650.875 -648.372 -645.831 -643.226 -640.617 -638.022 -635.427 -632.778 -630.071 -627.363 -624.67 -621.978 -619.224 -616.423 -613.62 -610.831 -608.014 -605.16 -602.293 -599.397 -596.514 -593.571 -590.624 -587.678 -584.705 -581.788 -578.838 -575.888 -572.939 -570.163 -570.042 -569.921 -569.8 -569.679 -569.557 -566.439 -563.322 -560.205 -557.089 -553.948 -550.761 -547.559 -544.358 -541.153 -537.911 -534.646 -531.371 -528.088 -524.779 -521.457 -518.111 -514.766 -511.398 -507.999 -504.598 -501.175 -497.752 -494.298 -490.824 -487.35 -483.851 -480.339 -476.807 -473.271 -469.725 -466.155 -462.552 -458.949 -455.346 -451.738 -449.553 -447.356 -445.159 -442.962 -440.834 -439.348 -437.863 -436.378 -434.892 -433.398 -429.67 -425.938 -422.207 -418.477 -414.715 -410.932 -407.139 -403.346 -399.536 -395.708 -391.863 -388.019 -384.161 -380.275 -376.389 -372.485 -368.581 -364.653 -360.711 -356.769 -352.809 -348.835 -344.846 -340.857 -336.861 -332.843 -328.801 -324.759 -320.718 -316.675 -315.565 -314.45 -313.335 -312.22 -311.12 -308.142 -305.164 -302.186 -299.208 -296.215 -292.081 -287.943 -283.806 -279.664 -275.497 -271.318 -267.138 -262.955 -258.748 -254.537 -250.313 -246.089 -241.849 -237.597 -233.344 -229.077 -224.803 -220.513 -216.223 -211.93 -207.622 -203.293 -198.965 -194.637 -190.307 -189.181 -188.05 -186.92 -185.789 -184.672 -181.435 -178.199 -174.962 -171.726 -168.476 -164.078 -159.68 -155.282 -150.878 -146.456 -142.026 -137.597 -133.166 -128.717 -124.265 -119.805 -115.346 -110.871 -106.392 -101.912 -97.4223 -92.9232 -88.4187 -83.9147 -79.4105 -76.2461 -73.0754 -69.905 -66.7348 -63.6619 -62.2875 -60.9131 -59.5387 -58.1644 -56.7863 -52.2401 -47.6949 -43.1503 -38.6054 -34.0438 -29.4777 -24.9132 -20.3509 -15.7772 -11.1996 -6.61693 -2.03478 2.55318 7.14015 11.7292 16.3241 20.9226 25.524 30.125 34.7229 37.8742 41.0284 44.1823 47.3361 50.4002 51.8742 53.3481 54.8219 56.2958 57.7718 62.3925 67.01 71.627 76.2443 80.8678 85.4943 90.1184 94.7363 99.356 103.978 108.603 113.228 117.852 122.468 127.086 131.706 136.325 140.942 145.559 150.174 151.492 152.808 154.125 155.441 156.743 160.044 163.344 166.645 169.945 173.244 177.86 182.464 187.068 191.669 196.269 200.87 205.47 210.061 214.641 219.223 223.807 228.385 232.957 237.529 242.092 244.704 247.309 249.914 252.519 255.071 257.032 258.993 260.953 262.914 264.871 269.417 273.954 278.491 283.023 287.549 292.072 296.595 301.103 305.597 310.094 314.588 319.075 323.551 328.027 332.492 335.107 337.712 340.316 342.921 345.477 347.331 349.186 351.04 352.894 354.742 359.175 363.597 368.019 372.433 376.838 381.237 385.636 390.017 394.381 398.747 403.106 407.453 411.79 416.126 420.455 422.022 423.582 425.14 426.699 428.242 430.992 433.742 436.491 439.24 441.977 446.259 450.529 454.795 459.045 463.291 467.526 471.76 475.974 480.172 484.37 488.284 492.176 496.066 499.956 503.76 504.05 504.339 504.628 504.918 505.205 509.337 513.468 517.597 521.722 525.829 529.92 534.011 538.082 542.133 546.185 550.221 554.244 558.252 562.261 566.261 567.482 568.696 569.909 571.121 572.327 575.083 577.839 580.594 583.346 586.083 590.013 593.936 597.849 601.732 605.617 609.484 613.345 617.18 621.014 624.832 626.58 628.315 630.046 631.778 633.502 635.555 637.608 639.66 641.709 643.744 647.49 651.221 654.946 658.64 662.33 666.002 669.669 673.299 676.925 680.53 682.288 684.034 685.777 687.519 689.27 691.096 692.922 694.748 696.57 698.381 701.916 705.412 708.892 712.292 715.68 719.048 722.435 725.945 729.469 733.038 734.807 736.246 737.58 738.913 740.279 741.838 743.396 744.955 746.417 747.555 749.801 752.737 755.852 760.379 765.174 769.853 774.008 776.47 778.935 780.982 781.176 781.411 781.714 782.017 782.322 784.12 785.92 787.72 790.004 792.598 795.57 798.536 801.36 804.184 806.939 807.521 808.092 808.64 809.189 809.747 811.931 814.113 816.294 818.404 820.47 823.098 825.724 828.254 830.764 833.224 833.865 834.492 835.091 835.69 836.309 838.126 839.942 841.754 843.498 845.196 847.484 849.768 851.892 853.928 855.916 856.606 857.265 857.872 858.479 859.124 860.368 861.609 862.847 864.003 865.096 866.741 868.38 869.817 871.045 872.264 872.931 873.511 873.987 874.461 874.997 875.424 875.849 876.272 876.638 876.939 877.58 878.105 878.521 878.588 878.645 878.567 878.286 877.77 877.247 876.629 876.505 876.339 876.15 875.96 875.764 874.822 873.869 872.904 871.805 870.422 868.605 866.775 864.504 861.82 859.124 856.168 852.819 849.215 845.603 841.816 840.899 839.862 838.805 837.748 836.617 832.997 829.366 825.725 822.033 817.899 812.222 806.247 799.998 793.002 785.904 778.336 770.755 762.596 753.962 745.265 736.044 725.645 714.957 704.267 693.081 688.419 683.749 679.077 674.404 669.103 661.575 654.042 646.504 638.962 631.378 617.542 601.818 586.062 569.338 549.991 529.671 509.931 492.356 478.375 464.449 449.773 435.099 407.627 367.825 327.989 286.358 253.544 237.124 228.382 231.285 233.996 177.226 119.861 62.2027 0