# vtk DataFile Version 2.0
track0
ASCII
DATASET POLYDATA
POINTS 11930 float
-0.0205 0.001 1e-005
-0.0203851 0.00100536 1.50239e-005
-0.0202701 0.00101047 1.96632e-005
-0.0201551 0.00101536 2.39708e-005
-0.0200401 0.00102 2.7942e-005
-0.0198625 0.00102682 3.35472e-005
-0.0196934 0.00103276 3.80954e-005
-0.0195243 0.0010381 4.16115e-005
-0.0193552 0.00104282 4.41047e-005
-0.019186 0.00104694 4.55841e-005
-0.0190172 0.00105044 4.60583e-005
-0.0187132 0.00105596 4.60583e-005
-0.0184093 0.00106084 4.60583e-005
-0.0181054 0.00106519 4.60583e-005
-0.0178014 0.00106902 4.60583e-005
-0.0174976 0.00107232 4.60583e-005
-0.0172058 0.00107521 4.60583e-005
-0.016914 0.00107801 4.60583e-005
-0.0166222 0.00108074 4.60583e-005
-0.0163305 0.00108341 4.60583e-005
-0.0160387 0.00108601 4.60583e-005
-0.0157586 0.00108842 4.60583e-005
-0.0154784 0.00109074 4.60583e-005
-0.0151983 0.00109299 4.60583e-005
-0.0149182 0.00109515 4.60583e-005
-0.0146381 0.00109723 4.60583e-005
-0.0143692 0.0010991 4.60583e-005
-0.0141002 0.00110087 4.60583e-005
-0.0138313 0.00110257 4.60583e-005
-0.0135624 0.00110418 4.60583e-005
-0.0132934 0.00110572 4.60583e-005
-0.0130353 0.00110712 4.60583e-005
-0.0127771 0.00110846 4.60583e-005
-0.0125189 0.00110977 4.60583e-005
-0.0122607 0.00111103 4.60583e-005
-0.0120025 0.00111226 4.60583e-005
-0.0117547 0.0011134 4.60583e-005
-0.0115068 0.00111452 4.60583e-005
-0.0112589 0.00111563 4.60583e-005
-0.0110111 0.00111671 4.60583e-005
-0.0107632 0.00111778 4.60583e-005
-0.0105252 0.00111879 4.60583e-005
-0.0102873 0.00111978 4.60583e-005
-0.0100493 0.00112076 4.60583e-005
-0.00981133 0.00112174 4.60583e-005
-0.00957337 0.0011227 4.60583e-005
-0.00934491 0.0011236 4.60583e-005
-0.00911645 0.0011245 4.60583e-005
-0.00888799 0.00112539 4.60583e-005
-0.00865954 0.00112627 4.60583e-005
-0.00843108 0.00112715 4.60583e-005
-0.00821175 0.00112798 4.60583e-005
-0.00799242 0.0011288 4.60583e-005
-0.00777309 0.00112961 4.60583e-005
-0.00755376 0.00113043 4.60583e-005
-0.00733443 0.00113123 4.60583e-005
-0.00712387 0.00113201 4.60583e-005
-0.0069133 0.00113277 4.60583e-005
-0.00670273 0.00113353 4.60583e-005
-0.00649216 0.00113429 4.60583e-005
-0.0062816 0.00113505 4.60583e-005
-0.00607944 0.00113578 4.60583e-005
-0.00587729 0.0011365 4.60583e-005
-0.00567514 0.00113722 4.60583e-005
-0.00547298 0.00113794 4.60583e-005
-0.00527083 0.00113866 4.60583e-005
-0.00507675 0.00113935 4.60583e-005
-0.00488267 0.00114003 4.60583e-005
-0.0046886 0.00114072 4.60583e-005
-0.00449452 0.0011414 4.60583e-005
-0.00430044 0.00114209 4.60583e-005
-0.00411412 0.00114275 4.60583e-005
-0.0039278 0.00114341 4.60583e-005
-0.00374147 0.00114406 4.60583e-005
-0.00355515 0.00114472 4.60583e-005
-0.00336883 0.00114538 4.60583e-005
-0.00318995 0.00114602 4.60583e-005
-0.00301107 0.00114665 4.60583e-005
-0.00283219 0.00114728 4.60583e-005
-0.00265331 0.00114791 4.60583e-005
-0.00247443 0.00114855 4.60583e-005
-0.0023027 0.00114917 4.60583e-005
-0.00213097 0.00114978 4.60583e-005
-0.00195924 0.00115039 4.60583e-005
-0.0017875 0.00115101 4.60583e-005
-0.00161577 0.00115163 4.60583e-005
-0.0014509 0.00115223 4.60583e-005
-0.00128603 0.00115283 4.60583e-005
-0.00112116 0.00115343 4.60583e-005
-0.000956289 0.00115403 4.60583e-005
-0.000791418 0.00115463 4.60583e-005
-0.000633135 0.00115523 4.60583e-005
-0.000474851 0.00115582 4.60583e-005
-0.000316567 0.00115641 4.60583e-005
-0.000158284 0.001157 4.60583e-005
0 0.00115761 4.60583e-005
0.000105677 0.00115802 4.60583e-005
0.000211355 0.00115842 4.60583e-005
0.000317032 0.00115883 4.60583e-005
0.00042271 0.00115923 4.60583e-005
0.000528387 0.00115965 4.60583e-005
0.000634886 0.00116008 4.60583e-005
0.000741385 0.0011605 4.60583e-005
0.000847885 0.00116092 4.60583e-005
0.000954384 0.00116135 4.60583e-005
0.00106088 0.00116179 4.60583e-005
0.00116821 0.00116224 4.60583e-005
0.00127554 0.00116269 4.60583e-005
0.00138286 0.00116314 4.60583e-005
0.00149019 0.00116359 4.60583e-005
0.00159752 0.00116405 4.60583e-005
0.00170568 0.00116452 4.60583e-005
0.00181384 0.001165 4.60583e-005
0.001922 0.00116547 4.60583e-005
0.00203016 0.00116595 4.60583e-005
0.00213833 0.00116643 4.60583e-005
0.00224733 0.00116692 4.60583e-005
0.00235633 0.00116741 4.60583e-005
0.00246533 0.0011679 4.60583e-005
0.00257434 0.0011684 4.60583e-005
0.00268334 0.00116889 4.60583e-005
0.00279319 0.00116939 4.60583e-005
0.00290304 0.0011699 4.60583e-005
0.00301289 0.00117041 4.60583e-005
0.00312274 0.00117092 4.60583e-005
0.00323259 0.00117143 4.60583e-005
0.00334329 0.00117193 4.60583e-005
0.003454 0.00117245 4.60583e-005
0.0035647 0.00117297 4.60583e-005
0.0036754 0.00117349 4.60583e-005
0.00378611 0.00117401 4.60583e-005
0.00389767 0.00117452 4.60583e-005
0.00400924 0.00117505 4.60583e-005
0.0041208 0.00117558 4.60583e-005
0.00423237 0.00117612 4.60583e-005
0.00434393 0.00117664 4.60583e-005
0.00445636 0.00117716 4.60583e-005
0.00456879 0.00117769 4.60583e-005
0.00468123 0.00117823 4.60583e-005
0.00479366 0.00117877 4.60583e-005
0.00490609 0.00117931 4.60583e-005
0.0050194 0.00117982 4.60583e-005
0.0051327 0.00118036 4.60583e-005
0.00524601 0.0011809 4.60583e-005
0.00535931 0.00118145 4.60583e-005
0.00547262 0.00118199 4.60583e-005
0.00558681 0.00118251 4.60583e-005
0.005701 0.00118305 4.60583e-005
0.00581518 0.00118359 4.60583e-005
0.00592937 0.00118414 4.60583e-005
0.00604356 0.00118468 4.60583e-005
0.00615863 0.0011852 4.60583e-005
0.00627371 0.00118574 4.60583e-005
0.00638878 0.00118629 4.60583e-005
0.00650386 0.00118683 4.60583e-005
0.00661893 0.00118737 4.60583e-005
0.0067349 0.0011879 4.60583e-005
0.00685087 0.00118844 4.60583e-005
0.00696684 0.00118898 4.60583e-005
0.00708281 0.00118952 4.60583e-005
0.00719878 0.00119006 4.60583e-005
0.00731565 0.00119059 4.60583e-005
0.00743252 0.00119113 4.60583e-005
0.00754939 0.00119166 4.60583e-005
0.00766626 0.0011922 4.60583e-005
0.00778313 0.00119273 4.60583e-005
0.00790091 0.00119326 4.60583e-005
0.00801869 0.00119379 4.60583e-005
0.00813647 0.00119432 4.60583e-005
0.00825425 0.00119485 4.60583e-005
0.00837203 0.00119538 4.60583e-005
0.00849073 0.0011959 4.60583e-005
0.00860942 0.00119643 4.60583e-005
0.00872812 0.00119695 4.60583e-005
0.00884682 0.00119748 4.60583e-005
0.00896551 0.001198 4.60583e-005
0.00908513 0.00119852 4.60583e-005
0.00920475 0.00119904 4.60583e-005
0.00932437 0.00119956 4.60583e-005
0.00944398 0.00120007 4.60583e-005
0.0095636 0.00120059 4.60583e-005
0.00968415 0.0012011 4.60583e-005
0.0098047 0.00120161 4.60583e-005
0.00992525 0.00120212 4.60583e-005
0.0100458 0.00120263 4.60583e-005
0.0101663 0.00120314 4.60583e-005
0.0102878 0.00120364 4.60583e-005
0.0104093 0.00120415 4.60583e-005
0.0105308 0.00120465 4.60583e-005
0.0106523 0.00120515 4.60583e-005
0.0107738 0.00120565 4.60583e-005
0.0108962 0.00120614 4.60583e-005
0.0110186 0.00120664 4.60583e-005
0.0111411 0.00120713 4.60583e-005
0.0112635 0.00120762 4.60583e-005
0.0113859 0.00120811 4.60583e-005
0.0115093 0.0012086 4.60583e-005
0.0116327 0.00120908 4.60583e-005
0.0117561 0.00120957 4.60583e-005
0.0118795 0.00121005 4.60583e-005
0.0120028 0.00121053 4.60583e-005
0.0121272 0.001211 4.60583e-005
0.0122515 0.00121148 4.60583e-005
0.0123759 0.00121195 4.60583e-005
0.0125002 0.00121242 4.60583e-005
0.0126245 0.00121289 4.60583e-005
0.0127498 0.00121335 4.60583e-005
0.0128752 0.00121381 4.60583e-005
0.0130005 0.00121427 4.60583e-005
0.0131258 0.00121473 4.60583e-005
0.0132511 0.00121518 4.60583e-005
0.0133774 0.00121563 4.60583e-005
0.0135036 0.00121608 4.60583e-005
0.0136299 0.00121653 4.60583e-005
0.0137562 0.00121697 4.60583e-005
0.0138825 0.00121741 4.60583e-005
0.0140098 0.00121784 4.60583e-005
0.014137 0.00121828 4.60583e-005
0.0142643 0.00121871 4.60583e-005
0.0143915 0.00121914 4.60583e-005
0.0145188 0.00121956 4.60583e-005
0.0146471 0.00121997 4.60583e-005
0.0147753 0.00122039 4.60583e-005
0.0149036 0.0012208 4.60583e-005
0.0150318 0.00122121 4.60583e-005
0.0151601 0.00122161 4.60583e-005
0.0152893 0.00122201 4.60583e-005
0.0154186 0.00122241 4.60583e-005
0.0155478 0.0012228 4.60583e-005
0.0156771 0.00122318 4.60583e-005
0.0158063 0.00122356 4.60583e-005
0.0159366 0.00122394 4.60583e-005
0.0160668 0.00122431 4.60583e-005
0.0161971 0.00122468 4.60583e-005
0.0163274 0.00122504 4.60583e-005
0.0164576 0.0012254 4.60583e-005
0.0165889 0.00122575 4.60583e-005
0.0167201 0.0012261 4.60583e-005
0.0168514 0.00122644 4.60583e-005
0.0169827 0.00122678 4.60583e-005
0.0171139 0.00122711 4.60583e-005
0.017208 0.00122734 4.60583e-005
0.0173021 0.00122756 4.60583e-005
0.0173962 0.00122779 4.60583e-005
0.0174903 0.00122801 4.60583e-005
0.0175814 0.00122822 4.60583e-005
0.0176202 0.00122831 4.60583e-005
0.017659 0.0012284 4.60583e-005
0.0176978 0.00122849 4.60583e-005
0.0177366 0.00122857 4.60583e-005
0.0177754 0.00122866 4.60583e-005
0.0179087 0.00122895 4.60583e-005
0.018042 0.00122924 4.60583e-005
0.0181753 0.00122952 4.60583e-005
0.0183087 0.00122979 4.60583e-005
0.018442 0.00123006 4.60583e-005
0.0185763 0.00123031 4.60583e-005
0.0187107 0.00123057 4.60583e-005
0.018845 0.00123081 4.60583e-005
0.0189794 0.00123105 4.60583e-005
0.0191137 0.00123127 4.60583e-005
0.0192491 0.00123149 4.60583e-005
0.0193845 0.0012317 4.60583e-005
0.0195199 0.00123191 4.60583e-005
0.0196553 0.0012321 4.60583e-005
0.0197907 0.00123229 4.60583e-005
0.0199272 0.00123247 4.60583e-005
0.0200636 0.00123264 4.60583e-005
0.0202001 0.0012328 4.60583e-005
0.0203365 0.00123295 4.60583e-005
0.020473 0.00123309 4.60583e-005
0.0206105 0.00123323 4.60583e-005
0.020748 0.00123335 4.60583e-005
0.0208855 0.00123347 4.60583e-005
0.021023 0.00123357 4.60583e-005
0.0211606 0.00123367 4.60583e-005
0.0212991 0.00123375 4.60583e-005
0.0214377 0.00123383 4.60583e-005
0.0215763 0.0012339 4.60583e-005
0.0217149 0.00123395 4.60583e-005
0.0218535 0.001234 4.60583e-005
0.0219931 0.00123404 4.60583e-005
0.0221328 0.00123406 4.60583e-005
0.0222724 0.00123408 4.60583e-005
0.0224121 0.00123408 4.60583e-005
0.0225517 0.00123407 4.60583e-005
0.0226925 0.00123406 4.60583e-005
[...]
POINT_DATA 11930
 FIELD attributes 2
p 1 11930 float
-1543.37 -1530.8 -1517 -1503.36 -1489.87 -1469.28 -1454.63 -1439.9 -1425.1 -1410.23 -1389.48 -1341.42 -1293.44 -1245.52 -1197.66 -1155.26 -1123.67 -1098.28 -1072.9 -1047.53 -1030.78 -1019.02 -1009.54 -1000.06 -990.586 -982.959 -976.139 -968.192 -960.245 -952.298 -943.26 -934.773 -926.113 -917.448 -908.804 -900.409 -892.43 -885.234 -878.129 -871.179 -865.147 -859.372 -854.165 -849.076 -844.141 -839.791 -835.624 -831.674 -827.791 -823.994 -820.436 -817.028 -813.743 -810.51 -807.345 -804.33 -801.433 -798.658 -795.947 -793.314 -790.818 -788.405 -786.101 -783.868 -781.716 -779.681 -777.694 -775.789 -773.948 -772.179 -770.499 -768.832 -767.229 -765.684 -764.209 -762.802 -761.377 -760.002 -758.68 -757.427 -756.232 -754.988 -753.79 -752.65 -751.585 -750.576 -749.487 -748.43 -747.42 -746.49 -745.61 -744.627 -743.696 -742.859 -742.149 -741.506 -740.767 -740.093 -739.539 -739.129 -738.805 -738.29 -737.819 -737.41 -737.102 -736.869 -736.439 -736.116 -735.917 -735.84 -735.88 -735.725 -735.661 -735.68 -735.766 -735.934 -736.046 -736.15 -736.246 -736.333 -736.406 -736.679 -736.847 -736.954 -737 -736.931 -737.313 -737.522 -737.65 -737.694 -737.532 -737.992 -738.228 -738.382 -738.448 -738.234 -738.721 -738.941 -739.089 -739.161 -738.904 -739.352 -739.518 -739.629 -739.689 -739.414 -739.787 -739.906 -739.993 -740.054 -739.814 -740.112 -740.206 -740.288 -740.362 -740.19 -740.415 -740.488 -740.56 -740.632 -740.531 -740.679 -740.735 -740.791 -740.847 -740.808 -740.896 -740.944 -740.992 -741.04 -741.056 -741.111 -741.163 -741.215 -741.267 -741.325 -741.368 -741.425 -741.482 -741.54 -741.623 -741.667 -741.729 -741.791 -741.853 -741.949 -742.005 -742.074 -742.143 -742.212 -742.309 -742.387 -742.466 -742.544 -742.623 -742.717 -742.823 -742.915 -743.007 -743.098 -743.19 -743.324 -743.43 -743.537 -743.643 -743.733 -743.892 -744.012 -744.131 -744.251 -744.342 -744.52 -744.652 -744.784 -744.916 -745.012 -745.203 -745.347 -745.491 -745.635 -745.74 -745.942 -746.098 -746.254 -746.411 -746.531 -746.738 -746.906 -747.075 -747.243 -747.383 -747.593 -747.776 -747.958 -748.14 -748.304 -748.519 -748.717 -748.915 -749.113 -749.303 -749.46 -749.61 -749.761 -749.911 -750.056 -750.118 -750.18 -750.242 -750.304 -750.376 -750.589 -750.811 -751.034 -751.256 -751.523 -751.718 -751.952 -752.187 -752.422 -752.732 -752.914 -753.161 -753.408 -753.655 -754.003 -754.177 -754.435 -754.694 -754.953 -755.33 -755.504 -755.774 -756.044 -756.315 -756.713 -756.894 -757.176 -757.458 -757.739 -758.15 -758.346 -758.639 -758.932 -759.225 -759.638 -759.857 -760.161 -760.464 -760.768 -761.176 -761.424 -761.738 -762.052 -762.367 -762.761 -763.044 -763.368 -763.693 -764.017 -764.392 -764.713 -765.047 -765.381 -765.715 -766.066 -766.427 -766.771 -767.114 -767.457 -767.781 -768.181 -768.535 -768.887 -769.234 -769.536 -769.966 -770.338 -770.698 -771.043 -771.33 -771.784 -772.175 -772.544 -772.883 -773.16 -773.632 -774.044 -774.421 -774.753 -775.026 -775.511 -775.945 -776.33 -776.657 -776.932 -777.427 -777.883 -778.277 -778.596 -778.875 -779.379 -779.855 -780.256 -780.565 -780.846 -781.354 -781.846 -782.25 -782.549 -782.833 -783.337 -783.839 -784.243 -784.534 -784.824 -785.319 -785.815 -786.215 -786.514 -786.814 -787.297 -787.781 -788.18 -788.491 -788.801 -789.271 -789.74 -790.137 -790.459 -790.781 -791.235 -791.689 -792.083 -792.417 -792.75 -793.187 -793.625 -794.015 -794.358 -794.701 -795.121 -795.541 -795.927 -796.277 -796.627 -797.03 -797.433 -797.812 -798.167 -798.522 -798.907 -799.292 -799.664 -800.021 -800.379 -800.747 -801.114 -801.477 -801.835 -802.191 -802.542 -802.894 -803.247 -803.6 -803.952 -804.286 -804.624 -804.966 -805.31 -805.655 -805.973 -806.298 -806.627 -806.959 -807.294 -807.595 -807.907 -808.222 -808.539 -808.862 -809.147 -809.444 -809.743 -810.043 -810.352 -810.618 -810.9 -811.181 -811.463 -811.754 -812.002 -812.264 -812.527 -812.789 -813.061 -813.29 -813.532 -813.774 -814.016 -814.267 -814.477 -814.698 -814.919 -815.14 -815.368 -815.559 -815.757 -815.956 -816.155 -816.357 -816.528 -816.703 -816.878 -817.053 -817.219 -817.222 -817.224 -817.226 -817.229 -817.231 -817.382 -817.532 -817.683 -817.834 -817.983 -818.107 -818.228 -818.349 -818.47 -818.587 -818.683 -818.772 -818.862 -818.952 -819.035 -819.103 -819.16 -819.217 -819.274 -819.322 -819.36 -819.382 -819.405 -819.428 -819.436 -819.443 -819.428 -819.414 -819.397 -819.365 -819.334 -819.285 -819.231 -819.171 -819.099 -819.028 -818.944 -818.849 -818.743 -818.629 -818.517 -818.397 -818.259 -818.106 -817.947 -817.791 -817.633 -817.451 -817.246 -817.041 -816.838 -816.636 -816.405 -816.15 -815.896 -815.643 -815.392 -815.112 -814.804 -814.497 -814.192 -813.888 -813.556 -813.194 -812.831 -812.472 -812.112 -811.725 -811.305 -810.885 -810.467 -810.046 -809.599 -809.124 -808.644 -808.165 -807.675 -807.165 -806.637 -806.094 -805.552 -804.99 -804.415 -803.831 -803.221 -802.613 -801.974 -801.331 -800.689 -800.011 -799.328 -798.615 -797.901 -797.187 -796.45 -795.685 -794.898 -794.111 -793.324 -792.524 -791.674 -790.811 -789.949 -789.087 -788.223 -788.069 -787.913 -787.756 -787.6 -787.446 -786.666 -785.887 -785.107 -784.328 -783.536 -782.535 -781.522 -780.508 -779.495 -778.453 -777.387 -776.293 -775.198 -774.104 -772.964 -771.833 -770.656 -769.479 -768.293 -767.061 -765.847 -764.602 -763.342 -762.054 -760.736 -759.437 -758.125 -756.78 -755.386 -753.983 -752.597 -751.212 -749.776 -748.285 -746.794 -745.321 -743.849 -742.324 -740.744 -739.165 -737.605 -736.045 -734.43 -732.762 -731.095 -729.446 -727.786 -726.077 -724.336 -722.58 -720.843 -719.07 -717.272 -715.463 -713.617 -711.792 -709.907 -708.019 -706.132 -704.207 -702.272 -700.294 -698.317 -696.34 -694.348 -692.902 -691.439 -689.976 -688.513 -687.115 -686.502 -685.89 -685.277 -684.665 -684.045 -681.907 -679.764 -677.621 -675.479 -673.303 -671.099 -668.867 -666.635 -664.403 -662.111 -659.831 -657.52 -655.2 -652.85 -650.469 -648.1 -645.725 -643.315 -640.848 -638.377 -635.919 -633.462 -630.955 -628.395 -625.835 -623.288 -620.743 -618.14 -615.493 -612.844 -610.209 -607.549 -604.853 -602.143 -599.406 -596.683 -593.902 -591.117 -588.332 -585.52 -582.68 -579.806 -576.932 -574.059 -571.185 -571.104 -571.022 -570.94 -570.859 -570.777 -567.902 -565.028 -562.153 -559.28 -556.383 -553.353 -550.309 -547.265 -544.22 -541.13 -538.02 -534.896 -531.764 -528.605 -525.426 -522.227 -519.029 -515.803 -512.535 -509.268 -505.98 -502.693 -499.367 -496.011 -492.654 -489.278 -485.887 -482.464 -479.031 -475.586 -472.121 -468.613 -465.101 -461.589 -458.063 -455.161 -452.235 -449.309 -446.384 -443.592 -442.891 -442.191 -441.491 -440.791 -440.084 -436.405 -432.724 -429.043 -425.363 -421.642 -417.895 -414.127 -410.359 -406.573 -402.75 -398.917 -395.081 -391.227 -387.32 -383.412 -379.493 -375.575 -371.617 -367.626 -363.633 -359.63 -355.611 -351.557 -347.494 -343.419 -339.332 -335.197 -331.06 -326.924 -322.777 -320.686 -318.578 -316.47 -314.361 -312.312 -310.195 -308.078 -305.962 -303.845 -301.71 -297.431 -293.143 -288.856 -284.568 -280.228 -275.883 -271.528 -267.167 -262.768 -258.356 -253.937 -249.518 -245.07 -240.59 -236.108 -231.619 -227.122 -222.589 -218.05 -213.503 -208.948 -204.352 -199.754 -195.157 -190.553 -188.874 -187.184 -185.493 -183.803 -182.146 -179.172 -176.198 -173.224 -170.251 -167.255 -162.548 -157.833 -153.119 -148.395 -143.642 -138.883 -134.123 -129.355 -124.557 -119.756 -114.949 -110.143 -105.312 -100.472 -95.6291 -90.7785 -85.9121 -81.0384 -76.1654 -71.2869 -68.4447 -65.5932 -62.7419 -59.8908 -57.1258 -55.0524 -52.9791 -50.9059 -48.8328 -46.7516 -41.8157 -36.8801 -31.9451 -27.0075 -22.0541 -17.0943 -12.1356 -7.17846 -2.21128 2.75882 7.73648 12.7135 17.6958 22.6743 27.655 32.6444 37.6346 42.6245 47.6139 52.6033 54.0487 55.4932 56.9376 58.382 59.8068 63.3632 66.9193 70.4751 74.0307 77.5868 82.5921 87.5875 92.5821 97.5728 102.564 107.562 112.56 117.545 122.519 127.497 132.481 137.459 142.428 147.396 152.354 155.416 158.466 161.515 164.565 167.538 169.455 171.371 173.288 175.205 177.115 182.057 186.989 191.92 196.844 201.756 206.673 211.59 216.485 221.358 226.235 231.116 235.988 240.84 245.689 250.525 253.675 256.805 259.934 263.063 266.124 267.824 269.524 271.223 272.922 274.612 279.404 284.184 288.964 293.731 298.481 303.231 307.981 312.703 317.396 322.092 326.788 331.467 336.124 340.782 345.423 347.581 349.721 351.86 353.999 356.113 358.589 361.065 363.542 366.017 368.474 373.055 377.613 382.171 386.705 391.226 395.742 400.258 404.742 409.193 413.647 418.095 422.51 426.916 431.321 435.723 436.23 436.733 437.236 437.738 438.239 442.095 445.951 449.807 453.66 457.481 461.793 466.098 470.384 474.63 478.879 483.117 487.347 491.543 495.731 499.904 502.553 505.179 507.801 510.423 513.024 514.536 516.048 517.56 519.071 520.568 524.657 528.728 532.799 536.849 540.88 544.897 548.914 552.899 556.852 560.806 564.745 568.651 572.548 576.446 580.342 580.505 580.665 580.826 580.986 581.147 584.834 588.521 592.208 595.888 599.537 603.33 607.123 610.883 614.612 618.342 622.055 625.749 629.421 633.094 636.753 637.758 638.754 639.748 640.742 641.735 644.357 646.978 649.599 652.215 654.808 658.375 661.934 665.473 668.976 672.479 675.963 679.437 682.881 686.326 689.744 691.186 692.613 694.036 695.459 696.89 698.842 700.793 702.745 704.691 706.619 709.948 713.261 716.565 719.84 723.111 726.362 729.602 732.763 735.907 739.007 740.728 742.51 744.31 746.109 747.952 749.342 750.732 752.122 753.523 754.973 758.257 761.083 763.907 766.148 768.149 770.115 772.081 775.501 779.809 784.298 786.763 788.669 789.91 791.153 792.43 793.958 795.485 797.011 798.067 798.701 800.155 801.685 803.641 806.287 808.927 810.963 812.955 814.882 816.81 818.853 819.452 820.05 820.649 821.231 821.798 824.316 826.767 829.216 831.536 833.843 835.934 837.992 839.997 842 844.215 844.392 844.569 844.746 844.919 845.09 847.264 849.411 851.554 853.597 855.593 857.569 859.491 861.286 863.078 864.825 864.992 865.15 865.295 865.44 865.587 867.06 868.526 869.988 871.346 872.616 873.969 875.316 876.432 877.457 878.408 878.763 879.055 879.286 879.516 879.766 880.233 880.697 881.158 881.543 881.834 882.219 882.589 882.683 882.523 882.353 882.056 881.519 880.82 880.114 879.276 879.254 879.225 879.194 879.162 879.131 877.876 876.607 875.324 873.902 872.166 870.175 868.172 865.752 862.924 860.085 856.987 853.457 849.733 846.003 842.148 841.461 840.687 839.902 839.116 838.291 834.315 830.325 826.324 822.276 817.762 812.003 805.991 799.667 792.579 785.425 777.803 770.168 761.95 753.304 744.575 735.325 724.877 714.175 703.47 692.295 687.816 683.332 678.846 674.359 669.302 661.576 653.845 646.11 638.37 630.591 616.798 601.083 585.336 568.6 549.272 528.973 509.236 491.685 477.745 463.843 449.194 434.547 407.109 367.347 327.552 285.964 253.241 236.856 228.099 231.032 233.775 176.95 119.641 62.0371 0