# vtk DataFile Version 2.0
track0
ASCII
DATASET POLYDATA
POINTS 11965 float
-0.0205 0.001 1e-005
-0.0203844 0.00100536 1.50522e-005
-0.0202688 0.00101048 1.97158e-005
-0.0201532 0.00101537 2.4044e-005
-0.0200376 0.00102004 2.8032e-005
-0.0198609 0.00102682 3.35976e-005
-0.0196921 0.00103278 3.81313e-005
-0.0195233 0.00103813 4.16362e-005
-0.0193545 0.00104289 4.41209e-005
-0.0191857 0.00104704 4.55942e-005
-0.0190172 0.00105058 4.60642e-005
-0.0187132 0.00105622 4.60642e-005
-0.0184093 0.00106133 4.60642e-005
-0.0181054 0.00106599 4.60642e-005
-0.0178014 0.00107022 4.60642e-005
-0.0174976 0.001074 4.60642e-005
-0.0172058 0.00107734 4.60642e-005
-0.016914 0.00108061 4.60642e-005
-0.0166222 0.00108375 4.60642e-005
-0.0163305 0.00108679 4.60642e-005
-0.0160387 0.0010897 4.60642e-005
-0.0157586 0.00109232 4.60642e-005
-0.0154784 0.00109486 4.60642e-005
-0.0151983 0.00109728 4.60642e-005
-0.0149182 0.00109958 4.60642e-005
-0.0146381 0.00110177 4.60642e-005
-0.0143692 0.0011037 4.60642e-005
-0.0141002 0.00110554 4.60642e-005
-0.0138313 0.0011073 4.60642e-005
-0.0135624 0.00110898 4.60642e-005
-0.0132934 0.00111058 4.60642e-005
-0.0130353 0.00111201 4.60642e-005
-0.0127771 0.0011134 4.60642e-005
-0.0125189 0.00111475 4.60642e-005
-0.0122607 0.00111606 4.60642e-005
-0.0120025 0.00111733 4.60642e-005
-0.0117547 0.0011185 4.60642e-005
-0.0115068 0.00111965 4.60642e-005
-0.0112589 0.00112079 4.60642e-005
-0.0110111 0.00112191 4.60642e-005
-0.0107632 0.00112301 4.60642e-005
-0.0105252 0.00112403 4.60642e-005
-0.0102873 0.00112504 4.60642e-005
-0.0100493 0.00112605 4.60642e-005
-0.00981133 0.00112703 4.60642e-005
-0.00957337 0.00112801 4.60642e-005
-0.00934491 0.00112892 4.60642e-005
-0.00911645 0.00112983 4.60642e-005
-0.00888799 0.00113072 4.60642e-005
-0.00865954 0.00113161 4.60642e-005
-0.00843108 0.00113248 4.60642e-005
-0.00821175 0.00113331 4.60642e-005
-0.00799242 0.00113413 4.60642e-005
-0.00777309 0.00113494 4.60642e-005
-0.00755376 0.00113575 4.60642e-005
-0.00733443 0.00113655 4.60642e-005
-0.00712387 0.00113732 4.60642e-005
-0.0069133 0.00113807 4.60642e-005
-0.00670273 0.00113883 4.60642e-005
-0.00649216 0.00113958 4.60642e-005
-0.0062816 0.00114032 4.60642e-005
-0.00607944 0.00114104 4.60642e-005
-0.00587729 0.00114175 4.60642e-005
-0.00567514 0.00114246 4.60642e-005
-0.00547298 0.00114316 4.60642e-005
-0.00527083 0.00114387 4.60642e-005
-0.00507675 0.00114455 4.60642e-005
-0.00488267 0.00114522 4.60642e-005
-0.0046886 0.00114589 4.60642e-005
-0.00449452 0.00114656 4.60642e-005
-0.00430044 0.00114723 4.60642e-005
-0.00411412 0.00114788 4.60642e-005
-0.0039278 0.00114852 4.60642e-005
-0.00374147 0.00114916 4.60642e-005
-0.00355515 0.0011498 4.60642e-005
-0.00336883 0.00115045 4.60642e-005
-0.00318995 0.00115107 4.60642e-005
-0.00301107 0.00115169 4.60642e-005
-0.00283219 0.00115231 4.60642e-005
-0.00265331 0.00115292 4.60642e-005
-0.00247443 0.00115355 4.60642e-005
-0.0023027 0.00115415 4.60642e-005
-0.00213097 0.00115475 4.60642e-005
-0.00195924 0.00115535 4.60642e-005
-0.0017875 0.00115595 4.60642e-005
-0.00161577 0.00115656 4.60642e-005
-0.0014509 0.00115715 4.60642e-005
-0.00128603 0.00115773 4.60642e-005
-0.00112116 0.00115831 4.60642e-005
-0.000956289 0.0011589 4.60642e-005
-0.000791418 0.0011595 4.60642e-005
-0.000633135 0.00116008 4.60642e-005
-0.000474851 0.00116067 4.60642e-005
-0.000316567 0.00116125 4.60642e-005
-0.000158284 0.00116183 4.60642e-005
0 0.00116243 4.60642e-005
0.000105677 0.00116284 4.60642e-005
0.000211355 0.00116325 4.60642e-005
0.000317032 0.00116366 4.60642e-005
0.00042271 0.00116407 4.60642e-005
0.000528387 0.00116449 4.60642e-005
0.000634886 0.00116492 4.60642e-005
0.000741385 0.00116536 4.60642e-005
0.000847885 0.00116579 4.60642e-005
0.000954384 0.00116622 4.60642e-005
0.00106088 0.00116667 4.60642e-005
0.00116821 0.00116714 4.60642e-005
0.00127554 0.0011676 4.60642e-005
0.00138286 0.00116806 4.60642e-005
0.00149019 0.00116853 4.60642e-005
0.00159752 0.001169 4.60642e-005
0.00170568 0.0011695 4.60642e-005
0.00181384 0.00116999 4.60642e-005
0.001922 0.00117047 4.60642e-005
0.00203016 0.00117096 4.60642e-005
0.00213833 0.00117146 4.60642e-005
0.00224733 0.00117197 4.60642e-005
0.00235633 0.00117247 4.60642e-005
0.00246533 0.00117298 4.60642e-005
0.00257434 0.00117349 4.60642e-005
0.00268334 0.001174 4.60642e-005
0.00279319 0.00117452 4.60642e-005
0.00290304 0.00117504 4.60642e-005
0.00301289 0.00117557 4.60642e-005
0.00312274 0.0011761 4.60642e-005
0.00323259 0.00117662 4.60642e-005
0.00334329 0.00117715 4.60642e-005
0.003454 0.00117768 4.60642e-005
0.0035647 0.00117823 4.60642e-005
0.0036754 0.00117877 4.60642e-005
0.00378611 0.00117931 4.60642e-005
0.00389767 0.00117984 4.60642e-005
0.00400924 0.00118039 4.60642e-005
0.0041208 0.00118095 4.60642e-005
0.00423237 0.00118151 4.60642e-005
0.00434393 0.00118206 4.60642e-005
0.00445636 0.0011826 4.60642e-005
0.00456879 0.00118316 4.60642e-005
0.00468123 0.00118372 4.60642e-005
0.00479366 0.00118429 4.60642e-005
0.00490609 0.00118485 4.60642e-005
0.0050194 0.00118539 4.60642e-005
0.0051327 0.00118596 4.60642e-005
0.00524601 0.00118653 4.60642e-005
0.00535931 0.0011871 4.60642e-005
0.00547262 0.00118767 4.60642e-005
0.00558681 0.00118822 4.60642e-005
0.005701 0.00118879 4.60642e-005
0.00581518 0.00118936 4.60642e-005
0.00592937 0.00118994 4.60642e-005
0.00604356 0.00119051 4.60642e-005
0.00615863 0.00119106 4.60642e-005
0.00627371 0.00119164 4.60642e-005
0.00638878 0.00119221 4.60642e-005
0.00650386 0.00119279 4.60642e-005
0.00661893 0.00119336 4.60642e-005
0.0067349 0.00119392 4.60642e-005
0.00685087 0.0011945 4.60642e-005
0.00696684 0.00119507 4.60642e-005
0.00708281 0.00119564 4.60642e-005
0.00719878 0.00119622 4.60642e-005
0.00731565 0.00119678 4.60642e-005
0.00743252 0.00119735 4.60642e-005
0.00754939 0.00119792 4.60642e-005
0.00766626 0.00119849 4.60642e-005
0.00778313 0.00119906 4.60642e-005
0.00790091 0.00119962 4.60642e-005
0.00801869 0.00120019 4.60642e-005
0.00813647 0.00120075 4.60642e-005
0.00825425 0.00120132 4.60642e-005
0.00837203 0.00120188 4.60642e-005
0.00849073 0.00120244 4.60642e-005
0.00860942 0.001203 4.60642e-005
0.00872812 0.00120356 4.60642e-005
0.00884682 0.00120412 4.60642e-005
0.00896551 0.00120468 4.60642e-005
0.00908513 0.00120523 4.60642e-005
0.00920475 0.00120579 4.60642e-005
0.00932437 0.00120634 4.60642e-005
0.00944398 0.00120689 4.60642e-005
0.0095636 0.00120744 4.60642e-005
0.00968415 0.00120799 4.60642e-005
0.0098047 0.00120854 4.60642e-005
0.00992525 0.00120908 4.60642e-005
0.0100458 0.00120963 4.60642e-005
0.0101663 0.00121017 4.60642e-005
0.0102878 0.0012107 4.60642e-005
0.0104093 0.00121124 4.60642e-005
0.0105308 0.00121178 4.60642e-005
0.0106523 0.00121231 4.60642e-005
0.0107738 0.00121284 4.60642e-005
0.0108962 0.00121337 4.60642e-005
0.0110186 0.0012139 4.60642e-005
0.0111411 0.00121442 4.60642e-005
0.0112635 0.00121494 4.60642e-005
0.0113859 0.00121546 4.60642e-005
0.0115093 0.00121598 4.60642e-005
0.0116327 0.0012165 4.60642e-005
0.0117561 0.00121701 4.60642e-005
0.0118795 0.00121752 4.60642e-005
0.0120028 0.00121803 4.60642e-005
0.0121272 0.00121853 4.60642e-005
0.0122515 0.00121903 4.60642e-005
0.0123759 0.00121954 4.60642e-005
0.0125002 0.00122003 4.60642e-005
0.0126245 0.00122053 4.60642e-005
0.0127498 0.00122101 4.60642e-005
0.0128752 0.0012215 4.60642e-005
0.0130005 0.00122199 4.60642e-005
0.0131258 0.00122247 4.60642e-005
0.0132511 0.00122295 4.60642e-005
0.0133774 0.00122342 4.60642e-005
0.0135036 0.0012239 4.60642e-005
0.0136299 0.00122437 4.60642e-005
0.0137562 0.00122483 4.60642e-005
0.0138825 0.00122529 4.60642e-005
0.0140098 0.00122574 4.60642e-005
0.014137 0.0012262 4.60642e-005
0.0142643 0.00122665 4.60642e-005
0.0143915 0.00122709 4.60642e-005
0.0145188 0.00122753 4.60642e-005
0.0146471 0.00122796 4.60642e-005
0.0147753 0.0012284 4.60642e-005
0.0149036 0.00122883 4.60642e-005
0.0150318 0.00122925 4.60642e-005
0.0151601 0.00122967 4.60642e-005
0.0152893 0.00123007 4.60642e-005
0.0154186 0.00123048 4.60642e-005
0.0155478 0.00123089 4.60642e-005
0.0156771 0.00123129 4.60642e-005
0.0158063 0.00123168 4.60642e-005
0.0159366 0.00123206 4.60642e-005
0.0160668 0.00123244 4.60642e-005
0.0161971 0.00123282 4.60642e-005
0.0163274 0.00123319 4.60642e-005
0.0164576 0.00123355 4.60642e-005
0.0165889 0.0012339 4.60642e-005
0.0167201 0.00123426 4.60642e-005
0.0168514 0.0012346 4.60642e-005
0.0169827 0.00123494 4.60642e-005
0.0171139 0.00123528 4.60642e-005
0.0172462 0.0012356 4.60642e-005
0.0173785 0.00123592 4.60642e-005
0.0175108 0.00123623 4.60642e-005
0.0176431 0.00123654 4.60642e-005
0.0177754 0.00123683 4.60642e-005
0.0179087 0.00123712 4.60642e-005
0.018042 0.0012374 4.60642e-005
0.0181753 0.00123768 4.60642e-005
0.0183087 0.00123795 4.60642e-005
0.018442 0.0012382 4.60642e-005
0.0184445 0.00123821 4.60642e-005
0.0184471 0.00123821 4.60642e-005
0.0184497 0.00123822 4.60642e-005
0.0184522 0.00123822 4.60642e-005
0.0184548 0.00123823 4.60642e-005
0.0185866 0.00123847 4.60642e-005
0.0187184 0.00123871 4.60642e-005
0.0188502 0.00123894 4.60642e-005
0.018982 0.00123916 4.60642e-005
0.0191137 0.00123937 4.60642e-005
0.0192491 0.00123958 4.60642e-005
0.0193845 0.00123978 4.60642e-005
0.0195199 0.00123996 4.60642e-005
0.0196553 0.00124014 4.60642e-005
0.0197907 0.00124031 4.60642e-005
0.0199272 0.00124047 4.60642e-005
0.0200636 0.00124062 4.60642e-005
0.0202001 0.00124076 4.60642e-005
0.0203365 0.00124089 4.60642e-005
0.020473 0.00124101 4.60642e-005
0.0206105 0.00124112 4.60642e-005
0.020748 0.00124121 4.60642e-005
0.0208855 0.0012413 4.60642e-005
0.021023 0.00124138 4.60642e-005
0.0211606 0.00124144 4.60642e-005
0.0212991 0.0012415 4.60642e-005
0.0214377 0.00124154 4.60642e-005
0.0215763 0.00124157 4.60642e-005
0.0217149 0.00124159 4.60642e-005
0.0218535 0.0012416 4.60642e-005
0.0219931 0.0012416 4.60642e-005
0.0221328 0.00124159 4.60642e-005
0.0222724 0.00124156 4.60642e-005
0.0224121 0.00124152 4.60642e-005
0.0225517 0.00124147 4.60642e-005
0.0226925 0.00124142 4.60642e-005
[...]
POINT_DATA 11965
 FIELD attributes 2
p 1 11965 float
-1637.33 -1624.49 -1610.44 -1596.53 -1582.76 -1561.97 -1547.13 -1532.22 -1517.23 -1502.16 -1481.04 -1432.47 -1384.06 -1335.71 -1287.41 -1245.02 -1213.33 -1188.03 -1162.74 -1137.46 -1121.28 -1109.55 -1100.12 -1090.71 -1081.29 -1073.72 -1067.06 -1059.14 -1051.22 -1043.25 -1034.15 -1025.77 -1017.18 -1008.57 -999.987 -991.571 -983.701 -976.517 -969.473 -962.638 -956.596 -950.915 -945.727 -940.695 -935.85 -931.5 -927.409 -923.499 -919.668 -915.932 -912.388 -909.046 -905.804 -902.617 -899.504 -896.509 -893.669 -890.928 -888.255 -885.665 -883.182 -880.814 -878.532 -876.325 -874.201 -872.168 -870.213 -868.321 -866.492 -864.736 -863.046 -861.399 -859.8 -858.258 -856.782 -855.356 -853.942 -852.564 -851.236 -849.971 -848.749 -847.507 -846.298 -845.143 -844.061 -843.02 -841.926 -840.852 -839.816 -838.856 -837.933 -836.937 -835.984 -835.133 -834.416 -833.753 -833.025 -832.345 -831.783 -831.367 -831.016 -830.493 -830.007 -829.589 -829.283 -829.042 -828.605 -828.272 -828.091 -828.06 -828.14 -828.017 -827.971 -828.016 -828.137 -828.329 -828.492 -828.628 -828.739 -828.827 -828.889 -829.219 -829.434 -829.561 -829.6 -829.511 -829.95 -830.218 -830.38 -830.424 -830.256 -830.765 -831.058 -831.245 -831.31 -831.099 -831.611 -831.873 -832.038 -832.099 -831.853 -832.3 -832.501 -832.631 -832.685 -832.446 -832.813 -832.973 -833.089 -833.16 -832.981 -833.276 -833.414 -833.529 -833.622 -833.521 -833.745 -833.86 -833.966 -834.066 -834.033 -834.191 -834.287 -834.382 -834.477 -834.505 -834.615 -834.708 -834.801 -834.894 -834.976 -835.062 -835.16 -835.258 -835.356 -835.476 -835.556 -835.658 -835.76 -835.862 -836 -836.087 -836.193 -836.298 -836.403 -836.543 -836.65 -836.761 -836.872 -836.984 -837.118 -837.252 -837.374 -837.496 -837.618 -837.744 -837.908 -838.042 -838.176 -838.31 -838.427 -838.618 -838.762 -838.907 -839.051 -839.162 -839.375 -839.528 -839.682 -839.836 -839.943 -840.172 -840.335 -840.499 -840.662 -840.77 -841.01 -841.183 -841.356 -841.528 -841.644 -841.889 -842.071 -842.252 -842.434 -842.562 -842.81 -843.003 -843.197 -843.39 -843.538 -843.79 -843.999 -844.207 -844.416 -844.59 -844.841 -845.062 -845.284 -845.505 -845.704 -845.952 -846.184 -846.415 -846.646 -846.868 -847.116 -847.357 -847.598 -847.84 -848.081 -848.086 -848.091 -848.095 -848.1 -848.105 -848.351 -848.598 -848.844 -849.09 -849.368 -849.602 -849.862 -850.122 -850.382 -850.7 -850.922 -851.191 -851.46 -851.728 -852.074 -852.291 -852.568 -852.845 -853.122 -853.486 -853.706 -853.991 -854.276 -854.561 -854.934 -855.164 -855.457 -855.75 -856.043 -856.416 -856.665 -856.965 -857.265 -857.565 -857.931 -858.204 -858.511 -858.818 -859.126 -859.477 -859.779 -860.093 -860.407 -860.721 -861.053 -861.387 -861.707 -862.028 -862.349 -862.657 -863.024 -863.351 -863.678 -864.005 -864.287 -864.687 -865.02 -865.353 -865.682 -865.944 -866.367 -866.714 -867.053 -867.377 -867.626 -868.065 -868.429 -868.774 -869.091 -869.333 -869.783 -870.166 -870.517 -870.827 -871.069 -871.528 -871.932 -872.289 -872.59 -872.833 -873.3 -873.722 -874.086 -874.376 -874.62 -875.09 -875.527 -875.893 -876.172 -876.418 -876.883 -877.33 -877.696 -877.965 -878.217 -878.672 -879.124 -879.488 -879.752 -880.013 -880.457 -880.9 -881.26 -881.533 -881.805 -882.233 -882.662 -883.02 -883.304 -883.588 -884 -884.413 -884.767 -885.062 -885.357 -885.753 -886.149 -886.5 -886.805 -887.11 -887.489 -887.868 -888.215 -888.529 -888.842 -889.205 -889.567 -889.908 -890.228 -890.548 -890.894 -891.24 -891.575 -891.898 -892.221 -892.551 -892.881 -893.208 -893.531 -893.854 -894.168 -894.484 -894.802 -895.121 -895.44 -895.739 -896.04 -896.348 -896.659 -896.972 -897.254 -897.544 -897.839 -898.138 -898.441 -898.708 -898.984 -899.266 -899.55 -899.84 -900.09 -900.352 -900.618 -900.884 -901.159 -901.39 -901.636 -901.883 -902.129 -902.384 -902.595 -902.821 -903.046 -903.271 -903.506 -903.695 -903.898 -904.101 -904.304 -904.516 -904.684 -904.863 -905.043 -905.222 -905.408 -905.554 -905.708 -905.862 -906.016 -906.174 -906.29 -906.409 -906.529 -906.649 -906.762 -906.771 -906.779 -906.788 -906.796 -906.805 -906.903 -907.001 -907.098 -907.197 -907.292 -907.359 -907.422 -907.485 -907.549 -907.607 -907.641 -907.667 -907.694 -907.72 -907.738 -907.738 -907.725 -907.712 -907.7 -907.674 -907.639 -907.584 -907.529 -907.474 -907.401 -907.327 -907.23 -907.132 -907.029 -906.912 -906.792 -906.657 -906.513 -906.36 -906.195 -906.03 -905.853 -905.662 -905.455 -905.241 -905.027 -904.808 -904.567 -904.303 -904.037 -903.772 -903.508 -903.213 -902.893 -902.573 -902.254 -901.936 -901.589 -901.212 -900.836 -900.462 -900.088 -899.685 -899.251 -898.816 -898.385 -897.953 -897.493 -896.998 -896.504 -896.012 -895.518 -894.995 -894.445 -893.888 -893.335 -892.77 -892.185 -891.58 -890.96 -890.343 -889.705 -889.054 -888.395 -887.708 -887.026 -886.311 -885.593 -884.875 -884.123 -883.366 -882.578 -881.79 -881.003 -880.193 -879.355 -878.496 -877.637 -876.778 -875.909 -875.123 -874.326 -873.53 -872.735 -871.984 -871.839 -871.695 -871.55 -871.406 -871.259 -870.259 -869.257 -868.255 -867.254 -866.234 -865.174 -864.095 -863.016 -861.937 -860.822 -859.702 -858.543 -857.385 -856.228 -855.013 -853.824 -852.592 -851.353 -850.094 -848.795 -847.523 -846.229 -844.906 -843.541 -842.157 -840.8 -839.441 -838.031 -836.559 -835.087 -833.643 -832.2 -830.697 -829.135 -827.572 -826.038 -824.505 -822.911 -821.255 -819.6 -817.974 -816.341 -814.646 -812.908 -811.157 -809.437 -807.682 -805.89 -804.08 -802.232 -800.415 -798.532 -796.641 -794.751 -792.81 -790.872 -788.879 -786.887 -784.894 -782.88 -781.301 -779.698 -778.095 -776.492 -774.972 -774.465 -773.959 -773.452 -772.946 -772.431 -770.25 -768.062 -765.875 -763.688 -761.459 -759.201 -756.905 -754.61 -752.313 -749.941 -747.592 -745.202 -742.797 -740.352 -737.868 -735.409 -732.943 -730.426 -727.829 -725.232 -722.659 -720.088 -717.446 -714.734 -712.022 -709.336 -706.648 -703.878 -701.06 -698.231 -695.429 -692.58 -689.693 -686.798 -683.852 -680.925 -677.92 -674.916 -671.912 -668.882 -667 -665.089 -663.177 -661.266 -659.435 -658.213 -656.99 -655.768 -654.546 -653.309 -650.091 -646.861 -643.633 -640.405 -637.125 -633.82 -630.474 -627.129 -623.76 -620.349 -616.926 -613.495 -610.033 -606.509 -602.981 -599.441 -595.903 -592.312 -588.669 -585.026 -581.372 -577.708 -573.99 -570.249 -566.493 -562.726 -558.907 -555.077 -551.248 -547.389 -544.092 -540.76 -537.429 -534.099 -530.95 -530.306 -529.661 -529.017 -528.373 -527.721 -523.687 -519.649 -515.611 -511.575 -507.487 -503.379 -499.237 -495.096 -490.927 -486.722 -482.511 -478.3 -474.05 -469.749 -465.446 -461.135 -456.826 -452.469 -448.074 -443.678 -439.273 -434.841 -430.384 -425.927 -421.442 -416.983 -412.488 -407.994 -403.501 -399.278 -399.175 -399.072 -398.969 -398.866 -398.763 -394.146 -389.529 -384.914 -380.299 -375.646 -370.975 -366.285 -361.595 -356.883 -352.148 -347.404 -342.662 -337.895 -333.098 -328.299 -323.49 -318.68 -313.839 -308.99 -304.135 -299.268 -294.377 -289.483 -284.591 -279.691 -277.921 -276.143 -274.366 -272.588 -270.846 -267.678 -264.51 -261.342 -258.174 -254.992 -250.018 -245.041 -240.065 -235.082 -230.083 -225.075 -220.069 -215.06 -210.039 -205.015 -199.982 -194.949 -189.908 -184.87 -179.831 -174.78 -169.727 -164.675 -159.624 -154.572 -153.533 -152.494 -151.455 -150.417 -149.388 -145.363 -141.339 -137.315 -133.291 -129.267 -124.196 -119.137 -114.08 -109.029 -103.979 -98.9182 -93.8584 -88.8155 -83.7895 -78.7606 -73.7201 -68.6886 -63.6691 -58.6509 -53.6503 -50.2194 -46.8033 -43.3876 -39.9722 -36.6447 -35.0479 -33.451 -31.8543 -30.2576 -28.6659 -23.6832 -18.7121 -13.7417 -8.77725 -3.82848 1.12752 6.08228 11.0041 15.9004 20.7992 25.7066 30.6084 35.4784 40.3335 45.1742 49.6374 54.0633 58.4888 62.9139 67.2325 67.639 68.0456 68.4522 68.8588 69.2624 74.0336 78.7999 83.5659 88.3296 93.0555 97.7871 102.508 107.201 111.85 116.5 121.157 125.814 130.423 135.005 139.577 144.155 148.684 153.213 157.741 162.269 162.339 162.408 162.476 162.545 162.614 167.019 171.425 175.83 180.235 184.597 189.027 193.441 197.831 202.177 206.521 210.866 215.211 219.512 223.778 228.036 232.295 236.51 240.722 244.934 249.141 249.424 249.704 249.984 250.264 250.544 254.417 258.289 262.162 266.035 269.866 273.974 278.062 282.131 286.159 290.183 294.205 298.227 302.209 306.153 310.091 314.028 317.926 321.819 325.712 329.596 330.116 330.629 331.143 331.657 332.171 335.49 338.809 342.128 345.447 348.731 352.521 356.29 360.044 363.766 367.48 371.19 374.9 378.579 382.215 385.851 389.483 393.086 396.682 400.278 403.859 404.742 405.617 406.492 407.367 408.244 410.909 413.573 416.238 418.902 421.542 425.049 428.53 432.005 435.46 438.904 442.343 445.782 449.195 452.577 455.958 459.333 462.692 466.042 469.392 472.724 474.041 475.349 476.657 477.965 479.277 481.273 483.269 485.264 487.26 489.242 492.524 495.783 499.042 502.29 505.53 508.762 511.994 515.209 518.404 521.6 524.786 527.965 531.139 534.313 537.474 538.761 540.044 541.327 542.61 543.894 545.755 547.617 549.478 551.34 553.196 556.328 559.444 562.56 565.673 568.783 571.883 574.983 578.078 581.161 584.245 587.316 590.389 593.462 596.535 599.601 600.49 601.381 602.272 603.162 604.052 606.22 608.389 610.557 612.726 614.898 617.952 620.998 624.041 627.09 630.141 633.178 636.216 639.26 642.292 645.322 648.338 651.372 654.408 657.444 660.478 660.575 660.671 660.767 660.863 660.958 663.87 666.782 669.694 672.604 675.485 678.449 681.428 684.494 687.731 690.966 694.187 697.281 699.728 702.008 703.972 705.397 708.023 710.722 713.42 716.2 716.972 717.745 718.517 719.309 720.511 724.694 728.36 732.023 734.212 735.779 737.353 739.108 741.67 744.23 747.074 747.691 748.302 748.907 749.511 750.123 752.473 754.822 757.17 759.494 761.792 764.733 767.672 770.544 773.346 776.133 777.397 778.657 779.913 781.168 782.477 784.034 785.59 787.146 788.698 790.247 793.094 795.937 798.706 801.414 804.112 805.885 807.623 809.313 811.001 812.851 813.748 814.645 815.541 816.418 817.278 819.852 822.358 824.82 827.131 829.431 831.553 833.578 835.491 837.397 839.656 839.725 839.794 839.863 839.929 839.992 841.835 843.651 845.455 847.119 848.647 850.1 851.542 852.667 853.673 854.578 854.97 855.242 855.436 855.628 855.843 856.173 856.499 856.822 857.083 857.216 857.333 857.275 857.097 856.468 855.809 854.958 853.982 852.572 851.114 849.366 848.375 847.118 845.794 844.469 842.929 841.814 840.694 839.571 838.41 836.99 833.715 830.015 826.295 822.149 817.745 812.955 808.15 802.593 796.279 789.948 783.166 775.903 768.358 760.805 752.885 748.522 743.447 738.371 733.294 727.268 722.657 718.04 713.418 708.791 703.58 691.777 679.85 667.909 655.908 643.706 630.823 617.207 601.575 582.4 563.073 542.8 522.511 505.281 491.01 476.731 461.719 442 412.289 378.699 338.379 296.283 278.084 260.944 243.972 237.989 230.955 199.053 167.039 134.916 113.949 95.9637 78.1093 60.3838 42.7852 0