/*--------------------------------*- C++ -*----------------------------------*\
| =========                 |                                                 |
| \\      /  F ield         | OpenFOAM: The Open Source CFD Toolbox           |
|  \\    /   O peration     | Version:  5.x                                   |
|   \\  /    A nd           | Web:      www.OpenFOAM.org                      |
|    \\/     M anipulation  |                                                 |
\*---------------------------------------------------------------------------*/
/*   Windows 32 and 64 bit porting by blueCAPE: http://www.bluecape.com.pt   *\
|  Based on Windows porting (2.0.x v4) by Symscape: http://www.symscape.com   |
\*---------------------------------------------------------------------------*/
FoamFile
{
    version     2.0;
    format      ascii;
    class       volScalarField;
    location    "0.02";
    object      p;
}
// * * * * * * * * * * * * * * * * * * * * * * * * * * * * * * * * * * * * * //

dimensions      [0 2 -2 0 0 0 0];

internalField   nonuniform List<scalar> 
750
(
0.45603963
0.45440675
0.4555517
0.45428856
0.45468421
0.45398529
0.45379337
0.45334128
0.45294807
0.45251453
0.45207014
0.45161197
0.45113954
0.4506507
0.45013973
0.44959653
0.44900445
0.44832475
0.44755453
0.44640697
0.44535684
0.44230794
0.44095325
0.43076642
0.42777543
0.45601567
0.45447072
0.45550322
0.4543227
0.45466671
0.45399535
0.45379169
0.45334403
0.45294878
0.45251558
0.452071
0.45161283
0.45114055
0.45065202
0.45014164
0.44959947
0.44900888
0.44833293
0.44756439
0.44643362
0.44537817
0.44240921
0.44101963
0.43105856
0.42795681
0.45602435
0.45449085
0.45550167
0.45433795
0.45466845
0.45400344
0.45379341
0.45334765
0.45295079
0.45251756
0.45207275
0.45161461
0.45114266
0.45065481
0.45014567
0.44960564
0.4490185
0.44834908
0.44758909
0.44648142
0.44544886
0.4425582
0.44126164
0.43138996
0.42862539
0.45604968
0.45449494
0.45551497
0.45435105
0.45467025
0.45401449
0.45379645
0.45335278
0.45295392
0.45252047
0.45207534
0.45161724
0.45114576
0.45065892
0.45015161
0.44961471
0.44903274
0.44837268
0.44762605
0.44655219
0.44555467
0.44277444
0.44163567
0.43185277
0.42970202
0.45608155
0.45450372
0.4555298
0.45437048
0.45467145
0.45402965
0.45380047
0.45335952
0.45295814
0.45252431
0.45207877
0.45162072
0.45114984
0.45066433
0.45015942
0.44962662
0.44905143
0.4484035
0.44767448
0.44664423
0.44568946
0.44305809
0.44212318
0.43248815
0.43114997
0.45611913
0.45451945
0.45554532
0.45439688
0.45467261
0.45404866
0.45380565
0.45336776
0.45296343
0.45252905
0.452083
0.45162501
0.45115487
0.45067096
0.45016898
0.44964116
0.44907423
0.44844093
0.4477335
0.44675551
0.44585191
0.44340254
0.44271089
0.43328451
0.43288933
0.45616529
0.45453671
0.455565
0.45442833
0.45467367
0.45407137
0.45381205
0.45337742
0.45296977
0.45253463
0.45208799
0.45163002
0.4511607
0.45067865
0.45018003
0.44965792
0.44910046
0.44848375
0.44780111
0.44688233
0.44603715
0.44380316
0.44338067
0.43420948
0.43499047
0.45622112
0.45455381
0.45559082
0.45446346
0.45467509
0.45409762
0.45381971
0.45338847
0.45297713
0.45254105
0.45209372
0.45163574
0.45116735
0.45068737
0.45019254
0.44967683
0.44912994
0.44853159
0.44787665
0.44702237
0.44624192
0.44425949
0.4441253
0.43525589
0.43800725
0.45627986
0.45458366
0.45561756
0.45450599
0.4546772
0.45412769
0.45382852
0.45340092
0.45298554
0.45254836
0.45210024
0.4516423
0.45117497
0.45069736
0.4502068
0.44969829
0.44916319
0.44858501
0.44796053
0.44717536
0.4464658
0.44477086
0.44496401
0.43671848
0.44239435
0.45632409
0.45466178
0.45561113
0.45457475
0.45467117
0.4541637
0.45383812
0.45341473
0.45299495
0.45255647
0.45210744
0.45164956
0.45118336
0.45070832
0.45022243
0.44972173
0.44919935
0.44864298
0.44805047
0.44734051
0.44669983
0.44535542
0.44581934
0.43899221
0.44780468
0.3993687
0.39161123
0.37006874
0.35559061
0.33828326
0.32192461
0.30539303
0.288869
0.27236692
0.25585747
0.23935037
0.22284345
0.20633645
0.18982952
0.1733226
0.15681568
0.14030876
0.12380185
0.10729493
0.090788012
0.074281097
0.05777418
0.041267267
0.024760354
0.0082534454
0.39937429
0.3915357
0.37012161
0.35555311
0.33829419
0.32191893
0.30539327
0.28886877
0.2723667
0.25585748
0.23935035
0.22284344
0.20633645
0.18982952
0.1733226
0.15681568
0.14030876
0.12380185
0.10729493
0.090788012
0.074281097
0.05777418
0.041267267
0.024760353
0.0082534448
0.39907293
0.39167614
0.37008352
0.35555335
0.33829133
0.3219156
0.30539281
0.28886823
0.27236652
0.25585742
0.23935032
0.22284343
0.20633644
0.18982952
0.1733226
0.15681568
0.14030876
0.12380185
0.10729493
0.090788012
0.074281097
0.05777418
0.041267267
0.024760352
0.0082534439
0.39854055
0.39192664
0.37000694
0.35556002
0.33828291
0.32191228
0.30539155
0.28886755
0.27236625
0.25585732
0.23935028
0.22284342
0.20633644
0.18982952
0.1733226
0.15681568
0.14030876
0.12380185
0.10729493
0.090788012
0.074281097
0.05777418
0.041267267
0.024760351
0.0082534425
0.39770599
0.39225617
0.36989767
0.35556974
0.33826935
0.3219089
0.30538949
0.28886679
0.27236593
0.2558572
0.23935023
0.2228434
0.20633643
0.18982952
0.1733226
0.15681568
0.14030876
0.12380185
0.10729493
0.090788012
0.074281097
0.05777418
0.041267267
0.02476035
0.0082534404
0.39641437
0.39266293
0.36974486
0.35558675
0.33824915
0.32190593
0.30538664
0.288866
0.27236557
0.25585704
0.23935018
0.22284338
0.20633642
0.18982951
0.1733226
0.15681568
0.14030876
0.12380185
0.10729493
0.090788012
0.074281097
0.057774179
0.041267268
0.024760348
0.0082534378
0.39478471
0.39317799
0.36955026
0.35561209
0.33822231
0.32190386
0.30538303
0.28886524
0.27236521
0.25585688
0.23935014
0.22284336
0.20633642
0.18982951
0.1733226
0.15681568
0.14030876
0.12380184
0.10729493
0.090788012
0.074281096
0.057774179
0.041267269
0.024760344
0.0082534344
0.39324347
0.39388948
0.36934866
0.35563562
0.33818989
0.32190304
0.30537864
0.28886454
0.27236485
0.2558567
0.2393501
0.22284334
0.20633641
0.18982951
0.1733226
0.15681568
0.14030876
0.12380184
0.10729493
0.090788012
0.074281096
0.057774178
0.04126727
0.024760336
0.0082534292
0.39030484
0.39474722
0.3691961
0.35564926
0.33815644
0.32190399
0.30537437
0.28886405
0.27236456
0.25585656
0.23935008
0.22284332
0.2063364
0.18982951
0.17332259
0.15681568
0.14030876
0.12380184
0.10729493
0.090788012
0.074281096
0.057774178
0.041267271
0.024760331
0.0082534256
0.38082965
0.39548318
0.36901961
0.35576454
0.33813862
0.3219095
0.30537371
0.2888642
0.27236458
0.25585655
0.23935008
0.22284332
0.20633641
0.18982951
0.17332259
0.15681568
0.14030876
0.12380184
0.10729493
0.090788012
0.074281096
0.057774178
0.041267272
0.024760348
0.0082534434
0.4563798
0.45492045
0.45547493
0.45477434
0.45463136
0.45424205
0.4538619
0.45344405
0.45301562
0.45257385
0.45212276
0.45166472
0.45120067
0.45073084
0.45025451
0.44976994
0.44927406
0.44876299
0.44823747
0.44768305
0.44717702
0.44662875
0.44738559
0.44499002
0.46064667
0.45663547
0.45508218
0.45562704
0.4549328
0.4547075
0.45433725
0.45392425
0.45349452
0.4530547
0.45260556
0.45215036
0.45169163
0.45123081
0.45076922
0.45030792
0.44984813
0.44939158
0.44894188
0.44850655
0.44809569
0.44774015
0.44748697
0.44776867
0.44625606
0.44960647
0.45692956
0.45531894
0.45580579
0.45511892
0.45481524
0.45443797
0.4540003
0.45355222
0.45309926
0.45264096
0.45218035
0.45172009
0.45126189
0.45080783
0.45036061
0.44992385
0.44950285
0.44910617
0.44874713
0.44844634
0.44823614
0.4481988
0.44851606
0.44836366
0.4509951
0.4572884
0.45562963
0.45604737
0.45533375
0.45495483
0.45454949
0.45408497
0.4536151
0.45314666
0.45267765
0.45221043
0.45174742
0.45129044
0.45084215
0.4504064
0.44998856
0.44959631
0.44924139
0.44894082
0.44871952
0.44861205
0.44869654
0.44902799
0.44928625
0.45094109
0.45773239
0.45601036
0.45633711
0.45556874
0.45511756
0.45467003
0.45417401
0.45367986
0.45319408
0.45271311
0.45223819
0.451771
0.45131337
0.45086831
0.45044021
0.45003546
0.44966326
0.44933677
0.4490744
0.44890057
0.44884706
0.44897047
0.44927989
0.44962781
0.45073399
0.45829659
0.45647115
0.45667188
0.45582056
0.45529256
0.4547939
0.4542624
0.4537425
0.45323846
0.45274477
0.45226116
0.45178847
0.45132823
0.45088331
0.45045835
0.45006011
0.44969845
0.44938695
0.44914356
0.44899089
0.44895682
0.44908139
0.44936846
0.44973448
0.45056024
0.45900889
0.45702271
0.45703832
0.456079
0.45546695
0.45491275
0.4543442
0.45379863
0.45327662
0.4527702
0.4522775
0.45179828
0.45133348
0.45088567
0.45045925
0.45006098
0.44970071
0.44939169
0.44915079
0.4489987
0.44895956
0.44906537
0.4493185
0.44966547
0.45034346
0.45999619
0.45770146
0.45742383
0.45633222
0.45562871
0.45501715
0.45441291
0.45384389
0.45330567
0.45278754
0.45228596
0.45179962
0.45132869
0.45087518
0.45044303
0.45003864
0.44967122
0.44935312
0.44910002
0.44893067
0.44886679
0.44893591
0.44914218
0.44944634
0.45005629
0.46154977
0.458463
0.45778086
0.4565349
0.45575326
0.45509274
0.45446042
0.45387356
0.45332257
0.45279469
0.45228503
0.45179126
0.45131274
0.45085076
0.45040862
0.44999183
0.44960858
0.44926996
0.4489902
0.44878595
0.44867716
0.44868977
0.44883094
0.44907193
0.44966136
0.4637943
0.45784422
0.45794629
0.45660446
0.45580593
0.4551247
0.45447822
0.4538837
0.45332655
0.45279344
0.45227898
0.45178016
0.45129589
0.45082692
0.45037602
0.44994804
0.44955029
0.44919287
0.4488889
0.44865407
0.44850689
0.44847221
0.44855194
0.44869795
0.4491566
)
;

boundaryField
{
    inlet
    {
        type            zeroGradient;
    }
    walls
    {
        type            zeroGradient;
    }
    outlet
    {
        type            fixedValue;
        value           uniform 0;
    }
    centreline
    {
        type            symmetryPlane;
    }
    frontAndBack
    {
        type            empty;
    }
}


// ************************************************************************* //
