/*--------------------------------*- C++ -*----------------------------------*\
| =========                 |                                                 |
| \\      /  F ield         | OpenFOAM: The Open Source CFD Toolbox           |
|  \\    /   O peration     | Version:  5.x                                   |
|   \\  /    A nd           | Web:      www.OpenFOAM.org                      |
|    \\/     M anipulation  |                                                 |
\*---------------------------------------------------------------------------*/
/*   Windows 32 and 64 bit porting by blueCAPE: http://www.bluecape.com.pt   *\
|  Based on Windows porting (2.0.x v4) by Symscape: http://www.symscape.com   |
\*---------------------------------------------------------------------------*/
FoamFile
{
    version     2.0;
    format      ascii;
    class       surfaceScalarField;
    location    "0.02";
    object      phi;
}
// * * * * * * * * * * * * * * * * * * * * * * * * * * * * * * * * * * * * * //

dimensions      [0 3 -1 0 0 0 0];

internalField   nonuniform List<scalar> 
1430
(
5.0090334e-006
-7.7530364e-009
5.0486786e-006
-3.9645258e-008
5.0283373e-006
2.0341365e-008
5.062921e-006
-3.4583787e-008
5.061279e-006
1.6420721e-009
5.0796374e-006
-1.8358443e-008
5.091043e-006
-1.1405511e-008
5.1080131e-006
-1.6970144e-008
5.1280285e-006
-2.0015373e-008
5.1541295e-006
-2.6100984e-008
5.1886909e-006
-3.4561374e-008
5.2353074e-006
-4.6616522e-008
5.2989379e-006
-6.3630513e-008
5.3865647e-006
-8.7626812e-008
5.5081894e-006
-1.2162466e-007
5.6783775e-006
-1.7018808e-007
5.9186947e-006
-2.4031721e-007
6.2624733e-006
-3.4377864e-007
6.758694e-006
-4.9622065e-007
7.4966105e-006
-7.3791646e-007
8.5827935e-006
-1.0861829e-006
1.0275001e-005
-1.692207e-006
1.2752045e-005
-2.4770443e-006
1.6350577e-005
-3.598531e-006
-4.1743319e-006
2.0524909e-005
5.0169089e-006
-2.3381491e-008
5.0385736e-006
-6.1310087e-008
5.036354e-006
2.2561018e-008
5.0572368e-006
-5.5466569e-008
5.064527e-006
-5.6481434e-009
5.0780078e-006
-3.1839239e-008
5.0914669e-006
-2.4864517e-008
5.1075988e-006
-3.3102065e-008
5.1276878e-006
-4.0104347e-008
5.1535806e-006
-5.199379e-008
5.1879117e-006
-6.8892527e-008
5.2342057e-006
-9.2910511e-008
5.2973775e-006
-1.2680229e-007
5.3843464e-006
-1.7459572e-007
5.5050069e-006
-2.4228516e-007
5.6737451e-006
-3.3892618e-007
5.9119316e-006
-4.7850373e-007
6.2519122e-006
-6.8375926e-007
6.7439998e-006
-9.8830815e-007
7.4688855e-006
-1.4628021e-006
8.5526351e-006
-2.1699324e-006
1.0205534e-005
-3.3451058e-006
1.2724644e-005
-4.9961539e-006
1.6302514e-005
-7.1764001e-006
-8.5407861e-006
2.0668969e-005
5.0154797e-006
-3.7580794e-008
5.0392391e-006
-8.5069587e-008
5.035685e-006
2.6115199e-008
5.0574137e-006
-7.7195312e-008
5.0644399e-006
-1.2674371e-008
5.0778185e-006
-4.5217755e-008
5.0911483e-006
-3.8194363e-008
5.1070882e-006
-4.9041973e-008
5.126933e-006
-5.9949068e-008
5.1524904e-006
-7.7551268e-008
5.1863657e-006
-1.0276776e-007
5.2320223e-006
-1.385671e-007
5.2942938e-006
-1.8907381e-007
5.3799707e-006
-2.602726e-007
5.4987429e-006
-3.6105735e-007
5.6646643e-006
-5.0484757e-007
5.8985562e-006
-7.1239571e-007
6.2318397e-006
-1.0170427e-006
6.7132888e-006
-1.4697572e-006
7.4212223e-006
-2.1707356e-006
8.4785224e-006
-3.2272324e-006
1.0101449e-005
-4.968032e-006
1.2614815e-005
-7.5095206e-006
1.6342307e-005
-1.0903892e-005
-1.309671e-005
2.089823e-005
5.0145155e-006
-5.0815908e-008
5.0397021e-006
-1.1025623e-007
5.0351293e-006
3.0688026e-008
5.0575415e-006
-9.9607549e-008
5.0643249e-006
-1.9457799e-008
5.0775163e-006
-5.8409088e-008
5.090677e-006
-5.1355046e-008
5.1063305e-006
-6.4695525e-008
5.1258089e-006
-7.9427467e-008
5.1508682e-006
-1.0261053e-007
5.1840626e-006
-1.359622e-007
5.2287702e-006
-1.8327468e-007
5.2897019e-006
-2.5000551e-007
5.3734576e-006
-3.4402826e-007
5.4894245e-006
-4.7702429e-007
5.651166e-006
-6.6658903e-007
5.8786845e-006
-9.3991417e-007
6.2020168e-006
-1.3403751e-006
6.6676988e-006
-1.9354392e-006
7.350315e-006
-2.8533518e-006
8.367137e-006
-4.2440544e-006
9.9405365e-006
-6.5414315e-006
1.244677e-005
-1.0015754e-005
1.6444931e-005
-1.4902053e-005
-1.8077968e-005
2.1426188e-005
5.0135535e-006
-6.3089044e-008
5.0405478e-006
-1.3725064e-007
5.0343512e-006
3.6884707e-008
5.057779e-006
-1.2303533e-007
5.0641475e-006
-2.5826297e-008
5.0771225e-006
-7.1384096e-008
5.0900457e-006
-6.4278245e-008
5.1053331e-006
-7.9982922e-008
5.1243226e-006
-9.8416993e-008
5.1487247e-006
-1.2701255e-007
5.1810186e-006
-1.6825613e-007
5.2244733e-006
-2.267294e-007
5.283638e-006
-3.0917016e-007
5.3648621e-006
-4.2525242e-007
5.4771376e-006
-5.8929981e-007
5.633387e-006
-8.2283834e-007
5.852538e-006
-1.1590653e-006
6.1628117e-006
-1.6506487e-006
6.6077702e-006
-2.3803976e-006
7.2570632e-006
-3.5026448e-006
8.2189793e-006
-5.2059705e-006
9.7197164e-006
-8.0421686e-006
1.2203724e-005
-1.2499762e-005
1.65722e-005
-1.9270529e-005
-2.3765564e-005
2.2259797e-005
5.0122965e-006
-7.4105206e-008
5.0418376e-006
-1.6679174e-007
5.033355e-006
4.5367268e-008
5.0581023e-006
-1.4778255e-007
5.0639361e-006
-3.1660153e-008
5.0766365e-006
-8.4084423e-008
5.0892663e-006
-7.6908121e-008
5.1041009e-006
-9.4817471e-008
5.1224846e-006
-1.1680065e-007
5.1460738e-006
-1.5060176e-007
5.1772545e-006
-1.9943689e-007
5.2191625e-006
-2.6863737e-007
5.2761488e-006
-3.6615647e-007
5.354257e-006
-5.0336062e-007
5.4619978e-006
-6.9704053e-007
5.6115152e-006
-9.7235581e-007
5.8204319e-006
-1.3679819e-006
6.1147548e-006
-1.9449716e-006
6.5343567e-006
-2.7999996e-006
7.1423432e-006
-4.1106313e-006
8.0342146e-006
-6.0978418e-006
9.4341714e-006
-9.4421254e-006
1.1848984e-005
-1.4914574e-005
1.6550115e-005
-2.397166e-005
-3.0230857e-005
2.3015408e-005
5.0104071e-006
-8.3231998e-008
5.043418e-006
-1.998026e-007
5.0322263e-006
5.6558937e-008
5.0584326e-006
-1.7398883e-007
5.0637251e-006
-3.6952676e-008
5.0760649e-006
-9.6424151e-008
5.0883464e-006
-8.9189605e-008
5.1026418e-006
-1.0911295e-007
5.1203062e-006
-1.3446503e-007
5.1429313e-006
-1.7322681e-007
5.1727938e-006
-2.2929944e-007
5.2128728e-006
-3.0871631e-007
5.2672874e-006
-4.2057105e-007
5.3417244e-006
-5.7779769e-007
5.4441357e-006
-7.9945184e-007
5.5857645e-006
-1.1139846e-006
5.7827248e-006
-1.5649422e-006
6.0584538e-006
-2.2207005e-006
6.4483977e-006
-3.1899435e-006
7.0073302e-006
-4.6695638e-006
7.8142761e-006
-6.9047876e-006
9.0793686e-006
-1.0707218e-005
1.1329982e-005
-1.7165187e-005
1.609942e-005
-2.8741098e-005
-3.6978614e-005
2.2847177e-005
5.0073018e-006
-8.9253462e-008
5.0452152e-006
-2.3771608e-007
5.0309731e-006
7.0801103e-008
5.0586735e-006
-2.0168922e-007
5.0635966e-006
-4.1875773e-008
5.0754012e-006
-1.0822874e-007
5.087289e-006
-1.0107743e-007
5.1009647e-006
-1.2278859e-007
5.1178001e-006
-1.5130046e-007
5.1393134e-006
-1.9474011e-007
5.1676593e-006
-2.5764533e-007
5.205639e-006
-3.4669603e-007
5.2571046e-006
-4.720366e-007
5.327341e-006
-6.4803416e-007
5.42367e-006
-8.9578083e-007
5.5563227e-006
-1.2466372e-006
5.7397252e-006
-1.7483447e-006
5.9944239e-006
-2.4753992e-006
6.3506654e-006
-3.546185e-006
6.8532289e-006
-5.1721273e-006
7.5614205e-006
-7.6129792e-006
8.6516731e-006
-1.1797471e-005
1.0605475e-005
-1.9118989e-005
1.5021201e-005
-3.3156824e-005
-4.2836996e-005
2.0879583e-005
5.0021944e-006
-9.0167489e-008
5.0475169e-006
-2.8303862e-007
5.0293226e-006
8.8995444e-008
5.0588774e-006
-2.3124407e-007
5.06363e-006
-4.6628356e-008
5.0746092e-006
-1.1920788e-007
5.086095e-006
-1.1256321e-007
5.0990809e-006
-1.3577446e-007
5.1149814e-006
-1.6720103e-007
5.1352429e-006
-2.1500163e-007
5.1618796e-006
-2.8428197e-007
5.1975052e-006
-3.8232164e-007
5.2456668e-006
-5.2019816e-007
5.3112067e-006
-7.1357405e-007
5.4007548e-006
-9.8532899e-007
5.5234352e-006
-1.3693176e-006
5.691839e-006
-1.9167486e-006
5.9233577e-006
-2.7069179e-006
6.2423257e-006
-3.865153e-006
6.6819947e-006
-5.6117962e-006
7.2795018e-006
-8.2104863e-006
8.1556688e-006
-1.2673637e-005
9.6565383e-006
-2.0619859e-005
1.3246093e-005
-3.6746379e-005
-4.6391937e-005
1.6801033e-005
5.0009374e-006
-8.9824533e-008
5.044305e-006
-3.2640624e-007
5.0314992e-006
1.0180127e-007
5.0566152e-006
-2.5636001e-007
5.0649217e-006
-5.4934902e-008
5.0732812e-006
-1.275673e-007
5.0848832e-006
-1.2416526e-007
5.0969922e-006
-1.4788345e-007
5.1118728e-006
-1.8208159e-007
5.130755e-006
-2.3388378e-007
5.1555031e-006
-3.0903007e-007
5.1885342e-006
-4.1535272e-007
5.2330671e-006
-5.6473106e-007
5.2934613e-006
-7.7396831e-007
5.3756041e-006
-1.0674718e-006
5.4874403e-006
-1.4811538e-006
5.6396253e-006
-2.0689335e-006
5.8461485e-006
-2.9134411e-006
6.1254271e-006
-4.1444315e-006
6.4964566e-006
-5.9828258e-006
6.9786492e-006
-8.6926788e-006
7.6014297e-006
-1.3296418e-005
8.5281708e-006
-2.15466e-005
1.0683551e-005
-3.8901759e-005
1.0729923e-005
-4.6438311e-005
2.1921517e-005
-1.3966078e-006
2.2460161e-005
-5.3864347e-007
2.2665787e-005
-2.0562598e-007
2.2706216e-005
-4.0429492e-008
2.2729844e-005
-2.3627324e-008
2.2733396e-005
-3.5526202e-009
2.2734828e-005
-1.43161e-009
2.2735262e-005
-4.3392517e-010
2.2735283e-005
-2.1000853e-011
2.2735306e-005
-2.332172e-011
2.2735305e-005
1.3132174e-012
2.2735302e-005
2.9928276e-012
2.2735301e-005
1.0405612e-012
2.27353e-005
6.8633255e-013
2.27353e-005
3.0410525e-013
2.27353e-005
1.2733104e-013
2.27353e-005
5.1486009e-014
2.27353e-005
8.9057969e-015
2.27353e-005
-2.2141727e-014
2.27353e-005
-3.8310479e-014
2.27353e-005
-2.5863289e-014
2.27353e-005
3.2394725e-014
2.27353e-005
8.2141817e-014
2.2735299e-005
9.5518761e-013
9.9907239e-013
2.1873099e-005
-2.6007373e-006
2.2461176e-005
-1.1267201e-006
2.2595792e-005
-3.4024184e-007
2.2654923e-005
-9.9561103e-008
2.2668158e-005
-3.6862249e-008
2.2672821e-005
-8.2157683e-009
2.2673956e-005
-2.5656774e-009
2.2674189e-005
-6.6693225e-010
2.2674263e-005
-9.5701388e-011
2.2674267e-005
-2.7484342e-011
2.2674266e-005
2.9552832e-012
2.2674264e-005
5.0604327e-012
2.2674262e-005
2.3926981e-012
2.2674262e-005
1.2716032e-012
2.2674261e-005
5.7159284e-013
2.2674261e-005
2.4799066e-013
2.2674261e-005
9.9659706e-014
2.2674261e-005
2.2214847e-014
2.2674261e-005
-2.9082627e-014
2.2674261e-005
-5.7686835e-014
2.2674261e-005
-4.1247776e-014
2.2674261e-005
7.9295396e-014
2.2674261e-005
1.4200395e-013
2.2674261e-005
1.1244077e-012
1.308837e-012
2.2027452e-005
-3.7299586e-006
2.2521341e-005
-1.6206093e-006
2.2615712e-005
-4.3461271e-007
2.2660489e-005
-1.4433867e-007
2.2669298e-005
-4.5670429e-008
2.2672538e-005
-1.1455792e-008
2.2673179e-005
-3.2070519e-009
2.2673279e-005
-7.6673856e-010
2.2673316e-005
-1.3293829e-010
2.267331e-005
-2.1003898e-011
2.2673305e-005
7.2036903e-012
2.2673303e-005
7.7010827e-012
2.2673301e-005
3.819167e-012
2.2673301e-005
1.842664e-012
2.26733e-005
8.2551761e-013
2.26733e-005
3.6266263e-013
2.26733e-005
1.4460595e-013
2.26733e-005
3.3933424e-014
2.26733e-005
-3.8848626e-014
2.26733e-005
-8.4465788e-014
2.26733e-005
-7.1714664e-014
2.26733e-005
1.0366108e-013
2.26733e-005
1.5002006e-013
2.2673301e-005
9.3236489e-013
1.2894395e-012
2.2549389e-005
-4.8531596e-006
2.2912773e-005
-1.9839932e-006
2.2930055e-005
-4.5189415e-007
2.2950153e-005
-1.6443704e-007
2.2952054e-005
-4.7571232e-008
2.2953373e-005
-1.2775253e-008
2.2953307e-005
-3.1410914e-009
2.2953201e-005
-6.600914e-010
2.295318e-005
-1.1241055e-010
2.2953157e-005
2.0466321e-012
2.2953149e-005
1.5500553e-011
2.2953145e-005
1.124187e-011
2.2953144e-005
5.4267194e-012
2.2953143e-005
2.4266619e-012
2.2953143e-005
1.0727796e-012
2.2953143e-005
4.6956604e-013
2.2953143e-005
1.8653721e-013
2.2953143e-005
4.3326888e-014
2.2953143e-005
-5.3419358e-014
2.2953143e-005
-1.2198612e-013
2.2953143e-005
-1.2077154e-013
2.2953143e-005
7.7971535e-014
2.2953143e-005
1.0975953e-013
2.2953142e-005
1.5748143e-012
2.1308288e-012
2.3517139e-005
-6.1105021e-006
2.3729293e-005
-2.196147e-006
2.3639945e-005
-3.6254666e-007
2.3627472e-005
-1.5196364e-007
2.3620868e-005
-4.0966976e-008
2.3620172e-005
-1.2079344e-008
2.3619314e-005
-2.2832917e-009
2.3618971e-005
-3.1728781e-010
2.3618886e-005
-2.7309124e-011
2.3618845e-005
4.3597205e-011
2.3618832e-005
2.7989486e-011
2.3618828e-005
1.563803e-011
2.3618826e-005
7.2014683e-012
2.3618825e-005
3.0136219e-012
2.3618825e-005
1.304227e-012
2.3618825e-005
5.6300861e-013
2.3618825e-005
2.2312385e-013
2.3618825e-005
5.0507681e-014
2.3618825e-005
-7.0388887e-014
2.3618825e-005
-1.6523484e-013
2.3618825e-005
-1.8514555e-013
2.3618825e-005
-2.9288428e-014
2.3618825e-005
5.3135653e-014
2.3618822e-005
4.3884291e-012
5.1194596e-012
2.4413648e-005
-7.5087424e-006
2.4456354e-005
-2.238853e-006
2.4273305e-005
-1.7949736e-007
2.4232688e-005
-1.1134609e-007
2.4218276e-005
-2.6555744e-008
2.4216068e-005
-9.8709486e-009
2.421459e-005
-8.0566352e-010
2.4214096e-005
1.7737255e-010
2.4213973e-005
9.5618452e-011
2.4213921e-005
9.5033561e-011
2.4213908e-005
4.1535734e-011
2.4213904e-005
1.9790988e-011
2.4213902e-005
8.7312934e-012
2.4213902e-005
3.4580684e-012
2.4213901e-005
1.4601366e-012
2.4213901e-005
6.1927595e-013
2.4213901e-005
2.4404762e-013
2.4213901e-005
5.4338939e-014
2.4213901e-005
-8.0569336e-014
2.4213901e-005
-1.9369397e-013
2.4213902e-005
-2.3558613e-013
2.4213902e-005
-1.8663073e-013
2.4213902e-005
-3.2558121e-015
2.4213897e-005
9.4306619e-012
1.0284042e-011
2.3918874e-005
-8.5804391e-006
2.3729279e-005
-2.0492583e-006
2.3532481e-005
1.7301126e-008
2.3483448e-005
-6.2313354e-008
2.3465779e-005
-8.886972e-009
2.3462914e-005
-7.0051466e-009
2.3461326e-005
7.8200158e-010
2.3460913e-005
5.9041917e-010
2.3460815e-005
1.9376063e-010
2.3460777e-005
1.3319557e-010
2.346077e-005
4.8577938e-011
2.3460768e-005
2.1350548e-011
2.3460768e-005
9.0543988e-012
2.3460768e-005
3.4354051e-012
2.3460768e-005
1.4225066e-012
2.3460768e-005
5.9099773e-013
2.3460768e-005
2.295467e-013
2.3460768e-005
5.0707788e-014
2.3460768e-005
-7.3665677e-014
2.3460768e-005
-1.8106783e-013
2.3460768e-005
-2.2556641e-013
2.3460768e-005
-2.9191489e-013
2.3460768e-005
-1.2605329e-013
2.3460764e-005
1.3805011e-011
1.4755384e-011
2.0535636e-005
-8.2364917e-006
2.0001524e-005
-1.5151465e-006
1.9902081e-005
1.1674424e-007
1.9866459e-005
-2.6691683e-008
1.9853533e-005
4.0397344e-009
1.9850665e-005
-4.1377044e-009
1.9849769e-005
1.6782403e-009
1.9849713e-005
6.4635802e-010
1.9849704e-005
2.028304e-010
1.984971e-005
1.2725548e-010
1.9849718e-005
4.0646023e-011
1.9849722e-005
1.7603515e-011
1.9849724e-005
7.1741062e-012
1.9849724e-005
2.6177218e-012
1.9849725e-005
1.0775159e-012
1.9849725e-005
4.3438686e-013
1.9849725e-005
1.6336001e-013
1.9849725e-005
3.4433984e-014
1.9849725e-005
-5.0156816e-014
1.9849725e-005
-1.2431607e-013
1.9849725e-005
-1.506721e-013
1.9849725e-005
-2.6365184e-013
1.9849725e-005
-3.4324118e-013
1.9849726e-005
1.3081845e-011
1.4079051e-011
1.3916779e-005
-5.352238e-006
1.3066883e-005
-6.6525059e-007
1.3098718e-005
8.4908173e-008
1.3082603e-005
-1.0576096e-008
1.3080416e-005
6.2265741e-009
1.307793e-005
-1.651211e-009
1.3078386e-005
1.2219808e-009
1.3078712e-005
3.2050597e-010
1.3078806e-005
1.0875158e-010
1.3078867e-005
6.6123175e-011
1.3078889e-005
1.8502149e-011
1.3078898e-005
8.3365161e-012
1.3078902e-005
3.252152e-012
1.3078904e-005
1.1401774e-012
1.3078904e-005
4.7035265e-013
1.3078904e-005
1.799078e-013
1.3078905e-005
6.2637892e-014
1.3078905e-005
8.8687525e-015
1.3078905e-005
-2.3123799e-014
1.3078905e-005
-5.4716502e-014
1.3078904e-005
-7.2890469e-014
1.3078904e-005
-1.560836e-013
1.3078905e-005
-5.0533273e-013
1.3078912e-005
6.0456922e-012
6.8519264e-012
5.3776838e-006
4.7124335e-006
4.7973417e-006
4.7867656e-006
4.7929922e-006
4.791341e-006
4.792563e-006
4.7928835e-006
4.7929922e-006
4.7930584e-006
4.7930769e-006
4.7930852e-006
4.7930884e-006
4.7930896e-006
4.79309e-006
4.7930902e-006
4.7930903e-006
4.7930903e-006
4.7930903e-006
4.7930902e-006
4.7930902e-006
4.7930901e-006
4.7930896e-006
4.7930957e-006
1.5064873e-005
-1.5085665e-007
1.5049017e-005
-3.105499e-007
1.5157392e-005
-6.5735222e-009
1.5133707e-005
-2.3267547e-007
1.5198896e-005
-1.2012382e-007
1.5215033e-005
-1.4370381e-007
1.5246196e-005
-1.5532822e-007
1.5277479e-005
-1.7916689e-007
1.5315232e-005
-2.1983414e-007
1.536282e-005
-2.8147233e-007
1.5424688e-005
-3.7089787e-007
1.5506786e-005
-4.974509e-007
1.5616721e-005
-6.7466629e-007
1.5764491e-005
-9.2173794e-007
1.5963078e-005
-1.2660586e-006
1.6228997e-005
-1.7470725e-006
1.6582256e-005
-2.4221929e-006
1.7044792e-005
-3.3759767e-006
1.763594e-005
-4.7355801e-006
1.8340908e-005
-6.6877933e-006
1.9121755e-005
-9.4735255e-006
1.9512723e-005
-1.3687386e-005
1.8968852e-005
-2.1002728e-005
1.4598696e-005
-3.4531603e-005
-3.1839615e-005
1.5061469e-005
-2.0848459e-007
1.5052316e-005
-3.0139696e-007
1.5163557e-005
-1.1781475e-007
1.5146814e-005
-2.1593266e-007
1.5190724e-005
-1.6403366e-007
1.5210527e-005
-1.6350616e-007
1.5231508e-005
-1.7630955e-007
1.5253753e-005
-2.0141176e-007
1.5279277e-005
-2.4535814e-007
1.5310721e-005
-3.1291652e-007
1.5350917e-005
-4.1109356e-007
1.5403425e-005
-5.4995878e-007
1.547253e-005
-7.4377203e-007
1.5563363e-005
-1.0125708e-006
1.5681749e-005
-1.3844446e-006
1.583348e-005
-1.8988034e-006
1.602235e-005
-2.6110626e-006
1.6245625e-005
-3.5992519e-006
1.6483459e-005
-4.973414e-006
1.6677467e-005
-6.8818014e-006
1.6709884e-005
-9.5059422e-006
1.619733e-005
-1.3174832e-005
1.4125277e-005
-1.8930675e-005
7.3277535e-006
-2.773408e-005
-2.4511861e-005
1.5059781e-005
-2.6442462e-007
1.5079367e-005
-3.2098278e-007
1.5157482e-005
-1.9592967e-007
1.516328e-005
-2.2173114e-007
1.5188889e-005
-1.896423e-007
1.5204712e-005
-1.7932956e-007
1.5216852e-005
-1.8844898e-007
1.5228301e-005
-2.1286105e-007
1.52402e-005
-2.5725706e-007
1.5253826e-005
-3.2654228e-007
1.5270331e-005
-4.2759849e-007
1.5290803e-005
-5.7043146e-007
1.5316146e-005
-7.6911508e-007
1.5346776e-005
-1.0432005e-006
1.5381875e-005
-1.4195435e-006
1.5417884e-005
-1.9348128e-006
1.5445526e-005
-2.6387042e-006
1.5444175e-005
-3.5979011e-006
1.5370838e-005
-4.9000765e-006
1.5142256e-005
-6.6532194e-006
1.4610159e-005
-8.9738457e-006
1.3458529e-005
-1.2023202e-005
1.0890555e-005
-1.6362701e-005
5.244967e-006
-2.2088492e-005
-1.9266894e-005
1.5065742e-005
-3.2632525e-007
1.5105987e-005
-3.6122781e-007
1.5164577e-005
-2.5452022e-007
1.5178448e-005
-2.3560177e-007
1.5192172e-005
-2.0336617e-007
1.5199908e-005
-1.8706625e-007
1.5202522e-005
-1.9106281e-007
1.5202341e-005
-2.1267982e-007
1.5199872e-005
-2.5478757e-007
1.519503e-005
-3.2170109e-007
1.518723e-005
-4.1979839e-007
1.5175201e-005
-5.5840185e-007
1.5156671e-005
-7.505855e-007
1.5127803e-005
-1.0143326e-006
1.5082104e-005
-1.3738442e-006
1.5008575e-005
-1.8612839e-006
1.4888502e-005
-2.5186315e-006
1.4689914e-005
-3.3993125e-006
1.4358481e-005
-4.5686435e-006
1.3803789e-005
-6.0985278e-006
1.287905e-005
-8.0491069e-006
1.1340808e-005
-1.048496e-005
8.7056855e-006
-1.3727578e-005
4.2482079e-006
-1.7631014e-005
-1.5018687e-005
1.5073309e-005
-3.9579347e-007
1.5127835e-005
-4.1575408e-007
1.5174801e-005
-3.0148539e-007
1.5187646e-005
-2.4844719e-007
1.5191447e-005
-2.0716658e-007
1.5189226e-005
-1.8484566e-007
1.5181501e-005
-1.8333743e-007
1.5169418e-005
-2.0059679e-007
1.515261e-005
-2.3798026e-007
1.5129696e-005
-2.9878707e-007
1.5098395e-005
-3.8849713e-007
1.5055293e-005
-5.1529955e-007
1.4995341e-005
-6.9063396e-007
1.4911109e-005
-9.3010006e-007
1.4791602e-005
-1.2543375e-006
1.4620383e-005
-1.6900646e-006
1.4372612e-005
-2.2708606e-006
1.4010598e-005
-3.0372992e-006
1.3477212e-005
-4.0352574e-006
1.2687366e-005
-5.3086813e-006
1.1518526e-005
-6.880267e-006
9.7977131e-006
-8.7641476e-006
7.2288073e-006
-1.1158672e-005
3.4688476e-006
-1.3871055e-005
-1.1549839e-005
1.5079316e-005
-4.7126861e-007
1.5146623e-005
-4.8306137e-007
1.5184196e-005
-3.3905833e-007
1.518887e-005
-2.5312083e-007
1.5181516e-005
-1.9981262e-007
1.5168242e-005
-1.7157181e-007
1.514975e-005
-1.6484501e-007
1.5126055e-005
-1.7690177e-007
1.5095737e-005
-2.07662e-007
1.5056159e-005
-2.5920914e-007
1.5003508e-005
-3.3584664e-007
1.4932474e-005
-4.4426593e-007
1.4835697e-005
-5.9385625e-007
1.470292e-005
-7.9732304e-007
1.4519802e-005
-1.0712201e-006
1.4266208e-005
-1.4364703e-006
1.3913854e-005
-1.9185062e-006
1.3423118e-005
-2.5465636e-006
1.2738984e-005
-3.3511231e-006
1.1786933e-005
-4.3566302e-006
1.0471887e-005
-5.5652213e-006
8.6753126e-006
-6.9675729e-006
6.2055945e-006
-8.6889542e-006
2.8972154e-006
-1.0562675e-005
-8.6526235e-006
1.5201411e-005
-6.688388e-007
1.5308494e-005
-5.9014455e-007
1.5333565e-005
-3.6412924e-007
1.5322574e-005
-2.4212957e-007
1.5301111e-005
-1.7834934e-007
1.5275544e-005
-1.4600536e-007
1.5245962e-005
-1.3526239e-007
1.5211188e-005
-1.4212851e-007
1.5168519e-005
-1.6499284e-007
1.5114036e-005
-2.04726e-007
1.5042522e-005
-2.6433287e-007
1.4947048e-005
-3.4879137e-007
1.4818342e-005
-4.6514997e-007
1.4643914e-005
-6.2289546e-007
1.440693e-005
-8.3423645e-007
1.4084776e-005
-1.1143163e-006
1.3647267e-005
-1.4809965e-006
1.3054541e-005
-1.9538377e-006
1.2255139e-005
-2.551721e-006
1.1185268e-005
-3.2867595e-006
9.7722125e-006
-4.152166e-006
7.9364785e-006
-5.1318389e-006
5.5518467e-006
-6.3043224e-006
2.5371012e-006
-7.5479299e-006
-6.1155224e-006
1.5850092e-005
-1.5150903e-006
1.6050175e-005
-7.9022736e-007
1.6019083e-005
-3.3303695e-007
1.5968257e-005
-1.9130401e-007
1.5925252e-005
-1.3534348e-007
1.5884528e-005
-1.0528199e-007
1.5842935e-005
-9.3669392e-008
1.5797106e-005
-9.6299318e-008
1.5742476e-005
-1.103629e-007
1.5673711e-005
-1.3596052e-007
1.5584204e-005
-1.7482627e-007
1.5465484e-005
-2.3007175e-007
1.5306475e-005
-3.061407e-007
1.5092619e-005
-4.0903886e-007
1.4804793e-005
-5.4641062e-007
1.4418058e-005
-7.2758183e-007
1.3900344e-005
-9.6328254e-007
1.3211301e-005
-1.2647948e-006
1.2301822e-005
-1.6422415e-006
1.1115513e-005
-2.1004505e-006
9.5947726e-006
-2.6314255e-006
7.6844153e-006
-3.2214815e-006
5.2960247e-006
-3.9159318e-006
2.3875984e-006
-4.6395036e-006
-3.727924e-006
1.6452803e-005
-2.9640526e-006
1.6510138e-005
-8.4756217e-007
1.63686e-005
-1.9149864e-007
1.6279458e-005
-1.0216238e-007
1.621487e-005
-7.0755305e-008
1.6159353e-005
-4.9764718e-008
1.6107654e-005
-4.1970236e-008
1.6053307e-005
-4.1952218e-008
1.5990028e-005
-4.7084072e-008
1.5911366e-005
-5.7298773e-008
1.5809704e-005
-7.3164573e-008
1.5675514e-005
-9.5881825e-008
1.549659e-005
-1.2721645e-007
1.5257123e-005
-1.6957212e-007
1.4936696e-005
-2.259838e-007
1.450922e-005
-3.00105e-007
1.3941981e-005
-3.9604403e-007
1.3195149e-005
-5.1796297e-007
1.2222216e-005
-6.6930813e-007
1.0972951e-005
-8.5118592e-007
9.4007871e-006
-1.0592613e-006
7.4651697e-006
-1.2858641e-006
5.0971961e-006
-1.5479582e-006
2.2757779e-006
-1.8180854e-006
-1.4521461e-006
1.2039788e-005
1.1192226e-005
1.1000728e-005
1.0898565e-005
1.082781e-005
1.0778045e-005
1.0736075e-005
1.0694123e-005
1.0647039e-005
1.058974e-005
1.0516575e-005
1.0420693e-005
1.0293477e-005
1.0123905e-005
9.8979211e-006
9.5978161e-006
9.201772e-006
8.6838091e-006
8.014501e-006
7.163315e-006
6.1040537e-006
4.8181896e-006
3.2702315e-006
1.4521461e-006
)
;

boundaryField
{
    inlet
    {
        type            calculated;
        value           nonuniform List<scalar> 
20
(
-5.0012803e-006
-5.0012803e-006
-5.0012803e-006
-5.0012803e-006
-5.0012803e-006
-5.0012803e-006
-5.0012803e-006
-5.0012803e-006
-5.0012803e-006
-5.0012803e-006
-1.5003841e-005
-1.5003841e-005
-1.5003841e-005
-1.5003841e-005
-1.5003841e-005
-1.5003841e-005
-1.5003841e-005
-1.5003841e-005
-1.5003841e-005
-1.5003841e-005
)
;
    }
    walls
    {
        type            calculated;
        value           uniform 0;
    }
    outlet
    {
        type            calculated;
        value           nonuniform List<scalar> 10(2.2735297e-005 2.2674261e-005 2.2673301e-005 2.2953142e-005 2.3618819e-005 2.4213892e-005 2.3460759e-005 1.9849727e-005 1.3078919e-005 4.7931027e-006);
    }
    centreline
    {
        type            symmetryPlane;
        value           uniform 0;
    }
    frontAndBack
    {
        type            empty;
        value           nonuniform 0();
    }
}


// ************************************************************************* //
