/*--------------------------------*- C++ -*----------------------------------*\
| =========                 |                                                 |
| \\      /  F ield         | OpenFOAM: The Open Source CFD Toolbox           |
|  \\    /   O peration     | Version:  5.x                                   |
|   \\  /    A nd           | Web:      www.OpenFOAM.org                      |
|    \\/     M anipulation  |                                                 |
\*---------------------------------------------------------------------------*/
/*   Windows 32 and 64 bit porting by blueCAPE: http://www.bluecape.com.pt   *\
|  Based on Windows porting (2.0.x v4) by Symscape: http://www.symscape.com   |
\*---------------------------------------------------------------------------*/
FoamFile
{
    version     2.0;
    format      ascii;
    class       surfaceScalarField;
    location    "0.02";
    object      phi_0;
}
// * * * * * * * * * * * * * * * * * * * * * * * * * * * * * * * * * * * * * //

dimensions      [0 3 -1 0 0 0 0];

internalField   nonuniform List<scalar> 
1430
(
5.0085873e-006
-7.3068488e-009
5.0485381e-006
-3.9950982e-008
5.0275473e-006
2.099094e-008
5.0623295e-006
-3.4782319e-008
5.0604354e-006
1.8941628e-009
5.0787415e-006
-1.8306141e-008
5.0900782e-006
-1.1336663e-008
5.1069853e-006
-1.6907119e-008
5.1269624e-006
-1.9977063e-008
5.1530283e-006
-2.6065881e-008
5.1875628e-006
-3.4534514e-008
5.2341545e-006
-4.6591715e-008
5.2977587e-006
-6.3604212e-008
5.3853523e-006
-8.7593516e-008
5.5069285e-006
-1.2157624e-007
5.6770395e-006
-1.7011104e-007
5.9172338e-006
-2.4019422e-007
6.260791e-006
-3.4355719e-007
6.7566661e-006
-4.9587512e-007
7.4938693e-006
-7.3720318e-007
8.5788827e-006
-1.0850133e-006
1.026865e-005
-1.6897667e-006
1.27407e-005
-2.4720504e-006
1.6331575e-005
-3.5908748e-006
-4.1661818e-006
2.0497758e-005
5.0166342e-006
-2.2660613e-008
5.0382161e-006
-6.1532979e-008
5.0357336e-006
2.3473478e-008
5.0565358e-006
-5.5584504e-008
5.0637302e-006
-5.3002001e-009
5.0770997e-006
-3.1675614e-008
5.0904997e-006
-2.4736727e-008
5.1065728e-006
-3.2980151e-008
5.1266198e-006
-4.0024048e-008
5.1524794e-006
-5.1925521e-008
5.1867834e-006
-6.8838518e-008
5.233053e-006
-9.2861291e-008
5.2961989e-006
-1.2675009e-007
5.3831351e-006
-1.7452967e-007
5.5037479e-006
-2.421891e-007
5.6724112e-006
-3.3877428e-007
5.9104744e-006
-4.782574e-007
6.2502453e-006
-6.833281e-007
6.7419813e-006
-9.8761106e-007
7.4661957e-006
-1.4614176e-006
8.5488171e-006
-2.1676346e-006
1.0199302e-005
-3.3402514e-006
1.2713465e-005
-4.9862134e-006
1.6282743e-005
-7.160152e-006
-8.5240804e-006
2.0640642e-005
5.0151993e-006
-3.6579578e-008
5.0388815e-006
-8.5215208e-008
5.0350592e-006
2.7295874e-008
5.0567082e-006
-7.7233594e-008
5.063643e-006
-1.2234949e-008
5.0769077e-006
-4.4940294e-008
5.0901795e-006
-3.8008525e-008
5.1060607e-006
-4.8861317e-008
5.1258638e-006
-5.9827202e-008
5.1513886e-006
-7.745029e-008
5.185237e-006
-1.0268696e-007
5.2308698e-006
-1.3849403e-007
5.2931161e-006
-1.8899643e-007
5.3787613e-006
-2.6017485e-007
5.4974875e-006
-3.6091532e-007
5.6633369e-006
-5.0462366e-007
5.8971104e-006
-7.1203093e-007
6.2301928e-006
-1.0164104e-006
6.7113088e-006
-1.4687271e-006
7.4186134e-006
-2.1687221e-006
8.4748882e-006
-3.2239094e-006
1.0095566e-005
-4.9609294e-006
1.2603781e-005
-7.4944284e-006
1.6321221e-005
-1.0877592e-005
-1.3068314e-005
2.0865454e-005
5.0142219e-006
-4.9521098e-008
5.0393538e-006
-1.1034714e-007
5.0344907e-006
3.2158967e-008
5.0568355e-006
-9.9578359e-008
5.0635236e-006
-1.8923078e-008
5.0766024e-006
-5.8019064e-008
5.0897051e-006
-5.1111199e-008
5.1053006e-006
-6.4456906e-008
5.124738e-006
-7.926454e-008
5.1497652e-006
-1.024775e-007
5.1829335e-006
-1.3585522e-007
5.227618e-006
-1.8317855e-007
5.2885256e-006
-2.4990401e-007
5.3722511e-006
-3.4390035e-007
5.4881745e-006
-4.7683878e-007
5.6498481e-006
-6.6629727e-007
5.8772555e-006
-9.3943834e-007
6.2004007e-006
-1.3395556e-006
6.6657746e-006
-1.934101e-006
7.3478217e-006
-2.8507691e-006
8.3637726e-006
-4.2398602e-006
9.9351826e-006
-6.5323394e-006
1.2436139e-005
-9.9953844e-006
1.6422959e-005
-1.4864412e-005
-1.8032921e-005
2.1387566e-005
5.0132416e-006
-6.1482329e-008
5.0402151e-006
-1.3732075e-007
5.033694e-006
3.8680131e-008
5.0570728e-006
-1.2295715e-007
5.0633407e-006
-2.5191016e-008
5.0762043e-006
-7.088265e-008
5.0890696e-006
-6.3976437e-008
5.1043001e-006
-7.9687473e-008
5.1232493e-006
-9.821373e-008
5.1476201e-006
-1.2684829e-007
5.1798887e-006
-1.6812381e-007
5.2233214e-006
-2.2661124e-007
5.2824634e-006
-3.0904593e-007
5.3636594e-006
-4.250964e-007
5.4758947e-006
-5.8907406e-007
5.6320816e-006
-8.2248418e-007
5.8511314e-006
-1.1584881e-006
6.1612365e-006
-1.6496606e-006
6.6059184e-006
-2.3787829e-006
7.2547137e-006
-3.4995645e-006
8.2159463e-006
-5.2010928e-006
9.715004e-006
-8.0313971e-006
1.2194104e-005
-1.2474485e-005
1.6552823e-005
-1.922313e-005
-2.3702658e-005
2.2222559e-005
5.0119665e-006
-7.2168491e-008
5.0415244e-006
-1.6687864e-007
5.0326736e-006
4.7530895e-008
5.0573961e-006
-1.4767958e-007
5.0631232e-006
-3.0918102e-008
5.0757128e-006
-8.347228e-008
5.088285e-006
-7.6548655e-008
5.1030641e-006
-9.4466538e-008
5.1214084e-006
-1.1655801e-007
5.1449674e-006
-1.5040733e-007
5.1761239e-006
-1.992803e-007
5.2180112e-006
-2.6849852e-007
5.2749766e-006
-3.660113e-007
5.3530592e-006
-5.0317907e-007
5.4607638e-006
-6.9677862e-007
5.6102256e-006
-9.7194596e-007
5.8190529e-006
-1.3673154e-006
6.1132293e-006
-1.9438371e-006
6.532593e-006
-2.7981466e-006
7.1401734e-006
-4.1071448e-006
8.0315766e-006
-6.092496e-006
9.4301905e-006
-9.4300109e-006
1.1841295e-005
-1.4885589e-005
1.65394e-005
-2.3921235e-005
-3.016104e-005
2.2997783e-005
5.0100616e-006
-8.09497e-008
5.0431289e-006
-1.9994607e-007
5.0315151e-006
5.9144809e-008
5.0577276e-006
-1.7389211e-007
5.062904e-006
-3.6094546e-008
5.0751344e-006
-9.5702682e-008
5.0873589e-006
-8.8773122e-008
5.1016005e-006
-1.0870807e-007
5.1192266e-006
-1.3418416e-007
5.1418228e-006
-1.7300351e-007
5.1716624e-006
-2.2911991e-007
5.2117223e-006
-3.0855839e-007
5.2661181e-006
-4.2040708e-007
5.3405327e-006
-5.7759372e-007
5.4429127e-006
-7.9915863e-007
5.5844938e-006
-1.1135271e-006
5.7813787e-006
-1.5642003e-006
6.0569862e-006
-2.2194446e-006
6.4467378e-006
-3.1878982e-006
7.0053757e-006
-4.6657826e-006
7.8120739e-006
-6.8991942e-006
9.0761928e-006
-1.069413e-005
1.1324908e-005
-1.7134305e-005
1.6101391e-005
-2.8697718e-005
-3.6927097e-005
2.2867447e-005
5.0069413e-006
-8.661063e-008
5.044957e-006
-2.3796186e-007
5.0302287e-006
7.3873178e-008
5.0579682e-006
-2.0163159e-007
5.0627658e-006
-4.0892175e-008
5.0744633e-006
-1.0740013e-007
5.0862945e-006
-1.006044e-007
5.099918e-006
-1.223315e-007
5.1167165e-006
-1.5098267e-007
5.1382025e-006
-1.9448946e-007
5.166527e-006
-2.5744445e-007
5.2044895e-006
-3.4652086e-007
5.2559388e-006
-4.7185636e-007
5.3261564e-006
-6.4781139e-007
5.4224597e-006
-8.9546194e-007
5.5550738e-006
-1.2461412e-006
5.7384166e-006
-1.7475431e-006
5.9930217e-006
-2.4740497e-006
6.3491239e-006
-3.5440004e-006
6.8515125e-006
-5.1681712e-006
7.5596687e-006
-7.6073505e-006
8.6493407e-006
-1.1783802e-005
1.0602762e-005
-1.9087726e-005
1.5032347e-005
-3.3127303e-005
-4.2831209e-005
2.093646e-005
5.0018116e-006
-8.7141915e-008
5.0472971e-006
-2.8344737e-007
5.0285428e-006
9.2627573e-008
5.058165e-006
-2.3125384e-007
5.0627915e-006
-4.5518638e-008
5.0736633e-006
-1.1827192e-007
5.0850923e-006
-1.1203343e-007
5.0980281e-006
-1.352673e-007
5.1138933e-006
-1.668478e-007
5.134129e-006
-2.1472525e-007
5.1607462e-006
-2.8406159e-007
5.1963565e-006
-3.8213121e-007
5.2445045e-006
-5.2000435e-007
5.3100295e-006
-7.1333639e-007
5.399558e-006
-9.8499043e-007
5.5222095e-006
-1.3687927e-006
5.6905701e-006
-1.9159037e-006
5.9220238e-006
-2.7055034e-006
6.2409085e-006
-3.862885e-006
6.6805161e-006
-5.6077787e-006
7.2781855e-006
-8.2050199e-006
8.154154e-006
-1.265977e-005
9.6556343e-006
-2.0589206e-005
1.3258515e-005
-3.6730183e-005
-4.6440519e-005
1.6867824e-005
5.000612e-006
-8.6473548e-008
5.044018e-006
-3.2685336e-007
5.0307608e-006
1.0588479e-007
5.0558502e-006
-2.5634323e-007
5.0640896e-006
-5.3758006e-008
5.072326e-006
-1.2650829e-007
5.083869e-006
-1.2357645e-007
5.0959334e-006
-1.4733167e-007
5.1107791e-006
-1.816935e-007
5.1296375e-006
-2.3358366e-007
5.154368e-006
-3.0879208e-007
5.1873859e-006
-4.1514913e-007
5.231908e-006
-5.645264e-007
5.2922912e-006
-7.7371964e-007
5.3744203e-006
-1.0671195e-006
5.4862373e-006
-1.4806096e-006
5.6383942e-006
-2.0680606e-006
5.844882e-006
-2.9119912e-006
6.1241233e-006
-4.1421263e-006
6.4951907e-006
-5.9788461e-006
6.9776741e-006
-8.6875033e-006
7.6006575e-006
-1.3282753e-005
8.528625e-006
-2.1517174e-005
1.0691331e-005
-3.8892889e-005
1.0767725e-005
-4.6516915e-005
2.1884523e-005
-1.3867647e-006
2.2420851e-005
-5.3632766e-007
2.2626323e-005
-2.0547175e-007
2.2666686e-005
-4.0363506e-008
2.2690377e-005
-2.3690472e-008
2.2693994e-005
-3.6169655e-009
2.2695435e-005
-1.4416676e-009
2.2695881e-005
-4.460811e-010
2.2695907e-005
-2.5319376e-011
2.2695931e-005
-2.4470082e-011
2.2695931e-005
5.8320618e-013
2.2695928e-005
2.7719761e-012
2.2695927e-005
9.5934646e-013
2.2695926e-005
6.5138466e-013
2.2695926e-005
2.9247715e-013
2.2695926e-005
1.2312646e-013
2.2695926e-005
4.9142542e-014
2.2695926e-005
8.1316973e-015
2.2695926e-005
-2.3154015e-014
2.2695926e-005
-3.8695416e-014
2.2695926e-005
-2.7410844e-014
2.2695926e-005
3.0514999e-014
2.2695926e-005
7.8980623e-014
2.2695925e-005
9.4559707e-013
9.8734549e-013
2.1834001e-005
-2.5801231e-006
2.2420699e-005
-1.1230253e-006
2.2555168e-005
-3.3994075e-007
2.2614373e-005
-9.9567735e-008
2.2627709e-005
-3.7026535e-008
2.2632402e-005
-8.3099554e-009
2.2633563e-005
-2.6030669e-009
2.2633805e-005
-6.8778756e-010
2.2633883e-005
-1.037792e-010
2.2633889e-005
-3.0254541e-011
2.2633888e-005
1.7067892e-012
2.2633886e-005
4.6159958e-012
2.2633885e-005
2.2267939e-012
2.2633884e-005
1.2083315e-012
2.2633884e-005
5.4938535e-013
2.2633884e-005
2.3987928e-013
2.2633884e-005
9.6203935e-014
2.2633884e-005
2.1033738e-014
2.2633884e-005
-2.9906592e-014
2.2633884e-005
-5.8116959e-014
2.2633884e-005
-4.2830884e-014
2.2633884e-005
7.5469834e-014
2.2633884e-005
1.3729413e-013
2.2633884e-005
1.116042e-012
1.2946988e-012
2.198153e-005
-3.6961992e-006
2.2474326e-005
-1.615821e-006
2.2569302e-005
-4.3491688e-007
2.261436e-005
-1.4462523e-007
2.2623293e-005
-4.5959474e-008
2.2626564e-005
-1.1580942e-008
2.2627234e-005
-3.2728848e-009
2.2627342e-005
-7.9628061e-010
2.2627383e-005
-1.4452128e-010
2.2627378e-005
-2.5279966e-011
2.2627374e-005
5.5044825e-012
2.2627372e-005
7.0568633e-012
2.262737e-005
3.5800693e-012
2.262737e-005
1.7554678e-012
2.2627369e-005
7.9417035e-013
2.2627369e-005
3.5123643e-013
2.2627369e-005
1.4015318e-013
2.2627369e-005
3.2493746e-014
2.2627369e-005
-3.9460258e-014
2.2627369e-005
-8.4653534e-014
2.2627369e-005
-7.3027645e-014
2.2627369e-005
9.9007597e-014
2.262737e-005
1.4438055e-013
2.262737e-005
9.1753455e-013
1.265031e-012
2.2492337e-005
-4.8009709e-006
2.2854049e-005
-1.9775327e-006
2.28729e-005
-4.5376799e-007
2.2893604e-005
-1.6532947e-007
2.2895673e-005
-4.8027637e-008
2.2897015e-005
-1.2923763e-008
2.2896977e-005
-3.2346097e-009
2.2896879e-005
-6.9782165e-010
2.2896861e-005
-1.2704009e-010
2.2896839e-005
-3.5168448e-012
2.2896831e-005
1.3456137e-011
2.2896828e-005
1.0441208e-011
2.2896827e-005
5.1317432e-012
2.2896826e-005
2.3221654e-012
2.2896826e-005
1.0345595e-012
2.2896826e-005
4.557533e-013
2.2896826e-005
1.8138351e-013
2.2896826e-005
4.1719149e-014
2.2896826e-005
-5.3897988e-014
2.2896826e-005
-1.219895e-013
2.2896826e-005
-1.2187534e-013
2.2896826e-005
7.3568305e-014
2.2896826e-005
1.0235059e-013
2.2896825e-005
1.5169199e-012
2.0607094e-012
2.345697e-005
-6.0353823e-006
2.3665758e-005
-2.1863204e-006
2.3578246e-005
-3.6625606e-007
2.3566586e-005
-1.5366908e-007
2.3560171e-005
-4.161341e-008
2.3559478e-005
-1.223007e-008
2.3558641e-005
-2.3980429e-009
2.3558304e-005
-3.6049909e-010
2.3558221e-005
-4.3865804e-011
2.355818e-005
3.7191495e-011
2.3558168e-005
2.5789189e-011
2.3558163e-005
1.475593e-011
2.3558162e-005
6.8792112e-012
2.3558161e-005
2.9022079e-012
2.3558161e-005
1.2629459e-012
2.3558161e-005
5.4837022e-013
2.3558161e-005
2.1785294e-013
2.3558161e-005
4.8855003e-014
2.3558161e-005
-7.0955595e-014
2.3558161e-005
-1.6551572e-013
2.3558161e-005
-1.8664306e-013
2.3558161e-005
-3.31955e-014
2.3558161e-005
4.1919359e-014
2.3558158e-005
4.2497963e-012
4.9682291e-012
2.4377617e-005
-7.4152169e-006
2.4415535e-005
-2.2242377e-006
2.4233054e-005
-1.8377555e-007
2.4193013e-005
-1.1362795e-007
2.4178733e-005
-2.7333207e-008
2.4176498e-005
-9.9951829e-009
2.4175028e-005
-9.2785012e-010
2.4174532e-005
1.3526824e-010
2.4174409e-005
7.9241573e-011
2.4174357e-005
8.8595814e-011
2.4174344e-005
3.9486156e-011
2.417434e-005
1.894134e-011
2.4174338e-005
8.4252902e-012
2.4174338e-005
3.35501e-012
2.4174337e-005
1.4215817e-012
2.4174337e-005
6.060712e-013
2.4174337e-005
2.3951166e-013
2.4174337e-005
5.2859311e-014
2.4174337e-005
-8.1426326e-014
2.4174337e-005
-1.9481302e-013
2.4174337e-005
-2.383235e-013
2.4174338e-005
-1.9133197e-013
2.4174338e-005
-1.8962969e-014
2.4174333e-005
9.2175575e-012
1.0059829e-011
2.3939839e-005
-8.4876082e-006
2.3746806e-005
-2.0312044e-006
2.3548377e-005
1.4652674e-008
2.3499215e-005
-6.446564e-008
2.3481514e-005
-9.6325136e-009
2.3478603e-005
-7.0841307e-009
2.3477004e-005
6.7197829e-010
2.347658e-005
5.5850234e-010
2.3476479e-005
1.8023415e-010
2.347644e-005
1.27839e-010
2.3476432e-005
4.7040486e-011
2.3476431e-005
2.066557e-011
2.347643e-005
8.8163387e-012
2.347643e-005
3.3580271e-012
2.347643e-005
1.3930521e-012
2.347643e-005
5.815981e-013
2.347643e-005
2.2664995e-013
2.347643e-005
4.9750224e-014
2.347643e-005
-7.4633752e-014
2.347643e-005
-1.829442e-013
2.347643e-005
-2.2961519e-013
2.3476431e-005
-2.9854112e-013
2.3476431e-005
-1.4290472e-013
2.3476426e-005
1.3581689e-011
1.4522576e-011
2.0620209e-005
-8.1713572e-006
2.0087889e-005
-1.4988849e-006
1.998585e-005
1.1669217e-007
1.9949419e-005
-2.8034805e-008
1.9936266e-005
3.520504e-009
1.9933356e-005
-4.1740769e-009
1.9932426e-005
1.6021965e-009
1.9932354e-005
6.3031165e-010
1.993234e-005
1.9411321e-010
1.9932344e-005
1.2399499e-010
1.9932351e-005
3.9831632e-011
1.9932355e-005
1.7180146e-011
1.9932356e-005
7.0406226e-012
1.9932357e-005
2.5760614e-012
1.9932357e-005
1.060935e-012
1.9932358e-005
4.2976367e-013
1.9932358e-005
1.6229732e-013
1.9932358e-005
3.4164177e-014
1.9932358e-005
-5.0639912e-014
1.9932358e-005
-1.257945e-013
1.9932358e-005
-1.5415187e-013
1.9932358e-005
-2.7027108e-013
1.9932358e-005
-3.5414394e-013
1.9932359e-005
1.292561e-011
1.3913863e-011
1.4025144e-005
-5.3286784e-006
1.3183243e-005
-6.5698469e-007
1.3214225e-005
8.5710027e-008
1.3197187e-005
-1.0996844e-008
1.3194675e-005
6.0329621e-009
1.3192162e-005
-1.6616937e-009
1.3192573e-005
1.1918175e-009
1.3192886e-005
3.1709222e-010
1.3192975e-005
1.0537044e-010
1.3193034e-005
6.5072619e-011
1.3193055e-005
1.8288089e-011
1.3193064e-005
8.1845469e-012
1.3193068e-005
3.2144436e-012
1.319307e-005
1.1283984e-012
1.319307e-005
4.651513e-013
1.319307e-005
1.7851396e-013
1.319307e-005
6.2424723e-014
1.3193071e-005
8.7984462e-015
1.3193071e-005
-2.2901659e-014
1.319307e-005
-5.4784834e-014
1.319307e-005
-7.3270103e-014
1.319307e-005
-1.584711e-013
1.3193071e-005
-5.0719322e-013
1.3193078e-005
5.9890635e-012
6.7892722e-012
5.4390459e-006
4.7820616e-006
4.8677716e-006
4.8567748e-006
4.8628077e-006
4.861146e-006
4.8623379e-006
4.862655e-006
4.8627603e-006
4.8628254e-006
4.8628437e-006
4.8628519e-006
4.8628551e-006
4.8628562e-006
4.8628567e-006
4.8628568e-006
4.8628569e-006
4.8628569e-006
4.8628569e-006
4.8628569e-006
4.8628568e-006
4.8628567e-006
4.8628562e-006
4.8628623e-006
1.5064679e-005
-1.473117e-007
1.5047176e-005
-3.0934998e-007
1.5155956e-005
-2.8957972e-009
1.5131083e-005
-2.3146991e-007
1.5196175e-005
-1.1884958e-007
1.521215e-005
-1.4248334e-007
1.5243069e-005
-1.5449598e-007
1.5274252e-005
-1.7851409e-007
1.5311908e-005
-2.1934993e-007
1.5359434e-005
-2.8110989e-007
1.542126e-005
-3.7061738e-007
1.5503329e-005
-4.9721789e-007
1.5613244e-005
-6.7444141e-007
1.5760998e-005
-9.214742e-007
1.5959573e-005
-1.265694e-006
1.6225482e-005
-1.7465186e-006
1.6578739e-005
-2.4213182e-006
1.7041327e-005
-3.3745792e-006
1.7632575e-005
-4.7333744e-006
1.8338163e-005
-6.6844334e-006
1.9119866e-005
-9.4692059e-006
1.9513586e-005
-1.3676474e-005
1.8973004e-005
-2.0976591e-005
1.4597898e-005
-3.4517783e-005
-3.1919017e-005
1.5061239e-005
-2.0470981e-007
1.5050425e-005
-2.9853605e-007
1.5161856e-005
-1.1432674e-007
1.5144203e-005
-2.1381661e-007
1.5187803e-005
-1.6244963e-007
1.5207467e-005
-1.6214745e-007
1.5228277e-005
-1.7530602e-007
1.5250427e-005
-2.0066383e-007
1.5275885e-005
-2.4480794e-007
1.5307288e-005
-3.1251322e-007
1.5347463e-005
-4.1079254e-007
1.5399966e-005
-5.4972061e-007
1.5469081e-005
-7.4355608e-007
1.5559938e-005
-1.0123313e-006
1.5678367e-005
-1.3841232e-006
1.583017e-005
-1.8983213e-006
1.6019161e-005
-2.6103096e-006
1.6242651e-005
-3.5980694e-006
1.648085e-005
-4.9715733e-006
1.6675518e-005
-6.8791017e-006
1.6708725e-005
-9.5024128e-006
1.6199723e-005
-1.3167471e-005
1.4136171e-005
-1.8913039e-005
7.3425629e-006
-2.7724175e-005
-2.4576454e-005
1.505916e-005
-2.6002855e-007
1.5077432e-005
-3.1680873e-007
1.5155274e-005
-1.9216861e-007
1.5160511e-005
-2.1905303e-007
1.5185771e-005
-1.8770991e-007
1.5201447e-005
-1.7782384e-007
1.5213472e-005
-1.8733045e-007
1.5224855e-005
-2.1204692e-007
1.5236718e-005
-2.5667099e-007
1.525033e-005
-3.261248e-007
1.5266838e-005
-4.2730121e-007
1.5287331e-005
-5.7021358e-007
1.5312713e-005
-7.6893792e-007
1.5343405e-005
-1.043023e-006
1.5378598e-005
-1.4193164e-006
1.5414749e-005
-1.9344727e-006
1.5442609e-005
-2.6381687e-006
1.5441594e-005
-3.5970552e-006
1.5368786e-005
-4.8987649e-006
1.5141025e-005
-6.651341e-006
1.4610035e-005
-8.9714223e-006
1.3461325e-005
-1.2018761e-005
1.0900593e-005
-1.6352307e-005
5.2627322e-006
-2.2086315e-005
-1.9313722e-005
1.5064783e-005
-3.2097094e-007
1.5103811e-005
-3.5583625e-007
1.5161913e-005
-2.5027113e-007
1.5175378e-005
-2.3251733e-007
1.5188828e-005
-2.0115971e-007
1.5196448e-005
-1.8544387e-007
1.5199002e-005
-1.8988523e-007
1.5198797e-005
-2.1184139e-007
1.5196326e-005
-2.5419993e-007
1.5191499e-005
-3.2129833e-007
1.5183728e-005
-4.1953018e-007
1.5171744e-005
-5.5822896e-007
1.515328e-005
-7.5047404e-007
1.5124506e-005
-1.0142495e-006
1.5078943e-005
-1.3737529e-006
1.500561e-005
-1.8611398e-006
1.4885824e-005
-2.5183824e-006
1.4687656e-005
-3.3988879e-006
1.4356849e-005
-4.5679578e-006
1.3803066e-005
-6.0975579e-006
1.2879577e-005
-8.0479335e-006
1.134347e-005
-1.0482653e-005
8.7126514e-006
-1.3721488e-005
4.2597885e-006
-1.7633452e-005
-1.5053933e-005
1.5072107e-005
-3.8923717e-007
1.512538e-005
-4.0910907e-007
1.5171793e-005
-2.966836e-007
1.5184343e-005
-2.4506817e-007
1.5187988e-005
-2.0480409e-007
1.5185725e-005
-1.8318133e-007
1.5178007e-005
-1.8216662e-007
1.516595e-005
-1.9978472e-007
1.5149179e-005
-2.3742903e-007
1.5126309e-005
-2.984282e-007
1.5095061e-005
-3.8828183e-007
1.5052024e-005
-5.1519234e-007
1.4992158e-005
-6.9060813e-007
1.4908042e-005
-9.3013311e-007
1.4788696e-005
-1.2544075e-006
1.4617704e-005
-1.6901481e-006
1.4370255e-005
-2.2709331e-006
1.4008698e-005
-3.0373305e-006
1.3475957e-005
-4.0352173e-006
1.2687002e-005
-5.3086027e-006
1.1519353e-005
-6.8802842e-006
9.8002729e-006
-8.7635734e-006
7.2342524e-006
-1.1155468e-005
3.4761344e-006
-1.3875334e-005
-1.1577799e-005
1.5077448e-005
-4.6284409e-007
1.5143272e-005
-4.7493342e-007
1.5180328e-005
-3.3373921e-007
1.5184857e-005
-2.4959712e-007
1.5177507e-005
-1.9745416e-007
1.5164304e-005
-1.6997847e-007
1.5145899e-005
-1.6376178e-007
1.5122288e-005
-1.7617359e-007
1.5092047e-005
-2.0718802e-007
1.5052542e-005
-2.5892337e-007
1.4999966e-005
-3.3570577e-007
1.4929016e-005
-4.4424172e-007
1.4832339e-005
-5.9393112e-007
1.4699692e-005
-7.9748678e-007
1.4516752e-005
-1.0714672e-006
1.4263402e-005
-1.4367984e-006
1.3911386e-005
-1.9189165e-006
1.3421118e-005
-2.5470632e-006
1.2737627e-005
-3.3517257e-006
1.1786431e-005
-4.3574072e-006
1.0472475e-005
-5.5663283e-006
8.6774015e-006
-6.9684996e-006
6.2100761e-006
-8.6881427e-006
2.9026609e-006
-1.0567919e-005
-8.6751381e-006
1.5195825e-005
-6.548282e-007
1.5300644e-005
-5.7975186e-007
1.5325595e-005
-3.5869083e-007
1.5314847e-005
-2.3884859e-007
1.529362e-005
-1.7622725e-007
1.5268273e-005
-1.4463192e-007
1.5238877e-005
-1.3436586e-007
1.5204256e-005
-1.4155222e-007
1.5161713e-005
-1.6464533e-007
1.5107342e-005
-2.045518e-007
1.5035936e-005
-2.6429992e-007
1.4940577e-005
-3.4888308e-007
1.4812008e-005
-4.6536184e-007
1.4637755e-005
-6.2323351e-007
1.4401002e-005
-8.3471498e-007
1.4079161e-005
-1.1149572e-006
1.3642079e-005
-1.4818338e-006
1.3049934e-005
-1.954919e-006
1.2251314e-005
-2.5531056e-006
1.1182463e-005
-3.2885558e-006
9.7706802e-006
-4.1545455e-006
7.9366434e-006
-5.1344628e-006
5.554619e-006
-6.3061183e-006
2.5412173e-006
-7.5545172e-006
-6.1339208e-006
1.5840113e-005
-1.4911004e-006
1.603814e-005
-7.777785e-007
1.6007707e-005
-3.282575e-007
1.5957646e-005
-1.8878759e-007
1.5915187e-005
-1.3376869e-007
1.5874872e-005
-1.0431729e-007
1.5833579e-005
-9.30725e-008
1.5787972e-005
-9.5945677e-008
1.5733517e-005
-1.101898e-007
1.5664898e-005
-1.3593333e-007
1.5575528e-005
-1.7492974e-007
1.545695e-005
-2.303051e-007
1.5298106e-005
-3.0651707e-007
1.5084454e-005
-4.0958224e-007
1.4796897e-005
-5.4715785e-007
1.4410523e-005
-7.2858351e-007
1.3893297e-005
-9.6460729e-007
1.3204909e-005
-1.2665309e-006
1.2296299e-005
-1.6444959e-006
1.1111114e-005
-2.1033708e-006
9.5917674e-006
-2.6351989e-006
7.6832649e-006
-3.2259603e-006
5.2977156e-006
-3.920569e-006
2.3910634e-006
-4.647865e-006
-3.7428574e-006
1.6452703e-005
-2.9399622e-006
1.6514721e-005
-8.3979648e-007
1.6376466e-005
-1.9000253e-007
1.6288985e-005
-1.0130682e-007
1.6225332e-005
-7.0115295e-008
1.6170369e-005
-4.9354391e-008
1.6119022e-005
-4.1726157e-008
1.6064903e-005
-4.1826711e-008
1.6001766e-005
-4.7052557e-008
1.5923182e-005
-5.7348985e-008
1.5821547e-005
-7.3295121e-008
1.5687342e-005
-9.6099789e-008
1.5508363e-005
-1.2753802e-007
1.5268802e-005
-1.7002124e-007
1.4948239e-005
-2.2659467e-007
1.4520579e-005
-3.0092338e-007
1.3953101e-005
-3.9713008e-007
1.3205963e-005
-5.1939289e-007
1.2232642e-005
-6.7117463e-007
1.0982875e-005
-8.5360358e-007
9.4100364e-006
-1.0623602e-006
7.4737243e-006
-1.2896482e-006
5.1055033e-006
-1.5523481e-006
2.2823348e-006
-1.8246964e-006
-1.4605226e-006
1.2063879e-005
1.1224082e-005
1.103408e-005
1.0932773e-005
1.0862658e-005
1.0813303e-005
1.0771577e-005
1.072975e-005
1.0682698e-005
1.0625349e-005
1.0552054e-005
1.0455954e-005
1.0328416e-005
1.0158395e-005
9.9318e-006
9.6308766e-006
9.2337465e-006
8.7143536e-006
8.043179e-006
7.1895755e-006
6.1272153e-006
4.8375671e-006
3.285219e-006
1.4605226e-006
)
;

boundaryField
{
    inlet
    {
        type            calculated;
        value           nonuniform List<scalar> 
20
(
-5.0012803e-006
-5.0012803e-006
-5.0012803e-006
-5.0012803e-006
-5.0012803e-006
-5.0012803e-006
-5.0012803e-006
-5.0012803e-006
-5.0012803e-006
-5.0012803e-006
-1.5003841e-005
-1.5003841e-005
-1.5003841e-005
-1.5003841e-005
-1.5003841e-005
-1.5003841e-005
-1.5003841e-005
-1.5003841e-005
-1.5003841e-005
-1.5003841e-005
)
;
    }
    walls
    {
        type            calculated;
        value           uniform 0;
    }
    outlet
    {
        type            calculated;
        value           nonuniform List<scalar> 10(2.2695924e-005 2.2633883e-005 2.262737e-005 2.2896824e-005 2.3558155e-005 2.4174328e-005 2.3476422e-005 1.9932359e-005 1.3193085e-005 4.8628692e-006);
    }
    centreline
    {
        type            symmetryPlane;
        value           uniform 0;
    }
    frontAndBack
    {
        type            empty;
        value           nonuniform 0();
    }
}


// ************************************************************************* //
