/*--------------------------------*- C++ -*----------------------------------*\
| =========                 |                                                 |
| \\      /  F ield         | OpenFOAM: The Open Source CFD Toolbox           |
|  \\    /   O peration     | Version:  5.x                                   |
|   \\  /    A nd           | Web:      www.OpenFOAM.org                      |
|    \\/     M anipulation  |                                                 |
\*---------------------------------------------------------------------------*/
/*   Windows 32 and 64 bit porting by blueCAPE: http://www.bluecape.com.pt   *\
|  Based on Windows porting (2.0.x v4) by Symscape: http://www.symscape.com   |
\*---------------------------------------------------------------------------*/
FoamFile
{
    version     2.0;
    format      ascii;
    class       volSymmTensorField;
    location    "0.02";
    object      sigma;
}
// * * * * * * * * * * * * * * * * * * * * * * * * * * * * * * * * * * * * * //

dimensions      [0 2 -2 0 0 0 0];

internalField   nonuniform List<symmTensor> 
750
(
(0.00014065535 8.5585981e-006 0 -2.8840565e-005 0 0)
(-0.00029374826 -1.7901394e-006 0 9.4502501e-005 0 0)
(0.00019433431 -3.4251884e-006 0 -6.3465754e-005 0 0)
(-0.00011860469 4.4726363e-006 0 5.1306086e-005 0 0)
(3.307382e-005 -2.5505159e-006 0 -5.2192958e-006 0 0)
(-2.9311378e-005 1.5813528e-006 0 1.9108324e-005 0 0)
(-1.214891e-005 3.0926305e-008 0 1.5247121e-005 0 0)
(-2.2059244e-005 7.7495504e-007 0 2.1264482e-005 0 0)
(-2.7130442e-005 9.2594885e-007 0 2.7256925e-005 0 0)
(-3.6386076e-005 1.3512577e-006 0 3.6333997e-005 0 0)
(-4.8930361e-005 1.8871069e-006 0 4.8867783e-005 0 0)
(-6.6711754e-005 2.6453601e-006 0 6.6607133e-005 0 0)
(-9.1359335e-005 3.7013979e-006 0 9.1170785e-005 0 0)
(-0.00012600304 5.2077382e-006 0 0.00012566059 0 0)
(-0.0001747914 7.3786923e-006 0 0.00017415306 0 0)
(-0.00024418097 1.0565128e-005 0 0.00024296732 0 0)
(-0.00034403253 1.5346282e-005 0 0.00034172652 0 0)
(-0.00048946949 2.2534658e-005 0 0.00048449331 0 0)
(-0.00070682601 3.4264801e-005 0 0.00069866925 0 0)
(-0.001035701 5.0714037e-005 0 0.0010100061 0 0)
(-0.0015286758 8.1009026e-005 0 0.0015023604 0 0)
(-0.0023875258 0.00011442346 0 0.0022404574 0 0)
(-0.0033153118 0.00015303657 0 0.0032262553 0 0)
(-0.0050937453 0.00014357938 0 0.0044695046 0 0)
(-0.0054825789 -0.00015984814 0 0.0053316291 0 0)
(0.00014323169 1.8312737e-005 0 3.1263716e-006 0 0)
(-0.00029695059 -4.0617429e-006 0 3.5099659e-005 0 0)
(0.00019534749 -6.2199617e-006 0 -1.5484537e-005 0 0)
(-0.00011830543 9.0595854e-006 0 2.4207971e-005 0 0)
(3.2472397e-005 -4.8103148e-006 0 7.9330234e-006 0 0)
(-2.8771294e-005 3.1706373e-006 0 1.4951704e-005 0 0)
(-1.2289523e-005 5.5894368e-007 0 1.6271438e-005 0 0)
(-2.1851449e-005 2.1961098e-006 0 2.0854921e-005 0 0)
(-2.6977493e-005 2.811049e-006 0 2.7071148e-005 0 0)
(-3.6157476e-005 4.0506571e-006 0 3.6049527e-005 0 0)
(-4.8573764e-005 5.6507171e-006 0 4.8425059e-005 0 0)
(-6.6267646e-005 7.9207322e-006 0 6.6052205e-005 0 0)
(-9.0707575e-005 1.1070251e-005 0 9.0363212e-005 0 0)
(-0.00012507776 1.5563386e-005 0 0.00012451583 0 0)
(-0.00017344599 2.2031695e-005 0 0.00017249371 0 0)
(-0.00024219387 3.1515718e-005 0 0.00024052879 0 0)
(-0.00034100754 4.5706087e-005 0 0.00033803465 0 0)
(-0.00048482829 6.7091549e-005 0 0.00047880159 0 0)
(-0.00069971208 0.00010159656 0 0.00069038787 0 0)
(-0.0010268867 0.00015147562 0 0.00099713582 0 0)
(-0.0015107898 0.00023992523 0 0.0014865858 0 0)
(-0.0023732859 0.00034760418 0 0.0022049336 0 0)
(-0.0033070424 0.00045829433 0 0.0032494937 0 0)
(-0.0051810109 0.00044621611 0 0.0044657192 0 0)
(-0.0055781736 -0.00050842769 0 0.0055437908 0 0)
(0.00014607074 2.1491921e-005 0 9.6221264e-006 0 0)
(-0.00030088851 -5.6491421e-006 0 2.0114746e-005 0 0)
(0.00019683266 -6.7378422e-006 0 -3.2782625e-006 0 0)
(-0.00011817345 1.0818897e-005 0 1.6582442e-005 0 0)
(3.171879e-005 -5.2248992e-006 0 1.0728744e-005 0 0)
(-2.8050899e-005 3.8694348e-006 0 1.3295132e-005 0 0)
(-1.2350866e-005 1.4596446e-006 0 1.6534299e-005 0 0)
(-2.1505283e-005 3.49998e-006 0 2.0502248e-005 0 0)
(-2.6662725e-005 4.7135183e-006 0 2.6755369e-005 0 0)
(-3.5703796e-005 6.7337634e-006 0 3.560939e-005 0 0)
(-4.7903906e-005 9.3845849e-006 0 4.7769169e-005 0 0)
(-6.537333e-005 1.3156294e-005 0 6.5177448e-005 0 0)
(-8.943422e-005 1.837735e-005 0 8.9118177e-005 0 0)
(-0.00012325259 2.5824675e-005 0 0.0001227321 0 0)
(-0.00017078729 3.6541542e-005 0 0.00016989667 0 0)
(-0.00023825514 5.2251555e-005 0 0.00023668599 0 0)
(-0.0003350321 7.5730202e-005 0 0.00033220396 0 0)
(-0.0004755993 0.00011122413 0 0.00046981082 0 0)
(-0.00068536249 0.00016815114 0 0.00067647603 0 0)
(-0.0010052198 0.00025253108 0 0.00097562135 0 0)
(-0.0014773764 0.00039514622 0 0.0014555222 0 0)
(-0.0023387414 0.00058244845 0 0.0021635274 0 0)
(-0.0032935655 0.00076694696 0 0.0032461507 0 0)
(-0.0053722131 0.00077179551 0 0.0045764427 0 0)
(-0.005809371 -0.00094055791 0 0.0057860507 0 0)
(0.00014897045 2.5029165e-005 0 4.0260446e-006 0 0)
(-0.00030531972 -7.3845395e-006 0 2.9095002e-005 0 0)
(0.00019887939 -7.9313857e-006 0 -1.0207248e-005 0 0)
(-0.0001180167 1.3057291e-005 0 2.0050528e-005 0 0)
(3.0835052e-005 -5.9622239e-006 0 9.1079035e-006 0 0)
(-2.7131819e-005 4.7876059e-006 0 1.3310713e-005 0 0)
(-1.2373184e-005 2.3435684e-006 0 1.6218045e-005 0 0)
(-2.1037564e-005 4.7702045e-006 0 2.0137253e-005 0 0)
(-2.6177569e-005 6.577839e-006 0 2.6253713e-005 0 0)
(-3.5013989e-005 9.3618837e-006 0 3.4931631e-005 0 0)
(-4.693163e-005 1.3040803e-005 0 4.6808753e-005 0 0)
(-6.4030548e-005 1.8281545e-005 0 6.3849278e-005 0 0)
(-8.7544458e-005 2.552666e-005 0 8.7249485e-005 0 0)
(-0.00012054115 3.5848203e-005 0 0.00012005057 0 0)
(-0.00016684591 5.0686167e-005 0 0.00016599886 0 0)
(-0.00023242007 7.2408626e-005 0 0.0002309169 0 0)
(-0.00032620198 0.00010480275 0 0.00032346748 0 0)
(-0.00046206367 0.00015384269 0 0.00045647151 0 0)
(-0.0006640155 0.00023197879 0 0.00065523544 0 0)
(-0.00097141144 0.000349184 0 0.0009426681 0 0)
(-0.0014273743 0.0005489471 0 0.0014051703 0 0)
(-0.0022807163 0.00082626326 0 0.0021043844 0 0)
(-0.0032720063 0.0011203694 0 0.0032183507 0 0)
(-0.0057102537 0.0011430053 0 0.0048258331 0 0)
(-0.0062597257 -0.001523281 0 0.0061640546 0 0)
(0.0001521484 2.9822737e-005 0 -3.7627859e-008 0 0)
(-0.00031050387 -9.2418128e-006 0 3.7003662e-005 0 0)
(0.00020150187 -9.673341e-006 0 -1.6127811e-005 0 0)
(-0.00011775956 1.5931826e-005 0 2.3031418e-005 0 0)
(2.9726752e-005 -7.0657502e-006 0 8.5044772e-006 0 0)
(-2.5978488e-005 5.7118846e-006 0 1.3218189e-005 0 0)
(-1.2356547e-005 3.1633992e-006 0 1.5821623e-005 0 0)
(-2.0445445e-005 6.0131434e-006 0 1.9650791e-005 0 0)
(-2.5524995e-005 8.3917286e-006 0 2.5579023e-005 0 0)
(-3.4097921e-005 1.1923715e-005 0 3.4019648e-005 0 0)
(-4.5653808e-005 1.6599389e-005 0 4.5531605e-005 0 0)
(-6.2258698e-005 2.3269208e-005 0 6.2078788e-005 0 0)
(-8.5047215e-005 3.2473336e-005 0 8.4754892e-005 0 0)
(-0.00011696799 4.5569745e-005 0 0.00011648169 0 0)
(-0.00016165956 6.4371938e-005 0 0.00016082042 0 0)
(-0.0002247501 9.1854151e-005 0 0.00022326284 0 0)
(-0.00031460625 0.00013276342 0 0.00031189522 0 0)
(-0.00044426162 0.00019471343 0 0.00043876849 0 0)
(-0.00063585485 0.00029313538 0 0.00062703456 0 0)
(-0.00092648841 0.00044154113 0 0.00089835716 0 0)
(-0.0013582904 0.0007003621 0 0.0013350968 0 0)
(-0.0021925136 0.0010752335 0 0.002013715 0 0)
(-0.0032366282 0.001523653 0 0.003171898 0 0)
(-0.0062454981 0.0016174115 0 0.0052079974 0 0)
(-0.0070877952 -0.0021509137 0 0.0068324805 0 0)
(0.00015583634 3.5920784e-005 0 -3.8008954e-006 0 0)
(-0.00031668683 -1.1019593e-005 0 4.4125795e-005 0 0)
(0.00020471536 -1.1908828e-005 0 -2.1544121e-005 0 0)
(-0.000117403 1.9325711e-005 0 2.5388946e-005 0 0)
(2.8353763e-005 -8.4406926e-006 0 7.9051605e-006 0 0)
(-2.4573287e-005 6.6312493e-006 0 1.2860131e-005 0 0)
(-1.2301554e-005 3.9501601e-006 0 1.5389648e-005 0 0)
(-1.9730124e-005 7.2129176e-006 0 1.9038407e-005 0 0)
(-2.4710537e-005 1.0146487e-005 0 2.4744744e-005 0 0)
(-3.2963462e-005 1.4404398e-005 0 3.2888575e-005 0 0)
(-4.4082031e-005 2.0041587e-005 0 4.3961444e-005 0 0)
(-6.0068767e-005 2.8087163e-005 0 5.9891854e-005 0 0)
(-8.1966933e-005 3.9174621e-005 0 8.1680013e-005 0 0)
(-0.00011256596 5.4927072e-005 0 0.00011208874 0 0)
(-0.0001552778 7.7507308e-005 0 0.00015445541 0 0)
(-0.00021532382 0.00011044536 0 0.00021386856 0 0)
(-0.00030037961 0.00015935479 0 0.00029772348 0 0)
(-0.00042238054 0.00023339148 0 0.0004170461 0 0)
(-0.00060120513 0.00035069949 0 0.00059246182 0 0)
(-0.00087071602 0.00052842162 0 0.00084346524 0 0)
(-0.0012729849 0.00084002946 0 0.0012492302 0 0)
(-0.0020748005 0.0013109911 0 0.001893334 0 0)
(-0.0031668595 0.0019962945 0 0.0030857147 0 0)
(-0.0069589607 0.0023007352 0 0.0056911124 0 0)
(-0.0083133808 -0.0023501224 0 0.0078275573 0 0)
(0.0001604195 4.4244935e-005 0 -9.2069398e-006 0 0)
(-0.00032428742 -1.2626848e-005 0 5.4619776e-005 0 0)
(0.00020853878 -1.4999971e-005 0 -2.9356503e-005 0 0)
(-0.00011690535 2.3527289e-005 0 2.8915185e-005 0 0)
(2.6643043e-005 -1.0191894e-005 0 6.9674225e-006 0 0)
(-2.2887048e-005 7.5694055e-006 0 1.2411844e-005 0 0)
(-1.2214706e-005 4.7084958e-006 0 1.4887116e-005 0 0)
(-1.8895269e-005 8.3618246e-006 0 1.8313734e-005 0 0)
(-2.3740258e-005 1.1834985e-005 0 2.3761082e-005 0 0)
(-3.1618455e-005 1.6795093e-005 0 3.155422e-005 0 0)
(-4.2220775e-005 2.3353195e-005 0 4.2112857e-005 0 0)
(-5.7477707e-005 3.2718482e-005 0 5.7317588e-005 0 0)
(-7.8325734e-005 4.5606452e-005 0 7.8063882e-005 0 0)
(-0.00010736717 6.3884709e-005 0 0.00010692678 0 0)
(-0.00014775052 9.0039648e-005 0 0.00014698446 0 0)
(-0.00020421897 0.00012810389 0 0.00020285248 0 0)
(-0.00028363491 0.00018447691 0 0.00028112035 0 0)
(-0.0003965563 0.00026972952 0 0.00039151172 0 0)
(-0.00056012959 0.0004044221 0 0.00055164916 0 0)
(-0.0008035674 0.00060961677 0 0.0007777832 0 0)
(-0.0011621737 0.0009786884 0 0.0011384745 0 0)
(-0.0019027054 0.0015593543 0 0.0017211646 0 0)
(-0.0030161082 0.0025511471 0 0.0029143938 0 0)
(-0.0076503977 0.0032979194 0 0.0061226092 0 0)
(-0.0097215977 -0.0015092697 0 0.0090413662 0 0)
(0.00016660974 5.6673087e-005 0 -1.8579142e-005 0 0)
(-0.00033410899 -1.4225206e-005 0 7.1291629e-005 0 0)
(0.0002130722 -1.9680839e-005 0 -4.206638e-005 0 0)
(-0.00011615191 2.9342926e-005 0 3.4459143e-005 0 0)
(2.4419778e-005 -1.2738194e-005 0 5.7527146e-006 0 0)
(-2.0854396e-005 8.5787311e-006 0 1.1703398e-005 0 0)
(-1.2102065e-005 5.4469703e-006 0 1.4342667e-005 0 0)
(-1.7946007e-005 9.4515288e-006 0 1.7486965e-005 0 0)
(-2.2626072e-005 1.345293e-005 0 2.2642515e-005 0 0)
(-3.0064647e-005 1.9070819e-005 0 3.0021056e-005 0 0)
(-4.009678e-005 2.6512864e-005 0 4.0018705e-005 0 0)
(-5.452544e-005 3.712648e-005 0 5.4402945e-005 0 0)
(-7.4183972e-005 5.1701985e-005 0 7.3975955e-005 0 0)
(-0.00010147459 7.2325919e-005 0 0.00010111128 0 0)
(-0.00013926351 0.00010176442 0 0.00013861128 0 0)
(-0.00019178383 0.00014446121 0 0.00019059 0 0)
(-0.00026504159 0.00020742947 0 0.0002627979 0 0)
(-0.00036815704 0.00030233555 0 0.00036360539 0 0)
(-0.00051532761 0.00045158149 0 0.00050746801 0 0)
(-0.00073089881 0.00067883278 0 0.00070732971 0 0)
(-0.0010382867 0.001098075 0 0.0010153263 0 0)
(-0.0016869017 0.0017795808 0 0.0015105808 0 0)
(-0.0027088266 0.0031861636 0 0.002582305 0 0)
(-0.0078690261 0.0048270151 0 0.0060452922 0 0)
(-0.010175598 0.0016427868 0 0.009381484 0 0)
(0.00017553331 7.4220087e-005 0 -2.5144312e-005 0 0)
(-0.00034763654 -1.6230534e-005 0 7.7993115e-005 0 0)
(0.00021858193 -2.6654972e-005 0 -4.6320776e-005 0 0)
(-0.00011494984 3.7831524e-005 0 3.4169169e-005 0 0)
(2.1342221e-005 -1.6624397e-005 0 6.7672384e-006 0 0)
(-1.8306691e-005 9.7491389e-006 0 1.0288239e-005 0 0)
(-1.1986072e-005 6.219864e-006 0 1.3758633e-005 0 0)
(-1.6895615e-005 1.0463802e-005 0 1.6548199e-005 0 0)
(-2.1353982e-005 1.4985402e-005 0 2.1338134e-005 0 0)
(-2.8330141e-005 2.1251396e-005 0 2.8268621e-005 0 0)
(-3.7705403e-005 2.9517972e-005 0 3.7601706e-005 0 0)
(-5.1167053e-005 4.1292704e-005 0 5.1007153e-005 0 0)
(-6.9512611e-005 5.7489265e-005 0 6.925285e-005 0 0)
(-9.4828249e-005 8.032452e-005 0 9.4390975e-005 0 0)
(-0.0001296849 0.00011285068 0 0.00012892572 0 0)
(-0.00017772691 0.00015988686 0 0.00017637706 0 0)
(-0.00024396466 0.00022901547 0 0.0002414829 0 0)
(-0.00033570237 0.00033296796 0 0.00033083173 0 0)
(-0.00046316499 0.00049539937 0 0.00045454874 0 0)
(-0.00064293591 0.00074311513 0 0.00061901515 0 0)
(-0.0008845743 0.0012085272 0 0.00085637358 0 0)
(-0.001377903 0.0019716677 0 0.0011898952 0 0)
(-0.0021241297 0.0038593684 0 0.0019302511 0 0)
(-0.0069379754 0.006245898 0 0.0047930965 0 0)
(-0.0080228721 0.0052205136 0 0.0069937336 0 0)
(0.00018816063 8.9539792e-005 0 -6.7950926e-006 0 0)
(-0.00036620293 -1.7946392e-005 0 3.8657936e-005 0 0)
(0.00022558018 -3.3451e-005 0 -9.2615232e-006 0 0)
(-0.00011310285 4.6003152e-005 0 1.3352931e-005 0 0)
(1.6971451e-005 -2.0167463e-005 0 1.3542194e-005 0 0)
(-1.4974894e-005 1.0572279e-005 0 8.632833e-006 0 0)
(-1.1919743e-005 7.1013672e-006 0 1.2907341e-005 0 0)
(-1.5771803e-005 1.1383111e-005 0 1.5440366e-005 0 0)
(-1.9939544e-005 1.6409231e-005 0 1.9760472e-005 0 0)
(-2.6311144e-005 2.3185116e-005 0 2.604979e-005 0 0)
(-3.5142618e-005 3.2383692e-005 0 3.4760781e-005 0 0)
(-4.7464843e-005 4.5139862e-005 0 4.6926073e-005 0 0)
(-6.4354137e-005 6.2809183e-005 0 6.3565477e-005 0 0)
(-8.7518589e-005 8.7637048e-005 0 8.6330937e-005 0 0)
(-0.00011918994 0.00012288913 0 0.00011734897 0 0)
(-0.00016241739 0.00017364942 0 0.00015948452 0 0)
(-0.00022126885 0.00024786122 0 0.00021641518 0 0)
(-0.0003013522 0.00035872915 0 0.00029290252 0 0)
(-0.00040951393 0.00052962114 0 0.00039491641 0 0)
(-0.00055652718 0.00079237802 0 0.00052393134 0 0)
(-0.00072423304 0.0012737802 0 0.00067890811 0 0)
(-0.0010209435 0.0020598213 0 0.000798393 0 0)
(-0.0012091831 0.0041857372 0 0.00096884576 0 0)
(-0.0034451661 0.006790154 0 0.0013895451 0 0)
(-0.00031193509 0.0076735024 0 -0.00065462383 0 0)
(-0.0024479517 -0.00025713384 0 0.0020080173 0 0)
(-0.00072299965 -7.308104e-005 0 0.00089823481 0 0)
(-0.00045690322 -9.9029703e-006 0 0.00035535616 0 0)
(-7.3522525e-005 1.5640829e-005 0 0.00010458323 0 0)
(-5.0649202e-005 3.0909306e-005 0 4.2388301e-005 0 0)
(-1.2085442e-005 3.371698e-005 0 1.2828366e-005 0 0)
(-3.8432299e-006 3.5488048e-005 0 4.0858546e-006 0 0)
(-1.760829e-006 3.5933521e-005 0 1.5598624e-006 0 0)
(-4.4043577e-007 3.6087213e-005 0 4.7024118e-007 0 0)
(-1.7968631e-007 3.6152385e-005 0 1.522237e-007 0 0)
(-7.0962719e-008 3.61685e-005 0 4.878365e-008 0 0)
(-3.6578533e-008 3.6173986e-005 0 1.6527795e-008 0 0)
(-2.639453e-008 3.6176106e-005 0 5.2326079e-009 0 0)
(-2.2567114e-008 3.6176698e-005 0 1.6209314e-009 0 0)
(-2.140492e-008 3.6176904e-005 0 4.7575085e-010 0 0)
(-2.110413e-008 3.6176966e-005 0 1.5463694e-010 0 0)
(-2.1030185e-008 3.6176986e-005 0 6.9240275e-011 0 0)
(-2.1071165e-008 3.6176997e-005 0 6.0889296e-011 0 0)
(-2.1184447e-008 3.6177008e-005 0 1.2679482e-010 0 0)
(-2.135777e-008 3.6177026e-005 0 2.0767102e-010 0 0)
(-2.1695212e-008 3.617709e-005 0 4.6662986e-010 0 0)
(-2.2603183e-008 3.6177243e-005 0 9.939114e-010 0 0)
(-2.1881801e-008 3.617769e-005 0 2.0954538e-009 0 0)
(-2.7114149e-008 3.617701e-005 0 5.0036473e-009 0 0)
(-2.8267839e-008 3.6182356e-005 0 3.8276193e-009 0 0)
(-0.0024452801 -0.00081002738 0 0.0018525028 0 0)
(-0.00065546064 -0.00022863785 0 0.00091330113 0 0)
(-0.00043783404 -5.4502106e-005 0 0.00029358925 0 0)
(-6.3289178e-005 3.4465851e-005 0 0.00010594645 0 0)
(-4.6509771e-005 7.3785851e-005 0 3.5706988e-005 0 0)
(-1.097867e-005 8.3747011e-005 0 1.1307963e-005 0 0)
(-3.4463862e-006 8.8532844e-005 0 3.7646807e-006 0 0)
(-1.7270583e-006 8.9820098e-005 0 1.320118e-006 0 0)
(-5.0200377e-007 9.0295976e-005 0 4.2655832e-007 0 0)
(-2.7561096e-007 9.0473777e-005 0 1.3215e-007 0 0)
(-1.8104087e-007 9.0521981e-005 0 4.158437e-008 0 0)
(-1.5064886e-007 9.0537362e-005 0 1.5177965e-008 0 0)
(-1.413789e-007 9.0543588e-005 0 4.5337768e-009 0 0)
(-1.3804393e-007 9.0545302e-005 0 1.4638697e-009 0 0)
(-1.3699016e-007 9.0545903e-005 0 4.2370097e-010 0 0)
(-1.3677886e-007 9.0546054e-005 0 1.673895e-010 0 0)
(-1.3669524e-007 9.0546131e-005 0 5.7172002e-011 0 0)
(-1.3674413e-007 9.0546158e-005 0 3.9947688e-011 0 0)
(-1.3684231e-007 9.0546182e-005 0 5.7809285e-011 0 0)
(-1.3700953e-007 9.0546218e-005 0 1.1478924e-010 0 0)
(-1.3727071e-007 9.0546324e-005 0 2.8348722e-010 0 0)
(-1.3803105e-007 9.0546575e-005 0 7.1875529e-010 0 0)
(-1.374591e-007 9.0547238e-005 0 1.7838446e-009 0 0)
(-1.4057106e-007 9.0546404e-005 0 3.9631563e-009 0 0)
(-1.4116772e-007 9.0549464e-005 0 2.7652248e-009 0 0)
(-0.002407628 -0.0015218803 0 0.0017110655 0 0)
(-0.00052942027 -0.00051587424 0 0.00083376367 0 0)
(-0.00039848432 -0.000224952 0 0.00023414298 0 0)
(-4.1724762e-005 -6.1959297e-005 0 9.0979616e-005 0 0)
(-3.8884138e-005 -4.5084319e-006 0 2.7429938e-005 0 0)
(-8.3890776e-006 1.3359981e-005 0 8.848208e-006 0 0)
(-2.3837665e-006 2.0506363e-005 0 2.9506805e-006 0 0)
(-1.3122149e-006 2.2545623e-005 0 9.8962699e-007 0 0)
(-2.8635819e-007 2.3329832e-005 0 3.2935146e-007 0 0)
(-1.3466132e-007 2.3593781e-005 0 9.9951976e-008 0 0)
(-6.3772535e-008 2.3671826e-005 0 3.1333983e-008 0 0)
(-3.9472654e-008 2.3696096e-005 0 1.1477054e-008 0 0)
(-3.3073581e-008 2.3705573e-005 0 3.4183332e-009 0 0)
(-3.0471762e-008 2.3708378e-005 0 1.0616709e-009 0 0)
(-2.9746611e-008 2.3709249e-005 0 3.3807217e-010 0 0)
(-2.9581322e-008 2.370951e-005 0 1.2765111e-010 0 0)
(-2.9523296e-008 2.3709631e-005 0 3.5847051e-011 0 0)
(-2.957855e-008 2.3709672e-005 0 1.8516033e-011 0 0)
(-2.967552e-008 2.3709702e-005 0 2.6917578e-011 0 0)
(-2.9837426e-008 2.3709745e-005 0 7.4878966e-011 0 0)
(-3.0073454e-008 2.3709851e-005 0 2.0581773e-010 0 0)
(-3.0803397e-008 2.3710128e-005 0 6.2400907e-010 0 0)
(-3.0345301e-008 2.3710647e-005 0 1.7816015e-009 0 0)
(-3.442919e-008 2.3710091e-005 0 4.481421e-009 0 0)
(-3.501479e-008 2.3704969e-005 0 3.2511871e-009 0 0)
(-0.002411934 -0.0025939813 0 0.0015903748 0 0)
(-0.00034905787 -0.0011513144 0 0.00066197134 0 0)
(-0.00033700788 -0.00070997292 0 0.00015530727 0 0)
(-1.141637e-005 -0.000472957 0 5.9501918e-005 0 0)
(-3.0732381e-005 -0.00039959114 0 1.6563375e-005 0 0)
(-6.9707804e-006 -0.00037539048 0 5.2214798e-006 0 0)
(-3.1521345e-006 -0.00036644578 0 1.6565731e-006 0 0)
(-2.9283559e-006 -0.00036382673 0 5.3684889e-007 0 0)
(-2.1933858e-006 -0.00036281106 0 1.804324e-007 0 0)
(-2.1411633e-006 -0.00036248557 0 5.3237891e-008 0 0)
(-2.1013901e-006 -0.00036238504 0 1.6597381e-008 0 0)
(-2.0860049e-006 -0.00036235414 0 6.0429363e-009 0 0)
(-2.0832424e-006 -0.00036234226 0 1.7333845e-009 0 0)
(-2.0817501e-006 -0.0003623387 0 5.2581782e-010 0 0)
(-2.0813605e-006 -0.0003623376 0 1.6022721e-010 0 0)
(-2.0812908e-006 -0.00036233725 0 5.455004e-011 0 0)
(-2.0812784e-006 -0.00036233711 0 1.1936761e-011 0 0)
(-2.081344e-006 -0.00036233705 0 8.5309611e-012 0 0)
(-2.0814415e-006 -0.00036233702 0 1.9932517e-011 0 0)
(-2.081593e-006 -0.00036233698 0 6.2065603e-011 0 0)
(-2.081793e-006 -0.00036233685 0 1.6406471e-010 0 0)
(-2.0824497e-006 -0.00036233645 0 5.2082947e-010 0 0)
(-2.0820984e-006 -0.00036233565 0 1.5696029e-009 0 0)
(-2.0876128e-006 -0.0003623363 0 6.0665964e-009 0 0)
(-2.0882095e-006 -0.00036234315 0 5.1054857e-009 0 0)
(-0.0026013848 -0.004046982 0 0.0015402667 0 0)
(-0.0001428969 -0.002147844 0 0.00043515973 0 0)
(-0.00026223761 -0.0015311823 0 3.3186524e-005 0 0)
(1.3422745e-005 -0.0012291627 0 1.643219e-005 0 0)
(-3.6416307e-005 -0.0011438029 0 2.524001e-006 0 0)
(-2.0897932e-005 -0.0011156048 0 7.7681729e-007 0 0)
(-1.9702719e-005 -0.0011056357 0 8.1621678e-008 0 0)
(-2.0441979e-005 -0.0011026763 0 -2.8625531e-008 0 0)
(-2.006155e-005 -0.0011015546 0 9.0867124e-010 0 0)
(-2.0122542e-005 -0.0011011972 0 -4.3342104e-009 0 0)
(-2.0119267e-005 -0.0011010856 0 -1.6422147e-009 0 0)
(-2.0114732e-005 -0.0011010513 0 -4.7863371e-010 0 0)
(-2.0116071e-005 -0.0011010381 0 -3.0959697e-010 0 0)
(-2.0115864e-005 -0.0011010343 0 -1.2405328e-010 0 0)
(-2.0115864e-005 -0.001101033 0 -5.5862822e-011 0 0)
(-2.0115918e-005 -0.0011010326 0 -2.868704e-011 0 0)
(-2.0115956e-005 -0.0011010325 0 -1.494181e-011 0 0)
(-2.0116035e-005 -0.0011010324 0 4.9420914e-013 0 0)
(-2.0116134e-005 -0.0011010324 0 1.6911346e-011 0 0)
(-2.0116275e-005 -0.0011010323 0 5.4653063e-011 0 0)
(-2.0116429e-005 -0.0011010322 0 1.2558286e-010 0 0)
(-2.011698e-005 -0.0011010317 0 4.0425524e-010 0 0)
(-2.0116735e-005 -0.0011010304 0 1.2877547e-009 0 0)
(-2.0123995e-005 -0.0011010311 0 7.5577685e-009 0 0)
(-2.0124776e-005 -0.0011010353 0 7.0399809e-009 0 0)
(-0.0030123058 -0.0051988002 0 0.0016142892 0 0)
(0.00011518098 -0.0027357528 0 0.0001604804 0 0)
(-0.00016232982 -0.0019943863 0 -0.00012440571 0 0)
(4.3243908e-005 -0.0016559947 0 -3.4851878e-005 0 0)
(-4.526489e-005 -0.0015702331 0 -1.3627377e-005 0 0)
(-3.9487837e-005 -0.0015415567 0 -4.0112337e-006 0 0)
(-4.1373584e-005 -0.0015318772 0 -1.5919572e-006 0 0)
(-4.315707e-005 -0.0015290291 0 -6.2995411e-007 0 0)
(-4.3166858e-005 -0.0015279707 0 -1.9034795e-007 0 0)
(-4.3353631e-005 -0.0015276291 0 -6.4976559e-008 0 0)
(-4.338938e-005 -0.0015275248 0 -2.1289081e-008 0 0)
(-4.3397063e-005 -0.0015274932 0 -7.4342771e-009 0 0)
(-4.3403022e-005 -0.0015274805 0 -2.3930978e-009 0 0)
(-4.3404103e-005 -0.0015274771 0 -8.5382967e-010 0 0)
(-4.3404583e-005 -0.0015274758 0 -2.7630094e-010 0 0)
(-4.3404772e-005 -0.0015274755 0 -1.0787871e-010 0 0)
(-4.3404855e-005 -0.0015274754 0 -4.3526303e-011 0 0)
(-4.3404949e-005 -0.0015274753 0 -1.0742599e-011 0 0)
(-4.3405049e-005 -0.0015274753 0 1.0074691e-011 0 0)
(-4.3405173e-005 -0.0015274752 0 3.5375345e-011 0 0)
(-4.3405266e-005 -0.001527475 0 5.8862581e-011 0 0)
(-4.3405638e-005 -0.0015274743 0 2.3028731e-010 0 0)
(-4.34055e-005 -0.0015274722 0 7.4708233e-010 0 0)
(-4.3412926e-005 -0.0015274731 0 7.3942881e-009 0 0)
(-4.3413318e-005 -0.0015274642 0 7.6453717e-009 0 0)
(-0.0031922469 -0.0043346305 0 0.0016383483 0 0)
(0.00058000858 -0.0010209323 0 -0.00017422514 0 0)
(5.6165968e-006 -0.00033857577 0 -0.00026551537 0 0)
(0.00013649736 -1.3499093e-005 0 -8.07683e-005 0 0)
(4.0030813e-006 4.8077047e-005 0 -2.8542057e-005 0 0)
(-8.6745675e-007 7.2038812e-005 0 -8.2155241e-006 0 0)
(-6.4053373e-006 7.9157352e-005 0 -2.9889693e-006 0 0)
(-9.2206707e-006 8.1136867e-005 0 -1.1192606e-006 0 0)
(-9.6312712e-006 8.1916312e-005 0 -3.4320004e-007 0 0)
(-9.9444126e-006 8.2142275e-005 0 -1.138305e-007 0 0)
(-1.0019689e-005 8.2215819e-005 0 -3.5490855e-008 0 0)
(-1.0037765e-005 8.2234466e-005 0 -1.3393235e-008 0 0)
(-1.0048669e-005 8.2243285e-005 0 -4.0675414e-009 0 0)
(-1.0051087e-005 8.2245536e-005 0 -1.3581688e-009 0 0)
(-1.0052012e-005 8.2246263e-005 0 -4.2089815e-010 0 0)
(-1.0052305e-005 8.2246418e-005 0 -1.5631269e-010 0 0)
(-1.0052433e-005 8.2246463e-005 0 -5.8603994e-011 0 0)
(-1.0052534e-005 8.2246489e-005 0 -2.1171763e-011 0 0)
(-1.005263e-005 8.2246544e-005 0 -1.0740742e-011 0 0)
(-1.0052731e-005 8.2246655e-005 0 -1.5296064e-011 0 0)
(-1.0052753e-005 8.2246933e-005 0 -6.3465635e-011 0 0)
(-1.0052822e-005 8.2247685e-005 0 -1.0295026e-010 0 0)
(-1.0053062e-005 8.2251142e-005 0 -1.7958856e-010 0 0)
(-1.0056275e-005 8.2250437e-005 0 3.3705151e-009 0 0)
(-1.0056919e-005 8.2279014e-005 0 4.4912633e-009 0 0)
(-0.0027100116 0.0010324102 0 0.0013013163 0 0)
(0.00058323532 0.0054248961 0 -0.00055460934 0 0)
(-0.00051458182 0.0057962459 0 -0.00030715928 0 0)
(-0.00040734639 0.0060363101 0 -0.00010226308 0 0)
(-0.00057273196 0.0060434466 0 -3.6242198e-005 0 0)
(-0.00058385389 0.0060560956 0 -1.0499835e-005 0 0)
(-0.00059216872 0.006057742 0 -3.5604319e-006 0 0)
(-0.00059552916 0.0060581704 0 -1.2541491e-006 0 0)
(-0.00059610433 0.0060584025 0 -3.8459492e-007 0 0)
(-0.00059646501 0.0060584195 0 -1.2832186e-007 0 0)
(-0.00059655339 0.0060584303 0 -4.0809272e-008 0 0)
(-0.00059657915 0.0060584328 0 -1.3040033e-008 0 0)
(-0.00059658929 0.0060584327 0 -4.7296635e-009 0 0)
(-0.00059659261 0.0060584328 0 -1.3465664e-009 0 0)
(-0.00059659355 0.0060584327 0 -4.1307687e-010 0 0)
(-0.00059659384 0.0060584326 0 -1.416488e-010 0 0)
(-0.00059659396 0.0060584325 0 -4.8447581e-011 0 0)
(-0.00059659403 0.0060584325 0 -3.0666857e-011 0 0)
(-0.00059659411 0.0060584326 0 -5.0875413e-011 0 0)
(-0.00059659419 0.0060584327 0 -1.077174e-010 0 0)
(-0.00059659421 0.0060584331 0 -2.4369153e-010 0 0)
(-0.00059659394 0.0060584342 0 -6.5427901e-010 0 0)
(-0.00059659497 0.0060584381 0 -1.7483724e-009 0 0)
(-0.00059658846 0.0060584378 0 -4.9466403e-009 0 0)
(-0.00059659531 0.0060584716 0 -3.4383821e-009 0 0)
(-0.0059917104 0.014333604 0 0.0010785158 0 0)
(-0.0043499565 0.018542023 0 -0.00091805487 0 0)
(-0.0061605042 0.018576662 0 -0.00021561845 0 0)
(-0.005860467 0.018561093 0 -0.000101539 0 0)
(-0.0060210356 0.018513798 0 -3.0354264e-005 0 0)
(-0.0060166301 0.018506581 0 -1.0000356e-005 0 0)
(-0.0060224288 0.018500714 0 -2.9006922e-006 0 0)
(-0.0060246439 0.018499641 0 -9.1417025e-007 0 0)
(-0.0060245858 0.018499157 0 -3.326794e-007 0 0)
(-0.0060248137 0.018498955 0 -9.2901664e-008 0 0)
(-0.0060248383 0.018498907 0 -3.1343169e-008 0 0)
(-0.0060248442 0.018498886 0 -1.0228029e-008 0 0)
(-0.0060248492 0.018498879 0 -2.9909879e-009 0 0)
(-0.0060248496 0.018498877 0 -9.1504109e-010 0 0)
(-0.0060248497 0.018498876 0 -2.6781745e-010 0 0)
(-0.0060248497 0.018498876 0 -6.934632e-011 0 0)
(-0.0060248496 0.018498876 0 -2.5579867e-011 0 0)
(-0.0060248496 0.018498876 0 -3.8235909e-011 0 0)
(-0.0060248496 0.018498876 0 -8.9959157e-011 0 0)
(-0.0060248498 0.018498876 0 -1.9551895e-010 0 0)
(-0.0060248499 0.018498876 0 -4.3733868e-010 0 0)
(-0.0060248494 0.018498877 0 -1.2868377e-009 0 0)
(-0.0060248525 0.018498882 0 -3.2726554e-009 0 0)
(-0.0060248411 0.018498887 0 -1.4384289e-008 0 0)
(-0.0060248517 0.018498902 0 -1.2720896e-008 0 0)
(-0.033056487 0.041500487 0 -0.0022000042 0 0)
(-0.028146575 0.039288743 0 -0.00048667033 0 0)
(-0.033683491 0.041766469 0 -8.7550792e-006 0 0)
(-0.032013793 0.040990674 0 -5.6106612e-005 0 0)
(-0.032230013 0.041026568 0 -1.0839655e-005 0 0)
(-0.032158295 0.040987053 0 -5.4791616e-006 0 0)
(-0.032150626 0.040976473 0 -9.090007e-007 0 0)
(-0.03215134 0.04097628 0 -2.9328788e-007 0 0)
(-0.03214942 0.040975066 0 -1.2370136e-007 0 0)
(-0.032149342 0.040974892 0 -2.2882709e-008 0 0)
(-0.032149254 0.040974835 0 -8.8898884e-009 0 0)
(-0.032149215 0.040974807 0 -2.3521897e-009 0 0)
(-0.032149209 0.040974802 0 -4.6499258e-010 0 0)
(-0.032149206 0.0409748 0 -9.7336089e-011 0 0)
(-0.032149205 0.040974799 0 3.8986934e-011 0 0)
(-0.032149205 0.040974799 0 4.3497133e-011 0 0)
(-0.032149204 0.040974799 0 1.1610477e-011 0 0)
(-0.032149204 0.040974799 0 -4.6115355e-011 0 0)
(-0.032149204 0.040974799 0 -1.3173957e-010 0 0)
(-0.032149204 0.040974799 0 -2.8599296e-010 0 0)
(-0.032149204 0.040974799 0 -6.5678039e-010 0 0)
(-0.032149201 0.040974798 0 -1.668812e-009 0 0)
(-0.032149195 0.040974796 0 -4.994936e-009 0 0)
(-0.032149177 0.040974802 0 -2.1228825e-008 0 0)
(-0.032149069 0.040974735 0 -1.7912587e-008 0 0)
(0.00021718789 7.3552299e-005 0 2.9369146e-005 0 0)
(-0.00040864259 -1.5649034e-005 0 -3.0757723e-005 0 0)
(0.00024228389 -2.9879532e-005 0 4.9771879e-005 0 0)
(-0.00010874338 3.9052942e-005 0 -1.4510033e-005 0 0)
(6.3972395e-006 -1.5298284e-005 0 1.779739e-005 0 0)
(-7.2039643e-006 8.8107974e-006 0 7.8953134e-006 0 0)
(-1.1746306e-005 8.6626871e-006 0 1.0788756e-005 0 0)
(-1.3393927e-005 1.2948354e-005 0 1.2983083e-005 0 0)
(-1.6874034e-005 1.8864852e-005 0 1.6468699e-005 0 0)
(-2.209011e-005 2.6565106e-005 0 2.1515921e-005 0 0)
(-2.9446794e-005 3.7188055e-005 0 2.8661439e-005 0 0)
(-3.953715e-005 5.1689081e-005 0 3.8465319e-005 0 0)
(-5.3297133e-005 7.1746447e-005 0 5.1805694e-005 0 0)
(-7.191238e-005 9.9746234e-005 0 6.9805203e-005 0 0)
(-9.6890821e-005 0.00013921359 0 9.3878072e-005 0 0)
(-0.00013004188 0.00019545332 0 0.0001256701 0 0)
(-0.00017331768 0.00027663481 0 0.00016683703 0 0)
(-0.00022824458 0.00039600193 0 0.00021850197 0 0)
(-0.00029373909 0.00057431567 0 0.00027897046 0 0)
(-0.0003618182 0.00084673084 0 0.00033928192 0 0)
(-0.00039721571 0.0013001647 0 0.00037748262 0 0)
(-0.00036956906 0.0020748639 0 0.0002725183 0 0)
(0.00029559036 0.0038292868 0 -0.00020769718 0 0)
(0.001424309 0.0051880488 0 -0.0019127181 0 0)
(0.006336872 0.0018045024 0 -0.0057194593 0 0)
(0.00023078689 4.2636322e-005 0 3.2068728e-005 0 0)
(-0.00043203141 -8.4831922e-006 0 -3.9966109e-005 0 0)
(0.00025333086 -1.5133933e-005 0 5.2521944e-005 0 0)
(-0.00010482941 1.7937445e-005 0 -1.4589842e-005 0 0)
(1.0154012e-006 -3.2499303e-006 0 1.2199704e-005 0 0)
(-1.3665689e-006 5.968831e-006 0 6.8951509e-006 0 0)
(-8.8315298e-006 9.8715981e-006 0 7.5175309e-006 0 0)
(-9.281325e-006 1.4713945e-005 0 8.9558226e-006 0 0)
(-1.1324951e-005 2.1632691e-005 0 1.1189409e-005 0 0)
(-1.4583354e-005 3.0280063e-005 0 1.432561e-005 0 0)
(-1.9278992e-005 4.2508798e-005 0 1.8935777e-005 0 0)
(-2.5547844e-005 5.8879636e-005 0 2.509064e-005 0 0)
(-3.3918468e-005 8.1369075e-005 0 3.328751e-005 0 0)
(-4.4859828e-005 0.0001124943 0 4.3992702e-005 0 0)
(-5.876976e-005 0.00015572731 0 5.7565657e-005 0 0)
(-7.5839043e-005 0.00021639598 0 7.4147598e-005 0 0)
(-9.5353749e-005 0.00030211298 0 9.2955169e-005 0 0)
(-0.0001145124 0.00042382431 0 0.00011109195 0 0)
(-0.00012597123 0.00059749813 0 0.00012087145 0 0)
(-0.00011159226 0.00084683427 0 0.00010369334 0 0)
(-3.8409357e-005 0.0012036304 0 2.2138476e-005 0 0)
(0.0001451014 0.001717751 0 -0.0002383115 0 0)
(0.0008864038 0.0025967051 0 -0.0010225727 0 0)
(0.0027439314 0.0022912046 0 -0.0035108597 0 0)
(0.0040123023 -0.0034182159 0 -0.0058672764 0 0)
(0.00023751008 3.42503e-005 0 1.6957576e-005 0 0)
(-0.00044595292 -5.2980814e-006 0 -8.8234289e-006 0 0)
(0.00026095577 -1.1005276e-005 0 2.5643914e-005 0 0)
(-0.00010041435 9.954633e-006 0 -8.6108967e-007 0 0)
(-2.1877839e-006 3.6847529e-007 0 5.5397224e-006 0 0)