/*--------------------------------*- C++ -*----------------------------------*\
| =========                 |                                                 |
| \\      /  F ield         | OpenFOAM: The Open Source CFD Toolbox           |
|  \\    /   O peration     | Version:  5.x                                   |
|   \\  /    A nd           | Web:      www.OpenFOAM.org                      |
|    \\/     M anipulation  |                                                 |
\*---------------------------------------------------------------------------*/
/*   Windows 32 and 64 bit porting by blueCAPE: http://www.bluecape.com.pt   *\
|  Based on Windows porting (2.0.x v4) by Symscape: http://www.symscape.com   |
\*---------------------------------------------------------------------------*/
FoamFile
{
    version     2.0;
    format      ascii;
    class       volSymmTensorField;
    location    "0.02";
    object      sigma_0;
}
// * * * * * * * * * * * * * * * * * * * * * * * * * * * * * * * * * * * * * //

dimensions      [0 2 -2 0 0 0 0];

internalField   nonuniform List<symmTensor> 
750
(
(0.00014162162 8.541238e-006 0 -2.9241144e-005 0 0)
(-0.00029469115 -1.7820787e-006 0 9.4498452e-005 0 0)
(0.00019501568 -3.4444289e-006 0 -6.3633467e-005 0 0)
(-0.0001184656 4.4842947e-006 0 5.1049363e-005 0 0)
(3.3083566e-005 -2.5505508e-006 0 -5.2599318e-006 0 0)
(-2.9028144e-005 1.5756345e-006 0 1.8886192e-005 0 0)
(-1.2052378e-005 3.3024482e-008 0 1.5111502e-005 0 0)
(-2.1844892e-005 7.6932786e-007 0 2.1067898e-005 0 0)
(-2.6915637e-005 9.2093996e-007 0 2.7036375e-005 0 0)
(-3.6104931e-005 1.3422326e-006 0 3.6054587e-005 0 0)
(-4.8558975e-005 1.8739532e-006 0 4.8496837e-005 0 0)
(-6.6223567e-005 2.6268132e-006 0 6.6120053e-005 0 0)
(-9.0692957e-005 3.6748488e-006 0 9.0506638e-005 0 0)
(-0.00012508559 5.1698905e-006 0 0.00012474743 0 0)
(-0.00017351752 7.3245105e-006 0 0.00017288757 0 0)
(-0.00024239542 1.0486887e-005 0 0.00024119894 0 0)
(-0.00034149854 1.5230529e-005 0 0.00033922354 0 0)
(-0.00048585624 2.2366081e-005 0 0.0004809602 0 0)
(-0.00070151278 3.3993501e-005 0 0.00069346484 0 0)
(-0.0010277977 5.0320976e-005 0 0.0010025212 0 0)
(-0.0015168354 8.0337156e-005 0 0.0014909958 0 0)
(-0.0023683783 0.0001134293 0 0.0022234351 0 0)
(-0.0032869729 0.00015161897 0 0.0032007505 0 0)
(-0.0050496903 0.00014228835 0 0.0044337859 0 0)
(-0.005431258 -0.00015875055 0 0.0052891521 0 0)
(0.00014419635 1.8247963e-005 0 2.8753344e-006 0 0)
(-0.00029789546 -4.034922e-006 0 3.4812334e-005 0 0)
(0.00019603296 -6.2528096e-006 0 -1.5489414e-005 0 0)
(-0.00011816475 9.0714856e-006 0 2.3903543e-005 0 0)
(3.2479669e-005 -4.8002894e-006 0 7.8542684e-006 0 0)
(-2.8487923e-005 3.1552697e-006 0 1.4763731e-005 0 0)
(-1.2193354e-005 5.6230177e-007 0 1.6116304e-005 0 0)
(-2.1638747e-005 2.1812148e-006 0 2.0667227e-005 0 0)
(-2.6763582e-005 2.7949818e-006 0 2.6849564e-005 0 0)
(-3.5878784e-005 4.0238064e-006 0 3.5772698e-005 0 0)
(-4.820696e-005 5.6113954e-006 0 4.8058455e-005 0 0)
(-6.5780192e-005 7.8647287e-006 0 6.5565494e-005 0 0)
(-9.0046368e-005 1.0990744e-005 0 8.9703747e-005 0 0)
(-0.00012416723 1.5450139e-005 0 0.00012360893 0 0)
(-0.00017218232 2.1869843e-005 0 0.00017123759 0 0)
(-0.00024042319 3.1282213e-005 0 0.00023877419 0 0)
(-0.00033849683 4.5362026e-005 0 0.00033555295 0 0)
(-0.00048125526 6.6590125e-005 0 0.00047531047 0 0)
(-0.00069444869 0.00010079432 0 0.00068521796 0 0)
(-0.001019001 0.00015029639 0 0.00098971347 0 0)
(-0.001499165 0.00023790774 0 0.0014753437 0 0)
(-0.0023541679 0.00034457883 0 0.0021881171 0 0)
(-0.0032788236 0.00045399882 0 0.003223948 0 0)
(-0.0051361471 0.00044246377 0 0.0044296241 0 0)
(-0.0055268082 -0.00050449912 0 0.0055016226 0 0)
(0.00014703131 2.1380661e-005 0 9.399729e-006 0 0)
(-0.00030183183 -5.598648e-006 0 1.9782687e-005 0 0)
(0.00019751732 -6.7703003e-006 0 -3.2561248e-006 0 0)
(-0.00011802622 1.0817228e-005 0 1.6274965e-005 0 0)
(3.1722869e-005 -5.1974899e-006 0 1.0642349e-005 0 0)
(-2.7769346e-005 3.8441253e-006 0 1.3120244e-005 0 0)
(-1.2254703e-005 1.4622837e-006 0 1.6373689e-005 0 0)
(-2.1295684e-005 3.4773417e-006 0 2.0319474e-005 0 0)
(-2.6451039e-005 4.6857008e-006 0 2.653555e-005 0 0)
(-3.542892e-005 6.6893792e-006 0 3.5336297e-005 0 0)
(-4.7542055e-005 9.319094e-006 0 4.7407393e-005 0 0)
(-6.48923e-005 1.3063083e-005 0 6.4696968e-005 0 0)
(-8.8782574e-005 1.8245229e-005 0 8.8467998e-005 0 0)
(-0.00012235574 2.5636587e-005 0 0.00012183847 0 0)
(-0.00016954374 3.6272928e-005 0 0.00016866008 0 0)
(-0.00023651447 5.1864091e-005 0 0.00023496047 0 0)
(-0.00033256754 7.5160383e-005 0 0.00032976688 0 0)
(-0.00047210081 0.00011039168 0 0.00046639249 0 0)
(-0.00068021391 0.00016682613 0 0.00067141355 0 0)
(-0.00099750417 0.00025055696 0 0.00096837306 0 0)
(-0.00146607 0.00039189891 0 0.0014445631 0 0)
(-0.002319961 0.00057743031 0 0.002147112 0 0)
(-0.0032653319 0.00075983522 0 0.0032206318 0 0)
(-0.0053250836 0.0007655057 0 0.0045389578 0 0)
(-0.0057551425 -0.00093191757 0 0.005742215 0 0)
(0.00014992878 2.4880933e-005 0 3.7774096e-006 0 0)
(-0.00030626107 -7.3078075e-006 0 2.8822112e-005 0 0)
(0.00019955847 -7.9659126e-006 0 -1.0222217e-005 0 0)
(-0.00011785931 1.3046281e-005 0 1.9757523e-005 0 0)
(3.083549e-005 -5.9188537e-006 0 9.0253571e-006 0 0)
(-2.6854276e-005 4.751986e-006 0 1.3137008e-005 0 0)
(-1.227657e-005 2.3454281e-006 0 1.6060399e-005 0 0)
(-2.0832447e-005 4.7401709e-006 0 1.9957269e-005 0 0)
(-2.5969323e-005 6.5385887e-006 0 2.6038073e-005 0 0)
(-3.4744683e-005 9.3004788e-006 0 3.4664031e-005 0 0)
(-4.657704e-005 1.2949834e-005 0 4.6454441e-005 0 0)
(-6.3559428e-005 1.8152105e-005 0 6.3378947e-005 0 0)
(-8.690682e-005 2.5343331e-005 0 8.6613648e-005 0 0)
(-0.00011966458 3.5587493e-005 0 0.00011917768 0 0)
(-0.00016563197 5.0314254e-005 0 0.00016479253 0 0)
(-0.00023072351 7.1872718e-005 0 0.0002292363 0 0)
(-0.00032380569 0.00010401673 0 0.00032110017 0 0)
(-0.00045866852 0.00015269182 0 0.00045315686 0 0)
(-0.00065904326 0.00023015966 0 0.0006503548 0 0)
(-0.00096399329 0.00034646934 0 0.00093570729 0 0)
(-0.0014165555 0.00054437959 0 0.0013947108 0 0)
(-0.0022625805 0.00081910753 0 0.0020886282 0 0)
(-0.0032437133 0.0011097068 0 0.0031929776 0 0)
(-0.005658747 0.0011332758 0 0.004785536 0 0)
(-0.0061979588 -0.001510335 0 0.0061154846 0 0)
(0.00015310674 2.9632316e-005 0 -2.9157835e-007 0 0)
(-0.00031144256 -9.1398442e-006 0 3.6742858e-005 0 0)
(0.00020217131 -9.7088814e-006 0 -1.614918e-005 0 0)
(-0.00011758973 1.5912914e-005 0 2.2734452e-005 0 0)
(2.972314e-005 -7.0069304e-006 0 8.4258194e-006 0 0)
(-2.5707018e-005 5.6663319e-006 0 1.3045942e-005 0 0)
(-1.2259079e-005 3.1647194e-006 0 1.5667043e-005 0 0)
(-2.0246149e-005 5.9759334e-006 0 1.9474592e-005 0 0)
(-2.5321375e-005 8.341428e-006 0 2.5368765e-005 0 0)
(-3.383589e-005 1.1845743e-005 0 3.3759132e-005 0 0)
(-4.5309023e-005 1.6483597e-005 0 4.5187149e-005 0 0)
(-6.1800567e-005 2.3104245e-005 0 6.1621475e-005 0 0)
(-8.4428285e-005 3.2239954e-005 0 8.4137796e-005 0 0)
(-0.00011611835 4.5238035e-005 0 0.00011563578 0 0)
(-0.00016048495 6.3899055e-005 0 0.0001596535 0 0)
(-0.00022311225 9.1173313e-005 0 0.00022164098 0 0)
(-0.00031230094 0.00013176666 0 0.00030961924 0 0)
(-0.00044100446 0.00019325364 0 0.00043559034 0 0)
(-0.00063111224 0.00029084726 0 0.00062238699 0 0)
(-0.00091946677 0.00043812109 0 0.00089178146 0 0)
(-0.0013481157 0.00069457012 0 0.0013252976 0 0)
(-0.0021753642 0.0010659031 0 0.001998958 0 0)
(-0.0032084518 0.0015090555 0 0.0031469276 0 0)
(-0.0061881565 0.0016018525 0 0.0051643553 0 0)
(-0.0070138335 -0.0021405045 0 0.0067759076 0 0)
(0.00015679349 3.5671729e-005 0 -4.0505526e-006 0 0)
(-0.00031761845 -1.0896126e-005 0 4.3853258e-005 0 0)
(0.0002053715 -1.1942218e-005 0 -2.1556093e-005 0 0)
(-0.00011721929 1.9296178e-005 0 2.5081892e-005 0 0)
(2.8345972e-005 -8.3651727e-006 0 7.8293865e-006 0 0)
(-2.4309917e-005 6.5762687e-006 0 1.2691451e-005 0 0)
(-1.2202872e-005 3.951061e-006 0 1.5237882e-005 0 0)
(-1.9537962e-005 7.1688861e-006 0 1.8867203e-005 0 0)
(-2.4512726e-005 1.0085483e-005 0 2.454097e-005 0 0)
(-3.2710296e-005 1.4310341e-005 0 3.2636628e-005 0 0)
(-4.3749292e-005 1.9901787e-005 0 4.3628925e-005 0 0)
(-5.9626831e-005 2.7887874e-005 0 5.9450529e-005 0 0)
(-8.1371031e-005 3.8893021e-005 0 8.108565e-005 0 0)
(-0.00011174935 5.4527249e-005 0 0.00011127546 0 0)
(-0.0001541513 7.6938055e-005 0 0.00015333599 0 0)
(-0.00021375759 0.00010962711 0 0.00021231732 0 0)
(-0.0002981845 0.00015816016 0 0.00029555648 0 0)
(-0.00041929201 0.00023164281 0 0.00041403254 0 0)
(-0.00059674705 0.00034796631 0 0.00058809802 0 0)
(-0.00086417516 0.00052435649 0 0.00083734998 0 0)
(-0.0012635682 0.00083316241 0 0.0012401895 0 0)
(-0.0020588509 0.0012998258 0 0.0018797847 0 0)
(-0.003139513 0.0019771801 0 0.0030619178 0 0)
(-0.0068975099 0.0022759085 0 0.0056465309 0 0)
(-0.0082288106 -0.0023548837 0 0.007764407 0 0)
(0.0001613681 4.3914306e-005 0 -9.4513032e-006 0 0)
(-0.00032520197 -1.2487571e-005 0 5.4342531e-005 0 0)
(0.00020917844 -1.5029412e-005 0 -2.9368188e-005 0 0)
(-0.00011670665 2.3482456e-005 0 2.8601056e-005 0 0)
(2.6631901e-005 -1.0096854e-005 0 6.8951195e-006 0 0)
(-2.2633997e-005 7.5054346e-006 0 1.2247073e-005 0 0)
(-1.2114582e-005 4.7089334e-006 0 1.473914e-005 0 0)
(-1.8711506e-005 8.3113839e-006 0 1.8148472e-005 0 0)
(-2.354943e-005 1.1763741e-005 0 2.3565128e-005 0 0)
(-3.1375703e-005 1.6685503e-005 0 3.1312487e-005 0 0)
(-4.1902277e-005 2.319015e-005 0 4.1794613e-005 0 0)
(-5.7055196e-005 3.2486094e-005 0 5.6895725e-005 0 0)
(-7.7757063e-005 4.5278278e-005 0 7.7496775e-005 0 0)
(-0.00010658971 6.3419288e-005 0 0.0001061527 0 0)
(-0.00014668099 8.9377785e-005 0 0.00014592207 0 0)
(-0.00020273761 0.00012715404 0 0.00020138611 0 0)
(-0.0002815701 0.00018309355 0 0.00027908393 0 0)
(-0.0003936693 0.00026770527 0 0.00038869782 0 0)
(-0.00055600741 0.00040127771 0 0.00054762538 0 0)
(-0.00079761039 0.00060494723 0 0.00077223335 0 0)
(-0.001153766 0.00097070083 0 0.0011304557 0 0)
(-0.0018886231 0.0015461487 0 0.0017095022 0 0)
(-0.0029910248 0.0025271637 0 0.0028932695 0 0)
(-0.0075906031 0.003261174 0 0.0060829896 0 0)
(-0.0096436097 -0.0015365815 0 0.0089873023 0 0)
(0.00016753536 5.6243027e-005 0 -1.8826393e-005 0 0)
(-0.0003349908 -1.4074994e-005 0 7.1034013e-005 0 0)
(0.00021369214 -1.9710454e-005 0 -4.2094764e-005 0 0)
(-0.00011593622 2.9281014e-005 0 3.4143079e-005 0 0)
(2.4407507e-005 -1.2618931e-005 0 5.6897105e-006 0 0)
(-2.06148e-005 8.5046718e-006 0 1.1543482e-005 0 0)
(-1.2000255e-005 5.4469497e-006 0 1.4199112e-005 0 0)
(-1.7771809e-005 9.3951524e-006 0 1.7328747e-005 0 0)
(-2.2443448e-005 1.337196e-005 0 2.2455953e-005 0 0)
(-2.9833762e-005 1.8946508e-005 0 2.9791465e-005 0 0)
(-3.9794297e-005 2.6327581e-005 0 3.9717032e-005 0 0)
(-5.4125511e-005 3.6863084e-005 0 5.4004517e-005 0 0)
(-7.364613e-005 5.132991e-005 0 7.3440835e-005 0 0)
(-0.00010074135 7.1799264e-005 0 0.00010038305 0 0)
(-0.00013825782 0.00010101694 0 0.000137615 0 0)
(-0.00019039657 0.00014339148 0 0.00018922087 0 0)
(-0.00026311875 0.00020587758 0 0.00026090809 0 0)
(-0.00036548604 0.00030007315 0 0.00036101174 0 0)
(-0.00051156173 0.00044809129 0 0.00050381311 0 0)
(-0.00072554045 0.00067369395 0 0.00070236998 0 0)
(-0.001030984 0.0010891618 0 0.0010084535 0 0)
(-0.0016748564 0.0017651167 0 0.001500958 0 0)
(-0.0026882837 0.0031569879 0 0.0025663301 0 0)
(-0.0078209676 0.0047774804 0 0.0060213554 0 0)
(-0.010130714 0.0015844059 0 0.0093590823 0 0)
(0.00017641892 7.3696206e-005 0 -2.5365722e-005 0 0)
(-0.00034847001 -1.6067619e-005 0 7.7716615e-005 0 0)
(0.00021918089 -2.6696882e-005 0 -4.6344216e-005 0 0)
(-0.00011471279 3.7758458e-005 0 3.3857616e-005 0 0)
(2.1330496e-005 -1.647665e-005 0 6.6995945e-006 0 0)
(-1.8084826e-005 9.6607393e-006 0 1.0146051e-005 0 0)
(-1.188173e-005 6.2195861e-006 0 1.3616265e-005 0 0)
(-1.6732053e-005 1.0402376e-005 0 1.6398076e-005 0 0)
(-2.1180453e-005 1.489525e-005 0 2.1161434e-005 0 0)
(-2.8112402e-005 2.1113e-005 0 2.8051807e-005 0 0)
(-3.7421772e-005 2.9312477e-005 0 3.7318694e-005 0 0)
(-5.0792541e-005 4.1000237e-005 0 5.0633851e-005 0 0)
(-6.900977e-005 5.7076015e-005 0 6.8752303e-005 0 0)
(-9.41452e-005 7.9740508e-005 0 9.3712323e-005 0 0)
(-0.0001287519 0.00011202303 0 0.00012800125 0 0)
(-0.00017644732 0.00015870469 0 0.00017511419 0 0)
(-0.00024220627 0.00022730589 0 0.00023975573 0 0)
(-0.00033328521 0.00033047708 0 0.00032848741 0 0)
(-0.00045983003 0.0004915899 0 0.00045132216 0 0)
(-0.00063834418 0.00073755919 0 0.00061479792 0 0)
(-0.00087860176 0.0011988128 0 0.00085082464 0 0)
(-0.0013687183 0.0019563903 0 0.0011830725 0 0)
(-0.0021094533 0.0038275573 0 0.0019200422 0 0)
(-0.0069003362 0.0062003414 0 0.0047766386 0 0)
(-0.0080190208 0.0051841734 0 0.0069983256 0 0)
(0.00018899605 8.8950076e-005 0 -6.9179737e-006 0 0)
(-0.0003669816 -1.7763695e-005 0 3.8284918e-005 0 0)
(0.00022615961 -3.3500556e-005 0 -9.3122504e-006 0 0)
(-0.00011283777 4.591945e-005 0 1.3094156e-005 0 0)
(1.6958432e-005 -1.9990337e-005 0 1.3395231e-005 0 0)
(-1.4775538e-005 1.0470081e-005 0 8.5300913e-006 0 0)
(-1.1810659e-005 7.0991372e-006 0 1.2762172e-005 0 0)
(-1.5620062e-005 1.1318303e-005 0 1.5298718e-005 0 0)
(-1.9775004e-005 1.630917e-005 0 1.9592229e-005 0 0)
(-2.6108309e-005 2.3033896e-005 0 2.5845526e-005 0 0)
(-3.4880787e-005 3.2160872e-005 0 3.4496934e-005 0 0)
(-4.7118378e-005 4.4820647e-005 0 4.6576904e-005 0 0)
(-6.3890332e-005 6.2358404e-005 0 6.3098554e-005 0 0)
(-8.689109e-005 8.7000855e-005 0 8.5700416e-005 0 0)
(-0.00011833723 0.00012198931 0 0.00011649467 0 0)
(-0.00016125601 0.00017236785 0 0.00015832596 0 0)
(-0.00021968796 0.0002460173 0 0.00021484707 0 0)
(-0.00029919712 0.00035605114 0 0.00029079362 0 0)
(-0.00040659746 0.00052559381 0 0.00039207517 0 0)
(-0.0005526062 0.00078654082 0 0.0005203326 0 0)
(-0.00071962192 0.0012637197 0 0.00067457937 0 0)
(-0.0010144475 0.0020440835 0 0.00079417534 0 0)
(-0.0012044663 0.0041543009 0 0.00096678559 0 0)
(-0.003442726 0.0067490745 0 0.001399349 0 0)
(-0.00036407907 0.0076403412 0 -0.00059546223 0 0)
(-0.0024228238 -0.00025554472 0 0.0019856814 0 0)
(-0.00071324518 -7.265368e-005 0 0.00088865282 0 0)
(-0.00045306084 -1.042293e-005 0 0.00035207756 0 0)
(-7.2869723e-005 1.4819685e-005 0 0.00010365396 0 0)
(-5.0138026e-005 2.9951606e-005 0 4.2026919e-005 0 0)
(-1.2060483e-005 3.2734252e-005 0 1.2756491e-005 0 0)
(-3.8127381e-006 3.4485027e-005 0 4.0640921e-006 0 0)
(-1.7548992e-006 3.4928552e-005 0 1.5564812e-006 0 0)
(-4.3968755e-007 3.5081693e-005 0 4.6934944e-007 0 0)
(-1.7773297e-007 3.5146401e-005 0 1.5192498e-007 0 0)
(-6.9920714e-008 3.5162523e-005 0 4.886124e-008 0 0)
(-3.5519343e-008 3.5167973e-005 0 1.6642861e-008 0 0)
(-2.5212613e-008 3.5170102e-005 0 5.2520436e-009 0 0)
(-2.1390124e-008 3.5170696e-005 0 1.6350244e-009 0 0)
(-2.0218236e-008 3.5170902e-005 0 4.8297944e-010 0 0)
(-1.9912002e-008 3.5170965e-005 0 1.5667213e-010 0 0)
(-1.9837417e-008 3.5170984e-005 0 7.0420368e-011 0 0)
(-1.9877991e-008 3.5170996e-005 0 6.137372e-011 0 0)
(-1.9991216e-008 3.5171007e-005 0 1.2687964e-010 0 0)
(-2.0164413e-008 3.5171024e-005 0 2.0707362e-010 0 0)
(-2.0500331e-008 3.5171088e-005 0 4.6407037e-010 0 0)
(-2.1399558e-008 3.5171239e-005 0 9.8617298e-010 0 0)
(-2.0684637e-008 3.5171682e-005 0 2.0762583e-009 0 0)
(-2.5874489e-008 3.5171011e-005 0 4.9631261e-009 0 0)
(-2.7003063e-008 3.5176325e-005 0 3.7954625e-009 0 0)
(-0.0024197331 -0.00080303197 0 0.0018300743 0 0)
(-0.00064633826 -0.00022475578 0 0.00090421735 0 0)
(-0.00043424616 -5.3673746e-005 0 0.00029081341 0 0)
(-6.2743072e-005 3.4283646e-005 0 0.00010496104 0 0)
(-4.6032046e-005 7.3227228e-005 0 3.5449454e-005 0 0)
(-1.0964588e-005 8.3090428e-005 0 1.1230797e-005 0 0)
(-3.4236261e-006 8.7824015e-005 0 3.7531337e-006 0 0)
(-1.7168157e-006 8.9108075e-005 0 1.3143786e-006 0 0)
(-5.0030581e-007 8.9580012e-005 0 4.2529385e-007 0 0)
(-2.7229016e-007 8.9756668e-005 0 1.320896e-007 0 0)
(-1.7855616e-007 8.9804769e-005 0 4.1684817e-008 0 0)
(-1.4811105e-007 8.9820084e-005 0 1.5262959e-008 0 0)
(-1.3873135e-007 8.9826329e-005 0 4.5591477e-009 0 0)
(-1.3539917e-007 8.9828045e-005 0 1.4772573e-009 0 0)
(-1.3433574e-007 8.9828647e-005 0 4.3028764e-010 0 0)
(-1.3411974e-007 8.98288e-005 0 1.6978609e-010 0 0)
(-1.3403526e-007 8.9828877e-005 0 5.8323597e-011 0 0)
(-1.3408381e-007 8.9828904e-005 0 4.0283735e-011 0 0)
(-1.3418208e-007 8.9828928e-005 0 5.7504894e-011 0 0)
(-1.3434928e-007 8.9828965e-005 0 1.1371842e-010 0 0)
(-1.346097e-007 8.9829069e-005 0 2.8066956e-010 0 0)
(-1.3536321e-007 8.9829317e-005 0 7.1257205e-010 0 0)
(-1.3479708e-007 8.9829974e-005 0 1.7667429e-009 0 0)
(-1.3787079e-007 8.982915e-005 0 3.9154456e-009 0 0)
(-1.3845304e-007 8.9832251e-005 0 2.7286526e-009 0 0)
(-0.0023813083 -0.0015037571 0 0.00168869 0 0)
(-0.00052123645 -0.00050174384 0 0.00082577444 0 0)
(-0.00039554458 -0.00021648918 0 0.00023214503 0 0)
(-4.1414025e-005 -5.5408228e-005 0 9.0184736e-005 0 0)
(-3.848205e-005 1.4450295e-006 0 2.7270785e-005 0 0)
(-8.4057029e-006 1.9134095e-005 0 8.7889156e-006 0 0)
(-2.3752209e-006 2.6209238e-005 0 2.9471398e-006 0 0)
(-1.3113567e-006 2.8240799e-005 0 9.8649172e-007 0 0)
(-2.926376e-007 2.9018518e-005 0 3.2861927e-007 0 0)
(-1.3872064e-007 2.9280861e-005 0 1.0013587e-007 0 0)
(-6.8545119e-008 2.9358593e-005 0 3.1483499e-008 0 0)
(-4.4131335e-008 2.9382832e-005 0 1.1543678e-008 0 0)
(-3.7640741e-008 2.9392317e-005 0 3.44612e-009 0 0)
(-3.5041124e-008 2.9395123e-005 0 1.0740529e-009 0 0)
(-3.4306824e-008 2.9395996e-005 0 3.4423999e-010 0 0)
(-3.413716e-008 2.939626e-005 0 1.2995735e-010 0 0)
(-3.4078318e-008 2.9396381e-005 0 3.6843518e-011 0 0)
(-3.4133327e-008 2.9396423e-005 0 1.8695098e-011 0 0)
(-3.4230445e-008 2.9396453e-005 0 2.6479752e-011 0 0)
(-3.4392331e-008 2.9396495e-005 0 7.3688825e-011 0 0)
(-3.4627886e-008 2.9396601e-005 0 2.0298506e-010 0 0)
(-3.5351214e-008 2.9396874e-005 0 6.1835164e-010 0 0)
(-3.4897222e-008 2.9397388e-005 0 1.7634878e-009 0 0)
(-3.8911372e-008 2.9396834e-005 0 4.4087117e-009 0 0)
(-3.947908e-008 2.9391822e-005 0 3.1889666e-009 0 0)
(-0.0023814016 -0.0025614637 0 0.0015659877 0 0)
(-0.00034126926 -0.001122198 0 0.00065539803 0 0)
(-0.00033498546 -0.00068927062 0 0.0001546335 0 0)
(-1.128885e-005 -0.00045509624 0 5.916907e-005 0 0)
(-3.023631e-005 -0.00038253507 0 1.6524536e-005 0 0)
(-6.8220177e-006 -0.00035856859 0 5.1983552e-006 0 0)
(-2.957086e-006 -0.00034970584 0 1.6631065e-006 0 0)
(-2.7371996e-006 -0.0003470976 0 5.3795668e-007 0 0)
(-2.0064872e-006 -0.00034609001 0 1.8089895e-007 0 0)
(-1.9514165e-006 -0.00034576648 0 5.3721897e-008 0 0)
(-1.9121446e-006 -0.00034566636 0 1.6793672e-008 0 0)
(-1.8966345e-006 -0.00034563548 0 6.1235757e-009 0 0)
(-1.8937757e-006 -0.00034562358 0 1.7648327e-009 0 0)
(-1.8922832e-006 -0.00034562002 0 5.3768846e-010 0 0)
(-1.8918848e-006 -0.00034561891 0 1.6570936e-010 0 0)
(-1.8918115e-006 -0.00034561856 0 5.6596892e-011 0 0)
(-1.8917984e-006 -0.00034561842 0 1.2784971e-011 0 0)
(-1.8918638e-006 -0.00034561837 0 8.6868007e-012 0 0)
(-1.8919616e-006 -0.00034561833 0 1.9541338e-011 0 0)
(-1.8921131e-006 -0.00034561829 0 6.1033029e-011 0 0)
(-1.8923131e-006 -0.00034561816 0 1.6168792e-010 0 0)
(-1.8929641e-006 -0.00034561777 0 5.1601867e-010 0 0)
(-1.8926164e-006 -0.00034561698 0 1.5546235e-009 0 0)
(-1.8980448e-006 -0.00034561764 0 5.9825452e-009 0 0)
(-1.8986183e-006 -0.00034562451 0 5.024572e-009 0 0)
(-0.002562466 -0.0040108991 0 0.0015104376 0 0)
(-0.00013446471 -0.0021144403 0 0.0004295978 0 0)
(-0.00026118738 -0.0015080333 0 3.4252267e-005 0 0)
(1.3532357e-005 -0.0012093904 0 1.6745159e-005 0 0)
(-3.5532718e-005 -0.0011249236 0 2.6438266e-006 0 0)
(-2.0259084e-005 -0.0010969709 0 7.9259503e-007 0 0)
(-1.8991768e-005 -0.0010870802 0 9.8795831e-008 0 0)
(-1.9731749e-005 -0.0010841308 0 -2.2234141e-008 0 0)
(-1.9351647e-005 -0.0010830167 0 2.7430302e-009 0 0)
(-1.9409004e-005 -0.0010826611 0 -3.5282192e-009 0 0)
(-1.9405993e-005 -0.0010825497 0 -1.3939586e-009 0 0)
(-1.9401304e-005 -0.0010825155 0 -3.9018424e-010 0 0)
(-1.9402543e-005 -0.0010825022 0 -2.7580438e-010 0 0)
(-1.9402334e-005 -0.0010824984 0 -1.1245369e-010 0 0)
(-1.9402325e-005 -0.0010824971 0 -5.1520142e-011 0 0)
(-1.9402376e-005 -0.0010824967 0 -2.6898553e-011 0 0)
(-1.9402413e-005 -0.0010824966 0 -1.4252703e-011 0 0)
(-1.9402492e-005 -0.0010824965 0 6.8041799e-013 0 0)
(-1.9402592e-005 -0.0010824965 0 1.6646222e-011 0 0)
(-1.9402733e-005 -0.0010824964 0 5.3942109e-011 0 0)
(-1.9402887e-005 -0.0010824963 0 1.239776e-010 0 0)
(-1.9403435e-005 -0.0010824958 0 4.0051581e-010 0 0)
(-1.9403192e-005 -0.0010824945 0 1.2773021e-009 0 0)
(-1.9410405e-005 -0.0010824952 0 7.5186923e-009 0 0)
(-1.9411167e-005 -0.0010824997 0 6.9937714e-009 0 0)
(-0.002970351 -0.0051930059 0 0.0015796495 0 0)
(0.00012185129 -0.002734636 0 0.000155264 0 0)
(-0.00016399009 -0.002003097 0 -0.00012203892 0 0)
(4.1562967e-005 -0.0016677512 0 -3.3933089e-005 0 0)
(-4.5670348e-005 -0.0015826364 0 -1.3357631e-005 0 0)
(-4.0012827e-005 -0.0015541586 0 -3.9637547e-006 0 0)
(-4.1787857e-005 -0.0015445258 0 -1.5676449e-006 0 0)
(-4.3568108e-005 -0.0015416799 0 -6.1978296e-007 0 0)
(-4.3573878e-005 -0.0015406251 0 -1.8758248e-007 0 0)
(-4.3756008e-005 -0.0015402841 0 -6.402369e-008 0 0)
(-4.379179e-005 -0.0015401798 0 -2.1034699e-008 0 0)
(-4.3799252e-005 -0.001540148 0 -7.3685795e-009 0 0)
(-4.3805115e-005 -0.0015401352 0 -2.3664028e-009 0 0)
(-4.3806195e-005 -0.0015401318 0 -8.4486269e-010 0 0)
(-4.3806665e-005 -0.0015401305 0 -2.739244e-010 0 0)
(-4.3806852e-005 -0.0015401302 0 -1.0694413e-010 0 0)
(-4.3806935e-005 -0.0015401301 0 -4.3228273e-011 0 0)
(-4.3807029e-005 -0.00154013 0 -1.0569544e-011 0 0)
(-4.380713e-005 -0.00154013 0 1.0093911e-011 0 0)
(-4.3807255e-005 -0.0015401299 0 3.5332552e-011 0 0)
(-4.3807349e-005 -0.0015401297 0 5.8757492e-011 0 0)
(-4.3807719e-005 -0.001540129 0 2.2911483e-010 0 0)
(-4.3807582e-005 -0.0015401269 0 7.4533569e-010 0 0)
(-4.3815069e-005 -0.0015401278 0 7.4630627e-009 0 0)
(-4.3815453e-005 -0.0015401194 0 7.697715e-009 0 0)
(-0.0031647794 -0.004394307 0 0.0016104469 0 0)
(0.00058337656 -0.0010980813 0 -0.00017829062 0 0)
(3.4648322e-006 -0.00042378374 0 -0.00026329806 0 0)
(0.00013478743 -0.00010074988 0 -7.9726268e-005 0 0)
(3.9109962e-006 -3.9105551e-005 0 -2.8225588e-005 0 0)
(-9.9761488e-007 -1.525163e-005 0 -8.1583833e-006 0 0)
(-6.3829224e-006 -8.1095606e-006 0 -2.9665944e-006 0 0)
(-9.1895323e-006 -6.122072e-006 0 -1.1120038e-006 0 0)
(-9.5964725e-006 -5.3380385e-006 0 -3.4117932e-007 0 0)
(-9.9047808e-006 -5.1098412e-006 0 -1.1318628e-007 0 0)
(-9.9800356e-006 -5.0356246e-006 0 -3.5411056e-008 0 0)
(-9.997931e-006 -5.0166158e-006 0 -1.3397138e-008 0 0)
(-1.0008776e-005 -5.007625e-006 0 -4.0603675e-009 0 0)
(-1.0011196e-005 -5.0053274e-006 0 -1.360378e-009 0 0)
(-1.0012116e-005 -5.0045789e-006 0 -4.2299576e-010 0 0)
(-1.0012412e-005 -5.0044149e-006 0 -1.5670246e-010 0 0)
(-1.0012539e-005 -5.0043669e-006 0 -5.9023032e-011 0 0)
(-1.0012641e-005 -5.0043397e-006 0 -2.1139424e-011 0 0)
(-1.0012738e-005 -5.0042846e-006 0 -1.0349172e-011 0 0)
(-1.0012839e-005 -5.0041748e-006 0 -1.4417701e-011 0 0)
(-1.0012864e-005 -5.0039008e-006 0 -6.1646766e-011 0 0)
(-1.0012933e-005 -5.0031581e-006 0 -9.9928912e-011 0 0)
(-1.0013166e-005 -4.9997236e-006 0 -1.662988e-010 0 0)
(-1.001654e-005 -5.0003973e-006 0 3.5316511e-009 0 0)
(-1.001709e-005 -4.972062e-006 0 4.6390554e-009 0 0)
(-0.0026950757 0.00089926365 0 0.001297733 0 0)
(0.0006142986 0.0052607857 0 -0.00055512584 0 0)
(-0.00048187871 0.0056258341 0 -0.00030664597 0 0)
(-0.00037477077 0.0058650152 0 -0.00010175181 0 0)
(-0.00053890607 0.0058729676 0 -3.606012e-005 0 0)
(-0.00055019315 0.0058856284 0 -1.0458536e-005 0 0)
(-0.00055835991 0.0058873764 0 -3.5536919e-006 0 0)
(-0.00056172217 0.0058878227 0 -1.2571945e-006 0 0)
(-0.00056230408 0.0058880648 0 -3.8497613e-007 0 0)
(-0.00056266245 0.0058880859 0 -1.286128e-007 0 0)
(-0.00056275167 0.0058880978 0 -4.1099386e-008 0 0)
(-0.00056277764 0.0058881009 0 -1.3107552e-008 0 0)
(-0.00056278779 0.0058881009 0 -4.7673517e-009 0 0)
(-0.00056279115 0.0058881011 0 -1.364412e-009 0 0)
(-0.00056279211 0.005888101 0 -4.2065248e-010 0 0)
(-0.0005627924 0.0058881009 0 -1.4476976e-010 0 0)
(-0.00056279252 0.0058881008 0 -4.9684225e-011 0 0)
(-0.0005627926 0.0058881008 0 -3.0899173e-011 0 0)
(-0.00056279268 0.0058881009 0 -5.0228955e-011 0 0)
(-0.00056279277 0.005888101 0 -1.0600003e-010 0 0)
(-0.00056279278 0.0058881014 0 -2.4034103e-010 0 0)
(-0.00056279251 0.0058881025 0 -6.4647979e-010 0 0)
(-0.00056279352 0.0058881064 0 -1.725624e-009 0 0)
(-0.00056278715 0.0058881061 0 -4.8161132e-009 0 0)
(-0.00056279385 0.0058881402 0 -3.3108756e-009 0 0)
(-0.0059161842 0.014190015 0 0.001086962 0 0)
(-0.0042304392 0.01835883 0 -0.00091323888 0 0)
(-0.0060267978 0.01839176 0 -0.00021744853 0 0)
(-0.0057311451 0.018376644 0 -0.00010142333 0 0)
(-0.0058909397 0.01832987 0 -3.0408122e-005 0 0)
(-0.005887216 0.018322791 0 -9.9693014e-006 0 0)
(-0.0058929136 0.018317021 0 -2.9183122e-006 0 0)
(-0.0058951708 0.018315952 0 -9.2241095e-007 0 0)
(-0.0058951292 0.018315474 0 -3.3449195e-007 0 0)
(-0.0058953577 0.018315275 0 -9.4189392e-008 0 0)
(-0.0058953848 0.018315226 0 -3.1753042e-008 0 0)
(-0.0058953912 0.018315206 0 -1.041567e-008 0 0)
(-0.0058953963 0.018315199 0 -3.0646107e-009 0 0)
(-0.0058953968 0.018315197 0 -9.4216273e-010 0 0)
(-0.0058953969 0.018315196 0 -2.788422e-010 0 0)
(-0.005895397 0.018315196 0 -7.3828479e-011 0 0)
(-0.0058953969 0.018315196 0 -2.7343594e-011 0 0)
(-0.0058953969 0.018315196 0 -3.8718244e-011 0 0)
(-0.0058953969 0.018315196 0 -8.9233274e-011 0 0)
(-0.0058953971 0.018315196 0 -1.934913e-010 0 0)
(-0.0058953972 0.018315196 0 -4.3259035e-010 0 0)
(-0.0058953967 0.018315198 0 -1.2742356e-009 0 0)
(-0.0058953997 0.018315202 0 -3.2553197e-009 0 0)
(-0.0058953883 0.018315207 0 -1.4344752e-008 0 0)
(-0.0058953991 0.018315222 0 -1.269408e-008 0 0)
(-0.032878698 0.04142474 0 -0.0021684052 0 0)
(-0.027963149 0.039218321 0 -0.00048289998 0 0)
(-0.033433758 0.041671043 0 -1.034945e-005 0 0)
(-0.031782363 0.040900454 0 -5.631454e-005 0 0)
(-0.031993167 0.040933424 0 -1.100921e-005 0 0)
(-0.031923426 0.040894655 0 -5.4759322e-006 0 0)
(-0.031915443 0.040883918 0 -9.4010132e-007 0 0)
(-0.03191616 0.040883685 0 -3.0064866e-007 0 0)
(-0.031914262 0.040882474 0 -1.2655471e-007 0 0)
(-0.031914174 0.040882292 0 -2.4327153e-008 0 0)
(-0.031914088 0.040882234 0 -9.2942109e-009 0 0)
(-0.031914048 0.040882205 0 -2.5330125e-009 0 0)
(-0.031914042 0.0408822 0 -5.3156039e-010 0 0)
(-0.031914039 0.040882198 0 -1.2047684e-010 0 0)
(-0.031914038 0.040882198 0 2.9808288e-011 0 0)
(-0.031914037 0.040882197 0 4.0013772e-011 0 0)
(-0.031914037 0.040882197 0 1.0298633e-011 0 0)
(-0.031914037 0.040882197 0 -4.65363e-011 0 0)
(-0.031914037 0.040882197 0 -1.3161268e-010 0 0)
(-0.031914037 0.040882197 0 -2.8466681e-010 0 0)
(-0.031914037 0.040882197 0 -6.5283746e-010 0 0)
(-0.031914034 0.040882197 0 -1.6573156e-009 0 0)
(-0.031914028 0.040882194 0 -4.9700079e-009 0 0)
(-0.03191401 0.040882201 0 -2.1301678e-008 0 0)
(-0.031913903 0.040882134 0 -1.8011095e-008 0 0)
(0.00021792249 7.2985041e-005 0 2.9239684e-005 0 0)
(-0.00040930712 -1.5466333e-005 0 -3.1049153e-005 0 0)
(0.00024280845 -2.9881243e-005 0 4.9490399e-005 0 0)
(-0.00010841096 3.897598e-005 0 -1.4571892e-005 0 0)
(6.3811937e-006 -1.5112317e-005 0 1.7538539e-005 0 0)
(-7.0593483e-006 8.7361289e-006 0 7.8169944e-006 0 0)
(-1.1623693e-005 8.6470141e-006 0 1.0658166e-005 0 0)
(-1.3266991e-005 1.2880915e-005 0 1.2861221e-005 0 0)
(-1.6732215e-005 1.874931e-005 0 1.6325929e-005 0 0)
(-2.1919949e-005 2.6392899e-005 0 2.1345567e-005 0 0)
(-2.9227941e-005 3.6932505e-005 0 2.8442423e-005 0 0)
(-3.9250179e-005 5.1324181e-005 0 3.817796e-005 0 0)
(-5.2915366e-005 7.1232077e-005 0 5.1423826e-005 0 0)
(-7.1400644e-005 9.9023505e-005 0 6.9294422e-005 0 0)
(-9.6203679e-005 0.00013819695 0 9.3194462e-005 0 0)
(-0.00012912204 0.00019401652 0 0.00012475913 0 0)
(-0.0001720969 0.00027458983 0 0.00016563636 0 0)
(-0.00022664732 0.00039306103 0 0.000216951 0 0)
(-0.00029172189 0.00057001703 0 0.00027703238 0 0)
(-0.00035940045 0.00084044857 0 0.0003370757 0 0)
(-0.00039473959 0.00129032 0 0.00037514767 0 0)
(-0.00036705807 0.0020589044 0 0.00027205205 0 0)
(0.00029183995 0.0038016139 0 -0.00020286102 0 0)
(0.0014193362 0.0051602395 0 -0.0018971413 0 0)
(0.0062992012 0.001793392 0 -0.0056738227 0 0)
(0.00023148566 4.2136992e-005 0 3.1865609e-005 0 0)
(-0.00043260975 -8.3392961e-006 0 -4.0130537e-005 0 0)
(0.0002538119 -1.5058113e-005 0 5.2141283e-005 0 0)
(-0.00010445197 1.7921918e-005 0 -1.4557909e-005 0 0)
(9.9307727e-007 -3.1231834e-006 0 1.1968866e-005 0 0)
(-1.285829e-006 5.9638238e-006 0 6.8141398e-006 0 0)
(-8.7253381e-006 9.8459272e-006 0 7.423454e-006 0 0)
(-9.1906492e-006 1.4644493e-005 0 8.8680152e-006 0 0)
(-1.1229212e-005 2.1504517e-005 0 1.1092924e-005 0 0)
(-1.4470535e-005 3.0084774e-005 0 1.4213153e-005 0 0)
(-1.9136989e-005 4.2217749e-005 0 1.8794333e-005 0 0)
(-2.5365618e-005 5.8465608e-005 0 2.4909163e-005 0 0)
(-3.3680993e-005 8.0788535e-005 0 3.3051808e-005 0 0)
(-4.4548779e-005 0.00011168234 0 4.3685226e-005 0 0)
(-5.8365645e-005 0.00015459531 0 5.7168744e-005 0 0)
(-7.5322836e-005 0.00021481714 0 7.3645775e-005 0 0)
(-9.4713766e-005 0.00029990559 0 9.2343784e-005 0 0)
(-0.00011375819 0.0004207185 0 0.00011039548 0 0)
(-0.00012517379 0.00059312584 0 0.00012018904 0 0)
(-0.00011095841 0.00084067543 0 0.00010330836 0 0)
(-3.8385715e-005 0.0011949214 0 2.2591194e-005 0 0)
(0.00014418901 0.0017053687 0 -0.00023532383 0 0)
(0.00087753881 0.0025770519 0 -0.0010118076 0 0)
(0.0027237103 0.0022813782 0 -0.0034822275 0 0)
(0.0039896739 -0.0034031529 0 -0.0058330572 0 0)
(0.00023824726 3.3732536e-005 0 1.6722476e-005 0 0)
(-0.00044647192 -5.1574418e-006 0 -9.045249e-006 0 0)
(0.00026137266 -1.0870992e-005 0 2.5348369e-005 0 0)
(-0.00010002999 9.9826044e-006 0 -9.1839887e-007 0 0)