/*--------------------------------*- C++ -*----------------------------------*\
| =========                 |                                                 |
| \\      /  F ield         | OpenFOAM: The Open Source CFD Toolbox           |
|  \\    /   O peration     | Version:  5.x                                   |
|   \\  /    A nd           | Web:      www.OpenFOAM.org                      |
|    \\/     M anipulation  |                                                 |
\*---------------------------------------------------------------------------*/
/*   Windows 32 and 64 bit porting by blueCAPE: http://www.bluecape.com.pt   *\
|  Based on Windows porting (2.0.x v4) by Symscape: http://www.symscape.com   |
\*---------------------------------------------------------------------------*/
FoamFile
{
    version     2.0;
    format      ascii;
    class       volVectorField;
    location    "0.02";
    object      U;
}
// * * * * * * * * * * * * * * * * * * * * * * * * * * * * * * * * * * * * * //

dimensions      [0 1 -1 0 0 0 0];

internalField   nonuniform List<vector> 
750
(
(0.037106937 -5.6280028e-006 0)
(0.040338854 -4.0736454e-005 0)
(0.038146039 2.4453075e-005 0)
(0.039612347 -3.6958454e-005 0)
(0.038985325 5.8953944e-006 0)
(0.039394432 -1.9393405e-005 0)
(0.039373122 -1.0400236e-005 0)
(0.039524899 -1.6685684e-005 0)
(0.03965342 -1.9395383e-005 0)
(0.039830069 -2.5358883e-005 0)
(0.040059182 -3.3570488e-005 0)
(0.040365717 -4.5281415e-005 0)
(0.040781802 -6.1814914e-005 0)
(0.041352137 -8.5138334e-005 0)
(0.042140201 -0.00011819263 0)
(0.043237608 -0.00016542562 0)
(0.044778964 -0.00023364799 0)
(0.046961301 -0.00033447324 0)
(0.050118652 -0.00048252521 0)
(0.054622342 -0.00071981877 0)
(0.061661267 -0.0010541583 0)
(0.071219702 -0.0016523592 0)
(0.088474433 -0.0023888615 0)
(0.10852498 -0.0034863059 0)
(0.14622711 -0.0039909613 0)
(0.0370873 -2.9311565e-005 0)
(0.040342242 -9.9249971e-005 0)
(0.038146487 4.4063274e-005 0)
(0.03960864 -8.9229396e-005 0)
(0.038988584 -1.8087932e-006 0)
(0.039391543 -4.9659234e-005 0)
(0.039373346 -3.4747875e-005 0)
(0.039522819 -4.8710167e-005 0)
(0.039651194 -5.8295962e-005 0)
(0.039826523 -7.5774567e-005 0)
(0.040054197 -0.00010037409 0)
(0.040358664 -0.0001353817 0)
(0.040771855 -0.00018478452 0)
(0.041338077 -0.00025446293 0)
(0.042120191 -0.00035317398 0)
(0.043208843 -0.00049415554 0)
(0.044736929 -0.00069779799 0)
(0.046899302 -0.00099774614 0)
(0.05002385 -0.0014415047 0)
(0.054478707 -0.0021386812 0)
(0.061431273 -0.0031611225 0)
(0.070881911 -0.0048945161 0)
(0.088020935 -0.0072340716 0)
(0.10812401 -0.010408183 0)
(0.14675068 -0.012251746 0)
(0.037061925 -5.789855e-005 0)
(0.040347975 -0.00014512367 0)
(0.038146709 4.924734e-005 0)
(0.039602574 -0.00013015253 0)
(0.038993898 -1.7728592e-005 0)
(0.039387292 -7.5112577e-005 0)
(0.03937304 -6.1013565e-005 0)
(0.039519099 -7.973795e-005 0)
(0.039646618 -9.7063232e-005 0)
(0.039819524 -0.00012569958 0)
(0.04004427 -0.00016656994 0)
(0.040344624 -0.00022462759 0)
(0.040752045 -0.00030654673 0)
(0.041310074 -0.00042205435 0)
(0.042080346 -0.00058561927 0)
(0.043151562 -0.00081908944 0)
(0.044653336 -0.0011562407 0)
(0.046775634 -0.0016516587 0)
(0.049835491 -0.0023874728 0)
(0.054192145 -0.0035301669 0)
(0.060974844 -0.0052432716 0)
(0.070193157 -0.0080736101 0)
(0.087095033 -0.012113036 0)
(0.10733658 -0.017427669 0)
(0.14823992 -0.020821174 0)
(0.037034351 -8.5566651e-005 0)
(0.040357178 -0.00018975399 0)
(0.03814711 5.5032817e-005 0)
(0.039594178 -0.00017120397 0)
(0.039001404 -3.1456703e-005 0)
(0.039381271 -0.00010041311 0)
(0.039372109 -8.6898478e-005 0)
(0.039513832 -0.00011032177 0)
(0.039639709 -0.00013523186 0)
(0.03980914 -0.00017481055 0)
(0.04002948 -0.00023165433 0)
(0.040323711 -0.00031231968 0)
(0.040722543 -0.00042611431 0)
(0.041268382 -0.00058649981 0)
(0.04202105 -0.0008134714 0)
(0.043066367 -0.0011371789 0)
(0.044529154 -0.0016042526 0)
(0.046591795 -0.0022893166 0)
(0.049555913 -0.0033076321 0)
(0.053766429 -0.0048810116 0)
(0.06029599 -0.0072606033 0)
(0.069148427 -0.011177675 0)
(0.085649841 -0.016981273 0)
(0.10614602 -0.024836878 0)
(0.15117515 -0.029920534 0)
(0.037002902 -0.00011117317 0)
(0.040370458 -0.0002380297 0)
(0.038148385 6.4062897e-005 0)
(0.039583219 -0.00021486175 0)
(0.039011235 -4.4083939e-005 0)
(0.039373514 -0.00012581145 0)
(0.039370593 -0.000112166 0)
(0.039507033 -0.00014034411 0)
(0.039630518 -0.00017254803 0)
(0.039795436 -0.00022279746 0)
(0.04000993 -0.00029519314 0)
(0.040296069 -0.00039786022 0)
(0.04068357 -0.00054264459 0)
(0.041213336 -0.00074659124 0)
(0.041942821 -0.0010349685 0)
(0.042954073 -0.0014458047 0)
(0.044365685 -0.0020378299 0)
(0.046349951 -0.0029044743 0)
(0.049188651 -0.0041919487 0)
(0.053206635 -0.0061751537 0)
(0.059402592 -0.0091847015 0)
(0.067750026 -0.014168409 0)
(0.08362855 -0.021826305 0)
(0.10436271 -0.032904859 0)
(0.15514109 -0.040107838 0)
(0.036963977 -0.00013401393 0)
(0.040387309 -0.00029224532 0)
(0.038151413 7.7919983e-005 0)
(0.039569184 -0.00026139565 0)
(0.039023537 -5.5916287e-005 0)
(0.039364145 -0.00015075445 0)
(0.039368524 -0.00013692944 0)
(0.039498754 -0.0001695719 0)
(0.03961911 -0.00020880612 0)
(0.0397785 -0.00026936187 0)
(0.039985751 -0.00035678258 0)
(0.040261894 -0.00048069145 0)
(0.040635415 -0.00065535577 0)
(0.041145378 -0.00090121259 0)
(0.041846347 -0.001248493 0)
(0.042815786 -0.0017425748 0)
(0.044164745 -0.0024533515 0)
(0.046053156 -0.0034914491 0)
(0.048738928 -0.0050315172 0)
(0.052520589 -0.0073965427 0)
(0.058300953 -0.01098696 0)
(0.065993785 -0.016993548 0)
(0.080960376 -0.026605299 0)
(0.10149379 -0.041759163 0)
(0.15792493 -0.051993621 0)
(0.036912002 -0.00015341595 0)
(0.040406435 -0.00035344677 0)
(0.038157139 9.721434e-005 0)
(0.039551077 -0.00031078551 0)
(0.039038627 -6.6926542e-005 0)
(0.039353281 -0.00017504147 0)
(0.039365922 -0.0001610962 0)
(0.039489058 -0.00019783655 0)
(0.039605557 -0.00024379246 0)
(0.039758436 -0.00031421749 0)
(0.039957083 -0.00041603228 0)
(0.040221403 -0.00056027919 0)
(0.0405784 -0.00076350073 0)
(0.041065002 -0.0010493088 0)
(0.041732406 -0.0014525332 0)
(0.042652759 -0.0020252868 0)
(0.043928402 -0.0028475318 0)
(0.045704913 -0.004045206 0)
(0.048212701 -0.0058182807 0)
(0.051716817 -0.0085315013 0)
(0.057000659 -0.012641096 0)
(0.063893296 -0.019594438 0)
(0.077560848 -0.031186672 0)
(0.096803802 -0.051132114 0)
(0.15593136 -0.065296275 0)
(0.03683845 -0.00016751237 0)
(0.040426637 -0.00042423531 0)
(0.03816664 0.00012336467 0)
(0.039526985 -0.00036428601 0)
(0.039057532 -7.6464708e-005 0)
(0.039340919 -0.00019871748 0)
(0.039362757 -0.00018448328 0)
(0.039478008 -0.00022497801 0)
(0.039589939 -0.00027726989 0)
(0.039735358 -0.00035705632 0)
(0.039924064 -0.00047252252 0)
(0.040174816 -0.00063603586 0)
(0.040512846 -0.00086626496 0)
(0.040972682 -0.0011897306 0)
(0.041601716 -0.0016454422 0)
(0.042466113 -0.0022915361 0)
(0.04365845 -0.0032167824 0)
(0.045308203 -0.004560204 0)
(0.047615059 -0.0065428951 0)
(0.050802108 -0.009563049 0)
(0.055513285 -0.0141148 0)
(0.061472884 -0.021895787 0)
(0.073347682 -0.035331365 0)
(0.089706075 -0.060312691 0)
(0.14671124 -0.078128996 0)
(0.036734457 -0.00017403182 0)
(0.040448118 -0.00050694957 0)
(0.038180169 0.00015929617 0)
(0.039494853 -0.0004229517 0)
(0.039082243 -8.3493764e-005 0)
(0.039326466 -0.0002212449 0)
(0.039358998 -0.00020711886 0)
(0.039465696 -0.00025081139 0)
(0.039572336 -0.00030900565 0)
(0.039709424 -0.00039753812 0)
(0.039886881 -0.00052582739 0)
(0.040122398 -0.00070737541 0)
(0.040439168 -0.0009628257 0)
(0.04086903 -0.0013213306 0)
(0.041455212 -0.0018256093 0)
(0.042257306 -0.0025390414 0)
(0.043357235 -0.0035578556 0)
(0.044866998 -0.0050317154 0)
(0.04695277 -0.0071980486 0)
(0.049787738 -0.010478851 0)
(0.05385784 -0.015383647 0)
(0.058772481 -0.023825306 0)
(0.06833743 -0.038735293 0)
(0.079910657 -0.068281301 0)
(0.12954649 -0.087810222 0)
(0.036597689 -0.0001739269 0)
(0.040473538 -0.00059204243 0)
(0.038197253 0.00019323602 0)
(0.03945331 -0.0004757624 0)
(0.039114807 -9.5271789e-005 0)
(0.039308692 -0.00023955216 0)
(0.039354639 -0.00022960346 0)
(0.039452312 -0.00027516297 0)
(0.039552852 -0.00033887627 0)
(0.039680787 -0.00043552923 0)
(0.039845881 -0.00057569732 0)
(0.040064547 -0.00077401386 0)
(0.040357962 -0.0010527956 0)
(0.040754945 -0.001443566 0)
(0.04129426 -0.0019922601 0)
(0.042028452 -0.0027666759 0)
(0.043028127 -0.0038690288 0)
(0.044386854 -0.0054568527 0)
(0.046235209 -0.0077787133 0)
(0.048693746 -0.011264946 0)
(0.052069945 -0.016430804 0)
(0.055875671 -0.025278865 0)
(0.062712776 -0.041143568 0)
(0.067719581 -0.074103777 0)
(0.10350605 -0.091932482 0)
(0.17005348 -0.0014161825 0)
(0.17114325 -0.00051163226 0)
(0.1761254 -0.00022112512 0)
(0.17560673 -3.2728963e-005 0)
(0.17618499 -2.5987459e-005 0)
(0.1761728 -3.2696751e-006 0)
(0.17618925 -1.4079699e-006 0)
(0.17620031 -5.0060896e-007 0)
(0.1761982 2.896937e-009 0)
(0.17619902 -2.6589845e-008 0)
(0.17619901 9.5564465e-010 0)
(0.17619894 3.3413777e-009 0)
(0.17619894 9.4590233e-010 0)
(0.17619893 6.7377104e-010 0)
(0.17619893 3.1045013e-010 0)
(0.17619893 1.1760235e-010 0)
(0.17619893 4.761199e-011 0)
(0.17619892 5.8623055e-012 0)
(0.17619892 -2.2461243e-011 0)
(0.17619893 -3.5128698e-011 0)
(0.17619893 -1.9111169e-011 0)
(0.17619893 3.8315789e-011 0)
(0.17619893 1.3417702e-010 0)
(0.17619892 1.2687724e-009 0)
(0.17619891 1.2630662e-009 0)
(0.1705204 -0.0039320678 0)
(0.17091222 -0.001627727 0)
(0.17576174 -0.00055088466 0)
(0.17517375 -0.00013433077 0)
(0.17572121 -6.1661579e-005 0)
(0.17570517 -1.1537614e-005 0)
(0.17571682 -4.003115e-006 0)
(0.17572759 -1.1482893e-006 0)
(0.17572524 -1.0525518e-007 0)
(0.17572597 -5.5159524e-008 0)
(0.17572596 3.4958868e-009 0)
(0.17572589 7.9181801e-009 0)
(0.17572589 3.2349959e-009 0)
(0.17572588 1.9085356e-009 0)
(0.17572588 8.546248e-010 0)
(0.17572588 3.6205824e-010 0)
(0.17572588 1.460217e-010 0)
(0.17572588 3.0918186e-011 0)
(0.17572588 -5.0913674e-011 0)
(0.17572588 -9.2446726e-011 0)
(0.17572588 -6.211143e-011 0)
(0.17572588 1.0774986e-010 0)
(0.17572588 2.3121062e-010 0)
(0.17572588 2.3774044e-009 0)
(0.17572587 2.5986309e-009 0)
(0.17242756 -0.0061701666 0)
(0.17152659 -0.0027090077 0)
(0.17602216 -0.00078182703 0)
(0.17524097 -0.00024389638 0)
(0.17573701 -8.3183076e-005 0)
(0.17570683 -1.980686e-005 0)
(0.17571131 -5.8847658e-006 0)
(0.1757208 -1.4856178e-006 0)
(0.17571797 -2.4404654e-007 0)
(0.17571856 -5.5409228e-008 0)
(0.17571853 7.9797387e-009 0)
(0.17571844 1.1926178e-008 0)
(0.17571844 5.8896799e-009 0)
(0.17571843 3.0074746e-009 0)
(0.17571843 1.3507183e-009 0)
(0.17571843 5.9522838e-010 0)
(0.17571843 2.3757152e-010 0)
(0.17571843 5.5789728e-011 0)
(0.17571843 -6.7138184e-011 0)
(0.17571843 -1.381809e-010 0)
(0.17571843 -1.0760557e-010 0)
(0.17571843 1.8461857e-010 0)
(0.17571843 2.8408507e-010 0)
(0.17571843 1.9901844e-009 0)
(0.17571843 2.5266114e-009 0)
(0.1774062 -0.0082651581 0)
(0.1748597 -0.0035631938 0)
(0.17865282 -0.00090409202 0)
(0.17751885 -0.0003144567 0)
(0.17794042 -9.3953008e-005 0)
(0.17788766 -2.4556465e-005 0)
(0.17788342 -6.5375221e-006 0)
(0.17789056 -1.4998475e-006 0)
(0.17788702 -2.7537179e-007 0)
(0.1778874 -2.8372862e-008 0)
(0.17788732 1.9433918e-008 0)
(0.17788723 1.7606468e-008 0)
(0.17788723 8.7929101e-009 0)
(0.17788722 4.088155e-009 0)
(0.17788721 1.8340559e-009 0)
(0.17788721 8.0789272e-010 0)
(0.17788721 3.2062325e-010 0)
(0.17788721 7.4832967e-011 0)
(0.17788721 -8.8531341e-011 0)
(0.17788721 -1.9729813e-010 0)
(0.17788721 -1.798752e-010 0)
(0.17788721 2.1259593e-010 0)
(0.17788721 2.67528e-010 0)
(0.17788721 1.6666953e-009 0)
(0.1778872 2.5219721e-009 0)
(0.18597998 -0.010493225 0)
(0.18160465 -0.004125171 0)
(0.18441734 -0.00084402387 0)
(0.18280725 -0.00032385811 0)
(0.18313805 -8.9980617e-005 0)
(0.1830595 -2.5060272e-005 0)
(0.18304645 -5.641399e-006 0)
(0.18305066 -1.0708157e-006 0)
(0.18304636 -1.6894468e-007 0)
(0.18304651 3.4714281e-008 0)
(0.18304638 3.9839533e-008 0)
(0.18304628 2.5498073e-008 0)
(0.18304627 1.2093301e-008 0)
(0.18304626 5.248598e-009 0)
(0.18304626 2.3056153e-009 0)
(0.18304626 1.0039427e-009 0)
(0.18304626 3.9864538e-010 0)
(0.18304626 9.1314886e-011 0)
(0.18304626 -1.2055598e-010 0)
(0.18304626 -2.7977656e-010 0)
(0.18304626 -2.9567224e-010 0)
(0.18304626 8.9399505e-011 0)
(0.18304626 1.5014089e-010 0)
(0.18304626 4.4913521e-009 0)
(0.18304622 5.6630853e-009 0)
(0.19440928 -0.013207186 0)
(0.18750738 -0.0043913907 0)
(0.18958207 -0.00056077976 0)
(0.18752571 -0.00026525546 0)
(0.18778214 -6.8693103e-005 0)
(0.18768011 -2.1879146e-005 0)
(0.18766103 -3.2152624e-006 0)
(0.18766306 -1.7997404e-007 0)
(0.18765834 5.7878489e-008 0)
(0.18765838 1.3243691e-007 0)
(0.18765822 6.7713705e-008 0)
(0.18765812 3.4861015e-008 0)
(0.18765812 1.5639929e-008 0)
(0.18765811 6.3861389e-009 0)
(0.18765811 2.7239018e-009 0)
(0.18765811 1.1687825e-009 0)
(0.18765811 4.6339992e-010 0)
(0.18765811 1.0340702e-010 0)
(0.18765811 -1.5251956e-010 0)
(0.18765811 -3.6160565e-010 0)
(0.18765811 -4.2468156e-010 0)
(0.18765811 -2.0375888e-010 0)
(0.18765812 3.7211435e-011 0)
(0.18765811 1.2809659e-008 0)
(0.18765804 1.4260371e-008 0)
(0.19320686 -0.016005988 0)
(0.18156554 -0.0043044137 0)
(0.18400297 -0.00013965431 0)
(0.18170619 -0.00016358207 0)
(0.1819637 -3.4430979e-005 0)
(0.181842 -1.6492773e-005 0)
(0.18182319 1.1543686e-007 0)
(0.18182566 8.6178619e-007 0)
(0.18182126 3.1020719e-007 0)
(0.18182146 2.3431944e-007 0)
(0.18182137 9.2794891e-008 0)
(0.1818213 4.1738444e-008 0)
(0.18182132 1.8068262e-008 0)
(0.18182131 6.9875829e-009 0)
(0.18182131 2.9135958e-009 0)
(0.18182131 1.2259927e-009 0)
(0.18182131 4.8035364e-010 0)
(0.18182131 1.0596348e-010 0)
(0.18182131 -1.5919712e-010 0)
(0.18182131 -3.8433707e-010 0)
(0.18182131 -4.7086451e-010 0)
(0.18182131 -5.0433276e-010 0)
(0.18182132 -5.9104635e-011 0)
(0.18182131 2.4077028e-008 0)
(0.18182125 2.5898572e-008 0)
(0.17127984 -0.0168817 0)
(0.15157918 -0.0036303258 0)
(0.15594348 0.0002007405 0)
(0.15359402 -7.6685856e-005 0)
(0.15398438 -8.269404e-007 0)
(0.15384027 -1.0837629e-005 0)
(0.15383203 2.7933577e-006 0)
(0.15383822 1.3904543e-006 0)
(0.15383481 4.2799284e-007 0)
(0.15383557 2.7298084e-007 0)
(0.15383563 9.3497039e-008 0)
(0.15383562 3.9891956e-008 0)
(0.15383566 1.666541e-008 0)
(0.15383567 6.1828197e-009 0)
(0.15383567 2.5508763e-009 0)
(0.15383568 1.0454583e-009 0)
(0.15383568 4.0118359e-010 0)
(0.15383568 8.8141494e-011 0)
(0.15383568 -1.265887e-010 0)
(0.15383568 -3.1450796e-010 0)
(0.15383568 -4.0099055e-010 0)
(0.15383567 -6.1966786e-010 0)
(0.15383568 -3.5278294e-010 0)
(0.15383567 2.8416809e-008 0)
(0.15383569 3.0451285e-008 0)
(0.12437514 -0.013963468 0)
(0.096479679 -0.0021879015 0)
(0.10327818 0.00026216861 0)
(0.1008928 -4.0455479e-005 0)
(0.10151206 1.4694656e-005 0)
(0.10133884 -5.7588024e-006 0)
(0.10135219 3.2008352e-006 0)
(0.10136223 1.0215604e-006 0)
(0.10135986 3.154599e-007 0)
(0.10136136 1.9956679e-007 0)
(0.10136156 5.9096616e-008 0)
(0.10136163 2.5934474e-008 0)
(0.10136169 1.0336614e-008 0)
(0.1013617 3.6971994e-009 0)
(0.10136171 1.5218759e-009 0)
(0.10136171 5.9950347e-010 0)
(0.10136171 2.1936163e-010 0)
(0.10136171 4.1662315e-011 0)
(0.10136171 -6.7664776e-011 0)
(0.10136171 -1.7436962e-010 0)
(0.10136171 -2.4356355e-010 0)
(0.10136171 -5.4875096e-010 0)
(0.10136172 -1.0535152e-009 0)
(0.10136171 1.8720758e-008 0)
(0.10136183 2.0668787e-008 0)
(0.055597126 -0.0087874245 0)
(0.032223816 -0.00027707022 0)
(0.038544719 4.1727226e-005 0)
(0.036650825 1.2905402e-005 0)
(0.037260953 9.6916438e-006 0)
(0.037112525 3.5427223e-007 0)
(0.037138797 1.9347153e-006 0)
(0.037146097 3.2719317e-007 0)
(0.037144807 1.4740281e-007 0)
(0.037146241 7.5161421e-008 0)
(0.037146384 1.8409481e-008 0)
(0.037146455 8.6027922e-009 0)
(0.037146505 3.103416e-009 0)
(0.037146516 1.0307643e-009 0)
(0.037146521 4.1503357e-010 0)
(0.037146523 1.4567528e-010 0)
(0.037146524 4.3590167e-011 0)
(0.037146524 -1.758426e-012 0)
(0.037146524 -1.5058263e-011 0)
(0.037146524 -2.5449419e-011 0)
(0.037146524 1.6859014e-011 0)
(0.037146522 6.9930292e-011 0)
(0.037146524 -6.9977101e-010 0)
(0.037146511 8.5820709e-009 0)
(0.037146621 9.8662706e-009 0)
(0.036294476 -0.00020218635 0)
(0.040533767 -0.00067792267 0)
(0.038238764 0.00014151996 0)
(0.039357057 -0.00050912131 0)
(0.039190541 -0.00016175721 0)
(0.039269345 -0.00026381742 0)
(0.039344081 -0.00027391077 0)
(0.039424014 -0.00032069741 0)
(0.039510553 -0.00039447397 0)
(0.03961859 -0.00050610351 0)
(0.039757041 -0.00066796773 0)
(0.039939169 -0.00089708643 0)
(0.040182137 -0.0012184711 0)
(0.040508335 -0.0016677407 0)
(0.040947089 -0.002296186 0)
(0.041536182 -0.0031786203 0)
(0.042322834 -0.0044259039 0)
(0.043362743 -0.0062050889 0)
(0.044714619 -0.0087749563 0)
(0.046400727 -0.012546713 0)
(0.048372569 -0.018036668 0)
(0.050079744 -0.026971186 0)
(0.051646629 -0.04330195 0)
(0.043489358 -0.077161928 0)
(0.035330532 -0.079191972 0)
(0.036129269 -0.00036107549 0)
(0.040593425 -0.00057255833 0)
(0.038278537 -0.00016201558 0)
(0.039311239 -0.00042176154 0)
(0.039246049 -0.00028594988 0)
(0.039248498 -0.00030060384 0)
(0.039318422 -0.00032429774 0)
(0.039376514 -0.00037299979 0)
(0.03943551 -0.00045617515 0)
(0.039507644 -0.00058319837 0)
(0.039598568 -0.0007675311 0)
(0.039716066 -0.0010283041 0)
(0.039870481 -0.0013928987 0)
(0.040073872 -0.0018999105 0)
(0.040340534 -0.002604087 0)
(0.040686134 -0.0035832489 0)
(0.041124534 -0.0049487109 0)
(0.041660725 -0.0068612233 0)
(0.042274309 -0.0095547913 0)
(0.042880124 -0.013360051 0)
(0.043251023 -0.018684662 0)
(0.042966893 -0.026393432 0)
(0.041267368 -0.03889117 0)
(0.030480162 -0.05896313 0)
(0.0084798403 -0.049955972 0)
(0.036054511 -0.00045713989 0)
(0.040659419 -0.00058832021 0)
(0.038329536 -0.00031125981 0)
(0.039280351 -0.00041645997 0)
(0.03927872 -0.00034735465 0)
(0.039241583 -0.00033542289 0)
(0.039291347 -0.00035691183 0)
(0.039326307 -0.0004059985 0)
(0.039354302 -0.00049290124 0)
(0.039386419 -0.0006274085 0)
(0.039424941 -0.00082313801 0)
(0.039472084 -0.0010997767 0)
(0.039530753 -0.0014851779 0)
(0.039602948 -0.0020183299 0)
(0.039688643 -0.0027531512 0)
(0.039783376 -0.0037643189 0)
(0.039872775 -0.0051550727 0)
(0.0399224 -0.0070671 0)
(0.039859232 -0.0096930684 0)
(0.039533071 -0.013279995 0)
(0.038650883 -0.01811228 0)
(0.036763605 -0.024619978 0)
(0.03292151 -0.034180208 0)
(0.022595562 -0.047630431 0)
(0.0053038955 -0.042260536 0)
(0.036022648 -0.0005694862 0)
(0.040721468 -0.00065532847 0)
(0.038390259 -0.00044189408 0)
(0.039284729 -0.00044358478 0)
(0.039308486 -0.00038344852 0)
(0.039242391 -0.00035846098 0)
(0.039266723 -0.00037156358 0)
(0.039275688 -0.00041708458 0)
(0.03927073 -0.00050221115 0)
(0.03926122 -0.00063600811 0)
(0.039245575 -0.00083152877 0)
(0.039220886 -0.0011078033 0)
(0.039182938 -0.0014914385 0)
(0.039124335 -0.0020191676 0)
(0.039032523 -0.0027410189 0)
(0.038886226 -0.0037243105 0)
(0.038649411 -0.0050584322 0)
(0.038260882 -0.0068601059 0)
(0.037616009 -0.0092766041 0)
(0.036538187 -0.012479171 0)
(0.034728012 -0.016632551 0)
(0.031764992 -0.021934975 0)
(0.026865484 -0.029168986 0)
(0.017670063 -0.038225698 0)
(0.0048134262 -0.033005691 0)
(0.036010426 -0.0007060328 0)
(0.040769761 -0.00075157672 0)
(0.038443896 -0.000542639 0)
(0.039298813 -0.00047076777 0)
(0.039321767 -0.00040060697 0)
(0.039229463 -0.00036400891 0)
(0.03922625 -0.00036673864 0)
(0.039207257 -0.00040510745 0)
(0.039169012 -0.00048325747 0)
(0.039118491 -0.00060864864 0)
(0.039050137 -0.0007929519 0)
(0.03895628 -0.0010533161 0)
(0.038826504 -0.0014137187 0)
(0.038645189 -0.0019070069 0)
(0.038389395 -0.0025769357 0)
(0.038025043 -0.0034808358 0)
(0.03750093 -0.0046920031 0)
(0.036739576 -0.0063009547 0)
(0.035623754 -0.0084138137 0)
(0.033975196 -0.011139333 0)
(0.03152833 -0.014549194 0)
(0.027946867 -0.018707172 0)
(0.022682945 -0.024077852 0)
(0.014377292 -0.030283464 0)
(0.0039181194 -0.025378007 0)
(0.035993242 -0.0008267197 0)
(0.040809314 -0.00085563753 0)
(0.03849148 -0.00061887351 0)
(0.039308579 -0.00048860601 0)
(0.039311228 -0.00039795895 0)
(0.039190455 -0.00034923753 0)
(0.039158613 -0.00034132351 0)
(0.039111234 -0.00037015879 0)
(0.03904115 -0.00043706353 0)
(0.038952388 -0.00054731633 0)
(0.038835838 -0.00071048333 0)
(0.038679502 -0.00094112491 0)
(0.038467529 -0.0012595806 0)
(0.03817773 -0.0016934669 0)
(0.037779181 -0.0022789775 0)
(0.037228539 -0.0030623224 0)
(0.036464866 -0.0041004431 0)
(0.035402923 -0.0054602158 0)
(0.033923473 -0.00721387 0)
(0.031861428 -0.0094239817 0)
(0.028995002 -0.012108677 0)
(0.025076088 -0.015262493 0)
(0.019742456 -0.0191828 0)
(0.012111799 -0.023504109 0)
(0.0031420947 -0.019342785 0)
(0.036199962 -0.0010298942 0)
(0.041216935 -0.0010364592 0)
(0.03890925 -0.00069717437 0)
(0.039670019 -0.00049180043 0)
(0.039637707 -0.00037277647 0)
(0.039483485 -0.00031236454 0)
(0.039421629 -0.0002949946 0)
(0.039346187 -0.00031347076 0)
(0.039246456 -0.00036614431 0)
(0.039123159 -0.00045583711 0)
(0.038963817 -0.00058968147 0)
(0.038752515 -0.0007790714 0)
(0.03846893 -0.0010400872 0)
(0.038085499 -0.0013943458 0)
(0.037565122 -0.0018698352 0)
(0.036857774 -0.0025014932 0)
(0.035896578 -0.0033309821 0)
(0.034592508 -0.004404924 0)
(0.032828956 -0.0057696076 0)
(0.030456889 -0.007457704 0)
(0.027294212 -0.0094606729 0)
(0.023164922 -0.011748038 0)
(0.017832232 -0.014509306 0)
(0.010683987 -0.017465335 0)
(0.0026625054 -0.014203993 0)
(0.037530394 -0.0015674688 0)
(0.043188549 -0.0012192255 0)
(0.040761799 -0.00069629791 0)
(0.041373172 -0.00043329316 0)
(0.041275671 -0.00031106313 0)
(0.041074996 -0.00024894721 0)
(0.040978938 -0.00022634014 0)
(0.040874649 -0.00023540108 0)
(0.040745847 -0.00027176196 0)
(0.040589371 -0.00033622001 0)
(0.040389131 -0.00043337885 0)
(0.040125532 -0.00057114559 0)
(0.039773931 -0.00076077611 0)
(0.039301764 -0.0010174224 0)
(0.038666247 -0.0013604159 0)
(0.037811269 -0.0018134937 0)
(0.036664103 -0.0024042347 0)
(0.035131871 -0.0031619162 0)
(0.03309941 -0.0041135357 0)
(0.030428348 -0.0052735853 0)
(0.026964474 -0.0066246458 0)
(0.022579687 -0.0081357226 0)
(0.017114908 -0.0099223951 0)
(0.010092755 -0.011794822 0)
(0.002462876 -0.0094979386 0)
(0.039101752 -0.0044313882 0)
(0.044613974 -0.0016823839 0)
(0.041728936 -0.00057550315 0)
(0.042223101 -0.00029482227 0)
(0.042046651 -0.00020612806 0)
(0.041800291 -0.00015446431 0)
(0.041675232 -0.00013326987 0)
(0.041547599 -0.00013516356 0)
(0.041397134 -0.00015359014 0)
(0.041217282 -0.00018829703 0)
(0.040989115 -0.00024145006 0)
(0.040690468 -0.00031720491 0)
(0.040293865 -0.00042150161 0)
(0.039763696 -0.00056243177 0)
(0.039053795 -0.00075021932 0)
(0.038104758 -0.00099721368 0)
(0.036841194 -0.0013174025 0)
(0.035169644 -0.0017251674 0)
(0.032978301 -0.0022327225 0)
(0.030138622 -0.0028445776 0)
(0.026518527 -0.003547359 0)
(0.022023577 -0.0043188724 0)
(0.016537517 -0.0052166875 0)
(0.009638573 -0.006132832 0)
(0.0023382399 -0.0048658078 0)
(0.029263196 -0.0065899003 0)
(0.031236747 -0.0018013 0)
(0.027883607 -0.00015708948 0)
(0.028364126 -0.0001087525 0)
(0.028106658 -6.9752714e-005 0)
(0.027889124 -4.1017479e-005 0)
(0.02778698 -3.2348305e-005 0)
(0.027684919 -3.0225445e-005 0)
(0.027571043 -3.1980417e-005 0)
(0.027438945 -3.7487963e-005 0)
(0.027273919 -4.6784282e-005 0)
(0.027059903 -6.0473061e-005 0)
(0.026777343 -7.9563728e-005 0)
(0.026401239 -0.00010542769 0)
(0.025899583 -0.00013980023 0)
(0.025231708 -0.00018472164 0)
(0.024346778 -0.0002423875 0)
(0.023182972 -0.00031485041 0)
(0.021668195 -0.00040351119 0)
(0.01972247 -0.00050817743 0)
(0.017266786 -0.00062540752 0)
(0.014257353 -0.00074742873 0)
(0.010642222 -0.00088462309 0)
(0.0061347402 -0.0010446526 0)
(0.0015237067 -0.0009070962 0)
)
;

boundaryField
{
    inlet
    {
        type            fixedValue;
        value           uniform (0.03876 0 0);
    }
    walls
    {
        type            fixedValue;
        value           uniform (0 0 0);
    }
    outlet
    {
        type            zeroGradient;
    }
    centreline
    {
        type            symmetryPlane;
    }
    frontAndBack
    {
        type            empty;
    }
}


// ************************************************************************* //
