/*--------------------------------*- C++ -*----------------------------------*\
| =========                 |                                                 |
| \\      /  F ield         | OpenFOAM: The Open Source CFD Toolbox           |
|  \\    /   O peration     | Version:  5.x                                   |
|   \\  /    A nd           | Web:      www.OpenFOAM.org                      |
|    \\/     M anipulation  |                                                 |
\*---------------------------------------------------------------------------*/
/*   Windows 32 and 64 bit porting by blueCAPE: http://www.bluecape.com.pt   *\
|  Based on Windows porting (2.0.x v4) by Symscape: http://www.symscape.com   |
\*---------------------------------------------------------------------------*/
FoamFile
{
    version     2.0;
    format      ascii;
    class       volVectorField;
    location    "0.02";
    object      U_0;
}
// * * * * * * * * * * * * * * * * * * * * * * * * * * * * * * * * * * * * * //

dimensions      [0 1 -1 0 0 0 0];

internalField   nonuniform List<vector> 
750
(
(0.03707737 -5.0104278e-006 0)
(0.040357683 -4.1205719e-005 0)
(0.038129671 2.5232218e-005 0)
(0.039612896 -3.7289302e-005 0)
(0.038977794 6.1895056e-006 0)
(0.039387901 -1.9369653e-005 0)
(0.039366061 -1.0330397e-005 0)
(0.039516993 -1.6622261e-005 0)
(0.039645356 -1.9359593e-005 0)
(0.039821634 -2.5324251e-005 0)
(0.040050539 -3.3544707e-005 0)
(0.040356878 -4.525694e-005 0)
(0.040772772 -6.178923e-005 0)
(0.041342889 -8.5105757e-005 0)
(0.042130655 -0.00011814523 0)
(0.043227612 -0.00016534998 0)
(0.044768206 -0.00023352843 0)
(0.04694946 -0.00033425439 0)
(0.050104304 -0.00048219061 0)
(0.054605426 -0.00071910136 0)
(0.061635557 -0.0010530098 0)
(0.07118461 -0.0016499906 0)
(0.088411913 -0.0023839614 0)
(0.10840923 -0.0034792216 0)
(0.1460528 -0.0039828672 0)
(0.037057558 -2.8105446e-005 0)
(0.04036108 -9.9855402e-005 0)
(0.038130122 4.5660162e-005 0)
(0.039609119 -8.9611624e-005 0)
(0.038981095 -1.2453251e-006 0)
(0.03938498 -4.9468047e-005 0)
(0.03936629 -3.4554409e-005 0)
(0.039514904 -4.8529603e-005 0)
(0.039643124 -5.8181822e-005 0)
(0.039818087 -7.5673908e-005 0)
(0.040045552 -0.00010029576 0)
(0.040349825 -0.0001353096 0)
(0.040762828 -0.00018470816 0)
(0.041328835 -0.00025436621 0)
(0.042110656 -0.00035303329 0)
(0.043198866 -0.00049393243 0)
(0.044726207 -0.00069743878 0)
(0.046887514 -0.00099710935 0)
(0.050009594 -0.0014404904 0)
(0.054462016 -0.0021366215 0)
(0.061405948 -0.0031577263 0)
(0.07084781 -0.0048874059 0)
(0.087959832 -0.0072196244 0)
(0.10800771 -0.010385639 0)
(0.14656768 -0.012228326 0)
(0.037031978 -5.6274928e-005 0)
(0.040366859 -0.00014549132 0)
(0.038130358 5.1296961e-005 0)
(0.039602929 -0.00013030271 0)
(0.038986464 -1.699956e-005 0)
(0.039380683 -7.4685406e-005 0)
(0.039365976 -6.0710001e-005 0)
(0.039511172 -7.9444083e-005 0)
(0.039638536 -9.6867507e-005 0)
(0.039811082 -0.00012553526 0)
(0.04003562 -0.00016643904 0)
(0.040335784 -0.00022450897 0)
(0.040743023 -0.00030642079 0)
(0.041300843 -0.0004218951 0)
(0.042070831 -0.0005853877 0)
(0.043141621 -0.00081872373 0)
(0.044642679 -0.001155646 0)
(0.046763955 -0.0016506224 0)
(0.04982144 -0.0023857907 0)
(0.054175846 -0.0035268536 0)
(0.060950367 -0.0052377713 0)
(0.070161099 -0.0080619265 0)
(0.087037199 -0.012088911 0)
(0.10721949 -0.017387365 0)
(0.14803719 -0.02077986 0)
(0.037004134 -8.3366647e-005 0)
(0.040376128 -0.00018995527 0)
(0.038130809 5.7579018e-005 0)
(0.039594358 -0.00017118905 0)
(0.038994043 -3.0518994e-005 0)
(0.0393746 -9.9761532e-005 0)
(0.039365022 -8.6483207e-005 0)
(0.039505888 -0.0001099153 0)
(0.039631607 -0.00013495558 0)
(0.039800688 -0.0001745836 0)
(0.040020823 -0.00023147209 0)
(0.040314869 -0.00031215544 0)
(0.040713526 -0.00042594052 0)
(0.041259165 -0.00058628048 0)
(0.042011565 -0.00081315293 0)
(0.04305648 -0.0011366774 0)
(0.044518593 -0.0016034345 0)
(0.04658028 -0.0022879028 0)
(0.049542184 -0.0033053246 0)
(0.053750664 -0.0048765306 0)
(0.060272765 -0.0072532433 0)
(0.069119374 -0.011161847 0)
(0.085596961 -0.016946951 0)
(0.10603067 -0.024775275 0)
(0.15095665 -0.029852152 0)
(0.036972346 -0.0001083655 0)
(0.040389493 -0.0002381644 0)
(0.038132157 6.7206697e-005 0)
(0.039583167 -0.00021474894 0)
(0.039003965 -4.294669e-005 0)
(0.03936677 -0.00012494685 0)
(0.039363468 -0.00011163746 0)
(0.03949907 -0.00013982624 0)
(0.03962239 -0.00017219281 0)
(0.039786971 -0.00022250905 0)
(0.040001264 -0.00029496086 0)
(0.040287226 -0.00039765204 0)
(0.040674561 -0.00054242516 0)
(0.04120414 -0.00074631507 0)
(0.041933375 -0.0010345683 0)
(0.042944256 -0.0014451761 0)
(0.044355249 -0.0020368047 0)
(0.046338651 -0.0029027136 0)
(0.049175352 -0.004189071 0)
(0.053191542 -0.0061696269 0)
(0.059380925 -0.0091758027 0)
(0.067724649 -0.014148994 0)
(0.083581612 -0.021781737 0)
(0.10425766 -0.032820539 0)
(0.15495223 -0.040001514 0)
(0.03693307 -0.00013058208 0)
(0.040406457 -0.00029237905 0)
(0.03813526 8.1733501e-005 0)
(0.039568854 -0.00026121239 0)
(0.039016372 -5.4583964e-005 0)
(0.039357318 -0.00014967563 0)
(0.039361349 -0.00013628845 0)
(0.039490768 -0.00016894508 0)
(0.03961095 -0.00020837357 0)
(0.039770019 -0.00026901381 0)
(0.039977074 -0.00035650207 0)
(0.040253049 -0.00048044167 0)
(0.040626415 -0.00065509373 0)
(0.041136207 -0.00090088405 0)
(0.041836951 -0.0012480182 0)
(0.042806058 -0.0017418309 0)
(0.044154466 -0.0024521403 0)
(0.046042122 -0.0034893812 0)
(0.048726149 -0.0050281373 0)
(0.052506314 -0.0073901345 0)
(0.058281257 -0.010976945 0)
(0.065972662 -0.016971202 0)
(0.080920144 -0.026551943 0)
(0.10141262 -0.041659792 0)
(0.15784638 -0.051854771 0)
(0.036880769 -0.00014933785 0)
(0.04042573 -0.00035363072 0)
(0.03814106 0.00010176862 0)
(0.039550434 -0.0003105593 0)
(0.039031577 -6.5386201e-005 0)
(0.039346357 -0.00017375002 0)
(0.039358685 -0.0001603437 0)
(0.039481045 -0.00019710379 0)
(0.03959736 -0.00024328474 0)
(0.039749935 -0.00031381208 0)
(0.039948395 -0.00041570597 0)
(0.040212557 -0.00055999082 0)
(0.040569414 -0.00076320005 0)
(0.041055865 -0.0010489336 0)
(0.041723072 -0.0014519927 0)
(0.042643138 -0.002024442 0)
(0.043918311 -0.0028461595 0)
(0.045694194 -0.0040428764 0)
(0.048200523 -0.005814476 0)
(0.05170352 -0.0085243986 0)
(0.056983328 -0.012630372 0)
(0.06387666 -0.019569814 0)
(0.07752822 -0.031127708 0)
(0.096756543 -0.051036485 0)
(0.15601509 -0.065163333 0)
(0.036806864 -0.0001627815 0)
(0.040446122 -0.00042457858 0)
(0.038150677 0.00012882156 0)
(0.039525966 -0.00036410618 0)
(0.039050602 -7.4693046e-005 0)
(0.03933389 -0.00019721766 0)
(0.039355447 -0.00018362173 0)
(0.039469963 -0.00022414187 0)
(0.0395817 -0.00027668952 0)
(0.039726833 -0.00035659639 0)
(0.039915363 -0.00047215334 0)
(0.04016597 -0.00063571246 0)
(0.040503876 -0.0008659305 0)
(0.040963582 -0.0011893157 0)
(0.041592455 -0.0016448469 0)
(0.042456617 -0.0022906083 0)
(0.043648575 -0.0032152804 0)
(0.045297843 -0.0045576677 0)
(0.047603552 -0.0065387743 0)
(0.050789951 -0.0095555039 0)
(0.055498503 -0.014103837 0)
(0.061460775 -0.021869676 0)
(0.073323117 -0.035270289 0)
(0.089689187 -0.060238803 0)
(0.14690509 -0.07806334 0)
(0.036702313 -0.00016853558 0)
(0.040467847 -0.00050766279 0)
(0.038164419 0.00016587126 0)
(0.039493313 -0.00042298611 0)
(0.039075473 -8.1442697e-005 0)
(0.039319331 -0.00021952773 0)
(0.039351602 -0.00020615197 0)
(0.039457613 -0.00024987495 0)
(0.039564049 -0.0003083549 0)
(0.039700871 -0.00039702709 0)
(0.039878164 -0.00052541866 0)
(0.04011355 -0.00070702075 0)
(0.040430214 -0.00096246272 0)
(0.04085997 -0.0013208837 0)
(0.041446026 -0.001824971 0)
(0.042247943 -0.0025380499 0)
(0.043347589 -0.0035562561 0)
(0.044857017 -0.0050290276 0)
(0.046941959 -0.0071937198 0)
(0.049776798 -0.010471079 0)
(0.053845505 -0.015372895 0)
(0.058764849 -0.023798526 0)
(0.068320563 -0.038675594 0)
(0.079915816 -0.068240882 0)
(0.12973589 -0.087859517 0)
(0.036564587 -0.00016759685 0)
(0.040493528 -0.00059302245 0)
(0.038181819 0.00020072112 0)
(0.039451048 -0.00047587405 0)
(0.03910831 -9.2999318e-005 0)
(0.039301438 -0.00023761032 0)
(0.039347135 -0.00022852158 0)
(0.039444188 -0.00027413604 0)
(0.03954451 -0.00033815726 0)
(0.039672201 -0.00043497032 0)
(0.039837144 -0.0005752525 0)
(0.040055693 -0.00077363147 0)
(0.04034902 -0.0010524088 0)
(0.040745923 -0.0014430936 0)
(0.041285147 -0.0019915888 0)
(0.042019218 -0.0027656367 0)
(0.043018704 -0.0038673582 0)
(0.044377235 -0.0054540662 0)
(0.046225072 -0.007774262 0)
(0.048683931 -0.011257149 0)
(0.052059665 -0.01642044 0)
(0.055871625 -0.025251938 0)
(0.062703205 -0.04108518 0)
(0.067739098 -0.074083309 0)
(0.10360967 -0.092067775 0)
(0.16979936 -0.0014066641 0)
(0.17083252 -0.00050890047 0)
(0.17582152 -0.00022104318 0)
(0.17530095 -3.2622956e-005 0)
(0.1758779 -2.6027899e-005 0)
(0.17586778 -3.3511233e-006 0)
(0.1758838 -1.4128907e-006 0)
(0.17589508 -5.1253191e-007 0)
(0.17589304 -2.3696384e-009 0)
(0.17589385 -2.7455749e-008 0)
(0.17589385 1.2804571e-010 0)
(0.17589379 3.128269e-009 0)
(0.17589379 8.6699509e-010 0)
(0.17589378 6.3720487e-010 0)
(0.17589378 2.9835974e-010 0)
(0.17589378 1.1291083e-010 0)
(0.17589378 4.483971e-011 0)
(0.17589378 4.9027956e-012 0)
(0.17589378 -2.2730024e-011 0)
(0.17589378 -3.3981101e-011 0)
(0.17589378 -1.983979e-011 0)
(0.17589378 3.732473e-011 0)
(0.17589378 1.305283e-010 0)
(0.17589378 1.2550884e-009 0)
(0.17589376 1.2475301e-009 0)
(0.17025223 -0.0039031279 0)
(0.17058856 -0.0016215036 0)
(0.17544903 -0.0005502984 0)
(0.17486014 -0.00013419269 0)
(0.17540627 -6.1865962e-005 0)
(0.17539237 -1.1702645e-005 0)
(0.1754036 -4.0451259e-006 0)
(0.17541458 -1.1806175e-006 0)
(0.17541231 -1.17883e-007 0)
(0.17541303 -5.8804383e-008 0)
(0.17541303 1.4729998e-009 0)
(0.17541296 7.2669425e-009 0)
(0.17541296 2.9939631e-009 0)
(0.17541296 1.8107115e-009 0)
(0.17541295 8.2102253e-010 0)
(0.17541295 3.4964258e-010 0)
(0.17541295 1.3998442e-010 0)
(0.17541295 2.8989271e-011 0)
(0.17541295 -5.2268396e-011 0)
(0.17541295 -9.2179671e-011 0)
(0.17541295 -6.5110135e-011 0)
(0.17541295 1.0219776e-010 0)
(0.17541295 2.2312539e-010 0)
(0.17541295 2.3593558e-009 0)
(0.17541295 2.5724477e-009 0)
(0.17210987 -0.0061196427 0)
(0.17114728 -0.0027007972 0)
(0.17566332 -0.00078135468 0)
(0.17488397 -0.00024403994 0)
(0.17537898 -8.3604299e-005 0)
(0.17535098 -2.0021333e-005 0)
(0.17535505 -5.9832957e-006 0)
(0.17536476 -1.5348381e-006 0)
(0.175362 -2.6306461e-007 0)
(0.17536258 -6.2302146e-008 0)
(0.17536256 5.0910384e-009 0)
(0.17536247 1.08511e-008 0)
(0.17536248 5.492944e-009 0)
(0.17536247 2.8591848e-009 0)
(0.17536246 1.2979405e-009 0)
(0.17536246 5.7594013e-010 0)
(0.17536246 2.2976194e-010 0)
(0.17536246 5.3310545e-011 0)
(0.17536246 -6.8580453e-011 0)
(0.17536246 -1.3891534e-010 0)
(0.17536246 -1.1068218e-010 0)
(0.17536246 1.7566914e-010 0)
(0.17536246 2.7413582e-010 0)
(0.17536246 1.9791995e-009 0)
(0.17536247 2.5006312e-009 0)
(0.17701337 -0.0081851383 0)
(0.17438367 -0.0035530137 0)
(0.17820871 -0.00090576263 0)
(0.17708073 -0.0003154237 0)
(0.17750199 -9.4657805e-005 0)
(0.17745137 -2.4826214e-005 0)
(0.17744667 -6.6938429e-006 0)
(0.17745403 -1.5654481e-006 0)
(0.17745056 -3.0099552e-007 0)
(0.17745093 -3.8133313e-008 0)
(0.17745086 1.5771885e-008 0)
(0.17745077 1.6182648e-008 0)
(0.17745077 8.265966e-009 0)
(0.17745076 3.8991379e-009 0)
(0.17745075 1.7653177e-009 0)
(0.17745075 7.8291246e-010 0)
(0.17745075 3.1114507e-010 0)
(0.17745075 7.1888348e-011 0)
(0.17745075 -8.960279e-011 0)
(0.17745075 -1.9751163e-010 0)
(0.17745075 -1.8229002e-010 0)
(0.17745075 2.0311494e-010 0)
(0.17745076 2.5578372e-010 0)
(0.17745075 1.6180526e-009 0)
(0.17745075 2.4532377e-009 0)
(0.18557849 -0.010370424 0)
(0.18108981 -0.004110443 0)
(0.18393685 -0.00084962606 0)
(0.18233525 -0.00032633687 0)
(0.18266627 -9.1048034e-005 0)
(0.18258966 -2.5362894e-005 0)
(0.18257605 -5.8480273e-006 0)
(0.18258046 -1.1513513e-006 0)
(0.18257622 -2.0002257e-007 0)
(0.18257635 2.279519e-008 0)
(0.18257623 3.5628756e-008 0)
(0.18257613 2.3826353e-008 0)
(0.18257612 1.147873e-008 0)
(0.18257611 5.0330528e-009 0)
(0.18257611 2.2262017e-009 0)
(0.18257611 9.7544756e-010 0)
(0.18257611 3.8816859e-010 0)
(0.18257611 8.8089459e-011 0)
(0.18257611 -1.2144077e-010 0)
(0.18257611 -2.7973125e-010 0)
(0.18257611 -2.9775335e-010 0)
(0.18257611 8.1689548e-011 0)
(0.18257611 1.3509386e-010 0)
(0.18257611 4.3107816e-009 0)
(0.18257607 5.4598428e-009 0)
(0.1942003 -0.013037266 0)
(0.18717576 -0.0043677129 0)
(0.18926947 -0.00056947088 0)
(0.1872185 -0.00026937796 0)
(0.18747438 -7.0119711e-005 0)
(0.18737409 -2.2159654e-005 0)
(0.18735426 -3.4534925e-006 0)
(0.18735643 -2.672402e-007 0)
(0.18735174 2.4561459e-008 0)
(0.18735175 1.1953288e-007 0)
(0.1873516 6.342998e-008 0)
(0.1873515 3.3118127e-008 0)
(0.1873515 1.5005451e-008 0)
(0.18735149 6.1690964e-009 0)
(0.18735149 2.6433365e-009 0)
(0.18735149 1.1405116e-009 0)
(0.18735149 4.5339787e-010 0)
(0.18735149 1.0021657e-010 0)
(0.18735149 -1.5386131e-010 0)
(0.18735149 -3.6276671e-010 0)
(0.18735149 -4.2831667e-010 0)
(0.18735149 -2.10975e-010 0)
(0.18735149 1.1130031e-011 0)
(0.18735149 1.2449734e-008 0)
(0.18735142 1.3876666e-008 0)
(0.19342099 -0.015813385 0)
(0.18169721 -0.0042708111 0)
(0.18412989 -0.00014685183 0)
(0.18183 -0.00016832116 0)
(0.18208429 -3.6005442e-005 0)
(0.18196438 -1.6697326e-005 0)
(0.18194457 -1.1666313e-007 0)
(0.1819471 7.8585311e-007 0)
(0.18194268 2.8009692e-007 0)
(0.18194285 2.2236015e-007 0)
(0.18194276 8.9157122e-008 0)
(0.18194269 4.0188513e-008 0)
(0.1819427 1.7515706e-008 0)
(0.1819427 6.8050144e-009 0)
(0.1819427 2.8447894e-009 0)
(0.1819427 1.2029989e-009 0)
(0.1819427 4.727548e-010 0)
(0.1819427 1.0333275e-010 0)
(0.1819427 -1.6125224e-010 0)
(0.1819427 -3.8763241e-010 0)
(0.1819427 -4.7801251e-010 0)
(0.1819427 -5.1557395e-010 0)
(0.1819427 -9.4806489e-011 0)
(0.1819427 2.3618889e-008 0)
(0.18194264 2.5416394e-008 0)
(0.17194942 -0.016717669 0)
(0.15224522 -0.0035950973 0)
(0.15660075 0.0001983474 0)
(0.15424015 -8.0435643e-005 0)
(0.15462397 -2.0899391e-006 0)
(0.15448209 -1.0945563e-005 0)
(0.15447251 2.6110222e-006 0)
(0.15447872 1.3431498e-006 0)
(0.15447527 4.0614472e-007 0)
(0.15447598 2.6434074e-007 0)
(0.15447604 9.1161318e-008 0)
(0.15447603 3.8795578e-008 0)
(0.15447607 1.6295219e-008 0)
(0.15447607 6.0648726e-009 0)
(0.15447608 2.5051628e-009 0)
(0.15447608 1.0316558e-009 0)
(0.15447608 3.9733513e-010 0)
(0.15447608 8.6923253e-011 0)
(0.15447608 -1.2821376e-010 0)
(0.15447608 -3.1812589e-010 0)
(0.15447608 -4.096865e-010 0)
(0.15447608 -6.3515814e-010 0)
(0.15447608 -3.8016783e-010 0)
(0.15447608 2.8024004e-008 0)
(0.1544761 3.0037138e-008 0)
(0.12520212 -0.013877431 0)
(0.0973609 -0.0021628659 0)
(0.10418261 0.00026324254 0)
(0.10178466 -4.1981823e-005 0)
(0.10239577 1.4056581e-005 0)
(0.10222526 -5.7877601e-006 0)
(0.10223698 3.0978231e-006 0)
(0.10224713 1.0052064e-006 0)
(0.1022447 3.0417254e-007 0)
(0.10224615 1.9552355e-007 0)
(0.10224636 5.8202627e-008 0)
(0.10224642 2.5398145e-008 0)
(0.10224648 1.0182321e-008 0)
(0.10224649 3.650251e-009 0)
(0.1022465 1.5022254e-009 0)
(0.1022465 5.9467583e-010 0)
(0.1022465 2.1881085e-010 0)
(0.1022465 4.1699169e-011 0)
(0.1022465 -6.7347156e-011 0)
(0.1022465 -1.7535748e-010 0)
(0.1022465 -2.4671702e-010 0)
(0.1022465 -5.569333e-010 0)
(0.1022465 -1.0634988e-009 0)
(0.10224649 1.8518886e-008 0)
(0.10224662 2.0452143e-008 0)
(0.05606163 -0.0087798625 0)
(0.032736188 -0.00026725984 0)
(0.039095675 4.4775457e-005 0)
(0.037196084 1.2939413e-005 0)
(0.037800658 9.6985878e-006 0)
(0.037654335 3.3968916e-007 0)
(0.037679387 1.9182723e-006 0)
(0.037686862 3.3083333e-007 0)
(0.037685528 1.4520572e-007 0)
(0.037686932 7.509271e-008 0)
(0.03768708 1.8505562e-008 0)
(0.037687148 8.5484899e-009 0)
(0.037687198 3.1138154e-009 0)
(0.037687208 1.0350896e-009 0)
(0.037687213 4.1596292e-010 0)
(0.037687215 1.4737388e-010 0)
(0.037687216 4.4923907e-011 0)
(0.037687216 -9.9066067e-013 0)
(0.037687216 -1.4161307e-011 0)
(0.037687216 -2.5376786e-011 0)
(0.037687216 1.6465158e-011 0)
(0.037687215 6.6535787e-011 0)
(0.037687216 -7.0253437e-010 0)
(0.037687204 8.549442e-009 0)
(0.037687313 9.8275232e-009 0)
(0.036259079 -0.00019505975 0)
(0.040554161 -0.00067780651 0)
(0.038223995 0.0001489235 0)
(0.039353198 -0.00050805254 0)
(0.039184706 -0.0001595013 0)
(0.03926182 -0.00026154839 0)
(0.039336309 -0.00027253325 0)
(0.039415796 -0.00031951931 0)
(0.039502089 -0.0003936194 0)
(0.03960993 -0.00050545112 0)
(0.039748255 -0.00066745382 0)
(0.0399303 -0.00089664881 0)
(0.040173217 -0.0012180356 0)
(0.040499383 -0.0016672165 0)
(0.040938119 -0.0022954497 0)
(0.041527201 -0.0031774919 0)
(0.042313855 -0.0044241083 0)
(0.043353836 -0.0062021665 0)
(0.044705817 -0.0087703207 0)
(0.046392807 -0.012539209 0)
(0.048365731 -0.018026934 0)
(0.050079165 -0.026945429 0)
(0.051644427 -0.04324513 0)
(0.043517082 -0.077147653 0)
(0.035295925 -0.079385481 0)
(0.036093133 -0.00035445104 0)
(0.040613986 -0.00056812203 0)
(0.038263823 -0.00015576578 0)
(0.039306073 -0.00041821652 0)
(0.039240011 -0.00028318949 0)
(0.039240649 -0.00029811901 0)
(0.039310241 -0.00032249962 0)
(0.039368036 -0.00037162436 0)
(0.039426829 -0.00045515545 0)
(0.039498833 -0.00058243512 0)
(0.039589683 -0.00076694211 0)
(0.039707156 -0.0010278147 0)
(0.039861581 -0.0013924276 0)
(0.040065022 -0.001899363 0)
(0.040331777 -0.0026033393 0)
(0.040677528 -0.0035821288 0)
(0.041116169 -0.0049469698 0)
(0.041652757 -0.0068584949 0)
(0.042266993 -0.0095505584 0)
(0.042874028 -0.013353802 0)
(0.043246668 -0.01867681 0)
(0.042966585 -0.026376139 0)
(0.041275129 -0.038848659 0)
(0.030534158 -0.058931729 0)
(0.008496804 -0.050083853 0)
(0.036017394 -0.00044926824 0)
(0.040679445 -0.00058141037 0)
(0.038314443 -0.00030439921 0)
(0.039273887 -0.00041178114 0)
(0.039272071 -0.00034390358 0)
(0.039233279 -0.00033264207 0)
(0.039282706 -0.00035483545 0)
(0.039317473 -0.00040446549 0)
(0.039345345 -0.00049178116 0)
(0.039377404 -0.00062659199 0)
(0.039415913 -0.00082253304 0)
(0.039463088 -0.0010993039 0)
(0.039521834 -0.0014847575 0)
(0.039594157 -0.0020178726 0)
(0.039680046 -0.0027525484 0)
(0.039775069 -0.0037634264 0)
(0.039864901 -0.0051536964 0)
(0.039915176 -0.0070649685 0)
(0.039853016 -0.0096898098 0)
(0.039528449 -0.013275322 0)
(0.038648735 -0.018106196 0)
(0.036765142 -0.024608683 0)
(0.032930173 -0.034153952 0)
(0.022638326 -0.047618561 0)
(0.0053551449 -0.042368572 0)
(0.035984829 -0.00056010592 0)
(0.040740686 -0.00064609904 0)
(0.038374418 -0.00043419091 0)
(0.039277109 -0.0004380058 0)
(0.039301073 -0.00037939663 0)
(0.039233563 -0.00035540426 0)
(0.039257656 -0.0003693154 0)
(0.039266543 -0.00041546114 0)
(0.039261561 -0.00050105298 0)
(0.039252073 -0.00063519155 0)
(0.039236479 -0.00083095724 0)
(0.039211882 -0.0011073961 0)
(0.039174072 -0.0014911218 0)
(0.039115664 -0.0020188677 0)
(0.039024131 -0.0027406479 0)
(0.038878233 -0.0037237593 0)
(0.038641998 -0.0050575662 0)
(0.038254306 -0.0068587424 0)
(0.037610677 -0.009274512 0)
(0.036534692 -0.012476223 0)
(0.034727258 -0.016628818 0)
(0.031767826 -0.02192834 0)
(0.026874082 -0.029153904 0)
(0.017695133 -0.038228487 0)
(0.0048509921 -0.033085871 0)
(0.035972254 -0.00069463939 0)
(0.040788233 -0.00073999773 0)
(0.038427276 -0.0005338865 0)
(0.039290375 -0.00046447059 0)
(0.039313863 -0.00039612986 0)
(0.039220445 -0.00036078631 0)
(0.039217175 -0.00036443408 0)
(0.039198246 -0.00040348385 0)
(0.039160089 -0.00048213223 0)
(0.039109672 -0.00060789031 0)
(0.039041434 -0.00079246123 0)
(0.038947725 -0.0010530184 0)
(0.038818131 -0.0014135538 0)
(0.03863706 -0.0019069176 0)
(0.038381598 -0.0025768626 0)
(0.038017712 -0.0034807088 0)
(0.037494259 -0.0046917477 0)
(0.036733835 -0.0063004711 0)
(0.035619337 -0.0084129907 0)
(0.033972655 -0.011138187 0)
(0.031528401 -0.01454797 0)
(0.027950261 -0.018704361 0)
(0.022691491 -0.024069335 0)
(0.014394029 -0.030290688 0)
(0.0039415529 -0.025437819 0)
(0.035954133 -0.00081230685 0)
(0.040825506 -0.00084122234 0)
(0.038472514 -0.00060898605 0)
(0.039298098 -0.00048185012 0)
(0.039301689 -0.00039332262 0)
(0.039180173 -0.00034603273 0)
(0.039148523 -0.00033910388 0)
(0.03910138 -0.00036863902 0)
(0.039031509 -0.0004360471 0)
(0.038942936 -0.00054666985 0)
(0.038826566 -0.00071011482 0)
(0.038670422 -0.00094097 0)
(0.038458669 -0.0012595946 0)
(0.038169147 -0.0016936149 0)
(0.037770965 -0.0022792304 0)
(0.037220831 -0.0030626522 0)
(0.036457855 -0.0041008231 0)
(0.035396883 -0.0054606238 0)
(0.033918786 -0.0072142924 0)
(0.031858594 -0.0094245297 0)
(0.028994618 -0.012109651 0)
(0.025078741 -0.015262798 0)
(0.019749665 -0.01917906 0)
(0.012124754 -0.023513582 0)
(0.0031597734 -0.019391385 0)
(0.036153882 -0.0010115912 0)
(0.041221315 -0.0010196962 0)
(0.038878959 -0.00068667377 0)
(0.039649573 -0.00048504784 0)
(0.039618904 -0.00036832783 0)
(0.039464418 -0.00030942238 0)
(0.039403074 -0.00029303241 0)
(0.039328074 -0.00031217644 0)
(0.039228702 -0.00036532433 0)
(0.039105702 -0.00045536924 0)
(0.03894663 -0.00058949051 0)
(0.038735601 -0.00077911124 0)
(0.038452321 -0.0010403327 0)
(0.038069265 -0.0013947917 0)
(0.037549378 -0.0018704861 0)
(0.03684269 -0.0025023673 0)
(0.035882388 -0.00333211 0)
(0.034579552 -0.0044063566 0)
(0.032817685 -0.0057714163 0)
(0.030447877 -0.0074600691 0)
(0.02728811 -0.0094639269 0)
(0.0231624 -0.011751401 0)
(0.017834881 -0.014510265 0)
(0.010692724 -0.017476778 0)
(0.00267743 -0.01424348 0)
(0.03747407 -0.0015278435 0)
(0.0431813 -0.0011949301 0)
(0.040721583 -0.0006856212 0)
(0.041344819 -0.00042735214 0)
(0.041249936 -0.0003073333 0)
(0.041049559 -0.00024660272 0)
(0.040954393 -0.00022484914 0)
(0.040850771 -0.00023447231 0)
(0.040722472 -0.00027123796 0)
(0.040566397 -0.00033600899 0)
(0.040366506 -0.00043343172 0)
(0.040103245 -0.00057144462 0)
(0.039752015 -0.00076132781 0)
(0.039280296 -0.0010182537 0)
(0.038645352 -0.0013615758 0)
(0.037791138 -0.0018150485 0)
(0.036645009 -0.002406283 0)
(0.035114185 -0.0031645895 0)
(0.033083619 -0.0041169938 0)
(0.030415075 -0.0052780775 0)
(0.026954408 -0.0066305302 0)
(0.022573584 -0.0081425223 0)
(0.017114478 -0.0099285642 0)
(0.010099179 -0.011809247 0)
(0.0024765645 -0.0095303506 0)
(0.039063367 -0.0043843247 0)
(0.044644502 -0.0016616544 0)
(0.041735848 -0.00056902406 0)
(0.042245967 -0.00029146593 0)
(0.042073639 -0.00020390075 0)
(0.0418281 -0.00015308626 0)
(0.04170418 -0.00013243695 0)
(0.04157729 -0.00013468771 0)
(0.041427289 -0.00015338229 0)
(0.041247707 -0.00018831056 0)
(0.041019659 -0.00024166692 0)
(0.040721014 -0.00031762896 0)
(0.040324306 -0.00042216157 0)
(0.039793926 -0.00056337215 0)
(0.039083705 -0.00075150732 0)
(0.03813423 -0.00099894174 0)
(0.036870094 -0.001319693 0)
(0.035197811 -0.0017281775 0)
(0.033005542 -0.002236645 0)
(0.030164717 -0.0028496658 0)
(0.026543103 -0.0035539202 0)
(0.022046186 -0.0043267778 0)
(0.016558607 -0.0052253845 0)
(0.0096578637 -0.0061474274 0)
(0.0023549837 -0.0048884497 0)
(0.029287334 -0.0065394183 0)
(0.031331513 -0.0017886142 0)
(0.027961203 -0.00015697124 0)
(0.028451843 -0.00010835336 0)
(0.02819688 -6.9301922e-005 0)
(0.027979726 -4.077192e-005 0)
(0.027878406 -3.2237284e-005 0)
(0.027776837 -3.0238427e-005 0)
(0.027663154 -3.211065e-005 0)
(0.027531025 -3.7736743e-005 0)
(0.027365762 -4.7170385e-005 0)
(0.027151297 -6.1027739e-005 0)
(0.026868043 -8.0332765e-005 0)
(0.02649095 -0.00010647474 0)
(0.025987936 -0.00014121008 0)
(0.025318229 -0.00018660461 0)
(0.024430862 -0.00024488461 0)
(0.023263837 -0.00031813602 0)
(0.021744842 -0.00040779237 0)
(0.019793645 -0.00051368825 0)
(0.017330893 -0.00063237782 0)
(0.014312525 -0.00075602121 0)
(0.010686843 -0.00089506401 0)
(0.006165259 -0.0010579679 0)
(0.0015385686 -0.00091887244 0)
)
;

boundaryField
{
    inlet
    {
        type            fixedValue;
        value           uniform (0.03876 0 0);
    }
    walls
    {
        type            fixedValue;
        value           uniform (0 0 0);
    }
    outlet
    {
        type            zeroGradient;
    }
    centreline
    {
        type            symmetryPlane;
    }
    frontAndBack
    {
        type            empty;
    }
}


// ************************************************************************* //
