/*--------------------------------*- C++ -*----------------------------------*\
| =========                 |                                                 |
| \\      /  F ield         | OpenFOAM: The Open Source CFD Toolbox           |
|  \\    /   O peration     | Version:  5.x                                   |
|   \\  /    A nd           | Web:      www.OpenFOAM.org                      |
|    \\/     M anipulation  |                                                 |
\*---------------------------------------------------------------------------*/
/*   Windows 32 and 64 bit porting by blueCAPE: http://www.bluecape.com.pt   *\
|  Based on Windows porting (2.0.x v4) by Symscape: http://www.symscape.com   |
\*---------------------------------------------------------------------------*/
FoamFile
{
    version     2.0;
    format      ascii;
    class       volScalarField;
    location    "0.15";
    object      p;
}
// * * * * * * * * * * * * * * * * * * * * * * * * * * * * * * * * * * * * * //

dimensions      [0 2 -2 0 0 0 0];

internalField   nonuniform List<scalar> 
750
(
0.39184231
0.39205331
0.39176975
0.39162083
0.39134238
0.39105604
0.3907345
0.39039437
0.39004121
0.3896794
0.38930689
0.3889314
0.38854859
0.38814881
0.38773971
0.38730673
0.38681953
0.38628825
0.38563276
0.38472411
0.3837912
0.38122488
0.38005929
0.37120337
0.36716537
0.39184844
0.39205393
0.39177677
0.3916226
0.39134503
0.39105767
0.39073574
0.39039517
0.39004174
0.38967976
0.38930732
0.38893179
0.38854891
0.38814973
0.38774102
0.3873083
0.38682319
0.38629324
0.38563947
0.38474574
0.38379087
0.38131389
0.38003046
0.37143873
0.36733839
0.39185672
0.39206205
0.3917856
0.39162806
0.39134987
0.39106092
0.39073817
0.39039688
0.39004292
0.38968068
0.38930821
0.38893276
0.38855013
0.38815179
0.38774412
0.38731305
0.38683132
0.38630595
0.38565993
0.38478375
0.3838423
0.3814323
0.38013167
0.37168765
0.36792355
0.39186851
0.39207568
0.39179783
0.3916366
0.39135714
0.39106573
0.39074175
0.39039944
0.39004469
0.38968208
0.38930952
0.3889342
0.38855213
0.38815478
0.38774874
0.38732057
0.38684322
0.38632527
0.38569248
0.38483692
0.38393203
0.38158481
0.38035143
0.37199783
0.36870791
0.39188438
0.39209392
0.39181418
0.391648
0.3913668
0.39107211
0.39074646
0.39040282
0.39004704
0.38968392
0.38931124
0.38893609
0.38855477
0.38815862
0.38775472
0.38733042
0.3868586
0.38635059
0.38573572
0.38490532
0.38404966
0.38177783
0.38067523
0.37243119
0.3697626
0.39190441
0.39211683
0.39183474
0.39166219
0.3913788
0.39108005
0.39075228
0.39040698
0.39004993
0.38968616
0.38931337
0.38893834
0.38855794
0.38816335
0.38776195
0.38734225
0.38687722
0.38638109
0.38578725
0.3849907
0.38419662
0.38200611
0.38110417
0.37293876
0.37143337
0.39192854
0.39214474
0.39185949
0.39167914
0.39139306
0.39108952
0.39075918
0.39041189
0.39005333
0.38968879
0.38931586
0.38894096
0.38856166
0.38816892
0.38777042
0.38735604
0.38689893
0.38641648
0.3858463
0.38509161
0.38437971
0.38227407
0.38168955
0.37357302
0.37393047
0.39195658
0.39217793
0.39188839
0.39169882
0.39140949
0.39110064
0.3907671
0.39041754
0.39005718
0.38969177
0.38931871
0.38894403
0.38856588
0.38817523
0.38778013
0.38737186
0.38692353
0.38645686
0.38591255
0.3852032
0.3845981
0.38259195
0.38243906
0.37454026
0.37779597
0.3919893
0.39221499
0.39192222
0.39172114
0.3914279
0.39111356
0.39077594
0.3904239
0.39006145
0.38969504
0.38932191
0.38894744
0.38857043
0.38818228
0.38779102
0.38738931
0.38695066
0.38650161
0.38598646
0.38532131
0.38483735
0.38299465
0.38330856
0.3758243
0.38262345
0.39203106
0.39225049
0.39196419
0.3917459
0.3914483
0.3911278
0.39078561
0.39043077
0.39006611
0.38969838
0.38932521
0.38895094
0.38857511
0.38818976
0.38780238
0.38740731
0.38698001
0.38654814
0.38606518
0.3854508
0.38504174
0.38351914
0.38409242
0.37761752
0.3875616
0.34549824
0.33487418
0.31914399
0.30581762
0.29137711
0.27724112
0.26295495
0.24874054
0.2345165
0.22030325
0.20608938
0.19187673
0.17766356
0.16345047
0.14923739
0.13502431
0.12081123
0.10659816
0.092385086
0.078172013
0.063958937
0.049745855
0.035532768
0.021319664
0.007106564
0.34535201
0.33476612
0.31910009
0.30576638
0.29136203
0.27722295
0.26295313
0.2487391
0.23451653
0.22030263
0.20608935
0.19187669
0.17766356
0.16345047
0.14923739
0.1350243
0.12081123
0.10659816
0.092385086
0.078172013
0.063958937
0.049745855
0.035532768
0.021319665
0.0071065635
0.34493011
0.33484244
0.31888479
0.30565323
0.2913263
0.27719652
0.26294728
0.248737
0.23451648
0.22030258
0.20608944
0.1918767
0.17766356
0.16345047
0.14923738
0.1350243
0.12081123
0.10659816
0.092385085
0.078172013
0.063958937
0.049745855
0.035532767
0.021319666
0.0071065627
0.34437173
0.33491255
0.31858794
0.3055583
0.29128503
0.27717749
0.26294218
0.24873476
0.23451599
0.22030278
0.20608962
0.19187674
0.17766356
0.16345047
0.14923738
0.1350243
0.12081123
0.10659816
0.092385086
0.078172013
0.063958937
0.049745856
0.035532768
0.021319667
0.0071065617
0.34385733
0.33482713
0.31852501
0.30546513
0.29123922
0.27716624
0.26293757
0.24873296
0.23451537
0.220303
0.20608978
0.19187678
0.17766357
0.16345047
0.14923738
0.1350243
0.12081123
0.10659816
0.092385086
0.078172013
0.063958937
0.049745855
0.035532767
0.021319669
0.0071065608
0.34316802
0.33482612
0.31840096
0.30536607
0.29119108
0.27715622
0.26293272
0.2487317
0.23451508
0.22030326
0.2060899
0.19187681
0.17766356
0.16345046
0.14923738
0.13502431
0.12081123
0.10659816
0.092385086
0.078172013
0.063958937
0.049745855
0.035532766
0.021319671
0.0071065601
0.34217025
0.33490945
0.31818828
0.3053022
0.29115493
0.27714803
0.26292836
0.24873107
0.23451526
0.22030351
0.20608996
0.19187682
0.17766355
0.16345046
0.14923738
0.13502431
0.12081123
0.10659816
0.092385086
0.078172013
0.063958938
0.049745856
0.035532766
0.021319673
0.00710656
0.34135602
0.33482251
0.31794129
0.30528312
0.29113385
0.27714377
0.26292532
0.2487313
0.23451575
0.22030376
0.20609
0.1918768
0.17766354
0.16345046
0.14923738
0.13502431
0.12081123
0.10659816
0.092385086
0.078172013
0.063958937
0.049745856
0.035532766
0.021319675
0.0071065611
0.34013521
0.33471168
0.31786679
0.30530451
0.29112415
0.27714324
0.26292356
0.24873192
0.23451638
0.22030408
0.20609002
0.19187677
0.17766352
0.16345045
0.14923738
0.13502431
0.12081123
0.10659816
0.092385086
0.078172013
0.063958938
0.049745856
0.035532766
0.021319677
0.0071065624
0.33580881
0.33525447
0.31786279
0.30538411
0.29109923
0.27714325
0.26291896
0.24873221
0.23451641
0.2203044
0.20609006
0.19187678
0.17766351
0.16345045
0.14923738
0.13502431
0.12081123
0.10659816
0.092385086
0.078172013
0.063958937
0.049745857
0.035532766
0.021319675
0.0071065603
0.39213694
0.39231836
0.39206531
0.39180124
0.39149256
0.39115769
0.3908062
0.39044492
0.39007584
0.38970482
0.38933165
0.38895783
0.38858441
0.38820487
0.38782445
0.38744299
0.38704223
0.38664126
0.38622426
0.38573756
0.38536859
0.38465974
0.38532849
0.38263378
0.4003633
0.39230916
0.3925135
0.39222939
0.39191539
0.39157521
0.39121395
0.39084443
0.39047064
0.39009331
0.38971779
0.38934402
0.38897035
0.38860069
0.3882317
0.38786194
0.38750355
0.38714331
0.38678662
0.38645728
0.38610162
0.38584477
0.38551056
0.38569975
0.38406594
0.38988767
0.39253405
0.39278364
0.39242597
0.39205197
0.39166935
0.39127648
0.39088513
0.39049654
0.39011102
0.38973092
0.3893552
0.38898188
0.38861509
0.38825724
0.38790033
0.38755872
0.38723469
0.38692097
0.38665882
0.38641474
0.38628716
0.38621774
0.38647803
0.38633404
0.38897593
0.39284415
0.39312252
0.39265589
0.39220367
0.3917682
0.39133965
0.39092478
0.39051989
0.39012594
0.38974111
0.38936312
0.38899136
0.38862776
0.38827541
0.38793323
0.38760453
0.38730661
0.38703168
0.38681798
0.38665313
0.38659347
0.3866463
0.38694415
0.38739172
0.38830667
0.39330139
0.39351502
0.39291303
0.39236107
0.39186252
0.39139636
0.39095845
0.39053785
0.39013616
0.38974643
0.38936704
0.38899624
0.38863534
0.38828519
0.38795295
0.38763728
0.38735435
0.38710747
0.38692382
0.38681119
0.38679157
0.38690063
0.38723545
0.3878628
0.38814258
0.39401321
0.39392788
0.39318468
0.39251129
0.39194184
0.39143885
0.39098092
0.39054837
0.39013988
0.38974625
0.38936487
0.38899397
0.38863396
0.38828655
0.38795667
0.38764844
0.38737214
0.38713838
0.38696516
0.38687232
0.38687155
0.38700234
0.3873079
0.3879539
0.3880014
0.3951268
0.39433396
0.39343399
0.39263156
0.3919967
0.39146226
0.39098721
0.39054834
0.39013496
0.38973918
0.38935571
0.38898381
0.38862235
0.388274
0.3879418
0.38763185
0.38735298
0.38711665
0.38693813
0.38683877
0.38683163
0.38694982
0.38721119
0.38782052
0.38780785
0.39703397
0.39457965
0.39359049
0.39267583
0.39200424
0.39145634
0.3909738
0.39053462
0.39012074
0.38972414
0.38933942
0.38896506
0.38860016
0.38824627
0.38790681
0.38758694
0.38729495
0.3870418
0.38684176
0.38671355
0.38667789
0.38676532
0.38699112
0.38754452
0.3875567
0.40066613
0.39434533
0.39364831
0.39260998
0.39193869
0.39140368
0.39093333
0.39050147
0.39009229
0.38969746
0.38931212
0.38893424
0.38856305
0.38819913
0.38784538
0.38750602
0.38718809
0.38690164
0.38666022
0.38648323
0.38639647
0.38644276
0.38665052
0.38716516
0.38724535
0.40225017
0.39331731
0.39409473
0.39268274
0.39200202
0.39142942
0.39094523
0.39050638
0.39009374
0.38969677
0.38930992
0.38893069
0.38855808
0.38819234
0.38783617
0.38749335
0.38717048
0.38687649
0.38662427
0.38643438
0.38633083
0.38635926
0.38652228
0.38699087
0.38710504
)
;

boundaryField
{
    inlet
    {
        type            zeroGradient;
    }
    walls
    {
        type            zeroGradient;
    }
    outlet
    {
        type            fixedValue;
        value           uniform 0;
    }
    centreline
    {
        type            symmetryPlane;
    }
    frontAndBack
    {
        type            empty;
    }
}


// ************************************************************************* //
