/*--------------------------------*- C++ -*----------------------------------*\
| =========                 |                                                 |
| \\      /  F ield         | OpenFOAM: The Open Source CFD Toolbox           |
|  \\    /   O peration     | Version:  5.x                                   |
|   \\  /    A nd           | Web:      www.OpenFOAM.org                      |
|    \\/     M anipulation  |                                                 |
\*---------------------------------------------------------------------------*/
/*   Windows 32 and 64 bit porting by blueCAPE: http://www.bluecape.com.pt   *\
|  Based on Windows porting (2.0.x v4) by Symscape: http://www.symscape.com   |
\*---------------------------------------------------------------------------*/
FoamFile
{
    version     2.0;
    format      ascii;
    class       surfaceScalarField;
    location    "0.15";
    object      phi;
}
// * * * * * * * * * * * * * * * * * * * * * * * * * * * * * * * * * * * * * //

dimensions      [0 3 -1 0 0 0 0];

internalField   nonuniform List<scalar> 
1430
(
5.1231863e-006
-1.21906e-007
5.2759391e-006
-1.5275275e-007
5.4249405e-006
-1.4900143e-007
5.5514881e-006
-1.2654759e-007
5.656546e-006
-1.0505789e-007
5.7402832e-006
-8.3737214e-008
5.8077408e-006
-6.7457681e-008
5.8633893e-006
-5.5648502e-008
5.9119225e-006
-4.8533187e-008
5.9579627e-006
-4.604019e-008
6.0065017e-006
-4.8539011e-008
6.0636488e-006
-5.7147043e-008
6.1365222e-006
-7.287344e-008
6.2348955e-006
-9.8373291e-008
6.3728563e-006
-1.3796075e-007
6.5700883e-006
-1.9723207e-007
6.8572711e-006
-2.8718273e-007
7.2840868e-006
-4.2681571e-007
7.9341547e-006
-6.5006789e-007
8.9621268e-006
-1.0279722e-006
1.0558044e-005
-1.5959169e-006
1.3033061e-005
-2.4750168e-006
1.6511282e-005
-3.4782213e-006
2.0954999e-005
-4.4437169e-006
-4.9153574e-006
2.5870356e-005
5.122388e-006
-2.4301373e-007
5.2779861e-006
-3.0835084e-007
5.425695e-006
-2.9671034e-007
5.5529598e-006
-2.5381236e-007
5.65763e-006
-2.0972806e-007
5.7412536e-006
-1.6736088e-007
5.8084423e-006
-1.3464636e-007
5.8638066e-006
-1.110128e-007
5.9120242e-006
-9.6750764e-008
5.9577582e-006
-9.1774189e-008
6.0059046e-006
-9.6685401e-008
6.062559e-006
-1.1380145e-007
6.1348087e-006
-1.4512316e-007
6.23224e-006
-1.9580458e-007
6.3688183e-006
-2.7453897e-007
6.5640444e-006
-3.9245825e-007
6.8478733e-006
-5.7101155e-007
7.2694309e-006
-8.4837338e-007
7.9112616e-006
-1.2918985e-006
8.9210938e-006
-2.0378045e-006
1.0497973e-005
-3.1727961e-006
1.2906819e-005
-4.8838623e-006
1.6344911e-005
-6.9163138e-006
2.0658623e-005
-8.7574292e-006
-9.8479772e-006
2.5591243e-005
5.1233861e-006
-3.6511954e-007
5.2797489e-006
-4.6471364e-007
5.4281496e-006
-4.4511097e-007
5.5554688e-006
-3.8113157e-007
5.6599277e-006
-3.1418695e-007
5.7431541e-006
-2.5058731e-007
5.8098357e-006
-2.0132793e-007
5.864643e-006
-1.6582015e-007
5.9122606e-006
-1.4436835e-007
5.9573446e-006
-1.3685819e-007
6.0047472e-006
-1.4408798e-007
6.0604479e-006
-1.6950215e-007
6.1313988e-006
-2.1607402e-007
6.2270154e-006
-2.914212e-007
6.3608928e-006
-4.0841643e-007
6.55197e-006
-5.8353541e-007
6.8293836e-006
-8.4842513e-007
7.2405405e-006
-1.2595303e-006
7.8649956e-006
-1.9163536e-006
8.8442966e-006
-3.0171054e-006
1.0365405e-005
-4.6939043e-006
1.268596e-005
-7.204417e-006
1.5982065e-005
-1.0212419e-005
2.0146254e-005
-1.2921618e-005
-1.4626887e-005
2.4925164e-005
5.1248145e-006
-4.8865376e-007
5.2824277e-006
-6.2232681e-007
5.431789e-006
-5.9447231e-007
5.559234e-006
-5.0857656e-007
5.6633807e-006
-4.1833358e-007
5.7459979e-006
-3.3320452e-007
5.8119059e-006
-2.67236e-007
5.8658794e-006
-2.1979361e-007
5.9126037e-006
-1.9109267e-007
5.9567174e-006
-1.8097191e-007
6.0030024e-006
-1.9037299e-007
6.0572894e-006
-2.2378909e-007
6.1263259e-006
-2.8511049e-007
6.219231e-006
-3.8432635e-007
6.3491063e-006
-5.3829171e-007
6.5340668e-006
-7.6849587e-007
6.8019621e-006
-1.1163204e-006
7.1978146e-006
-1.6553829e-006
7.7963072e-006
-2.5148462e-006
8.7294737e-006
-3.950272e-006
1.0169789e-005
-6.1342199e-006
1.2359966e-005
-9.3945942e-006
1.5445064e-005
-1.3297517e-005
1.9372803e-005
-1.6849357e-005
-1.9148369e-005
2.3894284e-005
5.1267116e-006
-6.1408508e-007
5.2859744e-006
-7.8158961e-007
5.4366323e-006
-7.4513018e-007
5.5642525e-006
-6.3619676e-007
5.6679716e-006
-5.2205262e-007
5.7497569e-006
-4.1498989e-007
5.814621e-006
-3.3210008e-007
5.8674803e-006
-2.7265294e-007
5.9130211e-006
-2.3663346e-007
5.9558497e-006
-2.2380048e-007
6.0006526e-006
-2.351759e-007
6.0530777e-006
-2.7621413e-007
6.1196104e-006
-3.5164326e-007
6.2089571e-006
-4.7367303e-007
6.3336006e-006
-6.6293516e-007
6.5105848e-006
-9.4548011e-007
6.7660162e-006
-1.3717518e-006
7.1418534e-006
-2.03122e-006
7.7060292e-006
-3.079022e-006
8.5801762e-006
-4.824419e-006
9.9157017e-006
-7.4697454e-006
1.1933008e-005
-1.14119e-005
1.4737677e-005
-1.6102186e-005
1.8344634e-005
-2.0456314e-005
-2.3308068e-005
2.2504334e-005
5.1291157e-006
-7.4192047e-007
5.2904005e-006
-9.4287444e-007
5.442724e-006
-8.9745366e-007
5.5705738e-006
-7.6404652e-007
5.6737217e-006
-6.2520051e-007
5.7544381e-006
-4.9570629e-007
5.8179852e-006
-3.956472e-007
5.8694494e-006
-3.2411709e-007
5.9135158e-006
-2.8069993e-007
5.9547476e-006
-2.6503223e-007
5.9977239e-006
-2.7815225e-007
6.0478549e-006
-3.2634511e-007
6.1113118e-006
-4.1510014e-007
6.196283e-006
-5.5864419e-007
6.3145221e-006
-7.8117432e-007
6.4817896e-006
-1.1127476e-006
6.7220279e-006
-1.6119901e-006
7.0735601e-006
-2.3827522e-006
7.5963376e-006
-3.6017995e-006
8.3989291e-006
-5.6270105e-006
9.6062217e-006
-8.6770379e-006
1.1411931e-005
-1.3217609e-005
1.387109e-005
-1.8561346e-005
1.7075482e-005
-2.3660706e-005
-2.7022059e-005
2.0789472e-005
5.1320851e-006
-8.7272521e-007
5.2957701e-006
-1.1065595e-006
5.4501624e-006
-1.0518459e-006
5.5783069e-006
-8.9219104e-007
5.6807043e-006
-7.2759794e-007
5.7600978e-006
-5.7509973e-007
5.8220486e-006
-4.5759798e-007
5.8718303e-006
-3.7389878e-007
5.9141379e-006
-3.2300761e-007
5.9534687e-006
-3.0436304e-007
5.9942859e-006
-3.1896943e-007
6.0417102e-006
-3.7376942e-007
6.1015348e-006
-4.7492473e-007
6.1813736e-006
-6.3848297e-007
6.2921121e-006
-8.9191282e-007
6.4480748e-006
-1.2687102e-006
6.6707183e-006
-1.8346336e-006
6.9940375e-006
-2.7060714e-006
7.4691498e-006
-4.0769118e-006
8.1887419e-006
-6.3466027e-006
9.2468075e-006
-9.7351036e-006
1.0805423e-005
-1.4776225e-005
1.2850378e-005
-2.06063e-005
1.5603395e-005
-2.6413722e-005
-3.0108526e-005
1.8689862e-005
5.1357554e-006
-1.0072003e-006
5.3022338e-006
-1.2730379e-006
5.4591486e-006
-1.2087608e-006
5.5876452e-006
-1.0206876e-006
5.6890666e-006
-8.2901928e-007
5.7668698e-006
-6.5290291e-007
5.8269233e-006
-5.1765157e-007
5.8747262e-006
-4.2170164e-007
5.9150054e-006
-3.6328682e-007
5.9521509e-006
-3.4150848e-007
5.990475e-006
-3.572936e-007
6.0347914e-006
-4.1808582e-007
6.0904815e-006
-5.3061477e-007
6.1645188e-006
-7.1252023e-007
6.266738e-006
-9.941321e-007
6.4099975e-006
-1.4119696e-006
6.6129943e-006
-2.0376305e-006
6.904756e-006
-2.9978331e-006
7.3273183e-006
-4.4994741e-006
7.9541752e-006
-6.9734596e-006
8.8446985e-006
-1.0625627e-005
1.0124747e-005
-1.6056273e-005
1.1716172e-005
-2.2197726e-005
1.3977287e-005
-2.8674837e-005
-3.2220836e-005
1.6089598e-005
5.1403893e-006
-1.1463093e-006
5.310019e-006
-1.4426676e-006
5.4699889e-006
-1.3687307e-006
5.5988626e-006
-1.1495613e-006
5.6990498e-006
-9.2920654e-007
5.7749684e-006
-7.2882141e-007
5.8327896e-006
-5.7547282e-007
5.8783142e-006
-4.672262e-007
5.9162898e-006
-4.0126252e-007
5.9509802e-006
-3.7619884e-007
5.9865108e-006
-3.9282422e-007
6.0273605e-006
-4.5893546e-007
6.0784522e-006
-5.817065e-007
6.1460928e-006
-7.8016077e-007
6.2389274e-006
-1.0869667e-006
6.3682594e-006
-1.5413016e-006
6.549903e-006
-2.219274e-006
6.8075107e-006
-3.2554408e-006
7.1731322e-006
-4.8650956e-006
7.7001426e-006
-7.50047e-006
8.4092797e-006
-1.1334764e-005
9.3877521e-006
-1.7034746e-005
1.0484853e-005
-2.3294827e-005
1.2201311e-005
-3.0391295e-005
-3.2969102e-005
1.2949577e-005
5.1454276e-006
-1.2904565e-006
5.3201922e-006
-1.6174322e-006
5.4829204e-006
-1.5314589e-006
5.6123832e-006
-1.2790241e-006
5.7109876e-006
-1.0278109e-006
5.784653e-006
-8.0248683e-007
5.8398836e-006
-6.3070342e-007
5.8828322e-006
-5.1017485e-007
5.9182084e-006
-4.3663871e-007
5.9501991e-006
-4.0818957e-007
5.98267e-006
-4.2529504e-007
6.0197347e-006
-4.9600015e-007
6.0658112e-006
-6.2778303e-007
6.1265175e-006
-8.408671e-007
6.2092571e-006
-1.1697062e-006
6.3235422e-006
-1.6555868e-006
6.4822984e-006
-2.3780302e-006
6.7039347e-006
-3.4770771e-006
7.0093542e-006
-5.1705151e-006
7.4312648e-006
-7.9223806e-006
7.9604692e-006
-1.1863968e-005
8.6044409e-006
-1.7678717e-005
9.1573297e-006
-2.3847716e-005
9.9981577e-006
-3.1232123e-005
8.7473244e-006
-3.1718269e-005
2.8443601e-005
-2.5732446e-006
2.9211109e-005
-7.6750821e-007
2.9199029e-005
1.2079826e-008
2.9043367e-005
1.5566248e-007
2.8928493e-005
1.1487393e-007
2.8877315e-005
5.1178156e-008
2.8873094e-005
4.2202649e-009
2.8880024e-005
-6.9294561e-009
2.8883907e-005
-3.8833377e-009
2.8884329e-005
-4.2211776e-010
2.8883857e-005
4.7245994e-010
2.8883608e-005
2.4870661e-010
2.8883612e-005
-3.6368399e-012
2.8883654e-005
-4.2351204e-011
2.8883669e-005
-1.4400247e-011
2.8883668e-005
7.1230707e-013
2.8883666e-005
2.1499902e-012
2.8883665e-005
8.2709233e-013
2.8883665e-005
1.8925837e-013
2.8883664e-005
1.5769028e-013
2.8883664e-005
5.3100202e-014
2.8883665e-005
-8.8566336e-014
2.8883665e-005
-5.557757e-013
2.888367e-005
-4.7590512e-012
-4.7061375e-012
2.7957525e-005
-4.9395263e-006
2.8717573e-005
-1.5275564e-006
2.8712823e-005
1.6829931e-008
2.8587456e-005
2.810295e-007
2.8485871e-005
2.1645921e-007
2.8448538e-005
8.8511262e-008
2.8447019e-005
5.7391705e-009
2.8453121e-005
-1.3031416e-008
2.8455921e-005
-6.6836987e-009
2.8456041e-005
-5.4210867e-010
2.8455595e-005
9.1885141e-010
2.8455416e-005
4.2685016e-010
2.8455435e-005
-2.2449355e-011
2.8455473e-005
-8.039357e-011
2.8455484e-005
-2.5116747e-011
2.8455483e-005
2.0200705e-012
2.8455481e-005
3.9167622e-012
2.845548e-005
1.3478906e-012
2.845548e-005
1.9613381e-013
2.845548e-005
2.2012958e-013
2.845548e-005
2.654402e-013
2.845548e-005
-2.1550582e-013
2.8455481e-005
-1.2888236e-012
2.8455485e-005
-8.7677681e-012
-8.8686111e-012
2.7028278e-005
-7.0426404e-006
2.770034e-005
-2.1996184e-006
2.7720798e-005
-3.6280997e-009
2.7621951e-005
3.7987656e-007
2.7558124e-005
2.802861e-007
2.7545129e-005
1.0150662e-007
2.7548209e-005
2.6587616e-009
2.7552221e-005
-1.7043313e-008
2.7553311e-005
-7.7738661e-009
2.7552997e-005
-2.2750031e-010
2.7552648e-005
1.2679913e-009
2.7552581e-005
4.9369992e-010
2.755262e-005
-6.1607407e-011
2.7552647e-005
-1.0757911e-010
2.7552651e-005
-2.9556576e-011
2.755265e-005
3.9132353e-012
2.7552648e-005
5.0321444e-012
2.7552648e-005
1.3912207e-012
2.7552649e-005
2.5116857e-014
2.7552649e-005
1.3046142e-013
2.7552648e-005
4.1813368e-013
2.7552648e-005
-5.5907818e-014
2.7552649e-005
-1.7771458e-012
2.7552652e-005
-1.1669577e-011
-1.1783688e-011
2.5630776e-005
-8.7791323e-006
2.6145821e-005
-2.714663e-006
2.614504e-005
-2.8470301e-009
2.609625e-005
4.2866628e-007
2.6086227e-005
2.9030862e-007
2.6095762e-005
9.1971499e-008
2.6101283e-005
-2.8618631e-009
2.6102477e-005
-1.8236727e-008
2.6101839e-005
-7.1366599e-009
2.6101227e-005
3.8522539e-010
2.610105e-005
1.4443653e-009
2.6101098e-005
4.4599822e-010
2.6101144e-005
-1.0807278e-010
2.6101155e-005
-1.1804255e-010
2.6101153e-005
-2.7232598e-011
2.6101151e-005
5.8225465e-012
2.610115e-005
5.1972168e-012
2.6101151e-005
1.0784659e-012
2.6101151e-005
-5.9830761e-014
2.6101151e-005
2.1905798e-014
2.6101151e-005
2.721417e-013
2.6101151e-005
2.8570948e-013
2.6101151e-005
-1.6990733e-012
2.6101152e-005
-1.3053636e-011
-1.3180627e-011
2.373138e-005
-1.0006178e-005
2.3965632e-005
-2.9489155e-006
2.3939777e-005
2.3008155e-008
2.3967062e-005
4.0138082e-007
2.4003263e-005
2.5410831e-007
2.4025454e-005
6.9780566e-008
2.4030344e-005
-7.7521989e-009
2.4028717e-005
-1.6609525e-008
2.4026889e-005
-5.3088782e-009
2.4026287e-005
9.8742932e-010
2.4026344e-005
1.3875972e-009
2.4026472e-005
3.1747907e-010
2.4026505e-005
-1.4115655e-010
2.4026497e-005
-1.0964404e-010
2.402649e-005
-1.9864121e-011
2.4026488e-005
7.0028312e-012
2.4026489e-005
4.440106e-012
2.402649e-005
6.1417286e-013
2.402649e-005
-5.2560818e-014
2.402649e-005
-8.1906305e-015
2.402649e-005
1.1292187e-013
2.4026489e-005
4.7727886e-013
2.4026489e-005
-1.2635893e-012
2.4026489e-005
-1.2721815e-011
-1.3010442e-011
2.1264557e-005
-1.0481263e-005
2.1115585e-005
-2.7999432e-006
2.1103182e-005
3.5410219e-008
2.1192651e-005
3.1191255e-007
2.1254204e-005
1.925549e-007
2.1279772e-005
4.421299e-008
2.1281976e-005
-9.9561968e-009
2.127825e-005
-1.2883702e-008
2.1276044e-005
-3.1032017e-009
2.1275761e-005
1.2707329e-009
2.1276037e-005
1.111537e-009
2.1276188e-005
1.6605148e-010
2.1276191e-005
-1.441562e-010
2.1276167e-005
-8.564848e-011
2.1276158e-005
-1.0774859e-011
2.1276159e-005
6.8604405e-012
2.127616e-005
3.1975965e-012
2.127616e-005
2.1885879e-013
2.127616e-005
-9.1411106e-014
2.127616e-005
-4.7766978e-014
2.127616e-005
6.2791411e-014
2.127616e-005
5.8711575e-013
2.1276159e-005
-6.6283775e-013
2.1276158e-005
-1.0841326e-011
-1.1365521e-011
1.8139323e-005
-9.9307239e-006
1.7625148e-005
-2.2857682e-006
1.7634327e-005
2.6231107e-008
1.7745932e-005
2.0030716e-007
1.7813335e-005
1.2515242e-007
1.7835351e-005
2.2196967e-008
1.7834339e-005
-8.9449876e-009
1.7829734e-005
-8.2781552e-009
1.7827919e-005
-1.2883061e-009
1.7828074e-005
1.1157926e-009
1.7828471e-005
7.1498404e-010
1.7828589e-005
4.7620616e-011
1.7828559e-005
-1.1446082e-010
1.7828528e-005
-5.4192235e-011
1.782852e-005
-3.3716557e-012
1.7828522e-005
5.358894e-012
1.7828523e-005
1.8715961e-012
1.7828523e-005
4.211717e-015
1.7828523e-005
-9.625978e-014
1.7828524e-005
-9.7227294e-014
1.7828524e-005
5.2638806e-014
1.7828523e-005
6.0524314e-013
1.7828523e-005
-1.0026625e-013
1.782852e-005
-7.7583008e-012
-8.4663956e-012
1.4267121e-005
-8.1082474e-006
1.3505905e-005
-1.5245515e-006
1.3520502e-005
1.1633308e-008
1.3620574e-005
1.0023569e-007
1.368075e-005
6.4976506e-008
1.3695403e-005
7.5440266e-009
1.3692098e-005
-5.6403059e-009
1.3687879e-005
-4.0595795e-009
1.3686863e-005
-2.7213569e-010
1.368732e-005
6.5897441e-010
1.3687702e-005
3.3300686e-010
1.368776e-005
-1.0180767e-011
1.3687711e-005
-6.5716396e-011
1.3687682e-005
-2.510685e-011
1.3687678e-005
4.3642673e-013
1.368768e-005
3.0698003e-012
1.3687682e-005
8.0431061e-013
1.3687682e-005
-5.2595805e-014
1.3687682e-005
-5.3665728e-014
1.3687682e-005
-9.221701e-014
1.3687682e-005
3.4979749e-014
1.3687682e-005
4.6678308e-013
1.3687681e-005
2.6944172e-013
1.3687678e-005
-4.1156309e-012
-4.8509421e-012
9.627624e-006
-4.7862945e-006
8.7492219e-006
-6.4614939e-007
8.7510523e-006
9.8028297e-009
8.823259e-006
2.8029013e-008
8.8672033e-006
2.1032167e-008
8.8741437e-006
6.0372062e-010
8.8703559e-006
-1.8525142e-009
8.8674642e-006
-1.167847e-009
8.8671637e-006
2.8344644e-011
8.8676337e-006
1.8894809e-010
8.8678888e-006
7.7895845e-011
8.8678935e-006
-1.4859864e-011
8.8678479e-006
-2.0160372e-011
8.8678288e-006
-5.9896752e-012
8.8678284e-006
8.8856795e-013
8.8678305e-006
9.536284e-013
8.8678311e-006
1.7771578e-013
8.8678311e-006
-2.2519537e-014
8.867831e-006
-1.0315731e-014
8.867831e-006
-4.3994309e-014
8.867831e-006
1.108699e-014
8.8678312e-006
2.0823832e-013
8.8678312e-006
2.8408835e-013
8.8678282e-006
-1.1018427e-012
-1.5596737e-012
3.96103e-006
3.3148806e-006
3.3246834e-006
3.3527124e-006
3.3737446e-006
3.3743483e-006
3.3724958e-006
3.371328e-006
3.3713563e-006
3.3715452e-006
3.3716231e-006
3.3716083e-006
3.3715881e-006
3.3715821e-006
3.371583e-006
3.371584e-006
3.3715842e-006
3.3715841e-006
3.3715841e-006
3.3715841e-006
3.3715841e-006
3.3715843e-006
3.3715845e-006
3.3715834e-006
1.5457703e-005
-1.7443181e-006
1.6048324e-005
-2.2080534e-006
1.6543385e-005
-2.0265201e-006
1.6934506e-005
-1.670145e-006
1.7219052e-005
-1.3123575e-006
1.7423489e-005
-1.0069231e-006
1.7571387e-005
-7.7860135e-007
1.768297e-005
-6.2175819e-007
1.7771727e-005
-5.2539576e-007
1.7850097e-005
-4.865594e-007
1.7927669e-005
-5.0286705e-007
1.8014049e-005
-5.8238016e-007
1.8120284e-005
-7.3401795e-007
1.8257779e-005
-9.7836239e-007
1.8441121e-005
-1.3530486e-006
1.8689898e-005
-1.9043634e-006
1.9021334e-005
-2.7094666e-006
1.946132e-005
-3.9170623e-006
2.001961e-005
-5.7288051e-006
2.0652586e-005
-8.5553567e-006
2.1280572e-005
-1.2491955e-005
2.1237926e-005
-1.7636071e-005
1.9727252e-005
-2.2337042e-005
1.4562577e-005
-2.6067448e-005
-1.7155692e-005
1.5561524e-005
-2.3020012e-006
1.6242028e-005
-2.8885578e-006
1.6779512e-005
-2.5640039e-006
1.7164022e-005
-2.0546552e-006
1.7420134e-005
-1.5684695e-006
1.7587458e-005
-1.1742467e-006
1.7698404e-005
-8.8954759e-007
1.7775377e-005
-6.98731e-007
1.7831696e-005
-5.8171432e-007
1.787715e-005
-5.3201404e-007
1.7918864e-005
-5.4458072e-007
1.7962109e-005
-6.2562488e-007
1.8012517e-005
-7.8442599e-007
1.8074572e-005
-1.0404177e-006
1.8151124e-005
-1.4296e-006
1.8246104e-005
-1.9993436e-006
1.8353361e-005
-2.816724e-006
1.8457464e-005
-4.0211654e-006
1.8509363e-005
-5.7807036e-006
1.8371929e-005
-8.4179232e-006
1.7829276e-005
-1.1949301e-005
1.6271531e-005
-1.6078326e-005
1.3093645e-005
-1.9159156e-005
6.8415396e-006
-1.9815342e-005
-1.0314152e-005
1.5742815e-005
-3.0409753e-006
1.6547392e-005
-3.6931348e-006
1.7120723e-005
-3.1373351e-006
1.7481639e-005
-2.4155708e-006
1.7688883e-005
-1.7757142e-006
1.7802842e-005
-1.2882056e-006
1.7864769e-005
-9.5147392e-007
1.7898625e-005
-7.3258767e-007
1.7916346e-005
-5.9943504e-007
1.7924349e-005
-5.4001682e-007
1.7926499e-005
-5.4673143e-007
1.7923602e-005
-6.2272729e-007
1.7915255e-005
-7.7607926e-007
1.7898857e-005
-1.0240193e-006
1.7867079e-005
-1.3978228e-006
1.7810515e-005
-1.942779e-006
1.7706533e-005
-2.7127417e-006
1.7508952e-005
-3.8235845e-006
1.713602e-005
-5.407772e-006
1.6396921e-005
-7.6788243e-006
1.5042965e-005
-1.0595345e-005
1.2622416e-005
-1.3657777e-005
8.8873065e-006
-1.5424047e-005
3.5258275e-006
-1.4453863e-005
-6.7883249e-006
1.6016788e-005
-4.0539221e-006
1.6935537e-005
-4.6118845e-006
1.7499228e-005
-3.7010258e-006
1.7794178e-005
-2.7105205e-006
1.7922167e-005
-1.9037028e-006
1.7962664e-005
-1.3287033e-006
1.7963156e-005
-9.5196535e-007
1.7946391e-005
-7.1582318e-007
1.7921558e-005
-5.746016e-007
1.7890562e-005
-5.0902069e-007
1.7852789e-005
-5.0895901e-007
1.780377e-005
-5.7370772e-007
1.773781e-005
-7.1012007e-007
1.7646262e-005
-9.3247107e-007
1.751433e-005
-1.2658906e-006
1.7319538e-005
-1.7479866e-006
1.7029813e-005
-2.4230171e-006
1.6579788e-005
-3.3735592e-006
1.5874435e-005
-4.7024196e-006
1.4728138e-005
-6.5325266e-006
1.2916425e-005
-8.7836323e-006
1.0180324e-005
-1.0921676e-005
6.543706e-006
-1.1787429e-005
2.2715573e-006
-1.0181714e-005
-4.5167676e-006
1.6334379e-005
-5.3844604e-006
1.72481e-005
-5.525605e-006
1.7686994e-005
-4.1399197e-006
1.7839624e-005
-2.8631509e-006
1.7846732e-005
-1.910811e-006
1.7792758e-005
-1.2747288e-006
1.7722371e-005
-8.8157872e-007
1.7651669e-005
-6.4512115e-007
1.7584132e-005
-5.0706411e-007
1.751601e-005
-4.4089936e-007
1.7441285e-005
-4.342335e-007
1.7351149e-005
-4.8357231e-007
1.7235887e-005
-5.948573e-007
1.7080652e-005
-7.7723626e-007
1.6865364e-005
-1.0506033e-006
1.6559243e-005
-1.441865e-006
1.6122974e-005
-1.9867487e-006
1.5487764e-005
-2.7383491e-006
1.4555199e-005
-3.7698548e-006
1.3163738e-005
-5.1410646e-006
1.1137271e-005
-6.7571658e-006
8.3656758e-006
-8.1500804e-006
5.0185223e-006
-8.4402756e-006
1.6504884e-006
-6.8136801e-006
-2.8662792e-006
1.6543149e-005
-6.9237688e-006
1.7181672e-005
-6.1641277e-006
1.7304591e-005
-4.2628383e-006
1.7210949e-005
-2.7695093e-006
1.7051895e-005
-1.7517575e-006
1.6889122e-005
-1.1119559e-006
1.6746001e-005
-7.3845733e-007
1.6624912e-005
-5.240324e-007
1.6520311e-005
-4.0246298e-007
1.6422167e-005
-3.4275502e-007
1.6319719e-005
-3.3178542e-007
1.6201058e-005
-3.6491156e-007
1.6051822e-005
-4.456217e-007
1.5854132e-005
-5.7954582e-007
1.558398e-005
-7.8045111e-007
1.520887e-005
-1.0667556e-006
1.4684875e-005
-1.4627532e-006
1.3947857e-005
-2.0013315e-006
1.2906876e-005
-2.7288739e-006
1.1434607e-005
-3.6687952e-006
9.4043254e-006
-4.7268842e-006
6.8057728e-006
-5.5515278e-006
3.8935756e-006
-5.5280784e-006
1.2425463e-006
-4.1626508e-006
-1.6237328e-006
1.6414633e-005
-8.3345606e-006
1.6361194e-005
-6.1106891e-006
1.5952907e-005
-3.8545513e-006
1.552224e-005
-2.3388424e-006
1.5169026e-005
-1.3985432e-006
1.4900763e-005
-8.4369294e-007
1.4698199e-005
-5.3589359e-007
1.4541313e-005
-3.6714586e-007
1.4413795e-005
-2.7494488e-007
1.429998e-005
-2.2893985e-007
1.4185583e-005
-2.1738866e-007
1.4056667e-005
-2.3599552e-007
1.3896579e-005
-2.855341e-007
1.3687189e-005
-3.7015607e-007
1.3403884e-005
-4.9714523e-007
1.3015191e-005
-6.7806254e-007
1.2479243e-005
-9.2680533e-007
1.1740192e-005
-1.2622808e-006
1.0721436e-005
-1.7101181e-006
9.3284842e-006
-2.2758431e-006
7.4865219e-006
-2.8849219e-006
5.2431372e-006
-3.3081431e-006
2.8757776e-006
-3.1607187e-006
8.878942e-007
-2.1747674e-006
-7.3583862e-007
1.5576578e-005
-8.9072973e-006
1.4386462e-005
-4.9205736e-006
1.334604e-005
-2.814129e-006
1.2582549e-005
-1.5753518e-006
1.2072404e-005
-8.8839833e-007
1.1737324e-005
-5.0861228e-007
1.1509523e-005
-3.0809305e-007
1.1345115e-005
-2.0273741e-007
1.121752e-005
-1.4735038e-007
1.1108186e-005
-1.1960584e-007
1.1001968e-005
-1.1117064e-007
1.088482e-005
-1.1884768e-007
1.0741631e-005
-1.423445e-007
1.0555619e-005
-1.8414429e-007
1.0305574e-005
-2.4710007e-007
9.9643436e-006
-3.3683243e-007
9.4972652e-006
-4.5972691e-007
8.8601681e-006
-6.2518375e-007
7.9947112e-006
-8.4466126e-007
6.8345246e-006
-1.1156564e-006
5.3464305e-006
-1.3968279e-006
3.6043059e-006
-1.5660185e-006
1.872473e-006
-1.4288857e-006
5.4821946e-007
-8.5051387e-007
-1.8761915e-007
1.3351117e-005
-7.2545733e-006
1.0931183e-005
-2.5006397e-006
9.3690148e-006
-1.2519609e-006
8.4379964e-006
-6.4433341e-007
7.896e-006
-3.4640192e-007
7.5763452e-006
-1.8895748e-007
7.3771887e-006
-1.0893654e-007
7.2429181e-006
-6.8466858e-008
7.1433929e-006
-4.7825099e-008
7.0613115e-006
-3.7524448e-008
6.9841032e-006
-3.3962342e-008
6.9008442e-006
-3.5588721e-008
6.8006296e-006
-4.2129931e-008
6.6709108e-006
-5.4425414e-008
6.4967613e-006
-7.2950644e-008
6.2593002e-006
-9.9371267e-008
5.9348603e-006
-1.3528702e-007
5.4931962e-006
-1.8351961e-007
4.895431e-006
-2.4689608e-007
4.1026147e-006
-3.2284007e-007
3.1046502e-006
-3.9886342e-007
1.97088e-006
-4.3224827e-007
9.1202001e-007
-3.7002566e-007
2.1735736e-007
-1.5585119e-007
2.9738233e-008
7.7492676e-006
5.248628e-006
3.9966671e-006
3.3523337e-006
3.0059318e-006
2.8169743e-006
2.7080377e-006
2.6395709e-006
2.5917458e-006
2.5542213e-006
2.520259e-006
2.4846702e-006
2.4425403e-006
2.3881149e-006
2.3151643e-006
2.215793e-006
2.080506e-006
1.8969864e-006
1.6500903e-006
1.3272502e-006
9.2838684e-007
4.9613858e-007
1.2611294e-007
-2.9738233e-008
)
;

boundaryField
{
    inlet
    {
        type            calculated;
        value           nonuniform List<scalar> 
20
(
-5.0012803e-006
-5.0012803e-006
-5.0012803e-006
-5.0012803e-006
-5.0012803e-006
-5.0012803e-006
-5.0012803e-006
-5.0012803e-006
-5.0012803e-006
-5.0012803e-006
-1.5003841e-005
-1.5003841e-005
-1.5003841e-005
-1.5003841e-005
-1.5003841e-005
-1.5003841e-005
-1.5003841e-005
-1.5003841e-005
-1.5003841e-005
-1.5003841e-005
)
;
    }
    walls
    {
        type            calculated;
        value           uniform 0;
    }
    outlet
    {
        type            calculated;
        value           nonuniform List<scalar> 10(2.8883674e-005 2.8455489e-005 2.7552655e-005 2.6101153e-005 2.4026488e-005 2.1276156e-005 1.7828517e-005 1.3687674e-005 8.8678249e-006 3.3715819e-006);
    }
    centreline
    {
        type            symmetryPlane;
        value           uniform 0;
    }
    frontAndBack
    {
        type            empty;
        value           nonuniform 0();
    }
}


// ************************************************************************* //
