/*--------------------------------*- C++ -*----------------------------------*\
| =========                 |                                                 |
| \\      /  F ield         | OpenFOAM: The Open Source CFD Toolbox           |
|  \\    /   O peration     | Version:  5.x                                   |
|   \\  /    A nd           | Web:      www.OpenFOAM.org                      |
|    \\/     M anipulation  |                                                 |
\*---------------------------------------------------------------------------*/
/*   Windows 32 and 64 bit porting by blueCAPE: http://www.bluecape.com.pt   *\
|  Based on Windows porting (2.0.x v4) by Symscape: http://www.symscape.com   |
\*---------------------------------------------------------------------------*/
FoamFile
{
    version     2.0;
    format      ascii;
    class       surfaceScalarField;
    location    "0.15";
    object      phi_0;
}
// * * * * * * * * * * * * * * * * * * * * * * * * * * * * * * * * * * * * * //

dimensions      [0 3 -1 0 0 0 0];

internalField   nonuniform List<scalar> 
1430
(
5.1230805e-006
-1.218002e-007
5.2756958e-006
-1.5261526e-007
5.4245496e-006
-1.4885383e-007
5.5509569e-006
-1.2640733e-007
5.6558941e-006
-1.0493717e-007
5.7395417e-006
-8.3647628e-008
5.8069351e-006
-6.739342e-008
5.8625395e-006
-5.5604339e-008
5.9110436e-006
-4.8504127e-008
5.9570651e-006
-4.6021512e-008
6.0055916e-006
-4.852647e-008
6.0627297e-006
-5.713818e-008
6.1355958e-006
-7.2866029e-008
6.2339599e-006
-9.8364105e-008
6.3719056e-006
-1.3794572e-007
6.5691127e-006
-1.9720707e-007
6.8562499e-006
-2.8713722e-007
7.2829635e-006
-4.267136e-007
7.9328223e-006
-6.4985883e-007
8.960469e-006
-1.0276467e-006
1.0556114e-005
-1.5956452e-006
1.3031275e-005
-2.4751612e-006
1.65103e-005
-3.4790244e-006
2.0955207e-005
-4.4449072e-006
-4.9162965e-006
2.5871504e-005
5.1222832e-006
-2.4280305e-007
5.2777405e-006
-3.0807258e-007
5.4253032e-006
-2.9641652e-007
5.5524267e-006
-2.5353082e-007
5.6569772e-006
-2.0948771e-007
5.7405113e-006
-1.6718168e-007
5.8076359e-006
-1.3451806e-007
5.8629564e-006
-1.1092482e-007
5.9111451e-006
-9.669287e-008
5.9568607e-006
-9.1737101e-008
6.0049947e-006
-9.6660486e-008
6.0616403e-006
-1.1378379e-007
6.1338829e-006
-1.4510859e-007
6.2313054e-006
-1.9578662e-007
6.3678689e-006
-2.7450913e-007
6.5630706e-006
-3.9240878e-007
6.8468545e-006
-5.7092111e-007
7.2683122e-006
-8.4817136e-007
7.9099404e-006
-1.291487e-006
8.9194644e-006
-2.0371708e-006
1.0496088e-005
-3.1722685e-006
1.2905059e-005
-4.8841323e-006
1.6343874e-005
-6.9178396e-006
2.0658688e-005
-8.7597215e-006
-9.8498304e-006
2.5592222e-005
5.1232802e-006
-3.6480294e-007
5.2795014e-006
-4.6429378e-007
5.4277545e-006
-4.4466965e-007
5.5549325e-006
-3.8070879e-007
5.6592725e-006
-3.138277e-007
5.7424099e-006
-2.5031909e-007
5.8090279e-006
-2.0113607e-007
5.863792e-006
-1.6568889e-007
5.9113814e-006
-1.4428223e-007
5.9564474e-006
-1.3680316e-007
6.0038378e-006
-1.440509e-007
6.0595301e-006
-1.6947601e-007
6.1304743e-006
-2.1605278e-007
6.2260826e-006
-2.9139497e-007
6.359946e-006
-4.0837256e-007
6.5509997e-006
-5.834624e-007
6.8283699e-006
-8.4829134e-007
7.2394313e-006
-1.2592328e-006
7.8636966e-006
-1.9157522e-006
8.8427158e-006
-3.01619e-006
1.036359e-005
-4.6931431e-006
1.2684246e-005
-7.2047873e-006
1.5980946e-005
-1.021454e-005
2.0146089e-005
-1.2924865e-005
-1.4629567e-005
2.4925826e-005
5.1247072e-006
-4.8822977e-007
5.2821773e-006
-6.2176389e-007
5.4313894e-006
-5.9388175e-007
5.558693e-006
-5.0801245e-007
5.6627214e-006
-4.1785612e-007
5.7452507e-006
-3.3284835e-007
5.8110961e-006
-2.6698145e-007
5.8650271e-006
-2.1961995e-007
5.9117241e-006
-1.9097917e-007
5.9558205e-006
-1.8089958e-007
6.0020938e-006
-1.9032417e-007
6.0563727e-006
-2.2375496e-007
6.1254032e-006
-2.8508326e-007
6.2183008e-006
-3.8429258e-007
6.3481632e-006
-5.3823489e-007
6.5331015e-006
-7.6840079e-007
6.8009558e-006
-1.1161456e-006
7.1967189e-006
-1.6549959e-006
7.7950374e-006
-2.5140708e-006
8.7279494e-006
-3.949102e-006
1.0168058e-005
-6.1332518e-006
1.235832e-005
-9.3950492e-006
1.544391e-005
-1.330013e-005
1.9372415e-005
-1.6853371e-005
-1.9151675e-005
2.3894524e-005
5.1266022e-006
-6.1355167e-007
5.2857199e-006
-7.8088155e-007
5.4362263e-006
-7.4438816e-007
5.563705e-006
-6.354911e-007
5.6673064e-006
-5.2145757e-007
5.7490053e-006
-4.1454721e-007
5.813808e-006
-3.3178417e-007
5.8666261e-006
-2.7243803e-007
5.9121405e-006
-2.3649364e-007
5.9549526e-006
-2.2371167e-007
5.9997444e-006
-2.3511596e-007
6.0521621e-006
-2.7617267e-007
6.1186898e-006
-3.5161091e-007
6.2080299e-006
-4.7363264e-007
6.3326617e-006
-6.6286672e-007
6.509626e-006
-9.4536505e-007
6.7650195e-006
-1.3715391e-006
7.1407745e-006
-2.0307509e-006
7.7047938e-006
-3.0780901e-006
8.578719e-006
-4.8230272e-006
9.9140667e-006
-7.4685995e-006
1.1931455e-005
-1.1412437e-005
1.4736529e-005
-1.6105204e-005
1.8344041e-005
-2.0460883e-005
-2.3311806e-005
2.2504172e-005
5.1290034e-006
-7.4127475e-007
5.29014e-006
-9.4201819e-007
5.4423092e-006
-8.9655734e-007
5.5700171e-006
-7.6319897e-007
5.673048e-006
-6.2448844e-007
5.7536797e-006
-4.9517894e-007
5.8171673e-006
-3.9527178e-007
5.8685916e-006
-3.2386233e-007
5.912633e-006
-2.80535e-007
5.9538493e-006
-2.6492804e-007
5.9968154e-006
-2.7808205e-007
6.0469399e-006
-3.2629708e-007
6.1103927e-006
-4.1506374e-007
6.1953584e-006
-5.5859833e-007
6.3135877e-006
-7.8109606e-007
6.4808379e-006
-1.1126152e-006
6.7210421e-006
-1.6117433e-006
7.0725009e-006
-2.3822097e-006
7.5951405e-006
-3.6007296e-006
8.397545e-006
-5.6254317e-006
9.604697e-006
-8.6757516e-006
1.1410494e-005
-1.3218234e-005
1.386999e-005
-1.85647e-005
1.7074762e-005
-2.3665655e-005
-2.7026069e-005
2.0789025e-005
5.1319684e-006
-8.7196287e-007
5.2955008e-006
-1.1055506e-006
5.4497352e-006
-1.0507917e-006
5.5777373e-006
-8.9120108e-007
5.6800183e-006
-7.2676939e-007
5.7593295e-006
-5.7449019e-007
5.821223e-006
-4.5716528e-007
5.8709666e-006
-3.7360591e-007
5.9132505e-006
-3.2281891e-007
5.9525672e-006
-3.042447e-007
5.9933753e-006
-3.1889016e-007
6.0407939e-006
-3.7371566e-007
6.1006157e-006
-4.748855e-007
6.1804504e-006
-6.3843311e-007
6.2911812e-006
-8.9182685e-007
6.4471296e-006
-1.2685635e-006
6.6697439e-006
-1.8343575e-006
6.992999e-006
-2.7054649e-006
7.4679922e-006
-4.0757229e-006
8.1874317e-006
-6.3448711e-006
9.2454017e-006
-9.7337216e-006
1.0804127e-005
-1.477696e-005
1.2849379e-005
-2.0609952e-005
1.5602651e-005
-2.6418926e-005
-3.0112622e-005
1.8689204e-005
5.1356323e-006
-1.0063149e-006
5.3019516e-006
-1.2718698e-006
5.458704e-006
-1.2075441e-006
5.5870575e-006
-1.0195546e-006
5.6883633e-006
-8.2807524e-007
5.7660873e-006
-6.5221421e-007
5.8260861e-006
-5.1716401e-007
5.8738531e-006
-4.2137298e-007
5.9141101e-006
-3.6307588e-007
5.9512427e-006
-3.4137727e-007
5.9895593e-006
-3.5720675e-007
6.0338711e-006
-4.1802749e-007
6.0895596e-006
-5.3057397e-007
6.1635944e-006
-7.1246796e-007
6.2658082e-006
-9.9404063e-007
6.4090569e-006
-1.4118122e-006
6.6120308e-006
-2.0373315e-006
6.903738e-006
-2.997172e-006
7.3262011e-006
-4.498186e-006
7.9529395e-006
-6.9716096e-006
8.8434134e-006
-1.0624196e-005
1.0123595e-005
-1.6057142e-005
1.1715268e-005
-2.2201625e-005
1.3976601e-005
-2.8680259e-005
-3.2224892e-005
1.6088871e-005
5.1402564e-006
-1.1452909e-006
5.3097186e-006
-1.441332e-006
5.4695202e-006
-1.3673457e-006
5.5982498e-006
-1.1482842e-006
5.698324e-006
-9.2814944e-007
5.7741661e-006
-7.2805628e-007
5.8319352e-006
-5.7493311e-007
5.8774269e-006
-4.6686477e-007
5.9153822e-006
-4.0103111e-007
5.950061e-006
-3.7605611e-007
5.9855858e-006
-3.927315e-007
6.0264324e-006
-4.5887409e-007
6.0775237e-006
-5.8166529e-007
6.1451635e-006
-7.8010772e-007
6.2379952e-006
-1.0868724e-006
6.3673207e-006
-1.5411377e-006
6.5489477e-006
-2.2189585e-006
6.8065111e-006
-3.2547354e-006
7.1720555e-006
-4.8637303e-006
7.6989823e-006
-7.4985365e-006
8.408115e-006
-1.1333328e-005
9.3867384e-006
-1.7035765e-005
1.0484072e-005
-2.3298959e-005
1.2200768e-005
-3.0396955e-005
-3.2973077e-005
1.2948954e-005
5.1452819e-006
-1.2892926e-006
5.3198673e-006
-1.6159174e-006
5.4824205e-006
-1.529899e-006
5.6117383e-006
-1.2776019e-006
5.710233e-006
-1.0266441e-006
5.783824e-006
-8.0164726e-007
5.8390062e-006
-6.3011534e-007
5.8819255e-006
-5.0978411e-007
5.9172836e-006
-4.3638914e-007
5.9492646e-006
-4.0803715e-007
5.9817313e-006
-4.2519815e-007
6.0187944e-006
-4.9593718e-007
6.0648717e-006
-6.2774258e-007
6.125579e-006
-8.4081506e-007
6.2083188e-006
-1.1696122e-006
6.3226021e-006
-1.6554209e-006
6.4813475e-006
-2.3777039e-006
6.7029535e-006
-3.4763414e-006
7.0083197e-006
-5.1690966e-006
7.4301792e-006
-7.9203959e-006
7.959415e-006
-1.1862564e-005
8.6035575e-006
-1.7679908e-005
9.1566948e-006
-2.3852096e-005
9.9977348e-006
-3.1237995e-005
8.7469129e-006
-3.1722255e-005
2.8444652e-005
-2.5731478e-006
2.9211046e-005
-7.6639406e-007
2.9197581e-005
1.3464678e-008
2.9041095e-005
1.5648595e-007
2.8926251e-005
1.1484394e-007
2.8875426e-005
5.082484e-008
2.8871452e-005
3.9740933e-009
2.8878432e-005
-6.9797553e-009
2.8882284e-005
-3.8522797e-009
2.888268e-005
-3.9566138e-010
2.8882201e-005
4.7856548e-010
2.8881955e-005
2.4654213e-010
2.888196e-005
-5.4123352e-012
2.8882003e-005
-4.2585252e-011
2.8882017e-005
-1.4208765e-011
2.8882016e-005
7.9358986e-013
2.8882014e-005
2.1447575e-012
2.8882013e-005
8.1306208e-013
2.8882013e-005
1.8285249e-013
2.8882013e-005
1.5655853e-013
2.8882013e-005
5.2239245e-014
2.8882013e-005
-8.2902139e-014
2.8882013e-005
-5.4735972e-013
2.8882018e-005
-4.815942e-012
-4.7674776e-012
2.7958506e-005
-4.9394314e-006
2.8717893e-005
-1.5257813e-006
2.8712212e-005
1.9145387e-008
2.8586325e-005
2.8237373e-007
2.8484835e-005
2.1633372e-007
2.8447805e-005
8.7854802e-008
2.8446466e-005
5.3129964e-009
2.845259e-005
-1.3103434e-008
2.8455358e-005
-6.6208951e-009
2.8455457e-005
-4.94222e-010
2.8455007e-005
9.283835e-010
2.8454831e-005
4.2224118e-010
2.8454852e-005
-2.5669413e-011
2.845489e-005
-8.0713982e-011
2.84549e-005
-2.4749937e-011
2.8454899e-005
2.1614927e-012
2.8454897e-005
3.9014793e-012
2.8454897e-005
1.3215224e-012
2.8454897e-005
1.8692419e-013
2.8454897e-005
2.2035349e-013
2.8454896e-005
2.6552725e-013
2.8454896e-005
-2.0540621e-013
2.8454897e-005
-1.2744813e-012
2.8454901e-005
-8.852618e-012
-8.963688e-012
2.7029122e-005
-7.0427274e-006
2.7701182e-005
-2.1978413e-006
2.7721364e-005
-1.0372183e-009
2.7622543e-005
3.8119486e-007
2.75589e-005
2.7997709e-007
2.7546088e-005
1.0066631e-007
2.7549231e-005
2.170176e-009
2.7553223e-005
-1.7094962e-008
2.7554283e-005
-7.6812598e-009
2.7553957e-005
-1.6783848e-010
2.7553608e-005
1.2768608e-009
2.7553544e-005
4.8659638e-010
2.7553584e-005
-6.5614595e-011
2.7553611e-005
-1.0778375e-010
2.7553615e-005
-2.9050269e-011
2.7553613e-005
4.0799797e-012
2.7553612e-005
5.0009021e-012
2.7553612e-005
1.3556281e-012
2.7553612e-005
1.663804e-014
2.7553612e-005
1.3201482e-013
2.7553612e-005
4.1904586e-013
2.7553612e-005
-4.3823526e-014
2.7553612e-005
-1.7574569e-012
2.7553615e-005
-1.173807e-011
-1.1866725e-011
2.5631421e-005
-8.7796243e-006
2.6146902e-005
-2.7133231e-006
2.6146613e-005
-7.4797579e-010
2.6098246e-005
4.2956203e-007
2.6088456e-005
2.8976737e-007
2.6098029e-005
9.1093227e-008
2.6103496e-005
-3.296669e-009
2.6104637e-005
-1.8236173e-008
2.6103979e-005
-7.0232037e-009
2.6103366e-005
4.4511598e-010
2.6103194e-005
1.4489361e-009
2.6103243e-005
4.3707257e-010
2.610329e-005
-1.1205341e-010
2.61033e-005
-1.1798567e-010
2.6103298e-005
-2.665373e-011
2.6103296e-005
5.9757325e-012
2.6103295e-005
5.1500178e-012
2.6103296e-005
1.0400754e-012
2.6103296e-005
-6.6120639e-014
2.6103296e-005
2.2755176e-014
2.6103296e-005
2.7210503e-013
2.6103296e-005
2.9749003e-013
2.6103296e-005
-1.6705064e-012
2.6103297e-005
-1.3065344e-011
-1.3213309e-011
2.3731677e-005
-1.0007129e-005
2.3966629e-005
-2.9482756e-006
2.3941526e-005
2.4354835e-008
2.3969459e-005
4.0162895e-007
2.4005851e-005
2.5337604e-007
2.402795e-005
6.8993876e-008
2.4032711e-005
-8.0578282e-009
2.4031027e-005
-1.6551694e-008
2.4029195e-005
-5.1910248e-009
2.4028602e-005
1.037237e-009
2.4028665e-005
1.3864808e-009
2.4028794e-005
3.0812035e-010
2.4028826e-005
-1.4440312e-010
2.4028818e-005
-1.0930854e-010
2.402881e-005
-1.9303867e-011
2.4028809e-005
7.1123238e-012
2.402881e-005
4.3834536e-012
2.402881e-005
5.7990076e-013
2.402881e-005
-5.6237016e-014
2.402881e-005
-8.8876032e-015
2.402881e-005
1.1119344e-013
2.402881e-005
4.8615959e-013
2.402881e-005
-1.2245447e-012
2.4028809e-005
-1.2661784e-011
-1.2979979e-011
2.1264334e-005
-1.0482438e-005
2.1115937e-005
-2.799878e-006
2.110437e-005
3.5921305e-008
2.1194357e-005
3.1164203e-007
2.1255943e-005
1.9178998e-007
2.1281318e-005
4.3618965e-008
2.1283375e-005
-1.0115164e-008
2.1279615e-005
-1.2790802e-008
2.1277424e-005
-3.0006479e-009
2.1277157e-005
1.3043841e-009
2.1277437e-005
1.1061672e-009
2.1277587e-005
1.5791887e-010
2.1277589e-005
-1.4629781e-010
2.1277565e-005
-8.5151363e-011
2.1277556e-005
-1.0320642e-011
2.1277556e-005
6.9160031e-012
2.1277558e-005
3.1427091e-012
2.1277558e-005
1.9334408e-013
2.1277558e-005
-9.2826068e-014
2.1277558e-005
-4.9387117e-014
2.1277558e-005
5.9956825e-014
2.1277558e-005
5.9291546e-013
2.1277557e-005
-6.1780163e-013
2.1277555e-005
-1.0728674e-011
-1.1287666e-011
1.8138566e-005
-9.9318e-006
1.7624698e-005
-2.2860097e-006
1.763444e-005
2.61793e-008
1.7746259e-005
1.9982349e-007
1.7813507e-005
1.2454127e-007
1.7835289e-005
2.1837776e-008
1.7834164e-005
-8.990596e-009
1.782956e-005
-8.1864113e-009
1.7827775e-005
-1.2164733e-009
1.7827947e-005
1.1331736e-009
1.7828344e-005
7.0849338e-010
1.782846e-005
4.1943664e-011
1.7828429e-005
-1.155376e-010
1.7828398e-005
-5.3717574e-011
1.7828391e-005
-3.0746368e-012
1.7828392e-005
5.3718511e-012
1.7828394e-005
1.829353e-012
1.7828394e-005
-1.0940643e-014
1.7828394e-005
-9.6102159e-014
1.7828394e-005
-9.9216986e-014
1.7828394e-005
4.9595948e-014
1.7828394e-005
6.0888464e-013
1.7828393e-005
-5.7812983e-014
1.782839e-005
-7.6342384e-012
-8.3752475e-012
1.4266026e-005
-8.108955e-006
1.3504841e-005
-1.5248242e-006
1.3519605e-005
1.1414978e-008
1.3619578e-005
9.9850765e-008
1.3679485e-005
6.4633643e-008
1.3693932e-005
7.3909062e-009
1.3690572e-005
-5.6308312e-009
1.3686385e-005
-3.9992595e-009
1.3685404e-005
-2.3526582e-010
1.3685872e-005
6.6471485e-010
1.3686253e-005
3.2831599e-010
1.3686308e-005
-1.3094602e-011
1.3686258e-005
-6.6068271e-011
1.3686229e-005
-2.4801946e-011
1.3686226e-005
5.7867383e-013
1.3686228e-005
3.0632493e-012
1.3686229e-005
7.8034511e-013
1.3686229e-005
-5.9132441e-014
1.3686229e-005
-5.2885638e-014
1.3686229e-005
-9.3853782e-014
1.3686229e-005
3.2597013e-014
1.3686229e-005
4.6892297e-013
1.3686229e-005
2.9997148e-013
1.3686225e-005
-4.0231003e-012
-4.7817218e-012
9.6265327e-006
-4.7865341e-006
8.7479848e-006
-6.4627631e-007
8.7497196e-006
9.6801545e-009
8.8216857e-006
2.7884613e-008
8.8653839e-006
2.0935413e-008
8.8721993e-006
5.7558657e-010
8.868407e-006
-1.8385849e-009
8.8655548e-006
-1.1469648e-009
8.8652812e-006
3.8283081e-011
8.8657565e-006
1.8945811e-010
8.8660086e-006
7.6164595e-011
8.8660112e-006
-1.5667036e-011
8.8659653e-006
-2.0191501e-011
8.8659464e-006
-5.8876998e-012
8.8659461e-006
9.2427927e-013
8.8659482e-006
9.4748253e-013
8.8659488e-006
1.7038747e-013
8.8659488e-006
-2.3943653e-014
8.8659487e-006
-9.8827366e-015
8.8659486e-006
-4.4873416e-014
8.8659486e-006
9.6281537e-015
8.8659489e-006
2.0864547e-013
8.8659489e-006
2.9629345e-013
8.8659459e-006
-1.0642861e-012
-1.5311249e-012
3.9603788e-006
3.3141025e-006
3.3237826e-006
3.3516672e-006
3.3726026e-006
3.3731782e-006
3.3713397e-006
3.3701927e-006
3.370231e-006
3.3704204e-006
3.3704966e-006
3.3704809e-006
3.3704607e-006
3.3704549e-006
3.3704558e-006
3.3704567e-006
3.3704569e-006
3.3704569e-006
3.3704569e-006
3.3704568e-006
3.3704568e-006
3.370457e-006
3.3704573e-006
3.3704562e-006
1.5457186e-005
-1.7426372e-006
1.6047153e-005
-2.2058845e-006
1.6541665e-005
-2.0244112e-006
1.6932342e-005
-1.6682788e-006
1.7216578e-005
-1.3108805e-006
1.742081e-005
-1.0058791e-006
1.7568593e-005
-7.7789869e-007
1.7680108e-005
-6.2129867e-007
1.7768828e-005
-5.2510877e-007
1.7847181e-005
-4.8639001e-007
1.792475e-005
-5.0276778e-007
1.8011135e-005
-5.8232191e-007
1.811738e-005
-7.3398766e-007
1.8254892e-005
-9.7832714e-007
1.8438253e-005
-1.3529731e-006
1.8687051e-005
-1.9042186e-006
1.9018502e-005
-2.709155e-006
1.9458491e-005
-3.9163309e-006
2.0016764e-005
-5.7273693e-006
2.0649767e-005
-8.553399e-006
2.1278004e-005
-1.2490801e-005
2.123596e-005
-1.7637863e-005
1.9726175e-005
-2.2342311e-005
1.4562194e-005
-2.6074014e-005
-1.7160061e-005
1.5560758e-005
-2.2995539e-006
1.6240469e-005
-2.8855958e-006
1.6777353e-005
-2.561295e-006
1.7161434e-005
-2.0523602e-006
1.7417275e-005
-1.5667218e-006
1.7584455e-005
-1.173059e-006
1.7695337e-005
-8.8878051e-007
1.7772282e-005
-6.9824363e-007
1.7828593e-005
-5.8141943e-007
1.7874053e-005
-5.3184995e-007
1.7915783e-005
-5.4449802e-007
1.7959051e-005
-6.2559047e-007
1.8009487e-005
-7.8442351e-007
1.8071579e-005
-1.0404184e-006
1.8148181e-005
-1.4295752e-006
1.8243229e-005
-1.9992667e-006
1.8350584e-005
-2.81651e-006
1.8454832e-005
-4.0205792e-006
1.8506949e-005
-5.7794861e-006
1.8369825e-005
-8.4162746e-006
1.7827563e-005
-1.194854e-005
1.627035e-005
-1.608065e-005
1.309313e-005
-1.9165092e-005
6.8414791e-006
-1.9822363e-005
-1.0318582e-005
1.5741797e-005
-3.0375104e-006
1.6545567e-005
-3.6893657e-006
1.7118358e-005
-3.134086e-006
1.7478919e-005
-2.4129208e-006
1.7685966e-005
-1.7737691e-006
1.7799852e-005
-1.2869453e-006
1.7861776e-005
-9.5070363e-007
1.7895655e-005
-7.3212273e-007
1.7913404e-005
-5.9916917e-007
1.7921437e-005
-5.3988281e-007
1.7923621e-005
-5.4668206e-007
1.7920762e-005
-6.2273142e-007
1.7912461e-005
-7.761224e-007
1.7896121e-005
-1.0240782e-006
1.7864424e-005
-1.3978778e-006
1.7807964e-005
-1.942807e-006
1.770414e-005
-2.7126857e-006
1.7506814e-005
-3.8232535e-006
1.7134281e-005
-5.4069535e-006
1.639572e-005
-7.6777138e-006
1.504233e-005
-1.0595149e-005
1.2622219e-005
-1.3660539e-005
8.8874156e-006
-1.5430288e-005
3.526023e-006
-1.4460971e-005
-6.792559e-006
1.6015791e-005
-4.0494607e-006
1.6934062e-005
-4.6076363e-006
1.7497491e-005
-3.6975154e-006
1.7792273e-005
-2.7077022e-006
1.7920183e-005
-1.9016796e-006
1.7960696e-005
-1.3274579e-006
1.7961251e-005
-9.5125908e-007
1.7944559e-005
-7.1543025e-007
1.7919787e-005
-5.7439702e-007
1.7888841e-005
-5.0893743e-007
1.7851116e-005
-5.0895698e-007
1.7802144e-005
-5.7375975e-007
1.773624e-005
-7.1021801e-007
1.764476e-005
-9.3259819e-007
1.7512918e-005
-1.2660356e-006
1.7318245e-005
-1.7481344e-006
1.7028693e-005
-2.4231338e-006
1.6578959e-005
-3.3735189e-006
1.5874068e-005
-4.7020624e-006
1.4728405e-005
-6.5320514e-006
1.2917307e-005
-8.7840505e-006
1.0181431e-005
-1.0924664e-005
6.5445368e-006
-1.1793394e-005
2.27185e-006
-1.0188284e-005
-4.5207089e-006
1.6333941e-005
-5.3795607e-006
1.7247913e-005
-5.5216084e-006
1.7687055e-005
-4.1366577e-006
1.7839835e-005
-2.8604817e-006
1.7847047e-005
-1.9088914e-006
1.7793191e-005
-1.2736021e-006
1.7722928e-005
-8.8099647e-007
1.7652336e-005
-6.448376e-007
1.7584881e-005
-5.0694217e-007
1.751682e-005
-4.408764e-007
1.7442141e-005
-4.3427877e-007
1.7352048e-005
-4.8366677e-007
1.7236828e-005
-5.9499731e-007
1.7081642e-005
-7.7741278e-007
1.6866419e-005
-1.0508124e-006
1.6560391e-005
-1.4421059e-006
1.6124254e-005
-1.9869968e-006
1.5489268e-005
-2.7385329e-006
1.4557079e-005
-3.7698734e-006
1.3166139e-005
-5.1411121e-006
1.114011e-005
-6.7580208e-006
8.3683862e-006
-8.1529402e-006
5.0203168e-006
-8.4453242e-006
1.6510946e-006
-6.8190618e-006
-2.8696143e-006
1.654371e-005
-6.9194298e-006
1.718331e-005
-6.1612085e-006
1.7307024e-005
-4.2603718e-006
1.7213909e-005
-2.7673665e-006
1.7055189e-005
-1.7501719e-006
1.6892641e-005
-1.1110535e-006
1.6749685e-005
-7.3804037e-007
1.662872e-005
-5.2387343e-007
1.6524205e-005
-4.0242658e-007
1.6426112e-005
-3.4278373e-007
1.6323693e-005
-3.3185968e-007
1.620505e-005
-3.6502371e-007
1.6055822e-005
-4.4576883e-007
1.5858136e-005
-5.7972732e-007
1.5587993e-005
-7.8066933e-007
1.5212902e-005
-1.0670148e-006
1.468894e-005
-1.4630348e-006
1.3952001e-005
-2.0015937e-006
1.2911197e-005
-2.7290701e-006
1.1439175e-005
-3.6690897e-006
9.4089652e-006
-4.7278109e-006
6.8098502e-006
-5.5538253e-006
3.8962357e-006
-5.5317096e-006
1.2434878e-006
-4.1663139e-006
-1.6261265e-006
1.6416045e-005
-8.3316341e-006
1.6364095e-005
-6.1092582e-006
1.5956879e-005
-3.8531556e-006
1.5526999e-005
-2.3374866e-006
1.5174311e-005
-1.3974837e-006
1.4906357e-005
-8.4309994e-007
1.4703974e-005
-5.3565684e-007
1.4547195e-005
-3.6709476e-007
1.4419738e-005
-2.7496969e-007
1.4305951e-005
-2.2899645e-007
1.4191557e-005
-2.1746623e-007
1.4062626e-005
-2.3609259e-007
1.3902508e-005
-2.8565026e-007
1.3693076e-005
-3.7029543e-007
1.3409719e-005
-4.9731254e-007
1.3020964e-005
-6.782598e-007
1.2484949e-005
-9.2702021e-007
1.174584e-005
-1.2624842e-006
1.0727059e-005
-1.7102895e-006
9.3340652e-006
-2.2760957e-006
7.4918379e-006
-2.8855836e-006
5.2475999e-006
-3.3095872e-006
2.8786646e-006
-3.1627743e-006
8.8898293e-007
-2.1766321e-006
-7.3714356e-007
1.5578168e-005
-8.9059606e-006
1.438916e-005
-4.9202509e-006
1.3349664e-005
-2.8136598e-006
1.2586959e-005
-1.5747811e-006
1.2077373e-005
-8.8789742e-007
1.1742608e-005
-5.083357e-007
1.1514958e-005
-3.0800688e-007
1.1350614e-005
-2.0274981e-007
1.122304e-005
-1.4739623e-007
1.1113703e-005
-1.1965948e-007
1.1007464e-005
-1.1122726e-007
1.089028e-005
-1.1890877e-007
1.0747041e-005
-1.4241088e-007
1.0560965e-005
-1.8421985e-007
1.0310842e-005
-2.4718872e-007
9.9695159e-006
-3.3693415e-007
9.5023308e-006
-4.5983509e-007
8.8651275e-006
-6.2528092e-007
7.9995692e-006
-8.4473115e-007
6.8392128e-006
-1.1157393e-006
5.3507391e-006
-1.3971099e-006
3.6077859e-006
-1.566634e-006
1.8746755e-006
-1.4296639e-006
5.490984e-007
-8.5105502e-007
-1.8804514e-007
1.3352134e-005
-7.2542536e-006
1.0932556e-005
-2.5006731e-006
9.3708307e-006
-1.2519345e-006
8.4402808e-006
-6.4423126e-007
7.8986628e-006
-3.4627936e-007
7.5792177e-006
-1.8889061e-007
7.3801335e-006
-1.0892268e-007
7.2458704e-006
-6.8486812e-008
7.1463286e-006
-4.7854347e-008
7.0642216e-006
-3.7552569e-008
6.9869824e-006
-3.3988028e-008
6.9036872e-006
-3.5613579e-008
6.803431e-006
-4.2154642e-008
6.6736633e-006
-5.4452196e-008
6.4994556e-006
-7.2981001e-008
6.2619265e-006
-9.9404995e-008
5.9374135e-006
-1.3532214e-007
5.4956817e-006
-1.8354909e-007
4.8978614e-006
-2.4691085e-007
4.104964e-006
-3.2284193e-007
3.1067683e-006
-3.9891418e-007
1.9725011e-006
-4.3236676e-007
9.1297815e-007
-3.7014088e-007
2.1775702e-007
-1.5583386e-007
2.9711898e-008
7.7495874e-006
5.2489143e-006
3.9969798e-006
3.3527486e-006
3.0064692e-006
2.8175786e-006
2.7086559e-006
2.6401691e-006
2.5923147e-006
2.5547621e-006
2.5207741e-006
2.4851605e-006
2.4430059e-006
2.3885537e-006
2.3155727e-006
2.2161677e-006
2.0808456e-006
1.8972965e-006
1.6503856e-006
1.3275437e-006
9.2862956e-007
4.9626281e-007
1.2612194e-007
-2.9711898e-008
)
;

boundaryField
{
    inlet
    {
        type            calculated;
        value           nonuniform List<scalar> 
20
(
-5.0012803e-006
-5.0012803e-006
-5.0012803e-006
-5.0012803e-006
-5.0012803e-006
-5.0012803e-006
-5.0012803e-006
-5.0012803e-006
-5.0012803e-006
-5.0012803e-006
-1.5003841e-005
-1.5003841e-005
-1.5003841e-005
-1.5003841e-005
-1.5003841e-005
-1.5003841e-005
-1.5003841e-005
-1.5003841e-005
-1.5003841e-005
-1.5003841e-005
)
;
    }
    walls
    {
        type            calculated;
        value           uniform 0;
    }
    outlet
    {
        type            calculated;
        value           nonuniform List<scalar> 10(2.8882023e-005 2.8454905e-005 2.7553618e-005 2.6103298e-005 2.4028809e-005 2.1277554e-005 1.7828387e-005 1.3686222e-005 8.8659427e-006 3.3704547e-006);
    }
    centreline
    {
        type            symmetryPlane;
        value           uniform 0;
    }
    frontAndBack
    {
        type            empty;
        value           nonuniform 0();
    }
}


// ************************************************************************* //
