/*--------------------------------*- C++ -*----------------------------------*\
| =========                 |                                                 |
| \\      /  F ield         | OpenFOAM: The Open Source CFD Toolbox           |
|  \\    /   O peration     | Version:  5.x                                   |
|   \\  /    A nd           | Web:      www.OpenFOAM.org                      |
|    \\/     M anipulation  |                                                 |
\*---------------------------------------------------------------------------*/
/*   Windows 32 and 64 bit porting by blueCAPE: http://www.bluecape.com.pt   *\
|  Based on Windows porting (2.0.x v4) by Symscape: http://www.symscape.com   |
\*---------------------------------------------------------------------------*/
FoamFile
{
    version     2.0;
    format      ascii;
    class       volSymmTensorField;
    location    "0.15";
    object      sigma;
}
// * * * * * * * * * * * * * * * * * * * * * * * * * * * * * * * * * * * * * //

dimensions      [0 2 -2 0 0 0 0];

internalField   nonuniform List<symmTensor> 
750
(
(-0.00029295254 1.98221e-005 0 0.0002872526 0 0)
(-0.00037887207 1.9126933e-006 0 0.00038214419 0 0)
(-0.00038032803 -4.2647551e-006 0 0.00037250124 0 0)
(-0.0003196672 -6.5259196e-006 0 0.00031866401 0 0)
(-0.00026467589 -6.2057043e-006 0 0.00026252725 0 0)
(-0.00021635356 -5.4864292e-006 0 0.00021521568 0 0)
(-0.00017691172 -4.2206158e-006 0 0.00017617608 0 0)
(-0.00014858638 -2.7878785e-006 0 0.00014799832 0 0)
(-0.00013302004 -1.3925671e-006 0 0.00013253475 0 0)
(-0.00012904285 3.259842e-007 0 0.00012866816 0 0)
(-0.00013848535 2.1181272e-006 0 0.00013795792 0 0)
(-0.00016286859 4.3093604e-006 0 0.00016207992 0 0)
(-0.0002119143 7.4864279e-006 0 0.00021082955 0 0)
(-0.00028278931 1.1519167e-005 0 0.00028056469 0 0)
(-0.00039371771 1.7339367e-005 0 0.00038931816 0 0)
(-0.00056648748 2.6604982e-005 0 0.00055831026 0 0)
(-0.00081493837 4.0066451e-005 0 0.00079659523 0 0)
(-0.0012057247 6.2033553e-005 0 0.0011672562 0 0)
(-0.0018266406 0.00010110203 0 0.0017441613 0 0)
(-0.002839244 0.00015909807 0 0.0026268965 0 0)
(-0.004544713 0.00026393797 0 0.0040916498 0 0)
(-0.0072629344 0.0004083033 0 0.0060227556 0 0)
(-0.011028 0.00056839472 0 0.0086412074 0 0)
(-0.01529855 0.00084051969 0 0.010629153 0 0)
(-0.01898846 0.00060163073 0 0.012436403 0 0)
(-0.00029438383 5.9662715e-005 0 0.00028684877 0 0)
(-0.00037932865 5.9266635e-006 0 0.00038579414 0 0)
(-0.00038132009 -1.3014912e-005 0 0.000371605 0 0)
(-0.00031984481 -1.9338525e-005 0 0.0003194794 0 0)
(-0.00026475214 -1.8584211e-005 0 0.00026237178 0 0)
(-0.00021568274 -1.6246865e-005 0 0.00021452925 0 0)
(-0.00017623014 -1.2468397e-005 0 0.00017543928 0 0)
(-0.00014788718 -8.1472655e-006 0 0.00014722541 0 0)
(-0.00013227495 -3.9522281e-006 0 0.00013170877 0 0)
(-0.00012817271 1.1730433e-006 0 0.00012775056 0 0)
(-0.00013739187 6.5249963e-006 0 0.00013677699 0 0)
(-0.00016153198 1.3119851e-005 0 0.00016063467 0 0)
(-0.00021025455 2.2614245e-005 0 0.00020905568 0 0)
(-0.00028013265 3.4566703e-005 0 0.0002777104 0 0)
(-0.0003898628 5.1984379e-005 0 0.00038515871 0 0)
(-0.00056106994 7.9492346e-005 0 0.00055247932 0 0)
(-0.00080566472 0.00011921996 0 0.00078651478 0 0)
(-0.0011914667 0.00018453969 0 0.0011518709 0 0)
(-0.0018043292 0.00029884799 0 0.0017205316 0 0)
(-0.0027959444 0.00046170839 0 0.0025791492 0 0)
(-0.0044833899 0.00079934759 0 0.0040302128 0 0)
(-0.0071116548 0.0011677159 0 0.0058581978 0 0)
(-0.010844176 0.0017071253 0 0.0085032522 0 0)
(-0.015029314 0.0025349181 0 0.010283441 0 0)
(-0.018538938 0.0018223469 0 0.012277481 0 0)
(-0.00029633322 9.9912392e-005 0 0.0002879181 0 0)
(-0.00038117442 9.7647128e-006 0 0.00038871397 0 0)
(-0.00038300164 -2.203366e-005 0 0.00037254029 0 0)
(-0.00032037861 -3.2138182e-005 0 0.00032016761 0 0)
(-0.00026437959 -3.1057322e-005 0 0.00026194502 0 0)
(-0.00021476252 -2.696137e-005 0 0.00021362735 0 0)
(-0.00017495736 -2.066773e-005 0 0.00017420981 0 0)
(-0.000146458 -1.3418386e-005 0 0.00014583679 0 0)
(-0.00013073924 -6.4399679e-006 0 0.00013021681 0 0)
(-0.00012641639 2.0750825e-006 0 0.00012605592 0 0)
(-0.00013531256 1.0944512e-005 0 0.00013475139 0 0)
(-0.00015889955 2.1917255e-005 0 0.00015807852 0 0)
(-0.00020677258 3.7621211e-005 0 0.00020569358 0 0)
(-0.00027502263 5.7289376e-005 0 0.00027273551 0 0)
(-0.00038238012 8.6192589e-005 0 0.00037786323 0 0)
(-0.00054995897 0.0001314228 0 0.00054171178 0 0)
(-0.00078787837 0.00019675203 0 0.00076921896 0 0)
(-0.001163449 0.00030438414 0 0.0011247883 0 0)
(-0.001758624 0.00049041992 0 0.0016762167 0 0)
(-0.0027119884 0.0007776368 0 0.0024966361 0 0)
(-0.0043494065 0.0012917783 0 0.0039042152 0 0)
(-0.0068638295 0.0019294329 0 0.0056231768 0 0)
(-0.010430841 0.0028035247 0 0.0081659867 0 0)
(-0.014678641 0.004240673 0 0.0097707616 0 0)
(-0.017474798 0.003010769 0 0.011822655 0 0)
(-0.00029911756 0.00014048452 0 0.00029048828 0 0)
(-0.00038421161 1.3392922e-005 0 0.00039160724 0 0)
(-0.00038550615 -3.1401164e-005 0 0.00037512566 0 0)
(-0.00032119904 -4.5315878e-005 0 0.00032083415 0 0)
(-0.00026367509 -4.3772012e-005 0 0.00026128957 0 0)
(-0.00021341211 -3.7817304e-005 0 0.00021224433 0 0)
(-0.00017311 -2.896084e-005 0 0.0001723754 0 0)
(-0.00014431224 -1.8749694e-005 0 0.00014370129 0 0)
(-0.0001284374 -9.0163219e-006 0 0.00012792888 0 0)
(-0.00012378738 2.9035178e-006 0 0.00012343987 0 0)
(-0.00013223605 1.5216849e-005 0 0.0001316914 0 0)
(-0.00015497357 3.0453958e-005 0 0.00015416871 0 0)
(-0.000201413 5.2216654e-005 0 0.00020035479 0 0)
(-0.00026756174 7.945342e-005 0 0.00026529371 0 0)
(-0.00037132399 0.00011954211 0 0.00036684146 0 0)
(-0.0005329697 0.00018196465 0 0.00052481024 0 0)
(-0.00076162716 0.00027219717 0 0.00074307089 0 0)
(-0.0011210457 0.0004213613 0 0.0010825622 0 0)
(-0.0016873206 0.00067808955 0 0.0016053827 0 0)
(-0.0026005275 0.0010596401 0 0.0023867102 0 0)
(-0.0041335311 0.0017829012 0 0.0036921834 0 0)
(-0.0065077379 0.002679414 0 0.0052775114 0 0)
(-0.0097839728 0.0039109506 0 0.007604261 0 0)
(-0.014268546 0.0055932249 0 0.0092053163 0 0)
(-0.016327467 0.0041182342 0 0.011223815 0 0)
(-0.00030292711 0.00018121175 0 0.00029394369 0 0)
(-0.00038825171 1.6809002e-005 0 0.00039546825 0 0)
(-0.00038880279 -4.0965167e-005 0 0.00037850373 0 0)
(-0.00032226338 -5.8867921e-005 0 0.00032169772 0 0)
(-0.00026265911 -5.6640699e-005 0 0.00026033712 0 0)
(-0.00021154162 -4.8690402e-005 0 0.00021033801 0 0)
(-0.00017065629 -3.7225069e-005 0 0.00016993173 0 0)
(-0.00014145183 -2.3982904e-005 0 0.00014085715 0 0)
(-0.0001253475 -1.1480649e-005 0 0.00012485667 0 0)
(-0.00012030805 3.7920313e-006 0 0.00011997821 0 0)
(-0.00012820919 1.9503044e-005 0 0.00012769851 0 0)
(-0.0001497995 3.8774975e-005 0 0.00014902574 0 0)
(-0.00019433394 6.6439786e-005 0 0.00019329226 0 0)
(-0.00025780668 0.00010100017 0 0.00025556843 0 0)
(-0.00035671898 0.0001517094 0 0.00035228357 0 0)
(-0.00051076858 0.00023041674 0 0.00050274304 0 0)
(-0.00072747577 0.00034380599 0 0.00070911683 0 0)
(-0.0010664823 0.0005296813 0 0.0010283547 0 0)
(-0.0015960173 0.00085116528 0 0.0015155077 0 0)
(-0.0024451826 0.0013382405 0 0.0022319071 0 0)
(-0.0038450459 0.0022444398 0 0.0034107227 0 0)
(-0.0060555505 0.0033470115 0 0.0048425782 0 0)
(-0.0089491986 0.0049337559 0 0.0068668487 0 0)
(-0.013405648 0.0071804481 0 0.0082963936 0 0)
(-0.015287395 0.005126095 0 0.010682428 0 0)
(-0.00030791056 0.00022217757 0 0.00029836239 0 0)
(-0.00039327861 2.002237e-005 0 0.00040037515 0 0)
(-0.00039297874 -5.1044327e-005 0 0.00038268435 0 0)
(-0.00032354732 -7.3016423e-005 0 0.00032276661 0 0)
(-0.0002612913 -6.9835834e-005 0 0.00025903665 0 0)
(-0.00020912378 -5.9703759e-005 0 0.00020788285 0 0)
(-0.00016755861 -4.5532036e-005 0 0.00016684685 0 0)
(-0.00013787659 -2.9205301e-005 0 0.00013730566 0 0)
(-0.00012146199 -1.3881263e-005 0 0.00012099219 0 0)
(-0.00011599482 4.5999902e-006 0 0.00011569328 0 0)
(-0.00012319625 2.3641113e-005 0 0.00012272158 0 0)
(-0.00014348442 4.6820805e-005 0 0.00014272844 0 0)
(-0.00018565791 8.015987e-005 0 0.00018464438 0 0)
(-0.0002457683 0.00012160629 0 0.00024360858 0 0)
(-0.00033918671 0.00018177404 0 0.00033478924 0 0)
(-0.00048386752 0.00027603319 0 0.00047594815 0 0)
(-0.00068624478 0.000410891 0 0.00066812951 0 0)
(-0.00099896828 0.00063164141 0 0.00096112051 0 0)
(-0.001482287 0.0010144445 0 0.0014027618 0 0)
(-0.002258556 0.0015859267 0 0.0020478666 0 0)
(-0.0035022227 0.0026458095 0 0.0030756336 0 0)
(-0.0054987348 0.003970589 0 0.0043069721 0 0)
(-0.0078773788 0.0059159005 0 0.0058938795 0 0)
(-0.012462625 0.0085122452 0 0.0072893864 0 0)
(-0.012923672 0.0058881958 0 0.0093708091 0 0)
(-0.00031413144 0.00026313205 0 0.00030406647 0 0)
(-0.00039928359 2.2857118e-005 0 0.00040603561 0 0)
(-0.00039807142 -6.1784093e-005 0 0.00038786683 0 0)
(-0.00032504259 -8.8006796e-005 0 0.00032400212 0 0)
(-0.00025958148 -8.3520751e-005 0 0.00025738118 0 0)
(-0.00020607606 -7.1015744e-005 0 0.00020479442 0 0)
(-0.00016375454 -5.4000199e-005 0 0.00016305202 0 0)
(-0.0001335618 -3.4476054e-005 0 0.0001330107 0 0)
(-0.00011687597 -1.643009e-005 0 0.00011643862 0 0)
(-0.0001108757 5.3269724e-006 0 0.0001105903 0 0)
(-0.00011724375 2.7493114e-005 0 0.00011678586 0 0)
(-0.00013610214 5.4382705e-005 0 0.00013536153 0 0)
(-0.00017549211 9.3032381e-005 0 0.00017453337 0 0)
(-0.00023161235 0.00014083294 0 0.00022949477 0 0)
(-0.00031841578 0.00021039166 0 0.00031401944 0 0)
(-0.00045266569 0.00031844632 0 0.00044477328 0 0)
(-0.00063831735 0.0004724212 0 0.00062042728 0 0)
(-0.00092283035 0.00072208414 0 0.00088563173 0 0)
(-0.0013550295 0.0011557765 0 0.0012768429 0 0)
(-0.002038113 0.0018049448 0 0.0018311819 0 0)
(-0.0030762083 0.003017579 0 0.0026600894 0 0)
(-0.0048736801 0.0044729179 0 0.0037031416 0 0)
(-0.0066065508 0.0067932218 0 0.0047378663 0 0)
(-0.011486476 0.009432172 0 0.0062641942 0 0)
(-0.0094751626 0.0071503896 0 0.0066895238 0 0)
(-0.00032190732 0.00030468101 0 0.00031147995 0 0)
(-0.00040604214 2.5010768e-005 0 0.00041226326 0 0)
(-0.00040401004 -7.3191477e-005 0 0.00039404719 0 0)
(-0.00032667977 -0.00010416007 0 0.00032532404 0 0)
(-0.00025752208 -9.8085712e-005 0 0.00025534275 0 0)
(-0.00020225884 -8.2854267e-005 0 0.00020092584 0 0)
(-0.00015925877 -6.2767029e-005 0 0.00015854092 0 0)
(-0.00012853266 -4.0053346e-005 0 0.00012799281 0 0)
(-0.00011148485 -1.9183627e-005 0 0.00011106052 0 0)
(-0.00010498819 5.7034976e-006 0 0.00010470534 0 0)
(-0.00011053959 3.1059707e-005 0 0.00011012246 0 0)
(-0.00012749348 6.1058838e-005 0 0.00012678445 0 0)
(-0.00016371781 0.00010465001 0 0.00016275327 0 0)
(-0.0002156978 0.00015887936 0 0.0002135742 0 0)
(-0.00029507208 0.00023608735 0 0.00029064071 0 0)
(-0.00041724194 0.0003568701 0 0.00040938116 0 0)
(-0.00058446046 0.00052836387 0 0.00056681019 0 0)
(-0.00083486635 0.00080402512 0 0.00079812866 0 0)
(-0.0012077376 0.0012818425 0 0.0011306319 0 0)
(-0.001791644 0.0019865834 0 0.0015893921 0 0)
(-0.0025940167 0.0033159244 0 0.0021930875 0 0)
(-0.0041117364 0.0048906539 0 0.002965808 0 0)
(-0.0050860507 0.0075517031 0 0.0033394845 0 0)
(-0.0096436329 0.010574226 0 0.0045589861 0 0)
(-0.0068917183 0.007990005 0 0.00452424 0 0)
(-0.00033177983 0.00034603047 0 0.00031979011 0 0)
(-0.00041361935 2.6444055e-005 0 0.00042101503 0 0)
(-0.00041118103 -8.6044975e-005 0 0.00040057509 0 0)
(-0.00032845496 -0.00012208569 0 0.00032677098 0 0)
(-0.00025507427 -0.00011408074 0 0.00025297089 0 0)
(-0.00019737658 -9.5279906e-005 0 0.00019601535 0 0)
(-0.00015401842 -7.2278241e-005 0 0.00015331304 0 0)
(-0.00012269831 -4.6105663e-005 0 0.00012218421 0 0)
(-0.00010542981 -2.2496267e-005 0 0.00010503576 0 0)
(-9.8295617e-005 5.2455728e-006 0 9.8072864e-005 0 0)
(-0.00010284242 3.3572227e-005 0 0.0001024802 0 0)
(-0.00011794375 6.6798024e-005 0 0.00011727441 0 0)
(-0.00015080361 0.00011514669 0 0.00014990178 0 0)
(-0.00019762558 0.00017468925 0 0.00019564515 0 0)
(-0.00026893005 0.00025901421 0 0.00026470293 0 0)
(-0.00037756775 0.00039139817 0 0.00037007437 0 0)
(-0.00052522592 0.00057673911 0 0.00050792746 0 0)
(-0.00074235455 0.00087109487 0 0.0007064368 0 0)
(-0.0010511724 0.0013848493 0 0.00097714953 0 0)
(-0.0015332944 0.0021091808 0 0.0013344079 0 0)
(-0.0020606603 0.0035532784 0 0.0016997048 0 0)
(-0.0033063391 0.0050854372 0 0.0021948111 0 0)
(-0.0032334032 0.0080601673 0 0.0017258402 0 0)
(-0.0071920057 0.011026673 0 0.0024711989 0 0)
(-0.00051982389 0.010779412 0 -0.0020674978 0 0)
(-0.000344355 0.00038750941 0 0.00032635818 0 0)
(-0.00042214998 2.7227095e-005 0 0.00043635999 0 0)
(-0.00041946313 -0.00010106194 0 0.00040545683 0 0)
(-0.00033038479 -0.00014250339 0 0.00032827938 0 0)
(-0.00025218568 -0.00013187991 0 0.00025049896 0 0)
(-0.00019089037 -0.0001089924 0 0.00018960604 0 0)
(-0.00014809041 -8.3089916e-005 0 0.00014760505 0 0)
(-0.0001160397 -5.3155139e-005 0 0.00011570334 0 0)
(-9.8649722e-005 -2.6806293e-005 0 9.8407552e-005 0 0)
(-9.0959729e-005 3.4867703e-006 0 9.1005714e-005 0 0)
(-9.4439298e-005 3.4901677e-005 0 9.4308255e-005 0 0)
(-0.00010741067 7.0971302e-005 0 0.00010698225 0 0)
(-0.00013654583 0.0001234652 0 0.00013596792 0 0)
(-0.00017808283 0.00018779374 0 0.00017646162 0 0)
(-0.000240228 0.0002782622 0 0.00023649831 0 0)
(-0.00033545169 0.00042069793 0 0.0003288159 0 0)
(-0.00046217134 0.00061598746 0 0.00044502662 0 0)
(-0.00063956796 0.00092602717 0 0.00060441797 0 0)
(-0.00088060259 0.0014688269 0 0.00081103752 0 0)
(-0.001264937 0.0021789769 0 0.001061652 0 0)
(-0.0015009477 0.0036779846 0 0.001182664 0 0)
(-0.0022596149 0.0051516821 0 0.0011966722 0 0)
(-0.0011013294 0.0078424809 0 -3.5184033e-005 0 0)
(-0.0030541095 0.0099800695 0 -0.00087960095 0 0)
(0.0035474243 0.011225706 0 -0.0076919232 0 0)
(-0.014565325 0.00055280422 0 0.009545207 0 0)
(-0.0079694184 0.00097531936 0 0.0057683965 0 0)
(-0.0028016594 0.0013299697 0 0.0020177369 0 0)
(-0.00069060929 0.0015556976 0 0.00047442051 0 0)
(-0.00026875977 0.001669428 0 0.00012449907 0 0)
(-0.00012322429 0.0017011439 0 1.7287712e-005 0 0)
(-0.00012221224 0.0017092576 0 1.2496905e-005 0 0)
(-0.00010917869 0.0017126422 0 1.2532394e-006 0 0)
(-0.00010463745 0.0017134956 0 -3.7731572e-006 0 0)
(-0.00010309448 0.0017132808 0 -4.9196334e-006 0 0)
(-0.00010620444 0.0017125085 0 -1.773751e-006 0 0)
(-0.0001076554 0.0017121851 0 -2.7029758e-007 0 0)
(-0.00010805174 0.001712107 0 1.2425852e-007 0 0)
(-0.00010801552 0.0017121107 0 9.0158729e-008 0 0)
(-0.00010793799 0.0017121194 0 1.2543121e-008 0 0)
(-0.00010792016 0.0017121226 0 -5.2852198e-009 0 0)
(-0.00010792389 0.0017121216 0 -1.5869137e-009 0 0)
(-0.00010792614 0.0017121218 0 5.7171939e-010 0 0)
(-0.00010792573 0.0017121215 0 2.2040092e-010 0 0)
(-0.00010792533 0.0017121217 0 -2.0099895e-010 0 0)
(-0.00010792543 0.0017121217 0 -9.2216659e-011 0 0)
(-0.00010792411 0.0017121219 0 -1.246952e-009 0 0)
(-0.00010792398 0.0017121219 0 -2.6434612e-009 0 0)
(-0.00010792951 0.0017121222 0 3.5252976e-009 0 0)
(-0.00010792501 0.0017121272 0 4.0966034e-009 0 0)
(-0.014060628 0.0017255938 0 0.0091822726 0 0)
(-0.0077117915 0.0029337301 0 0.0054914346 0 0)
(-0.0031542991 0.0040352761 0 0.0019629187 0 0)
(-0.0012729032 0.0048351673 0 0.00041893002 0 0)
(-0.0010628657 0.0050331836 0 0.00013306188 0 0)
(-0.00097522783 0.0051360493 0 2.9903718e-005 0 0)
(-0.00097354312 0.005170135 0 1.0510916e-005 0 0)
(-0.00096209772 0.0051810556 0 -9.9905531e-007 0 0)
(-0.00095835269 0.0051832601 0 -4.6029081e-006 0 0)
(-0.00095796167 0.0051817104 0 -3.733137e-006 0 0)
(-0.00095980103 0.0051800758 0 -1.2600826e-006 0 0)
(-0.00096080866 0.0051793734 0 -7.3335979e-008 0 0)
(-0.00096100366 0.0051792536 0 1.347021e-007 0 0)
(-0.00096093473 0.0051792813 0 6.6317423e-008 0 0)
(-0.00096088024 0.0051793051 0 9.3157722e-009 0 0)
(-0.00096086664 0.0051793108 0 -4.190592e-009 0 0)
(-0.0009608692 0.0051793093 0 -1.0978863e-009 0 0)
(-0.00096087079 0.0051793093 0 7.4748071e-010 0 0)
(-0.00096087036 0.0051793093 0 3.8310289e-010 0 0)
(-0.0009608709 0.005179312 0 1.2235096e-011 0 0)
(-0.00096087037 0.00517931 0 -5.2810276e-011 0 0)
(-0.0009608686 0.0051793079 0 -1.2386892e-009 0 0)
(-0.00096086943 0.0051793112 0 -2.2374847e-009 0 0)
(-0.00096087138 0.0051793124 0 4.8664367e-010 0 0)
(-0.00096086754 0.0051793224 0 1.0122308e-009 0 0)
(-0.01314812 0.0029769447 0 0.0086172735 0 0)
(-0.0070468833 0.005067553 0 0.0048720482 0 0)
(-0.0038457398 0.0071393494 0 0.0016938144 0 0)
(-0.0028006774 0.0080892459 0 0.00057417999 0 0)
(-0.0026087596 0.0085380293 0 0.00013898088 0 0)
(-0.0026087354 0.0087062032 0 2.3115629e-005 0 0)
(-0.0026269159 0.0087462041 0 3.6236841e-006 0 0)
(-0.0026227886 0.0087578621 0 -3.0540828e-006 0 0)
(-0.0026207538 0.0087600069 0 -4.5925626e-006 0 0)
(-0.0026198639 0.0087573245 0 -2.7454711e-006 0 0)
(-0.0026204745 0.0087548543 0 -7.2556102e-007 0 0)
(-0.0026208551 0.008754003 0 3.1512467e-008 0 0)
(-0.0026208915 0.0087538862 0 1.0555677e-007 0 0)
(-0.0026208376 0.0087539283 0 4.639237e-008 0 0)
(-0.002620801 0.0087539639 0 2.4191476e-009 0 0)
(-0.0026207967 0.0087539705 0 -3.0065138e-009 0 0)
(-0.0026207985 0.0087539703 0 -6.0844592e-010 0 0)
(-0.0026207985 0.0087539675 0 5.9156019e-010 0 0)
(-0.0026208007 0.0087539715 0 5.6866626e-010 0 0)
(-0.0026207994 0.008753969 0 1.0702272e-010 0 0)
(-0.0026207999 0.0087539719 0 -2.2675551e-010 0 0)
(-0.002620799 0.0087539716 0 -4.0443785e-010 0 0)
(-0.0026207964 0.0087539654 0 -1.7448188e-009 0 0)
(-0.0026207944 0.0087539696 0 -3.2938708e-009 0 0)
(-0.0026207932 0.0087539812 0 -2.3229472e-009 0 0)
(-0.011790642 0.0041797489 0 0.0076761419 0 0)
(-0.006293493 0.0081768473 0 0.0035315634 0 0)
(-0.0051216406 0.010158557 0 0.0016251753 0 0)
(-0.0046810369 0.011714637 0 0.00044471623 0 0)
(-0.0049087883 0.012273967 0 8.3967419e-005 0 0)
(-0.0049979577 0.01240963 0 1.5637339e-005 0 0)
(-0.0050254331 0.012440018 0 -2.8388572e-006 0 0)
(-0.0050263766 0.012446778 0 -4.7332608e-006 0 0)
(-0.005025789 0.012446686 0 -3.7126179e-006 0 0)
(-0.0050239562 0.012443027 0 -1.2963854e-006 0 0)
(-0.0050232966 0.012440618 0 -1.2149169e-007 0 0)
(-0.0050230794 0.012439931 0 1.0972465e-007 0 0)
(-0.0050230002 0.012439875 0 5.8264317e-008 0 0)
(-0.0050229728 0.012439925 0 1.5651844e-008 0 0)
(-0.0050229688 0.01243996 0 -1.2709154e-009 0 0)
(-0.0050229703 0.012439966 0 -1.2611593e-009 0 0)
(-0.0050229714 0.012439966 0 9.815768e-011 0 0)
(-0.0050229733 0.012439968 0 4.345241e-010 0 0)
(-0.005022972 0.012439966 0 2.6669198e-010 0 0)
(-0.0050229714 0.012439966 0 2.9755068e-010 0 0)
(-0.0050229703 0.012439965 0 6.9162989e-011 0 0)
(-0.0050229705 0.012439965 0 -7.5863917e-011 0 0)
(-0.0050229689 0.012439966 0 -1.7926482e-009 0 0)
(-0.0050229642 0.012439967 0 -5.9566326e-009 0 0)
(-0.005022962 0.012439971 0 -5.1005016e-009 0 0)
(-0.0094961065 0.0059688581 0 0.0059171931 0 0)
(-0.0066295054 0.010863406 0 0.0026504172 0 0)
(-0.0067868419 0.013694166 0 0.0010995751 0 0)
(-0.0074664806 0.015523661 0 0.00032073711 0 0)
(-0.0079814633 0.016057419 0 7.2177881e-005 0 0)
(-0.0080842106 0.016172766 0 9.2216662e-006 0 0)
(-0.0081066263 0.016186433 0 -6.7993858e-006 0 0)
(-0.0081074719 0.016185006 0 -4.548887e-006 0 0)
(-0.0081062878 0.016181506 0 -1.6682935e-006 0 0)
(-0.0081031658 0.016177723 0 1.0667902e-007 0 0)
(-0.0081016852 0.016176109 0 2.9509422e-007 0 0)
(-0.0081010856 0.016175752 0 9.836618e-008 0 0)
(-0.0081009715 0.016175755 0 -4.2833763e-009 0 0)
(-0.0081009845 0.016175795 0 -1.1874233e-008 0 0)
(-0.0081010101 0.01617582 0 -2.0223031e-009 0 0)
(-0.0081010154 0.016175825 0 6.6110568e-010 0 0)
(-0.0081010149 0.016175825 0 3.4369746e-010 0 0)
(-0.0081010141 0.016175825 0 1.0428477e-010 0 0)
(-0.0081010141 0.016175825 0 8.7886763e-011 0 0)
(-0.008101015 0.016175827 0 1.7870786e-010 0 0)
(-0.0081010147 0.016175825 0 1.8075387e-010 0 0)
(-0.0081010148 0.016175824 0 5.7361323e-010 0 0)
(-0.0081010124 0.016175824 0 -3.179188e-010 0 0)
(-0.0081010034 0.016175823 0 -6.828085e-009 0 0)
(-0.0081010004 0.016175819 0 -5.7622495e-009 0 0)
(-0.0073566671 0.008804344 0 0.0035576837 0 0)
(-0.0069711225 0.014361704 0 0.001226571 0 0)
(-0.0094465631 0.017727475 0 0.0004283957 0 0)
(-0.011143036 0.019405406 0 0.00019872076 0 0)
(-0.011731829 0.01981322 0 6.2085872e-005 0 0)
(-0.011797397 0.019889296 0 6.8042517e-006 0 0)
(-0.011802279 0.019883872 0 -5.3452754e-006 0 0)
(-0.011798804 0.019876769 0 -2.0685752e-006 0 0)
(-0.011795394 0.019871028 0 8.5561803e-007 0 0)
(-0.011791692 0.019868645 0 1.151962e-006 0 0)
(-0.011789998 0.019868115 0 4.5726286e-007 0 0)
(-0.011789299 0.019868078 0 1.5531864e-008 0 0)
(-0.011789221 0.019868094 0 -6.2632471e-008 0 0)
(-0.011789275 0.019868108 0 -2.7127718e-008 0 0)
(-0.011789318 0.01986812 0 -3.2317811e-010 0 0)
(-0.011789325 0.019868126 0 2.1203147e-009 0 0)
(-0.011789323 0.019868127 0 1.923537e-010 0 0)
(-0.011789322 0.019868127 0 -3.1752503e-010 0 0)
(-0.011789322 0.019868127 0 -6.2355026e-011 0 0)
(-0.011789323 0.019868127 0 1.1856013e-010 0 0)
(-0.011789323 0.019868127 0 2.3829141e-010 0 0)
(-0.011789323 0.019868126 0 1.2376353e-009 0 0)
(-0.01178932 0.019868125 0 8.0221787e-010 0 0)
(-0.011789313 0.019868123 0 -4.0060754e-009 0 0)
(-0.011789306 0.019868109 0 -3.4504469e-009 0 0)
(-0.0062537134 0.011340214 0 0.0013199416 0 0)
(-0.0088588415 0.018928012 0 -0.00037967715 0 0)
(-0.013795421 0.021971818 0 -2.1340128e-005 0 0)
(-0.015587475 0.023198145 0 0.00010648828 0 0)
(-0.016059155 0.023429704 0 5.4980568e-005 0 0)
(-0.016059586 0.023465006 0 1.019672e-005 0 0)
(-0.016048255 0.023449952 0 -1.9319053e-007 0 0)
(-0.016041202 0.023442356 0 1.7112183e-006 0 0)
(-0.016037188 0.023438225 0 2.6399164e-006 0 0)
(-0.016034262 0.023438078 0 1.5565001e-006 0 0)
(-0.016032843 0.02343845 0 3.7696306e-007 0 0)
(-0.016032247 0.023438572 0 -8.8351792e-008 0 0)
(-0.016032228 0.023438547 0 -9.3946522e-008 0 0)
(-0.016032299 0.023438532 0 -3.0571392e-008 0 0)
(-0.016032348 0.023438534 0 1.9914376e-009 0 0)
(-0.016032354 0.02343854 0 2.6226451e-009 0 0)
(-0.016032351 0.023438541 0 -1.4124398e-010 0 0)
(-0.01603235 0.023438541 0 -6.5851253e-010 0 0)
(-0.016032351 0.023438541 0 -1.2293429e-010 0 0)
(-0.01603235 0.023438541 0 1.0547726e-010 0 0)
(-0.01603235 0.023438541 0 1.8707023e-010 0 0)
(-0.016032352 0.02343854 0 1.4151089e-009 0 0)
(-0.01603235 0.023438539 0 2.0473211e-009 0 0)
(-0.016032347 0.023438534 0 9.9153992e-010 0 0)
(-0.016032338 0.02343852 0 2.3904213e-010 0 0)
(-0.0061130466 0.015913554 0 -0.0019018719 0 0)
(-0.013108168 0.024109443 0 -0.0017961549 0 0)
(-0.019419975 0.026125531 0 -0.00024073154 0 0)
(-0.020574578 0.026781423 0 5.1210857e-005 0 0)
(-0.020901285 0.026873538 0 5.4464302e-005 0 0)
(-0.020850133 0.026889105 0 1.5764738e-005 0 0)
(-0.020839409 0.026879602 0 4.7544515e-006 0 0)
(-0.020833593 0.026876973 0 3.6528821e-006 0 0)
(-0.020834068 0.026876987 0 3.2027464e-006 0 0)
(-0.02083294 0.026878807 0 1.4495808e-006 0 0)
(-0.02083195 0.026879662 0 1.8877993e-007 0 0)
(-0.020831494 0.026879759 0 -1.4396135e-007 0 0)
(-0.02083148 0.026879667 0 -9.614071e-008 0 0)
(-0.020831553 0.026879629 0 -2.0342323e-008 0 0)
(-0.020831592 0.026879629 0 3.8216255e-009 0 0)
(-0.020831595 0.026879634 0 2.337305e-009 0 0)
(-0.020831592 0.026879635 0 -4.7703008e-010 0 0)
(-0.020831591 0.026879635 0 -7.5120973e-010 0 0)
(-0.020831591 0.026879635 0 -1.2697856e-010 0 0)
(-0.020831592 0.026879635 0 3.8870431e-011 0 0)
(-0.020831592 0.026879635 0 1.774223e-010 0 0)
(-0.020831593 0.026879634 0 1.2416574e-009 0 0)
(-0.020831594 0.026879633 0 3.4825124e-009 0 0)
(-0.020831595 0.026879628 0 5.6508432e-009 0 0)
(-0.020831591 0.02687962 0 3.4774022e-009 0 0)
(-0.010995437 0.024619873 0 -0.0053957125 0 0)
(-0.02060108 0.029874561 0 -0.0028249719 0 0)
(-0.025897688 0.030098936 0 -0.00027440623 0 0)
(-0.026060616 0.030195209 0 3.5165011e-006 0 0)
(-0.02625627 0.030213309 0 6.1041446e-005 0 0)
(-0.026211366 0.030240035 0 1.8050951e-005 0 0)
(-0.026224886 0.030243931 0 8.808587e-006 0 0)
(-0.026228916 0.030250205 0 3.6583719e-006 0 0)
(-0.026235271 0.030254175 0 2.5001104e-006 0 0)
(-0.026235689 0.030256941 0 7.4971371e-007 0 0)
(-0.02623528 0.030257625 0 -1.6105464e-008 0 0)
(-0.026234857 0.030257538 0 -1.5867224e-007 0 0)
(-0.026234816 0.030257376 0 -6.9241177e-008 0 0)
(-0.026234857 0.03025733 0 -9.9270991e-009 0 0)
(-0.026234884 0.030257331 0 4.1146226e-009 0 0)
(-0.026234886 0.030257337 0 1.4262106e-009 0 0)
(-0.026234883 0.030257337 0 -5.6316014e-010 0 0)
(-0.026234882 0.030257337 0 -5.7132414e-010 0 0)
(-0.026234881 0.030257336 0 -1.0622082e-010 0 0)
(-0.026234881 0.030257336 0 -4.1773349e-011 0 0)
(-0.026234882 0.030257336 0 1.2160717e-010 0 0)
(-0.026234883 0.030257335 0 9.3848053e-010 0 0)
(-0.026234887 0.030257335 0 4.2973968e-009 0 0)
(-0.026234894 0.030257334 0 7.5561408e-009 0 0)
(-0.026234908 0.030257342 0 4.3859801e-009 0 0)
(-0.033007748 0.041424022 0 -0.0098797635 0 0)
(-0.030683486 0.034685678 0 -0.0018654227 0 0)
(-0.036730126 0.035709893 0 -0.00016397027 0 0)
(-0.03505274 0.034965156 0 1.3041171e-005 0 0)
(-0.03582284 0.035284866 0 3.8703253e-005 0 0)
(-0.035712507 0.035273491 0 1.0181325e-005 0 0)
(-0.035815605 0.035316364 0 3.9811045e-006 0 0)
(-0.03581495 0.035317979 0 1.159121e-006 0 0)
(-0.035830919 0.035325682 0 8.3745164e-007 0 0)
(-0.035830586 0.035327089 0 1.3744248e-007 0 0)
(-0.035830815 0.03532751 0 -6.7483806e-008 0 0)
(-0.035830069 0.035327117 0 -7.6630777e-008 0 0)
(-0.035829974 0.035326957 0 -2.5495693e-008 0 0)
(-0.03582995 0.03532691 0 -1.9166443e-009 0 0)
(-0.035829975 0.03532692 0 2.2615516e-009 0 0)
(-0.035829976 0.035326924 0 4.9700059e-010 0 0)
(-0.035829974 0.035326924 0 -2.748259e-010 0 0)
(-0.035829972 0.035326923 0 -2.0290806e-010 0 0)
(-0.035829971 0.035326923 0 1.8377999e-012 0 0)
(-0.035829971 0.035326923 0 -6.7860994e-011 0 0)
(-0.035829972 0.035326922 0 -2.6560239e-011 0 0)
(-0.035829974 0.035326923 0 6.3186237e-010 0 0)
(-0.035829978 0.035326924 0 3.3678485e-009 0 0)
(-0.03582999 0.035326931 0 4.7182921e-009 0 0)
(-0.035830023 0.035326954 0 1.7476053e-009 0 0)
(-0.0003747708 0.00047493823 0 0.00034589539 0 0)
(-0.00044250766 2.3280778e-005 0 0.0004754261 0 0)
(-0.00043819021 -0.00014280704 0 0.00041935751 0 0)
(-0.00033374935 -0.00018995439 0 0.00032891928 0 0)
(-0.000243052 -0.00017383774 0 0.00024117832 0 0)
(-0.00017927951 -0.00014201489 0 0.00017660575 0 0)
(-0.00013418292 -0.00010860951 0 0.000132757 0 0)
(-0.00010147141 -7.1422165e-005 0 0.00010043786 0 0)
(-8.3728773e-005 -3.953647e-005 0 8.2887808e-005 0 0)
(-7.5093548e-005 -3.8232914e-006 0 7.4452445e-005 0 0)
(-7.6351209e-005 3.2834685e-005 0 7.5606723e-005 0 0)
(-8.5260293e-005 7.3603478e-005 0 8.4068447e-005 0 0)
(-0.00010647095 0.00013316583 0 0.00010545934 0 0)
(-0.00013673122 0.00020422003 0 0.00013426479 0 0)
(-0.00018192081 0.00030268736 0 0.00017628383 0 0)
(-0.0002490636 0.00046221097 0 0.00024154374 0 0)
(-0.0003303311 0.00067146262 0 0.00031226279 0 0)
(-0.00044237305 0.00098714502 0 0.00040522215 0 0)
(-0.00056009776 0.0015577051 0 0.00049899632 0 0)
(-0.00071001603 0.0022536214 0 0.00052848782 0 0)
(-0.0006770887 0.0036489299 0 0.00040872474 0 0)
(-0.00064920267 0.0049269777 0 -0.00022568706 0 0)
(0.001130475 0.0070020094 0 -0.0017921667 0 0)
(0.0017956061 0.0074751488 0 -0.00415415 0 0)
(0.009792668 0.0065670581 0 -0.012584491 0 0)
(-0.00044757664 0.00061946509 0 0.0004044777 0 0)
(-0.00050243397 -1.1731674e-006 0 0.00054615462 0 0)
(-0.0004765052 -0.00023281294 0 0.00045127068 0 0)
(-0.00033474938 -0.00027967595 0 0.00032618522 0 0)
(-0.00022225168 -0.00024991737 0 0.00022082813 0 0)
(-0.00015045697 -0.00020035569 0 0.00014784711 0 0)
(-0.0001045174 -0.00015341556 0 0.00010340775 0 0)
(-7.2400629e-005 -0.00010486712 0 7.2124722e-005 0 0)
(-5.4895799e-005 -6.2613054e-005 0 5.4543116e-005 0 0)
(-4.6132147e-005 -2.2143366e-005 0 4.5792286e-005 0 0)
(-4.3162727e-005 2.0127352e-005 0 4.3476002e-005 0 0)
(-4.5706152e-005 6.5867503e-005 0 4.5210965e-005 0 0)
(-5.3900184e-005 0.00013071806 0 5.3538569e-005 0 0)
(-6.6743945e-005 0.00021422234 0 6.6299423e-005 0 0)
(-8.3397437e-005 0.00031479925 0 7.8988972e-005 0 0)
(-0.0001061417 0.00048098228 0 0.00010034611 0 0)
(-0.00012274346 0.00070110617 0 0.00011087316 0 0)
(-0.00013993937 0.0010026738 0 0.00010683765 0 0)
(-9.0239032e-005 0.0015350207 0 3.821706e-005 0 0)
(-9.3506424e-007 0.0021591888 0 -0.00015035316 0 0)
(0.00043812132 0.0031592263 0 -0.0006837173 0 0)
(0.0010313483 0.003843675 0 -0.0017254819 0 0)
(0.0030281692 0.0043032846 0 -0.0037317746 0 0)
(0.0051412643 0.0018274959 0 -0.0072645462 0 0)
(0.0063625825 -0.0017896907 0 -0.0094041318 0 0)
(-0.00057980142 0.00077617707 0 0.00052493329 0 0)
(-0.0005975881 -5.7782617e-005 0 0.00064708041 0 0)
(-0.00052278839 -0.00035450831 0 0.00049040848 0 0)
(-0.000323877 -0.00038833877 0 0.00031184237 0 0)
(-0.0001855394 -0.00033051497 0 0.00018347748 0 0)
(-0.00010803788 -0.00025475958 0 0.00010493831 0 0)
(-6.4671598e-005 -0.00019169039 0 6.3178089e-005 0 0)
(-3.6091993e-005 -0.00013061694 0 3.5693439e-005 0 0)
(-2.1179167e-005 -8.003968e-005 0 2.0694884e-005 0 0)
(-1.2724311e-005 -3.7889752e-005 0 1.2553157e-005 0 0)
(-6.6049385e-006 1.0114279e-005 0 7.2144714e-006 0 0)
(-2.9391785e-006 5.9545802e-005 0 2.840436e-006 0 0)
(5.0196126e-007 0.00012471459 0 -1.8834599e-006 0 0)
(7.4833655e-006 0.00020801301 0 -7.5100068e-006 0 0)
(1.6981856e-005 0.00031185078 0 -1.9506452e-005 0 0)
(3.4079353e-005 0.00045861676 0 -4.0677446e-005 0 0)
(7.5818765e-005 0.00068379456 0 -8.5548514e-005 0 0)
(0.0001358679 0.00094897787 0 -0.0001650045 0 0)
(0.00029302912 0.0014070697 0 -0.00033952142 0 0)
(0.00054196231 0.0019171452 0 -0.00065997379 0 0)
(0.0011180794 0.0026277573 0 -0.0013084372 0 0)
(0.0019492022 0.0029771104 0 -0.0023664964 0 0)
(0.0034163909 0.0028137291 0 -0.0037870064 0 0)
(0.0046688316 0.00056946082 0 -0.0054188853 0 0)
(0.0036502074 -0.0034229001 0 -0.00400007 0 0)
(-0.00080841531 0.00097105888 0 0.00073269076 0 0)
(-0.00071508989 -0.00013804385 0 0.00077287905 0 0)
(-0.0005529921 -0.00047193195 0 0.00050902908 0 0)