/*--------------------------------*- C++ -*----------------------------------*\
| =========                 |                                                 |
| \\      /  F ield         | OpenFOAM: The Open Source CFD Toolbox           |
|  \\    /   O peration     | Version:  5.x                                   |
|   \\  /    A nd           | Web:      www.OpenFOAM.org                      |
|    \\/     M anipulation  |                                                 |
\*---------------------------------------------------------------------------*/
/*   Windows 32 and 64 bit porting by blueCAPE: http://www.bluecape.com.pt   *\
|  Based on Windows porting (2.0.x v4) by Symscape: http://www.symscape.com   |
\*---------------------------------------------------------------------------*/
FoamFile
{
    version     2.0;
    format      ascii;
    class       volSymmTensorField;
    location    "0.15";
    object      sigma_0;
}
// * * * * * * * * * * * * * * * * * * * * * * * * * * * * * * * * * * * * * //

dimensions      [0 2 -2 0 0 0 0];

internalField   nonuniform List<symmTensor> 
750
(
(-0.00029260492 1.9800974e-005 0 0.00028692684 0 0)
(-0.00037840816 1.9085979e-006 0 0.00038166427 0 0)
(-0.00037976097 -4.2595249e-006 0 0.00037196164 0 0)
(-0.00031917089 -6.5152896e-006 0 0.00031816679 0 0)
(-0.00026425796 -6.1945489e-006 0 0.00026211977 0 0)
(-0.00021602838 -5.4753902e-006 0 0.00021489246 0 0)
(-0.00017668604 -4.212001e-006 0 0.00017595352 0 0)
(-0.00014842457 -2.7809933e-006 0 0.00014783759 0 0)
(-0.00013290957 -1.3881e-006 0 0.00013242525 0 0)
(-0.00012896291 3.2879368e-007 0 0.00012858859 0 0)
(-0.00013843537 2.1207197e-006 0 0.00013790884 0 0)
(-0.0001628247 4.3100785e-006 0 0.00016203624 0 0)
(-0.00021187526 7.4855375e-006 0 0.00021079075 0 0)
(-0.00028275304 1.1517381e-005 0 0.00028052987 0 0)
(-0.00039364853 1.7334748e-005 0 0.00038925026 0 0)
(-0.00056638672 2.6597561e-005 0 0.00055821395 0 0)
(-0.00081477062 4.005314e-005 0 0.00079643633 0 0)
(-0.001205397 6.2008148e-005 0 0.001166953 0 0)
(-0.0018260034 0.0001010573 0 0.001743589 0 0)
(-0.0028379989 0.00015902099 0 0.0026258331 0 0)
(-0.004542982 0.00026385752 0 0.0040903396 0 0)
(-0.0072613582 0.00040821628 0 0.0060218297 0 0)
(-0.011028174 0.00056835811 0 0.0086417949 0 0)
(-0.015300989 0.00084063995 0 0.010630982 0 0)
(-0.018994496 0.00060179362 0 0.012439789 0 0)
(-0.00029403276 5.9597768e-005 0 0.00028652336 0 0)
(-0.00037886272 5.9142301e-006 0 0.00038530611 0 0)
(-0.0003807519 -1.2998859e-005 0 0.0003710679 0 0)
(-0.00031935014 -1.9307235e-005 0 0.00031898159 0 0)
(-0.00026433111 -1.8550312e-005 0 0.00026196341 0 0)
(-0.00021536111 -1.621374e-005 0 0.00021420844 0 0)
(-0.00017600473 -1.244262e-005 0 0.00017521712 0 0)
(-0.00014772649 -8.1267606e-006 0 0.00014706579 0 0)
(-0.00013216581 -3.9392577e-006 0 0.00013160071 0 0)
(-0.00012809324 1.1818222e-006 0 0.00012767142 0 0)
(-0.00013734285 6.5327784e-006 0 0.00013672892 0 0)
(-0.00016148848 1.3121814e-005 0 0.00016059134 0 0)
(-0.00021021618 2.261178e-005 0 0.00020901768 0 0)
(-0.0002800972 3.4561332e-005 0 0.00027767662 0 0)
(-0.00038979468 5.1970652e-005 0 0.00038509177 0 0)
(-0.0005609721 7.9470558e-005 0 0.00055238608 0 0)
(-0.00080549906 0.00011918015 0 0.0007863583 0 0)
(-0.0011911452 0.00018446484 0 0.0011515746 0 0)
(-0.0018037048 0.00029871515 0 0.0017199726 0 0)
(-0.0027947307 0.0004615022 0 0.0025781192 0 0)
(-0.0044817205 0.00079914607 0 0.004028963 0 0)
(-0.0071101184 0.0011675329 0 0.0058572841 0 0)
(-0.010844304 0.0017070345 0 0.0085037562 0 0)
(-0.015031522 0.0025350281 0 0.010285125 0 0)
(-0.018544497 0.0018226586 0 0.012280534 0 0)
(-0.00029597595 9.9802387e-005 0 0.000287589 0 0)
(-0.00038070479 9.7433102e-006 0 0.00038821951 0 0)
(-0.00038243102 -2.2007538e-005 0 0.00037200276 0 0)
(-0.00031988442 -3.2087828e-005 0 0.00031966943 0 0)
(-0.00026395973 -3.1001146e-005 0 0.00026153806 0 0)
(-0.0002144425 -2.6906111e-005 0 0.00021330814 0 0)
(-0.00017473376 -2.0625368e-005 0 0.00017398948 0 0)
(-0.0001462991 -1.3384838e-005 0 0.0001456789 0 0)
(-0.00013063194 -6.419042e-006 0 0.00013011053 0 0)
(-0.00012633838 2.0896094e-006 0 0.00012597812 0 0)
(-0.00013526507 1.0957019e-005 0 0.00013470479 0 0)
(-0.00015885732 2.1919781e-005 0 0.00015803648 0 0)
(-0.00020673464 3.7616623e-005 0 0.000205656 0 0)
(-0.00027498977 5.7280335e-005 0 0.00027270414 0 0)
(-0.00038231494 8.6169647e-005 0 0.00037779913 0 0)
(-0.00054986528 0.00013138636 0 0.00054162259 0 0)
(-0.00078771861 0.0001966866 0 0.00076906819 0 0)
(-0.0011631366 0.00030426212 0 0.0011245006 0 0)
(-0.0017580239 0.0004902073 0 0.0016756814 0 0)
(-0.0027108423 0.00077730027 0 0.002495666 0 0)
(-0.0043478703 0.0012913963 0 0.0039030767 0 0)
(-0.006862431 0.0019290249 0 0.0056223811 0 0)
(-0.010430857 0.0028033239 0 0.0081664239 0 0)
(-0.014680258 0.0042408636 0 0.0097721797 0 0)
(-0.01747913 0.0030111761 0 0.011825142 0 0)
(-0.00029875153 0.00014032772 0 0.00029015181 0 0)
(-0.00038373667 1.3360774e-005 0 0.00039110675 0 0)
(-0.00038493163 -3.1365415e-005 0 0.00037458488 0 0)
(-0.00032070475 -4.5246307e-005 0 0.00032033604 0 0)
(-0.00026325738 -4.3693345e-005 0 0.00026088441 0 0)
(-0.00021309383 -3.7739918e-005 0 0.00021192722 0 0)
(-0.00017288995 -2.8902513e-005 0 0.00017215861 0 0)
(-0.00014415596 -1.8703659e-005 0 0.00014354597 0 0)
(-0.00012833261 -8.987844e-006 0 0.00012782515 0 0)
(-0.00012371161 2.9232246e-006 0 0.00012336424 0 0)
(-0.00013219004 1.5233305e-005 0 0.00013164633 0 0)
(-0.00015493332 3.0456413e-005 0 0.00015412866 0 0)
(-0.00020137721 5.2209787e-005 0 0.00020031916 0 0)
(-0.00026753218 7.9440625e-005 0 0.00026526558 0 0)
(-0.00037126294 0.00011950972 0 0.00036678151 0 0)
(-0.00053288211 0.00018191338 0 0.00052472695 0 0)
(-0.00076147715 0.00027210579 0 0.00074292998 0 0)
(-0.0011207499 0.00042118861 0 0.0010822916 0 0)
(-0.0016867634 0.00067778431 0 0.0016048908 0 0)
(-0.00259948 0.0010591784 0 0.002385837 0 0)
(-0.0041322045 0.0017823556 0 0.0036912137 0 0)
(-0.0065065471 0.0026789838 0 0.0052768531 0 0)
(-0.0097839939 0.0039106508 0 0.007604689 0 0)
(-0.014269877 0.0055937852 0 0.0092063321 0 0)
(-0.016329304 0.0041183776 0 0.011225182 0 0)
(-0.00030255032 0.00018100776 0 0.00029359798 0 0)
(-0.00038777015 1.6765192e-005 0 0.0003949609 0 0)
(-0.00038822298 -4.0920613e-005 0 0.00037795795 0 0)
(-0.00032176856 -5.8778465e-005 0 0.00032119943 0 0)
(-0.00026224423 -5.6539098e-005 0 0.00025993473 0 0)
(-0.00021122565 -4.8590643e-005 0 0.00021002329 0 0)
(-0.00017044101 -3.7150576e-005 0 0.00016971966 0 0)
(-0.00014129888 -2.3924078e-005 0 0.0001407051 0 0)
(-0.00012524613 -1.1444516e-005 0 0.00012475635 0 0)
(-0.00012023534 3.8172807e-006 0 0.00011990564 0 0)
(-0.00012816504 1.9523177e-005 0 0.00012765535 0 0)
(-0.00014976133 3.8777698e-005 0 0.00014898762 0 0)
(-0.00019430204 6.6431563e-005 0 0.00019326023 0 0)
(-0.00025778069 0.00010098406 0 0.00025554414 0 0)
(-0.00035666318 0.00015166835 0 0.00035222888 0 0)
(-0.00051068867 0.00023035205 0 0.00050266719 0 0)
(-0.00072733917 0.00034369161 0 0.00070898939 0 0)
(-0.0010662068 0.00052946518 0 0.0010281036 0 0)
(-0.0015955002 0.0008508 0 0.0015150555 0 0)
(-0.0024442585 0.0013376751 0 0.0022311482 0 0)
(-0.0038438386 0.0022439375 0 0.0034098593 0 0)
(-0.0060546986 0.0033464534 0 0.0048421516 0 0)
(-0.0089493459 0.0049334987 0 0.0068673084 0 0)
(-0.01340719 0.0071799303 0 0.0082976278 0 0)
(-0.015288672 0.0051253219 0 0.010683782 0 0)
(-0.0003075213 0.00022192592 0 0.00029800591 0 0)
(-0.00039278893 1.9967103e-005 0 0.00039985972 0 0)
(-0.0003923914 -5.0989204e-005 0 0.00038213144 0 0)
(-0.00032305114 -7.2904523e-005 0 0.00032226738 0 0)
(-0.00026088021 -6.9709229e-005 0 0.00025863798 0 0)
(-0.00020881094 -5.9580185e-005 0 0.0002075714 0 0)
(-0.00016734902 -4.5439869e-005 0 0.00016664038 0 0)
(-0.00013772773 -2.9132265e-005 0 0.00013715766 0 0)
(-0.00012136502 -1.383644e-005 0 0.00012089624 0 0)
(-0.00011592581 4.6323347e-006 0 0.00011562441 0 0)
(-0.00012315414 2.3665685e-005 0 0.00012268023 0 0)
(-0.00014345071 4.6826926e-005 0 0.00014269474 0 0)
(-0.00018562898 8.0150335e-005 0 0.00018461554 0 0)
(-0.00024574582 0.00012158714 0 0.00024358778 0 0)
(-0.00033913948 0.00018172747 0 0.00033474305 0 0)
(-0.00048379413 0.00027596003 0 0.00047587897 0 0)
(-0.00068612351 0.00041075715 0 0.0006680178 0 0)
(-0.00099872143 0.00063138052 0 0.00096089695 0 0)
(-0.0014818304 0.0010140107 0 0.0014023711 0 0)
(-0.0022577529 0.0015852842 0 0.0020472235 0 0)
(-0.0035013139 0.0026451634 0 0.0030750411 0 0)
(-0.0054979896 0.0039702542 0 0.004306621 0 0)
(-0.0078778594 0.0059155986 0 0.0058945479 0 0)
(-0.012463279 0.0085125442 0 0.0072898426 0 0)
(-0.012923739 0.0058869027 0 0.0093714273 0 0)
(-0.0003137275 0.00026283202 0 0.00030369704 0 0)
(-0.00039878418 2.2792328e-005 0 0.00040551056 0 0)
(-0.00039747396 -6.171474e-005 0 0.00038730415 0 0)
(-0.00032454387 -8.7867783e-005 0 0.00032350098 0 0)
(-0.00025917633 -8.3366503e-005 0 0.00025698811 0 0)
(-0.00020576649 -7.0864788e-005 0 0.00020448675 0 0)
(-0.0001635512 -5.3887116e-005 0 0.00016285166 0 0)
(-0.00013341825 -3.4386377e-005 0 0.00013286799 0 0)
(-0.00011678346 -1.6372559e-005 0 0.00011634713 0 0)
(-0.00011081117 5.3679302e-006 0 0.00011052579 0 0)
(-0.00011720512 2.7526069e-005 0 0.00011674787 0 0)
(-0.00013607353 5.4394877e-005 0 0.00013533324 0 0)
(-0.00017546484 9.3023502e-005 0 0.00017450622 0 0)
(-0.00023159513 0.00014081647 0 0.00022947891 0 0)
(-0.00031837739 0.00021034268 0 0.0003139819 0 0)
(-0.00045260705 0.00031836141 0 0.00044471893 0 0)
(-0.00063821435 0.00047227182 0 0.00062033395 0 0)
(-0.00092260979 0.00072179408 0 0.00088543625 0 0)
(-0.0013546348 0.0011552956 0 0.0012765131 0 0)
(-0.0020374281 0.0018042649 0 0.0018306492 0 0)
(-0.0030754585 0.0030169829 0 0.0026596005 0 0)
(-0.004873334 0.0044725193 0 0.003703116 0 0)
(-0.006607029 0.0067932203 0 0.0047383942 0 0)
(-0.011487855 0.00943158 0 0.006265316 0 0)
(-0.0094743172 0.0071484221 0 0.0066898136 0 0)
(-0.0003214852 0.00030433409 0 0.00031109471 0 0)
(-0.00040553104 2.494066e-005 0 0.00041172552 0 0)
(-0.00040339936 -7.3102196e-005 0 0.00039347215 0 0)
(-0.00032617726 -0.00010398717 0 0.00032481966 0 0)
(-0.00025712672 -9.7898229e-005 0 0.0002549589 0 0)
(-0.00020195115 -8.2670007e-005 0 0.00020062107 0 0)
(-0.00015906255 -6.2628548e-005 0 0.00015834755 0 0)
(-0.00012839557 -3.9942464e-005 0 0.00012785661 0 0)
(-0.00011139774 -1.910986e-005 0 0.00011097432 0 0)
(-0.00010492925 5.7593676e-006 0 0.00010464638 0 0)
(-0.0001105044 3.1103575e-005 0 0.00011008809 0 0)
(-0.00012746861 6.1080323e-005 0 0.00012675968 0 0)
(-0.00016369683 0.00010464838 0 0.00016273179 0 0)
(-0.00021568662 0.00015886978 0 0.0002135644 0 0)
(-0.00029504311 0.00023604228 0 0.00029061262 0 0)
(-0.00041719506 0.00035678235 0 0.00040933769 0 0)
(-0.00058438154 0.0005282063 0 0.00056674063 0 0)
(-0.00083467882 0.00080371465 0 0.0007979655 0 0)
(-0.0012074032 0.001281328 0 0.001130361 0 0)
(-0.0017911139 0.0019858684 0 0.0015890053 0 0)
(-0.0025935077 0.0033152928 0 0.0021927971 0 0)
(-0.0041114412 0.0048904805 0 0.0029657548 0 0)
(-0.0050867313 0.0075518223 0 0.0033401393 0 0)
(-0.0096449585 0.010573781 0 0.0045599343 0 0)
(-0.0068904079 0.0079878103 0 0.0045241707 0 0)
(-0.00033133423 0.0003456353 0 0.00031938774 0 0)
(-0.00041309282 2.6375604e-005 0 0.00042045717 0 0)
(-0.00041055306 -8.5927686e-005 0 0.00039998581 0 0)
(-0.0003279477 -0.00012187073 0 0.00032626216 0 0)
(-0.00025469295 -0.00011385379 0 0.00025260185 0 0)
(-0.00019706906 -9.5053272e-005 0 0.00019571014 0 0)
(-0.00015383104 -7.2108898e-005 0 0.00015312884 0 0)
(-0.00012256877 -4.596765e-005 0 0.00012205531 0 0)
(-0.00010534943 -2.2402831e-005 0 0.00010495659 0 0)
(-9.8241982e-005 5.3213549e-006 0 9.8019109e-005 0 0)
(-0.00010281181 3.3632442e-005 0 0.00010244999 0 0)
(-0.00011792436 6.6835942e-005 0 0.0001172547 0 0)
(-0.00015078831 0.00011515835 0 0.00014988606 0 0)
(-0.00019761908 0.00017469035 0 0.00019564006 0 0)
(-0.00026891237 0.00025898006 0 0.00026468601 0 0)
(-0.00037753515 0.00039131472 0 0.00037004447 0 0)
(-0.00052516177 0.00057658913 0 0.0005078729 0 0)
(-0.00074222935 0.00087075722 0 0.00070633193 0 0)
(-0.0010509091 0.0013843085 0 0.00097694927 0 0)
(-0.0015328072 0.0021084753 0 0.0013340647 0 0)
(-0.0020602391 0.0035526955 0 0.0016994993 0 0)
(-0.0033062632 0.0050852759 0 0.002194935 0 0)
(-0.0032339285 0.0080605278 0 0.0017263841 0 0)
(-0.0071921274 0.011026446 0 0.0024716343 0 0)
(-0.00051800589 0.010776839 0 -0.0020677086 0 0)
(-0.00034387916 0.00038706439 0 0.00032594284 0 0)
(-0.00042160178 2.7170274e-005 0 0.00043576766 0 0)
(-0.00041881479 -0.00010090892 0 0.00040485589 0 0)
(-0.00032987225 -0.00014223885 0 0.00032776462 0 0)
(-0.00025178468 -0.00013159371 0 0.0002501121 0 0)
(-0.00019062576 -0.00010873311 0 0.00018934116 0 0)
(-0.0001479083 -8.2882045e-005 0 0.00014742653 0 0)
(-0.00011591825 -5.2984621e-005 0 0.00011558161 0 0)
(-9.8578638e-005 -2.6693599e-005 0 9.8337661e-005 0 0)
(-9.091138e-005 3.5912786e-006 0 9.0956531e-005 0 0)
(-9.4414775e-005 3.4984978e-005 0 9.4283585e-005 0 0)
(-0.00010739586 7.1028003e-005 0 0.00010696737 0 0)
(-0.000136534 0.00012349144 0 0.00013595559 0 0)
(-0.00017808362 0.00018781418 0 0.00017646353 0 0)
(-0.00024022054 0.00027824194 0 0.00023649057 0 0)
(-0.00033543123 0.0004206278 0 0.00032879733 0 0)
(-0.00046214032 0.00061584514 0 0.00044500561 0 0)
(-0.00063946898 0.00092568532 0 0.00060433635 0 0)
(-0.0008803938 0.0014682874 0 0.00081089175 0 0)
(-0.0012646286 0.0021782168 0 0.001061475 0 0)
(-0.0015006224 0.0036774325 0 0.0011825738 0 0)
(-0.0022597302 0.0051515712 0 0.0011969178 0 0)
(-0.0011020428 0.007842858 0 -3.4464888e-005 0 0)
(-0.0030545373 0.0099797148 0 -0.00087889745 0 0)
(0.0035496481 0.011222056 0 -0.0076920566 0 0)
(-0.014569969 0.00055317704 0 0.0095480749 0 0)
(-0.0079730493 0.00097604741 0 0.0057712255 0 0)
(-0.0028047161 0.0013309911 0 0.0020206482 0 0)
(-0.00069349215 0.0015574436 0 0.00047717959 0 0)
(-0.00027112537 0.0016716321 0 0.00012670368 0 0)
(-0.00012441368 0.0017037208 0 1.8233634e-005 0 0)
(-0.0001226341 0.0017120004 0 1.2643819e-005 0 0)
(-0.00010927234 0.0017154207 0 1.0720119e-006 0 0)
(-0.00010479383 0.0017162475 0 -3.8921552e-006 0 0)
(-0.00010332811 0.0017160146 0 -4.9587694e-006 0 0)
(-0.00010648385 0.0017152347 0 -1.7670102e-006 0 0)
(-0.00010793618 0.0017149116 0 -2.62235e-007 0 0)
(-0.00010832609 0.0017148347 0 1.2590723e-007 0 0)
(-0.00010828765 0.0017148388 0 8.9575085e-008 0 0)
(-0.00010821028 0.0017148475 0 1.2114379e-008 0 0)
(-0.00010819282 0.0017148506 0 -5.3470051e-009 0 0)
(-0.00010819666 0.0017148496 0 -1.5350202e-009 0 0)
(-0.00010819888 0.0017148498 0 6.0026087e-010 0 0)
(-0.00010819846 0.0017148495 0 2.2411618e-010 0 0)
(-0.00010819805 0.0017148497 0 -2.0022095e-010 0 0)
(-0.00010819816 0.0017148497 0 -9.0796443e-011 0 0)
(-0.00010819681 0.0017148499 0 -1.2614879e-009 0 0)
(-0.00010819668 0.0017148499 0 -2.6754582e-009 0 0)
(-0.00010820214 0.0017148502 0 3.4463081e-009 0 0)
(-0.00010819758 0.0017148552 0 4.0024418e-009 0 0)
(-0.014064786 0.0017265336 0 0.0091848551 0 0)
(-0.0077150154 0.0029356029 0 0.0054938708 0 0)
(-0.0031578571 0.0040386144 0 0.0019655988 0 0)
(-0.0012765849 0.0048402336 0 0.00042095019 0 0)
(-0.0010668226 0.005039097 0 0.00013497182 0 0)
(-0.00097820621 0.0051431831 0 3.0654047e-005 0 0)
(-0.00097583614 0.005177732 0 1.0549326e-005 0 0)
(-0.00096417877 0.0051886899 0 -1.1521008e-006 0 0)
(-0.00096045974 0.0051908388 0 -4.7084579e-006 0 0)
(-0.00096014344 0.0051892285 0 -3.7503608e-006 0 0)
(-0.00096200966 0.0051875829 0 -1.2519872e-006 0 0)
(-0.00096301641 0.0051868829 0 -6.7457748e-008 0 0)
(-0.00096320675 0.0051867655 0 1.3553563e-007 0 0)
(-0.00096313659 0.0051867939 0 6.5848218e-008 0 0)
(-0.00096308208 0.0051868177 0 8.8596486e-009 0 0)
(-0.00096306889 0.0051868232 0 -4.2230471e-009 0 0)
(-0.00096307151 0.0051868217 0 -1.0518436e-009 0 0)
(-0.00096307309 0.0051868217 0 7.651355e-010 0 0)
(-0.00096307265 0.0051868217 0 3.8447055e-010 0 0)
(-0.00096307318 0.0051868244 0 1.1648114e-011 0 0)
(-0.00096307266 0.0051868224 0 -5.0787764e-011 0 0)
(-0.00096307086 0.0051868203 0 -1.2501968e-009 0 0)
(-0.00096307169 0.0051868236 0 -2.2657556e-009 0 0)
(-0.00096307357 0.0051868248 0 4.0584887e-010 0 0)
(-0.00096306965 0.0051868347 0 9.2454196e-010 0 0)
(-0.013151515 0.0029779719 0 0.008619371 0 0)
(-0.0070489327 0.0050711735 0 0.0048730838 0 0)
(-0.003852183 0.0071426644 0 0.0016979201 0 0)
(-0.0028045053 0.0080972293 0 0.00057451784 0 0)
(-0.0026140547 0.0085473044 0 0.00013950645 0 0)
(-0.0026139801 0.0087164 0 2.3394245e-005 0 0)
(-0.0026318582 0.0087568514 0 3.5800411e-006 0 0)
(-0.0026276328 0.0087685542 0 -3.1678283e-006 0 0)
(-0.0026256144 0.008770623 0 -4.6545099e-006 0 0)
(-0.0026247525 0.008767866 0 -2.7482547e-006 0 0)
(-0.0026253759 0.0087653848 0 -7.1815909e-007 0 0)
(-0.0026257549 0.0087645373 0 3.4995231e-008 0 0)
(-0.0026257889 0.0087644236 0 1.0570594e-007 0 0)
(-0.0026257345 0.0087644664 0 4.5921518e-008 0 0)
(-0.0026256981 0.0087645019 0 2.1893802e-009 0 0)
(-0.002625694 0.0087645082 0 -3.007336e-009 0 0)
(-0.0026256958 0.008764508 0 -5.8052719e-010 0 0)
(-0.0026256958 0.0087645052 0 6.0177553e-010 0 0)
(-0.002625698 0.0087645092 0 5.6987524e-010 0 0)
(-0.0026256967 0.0087645067 0 1.0475011e-010 0 0)
(-0.0026256972 0.0087645097 0 -2.2777561e-010 0 0)
(-0.0026256963 0.0087645094 0 -4.0530419e-010 0 0)
(-0.0026256937 0.0087645031 0 -1.7662857e-009 0 0)
(-0.0026256917 0.0087645073 0 -3.3583879e-009 0 0)
(-0.0026256903 0.0087645188 0 -2.3821469e-009 0 0)
(-0.011792733 0.0041803089 0 0.00767757 0 0)
(-0.0062955707 0.0081818129 0 0.0035317235 0 0)
(-0.0051258431 0.010163779 0 0.0016263521 0 0)
(-0.0046870243 0.011722572 0 0.0004453559 0 0)
(-0.0049154421 0.012284055 0 8.4066903e-005 0 0)
(-0.005004666 0.012420679 0 1.554213e-005 0 0)
(-0.0050321525 0.012451407 0 -2.9463051e-006 0 0)
(-0.005033107 0.012458174 0 -4.7871965e-006 0 0)
(-0.0050325104 0.01245801 0 -3.7273951e-006 0 0)
(-0.0050306672 0.012454286 0 -1.2869021e-006 0 0)
(-0.0050300079 0.012451872 0 -1.1668806e-007 0 0)
(-0.0050297894 0.012451189 0 1.1041479e-007 0 0)
(-0.0050297101 0.012451136 0 5.7869402e-008 0 0)
(-0.005029683 0.012451186 0 1.5342967e-008 0 0)
(-0.005029679 0.012451221 0 -1.3207327e-009 0 0)
(-0.0050296806 0.012451227 0 -1.2456609e-009 0 0)
(-0.0050296816 0.012451226 0 1.0688331e-010 0 0)
(-0.0050296835 0.012451229 0 4.3513688e-010 0 0)
(-0.0050296823 0.012451227 0 2.6673454e-010 0 0)
(-0.0050296816 0.012451227 0 2.9714786e-010 0 0)
(-0.0050296805 0.012451225 0 6.7527583e-011 0 0)
(-0.0050296807 0.012451226 0 -7.3575515e-011 0 0)
(-0.0050296792 0.012451226 0 -1.7955847e-009 0 0)
(-0.0050296744 0.012451227 0 -5.999035e-009 0 0)
(-0.0050296721 0.012451231 0 -5.1273528e-009 0 0)
(-0.0094951673 0.0059710598 0 0.0059162217 0 0)
(-0.0066314016 0.010865924 0 0.0026508807 0 0)
(-0.0067901166 0.013700069 0 0.0010992226 0 0)
(-0.007471719 0.015531755 0 0.00032022251 0 0)
(-0.0079872743 0.016066683 0 7.1621455e-005 0 0)
(-0.0080903384 0.016182501 0 8.8677348e-006 0 0)
(-0.008112974 0.016196264 0 -6.9029699e-006 0 0)
(-0.0081138983 0.016194807 0 -4.5386097e-006 0 0)
(-0.0081126785 0.016191248 0 -1.6418804e-006 0 0)
(-0.0081095245 0.016187436 0 1.1877511e-007 0 0)
(-0.008108036 0.016185822 0 2.9587506e-007 0 0)
(-0.0081074363 0.016185467 0 9.6891606e-008 0 0)
(-0.0081073238 0.016185471 0 -4.8469141e-009 0 0)
(-0.0081073375 0.016185511 0 -1.1855594e-008 0 0)
(-0.0081073631 0.016185536 0 -1.9396914e-009 0 0)
(-0.0081073682 0.016185541 0 6.7477556e-010 0 0)
(-0.0081073677 0.016185542 0 3.3442416e-010 0 0)
(-0.0081073669 0.016185541 0 9.8159422e-011 0 0)
(-0.0081073669 0.016185542 0 8.8592378e-011 0 0)
(-0.0081073678 0.016185543 0 1.7902209e-010 0 0)
(-0.0081073675 0.016185542 0 1.791079e-010 0 0)
(-0.0081073676 0.016185541 0 5.8447113e-010 0 0)
(-0.0081073652 0.016185541 0 -3.0971015e-010 0 0)
(-0.0081073561 0.016185539 0 -6.8354578e-009 0 0)
(-0.0081073531 0.016185535 0 -5.7590464e-009 0 0)
(-0.0073544102 0.0088052332 0 0.0035560357 0 0)
(-0.0069703714 0.014364552 0 0.0012250307 0 0)
(-0.0094477774 0.017732124 0 0.00042705325 0 0)
(-0.011145378 0.01941158 0 0.0001975442 0 0)
(-0.011734495 0.01981977 0 6.1218521e-005 0 0)
(-0.011800492 0.01989582 0 6.4086246e-006 0 0)
(-0.011805688 0.019890302 0 -5.3844311e-006 0 0)
(-0.011802308 0.019883156 0 -1.9975302e-006 0 0)
(-0.011798849 0.0198774 0 8.9922312e-007 0 0)
(-0.011795107 0.019875016 0 1.1600683e-006 0 0)
(-0.011793401 0.019874488 0 4.5361894e-007 0 0)
(-0.011792704 0.01987445 0 1.2939541e-008 0 0)
(-0.011792628 0.019874466 0 -6.2970993e-008 0 0)
(-0.011792683 0.019874481 0 -2.6761492e-008 0 0)
(-0.011792726 0.019874493 0 -1.7638686e-010 0 0)
(-0.011792732 0.019874498 0 2.1167995e-009 0 0)
(-0.01179273 0.019874499 0 1.7000599e-010 0 0)
(-0.01179273 0.019874499 0 -3.2589288e-010 0 0)
(-0.01179273 0.019874499 0 -6.2216083e-011 0 0)
(-0.01179273 0.019874499 0 1.1916904e-010 0 0)
(-0.01179273 0.0198745 0 2.3904086e-010 0 0)
(-0.01179273 0.019874498 0 1.2506993e-009 0 0)
(-0.011792728 0.019874497 0 8.2253309e-010 0 0)
(-0.01179272 0.019874495 0 -3.972829e-009 0 0)
(-0.011792714 0.019874481 0 -3.4162065e-009 0 0)
(-0.0062505887 0.011339845 0 0.0013178051 0 0)
(-0.0088562077 0.018929892 0 -0.00038214094 0 0)
(-0.013793304 0.021974559 0 -2.3438671e-005 0 0)
(-0.015584831 0.023200937 0 0.00010488164 0 0)
(-0.016056713 0.023432105 0 5.4065681e-005 0 0)
(-0.016057583 0.023467022 0 9.9034044e-006 0 0)
(-0.016046578 0.023451795 0 -1.4768484e-007 0 0)
(-0.016039601 0.023444186 0 1.8166129e-006 0 0)
(-0.016035536 0.023440086 0 2.6826298e-006 0 0)
(-0.016032569 0.023439952 0 1.5579284e-006 0 0)
(-0.016031138 0.023440324 0 3.7025023e-007 0 0)
(-0.016030545 0.023440443 0 -9.0915699e-008 0 0)
(-0.01603053 0.023440417 0 -9.3800816e-008 0 0)
(-0.016030601 0.023440402 0 -3.0076615e-008 0 0)
(-0.01603065 0.023440405 0 2.1468829e-009 0 0)
(-0.016030655 0.02344041 0 2.5983264e-009 0 0)
(-0.016030652 0.023440411 0 -1.6813672e-010 0 0)
(-0.016030652 0.023440412 0 -6.6596737e-010 0 0)
(-0.016030652 0.023440411 0 -1.2220247e-010 0 0)
(-0.016030652 0.023440411 0 1.0573176e-010 0 0)
(-0.016030652 0.023440411 0 1.8944585e-010 0 0)
(-0.016030653 0.02344041 0 1.4255467e-009 0 0)
(-0.016030652 0.023440409 0 2.0782057e-009 0 0)
(-0.016030648 0.023440405 0 1.0656738e-009 0 0)
(-0.01603064 0.02344039 0 2.9938511e-010 0 0)
(-0.0061091047 0.015912232 0 -0.0019042568 0 0)
(-0.01310258 0.024109307 0 -0.0017989875 0 0)
(-0.019412569 0.026124793 0 -0.00024289433 0 0)
(-0.020565786 0.02677976 0 4.9661749e-005 0 0)
(-0.020892538 0.026870976 0 5.3730683e-005 0 0)
(-0.020841756 0.02688601 0 1.5627024e-005 0 0)
(-0.020831314 0.026876382 0 4.8663864e-006 0 0)
(-0.020825558 0.026873809 0 3.7533212e-006 0 0)
(-0.020825991 0.026873877 0 3.2351105e-006 0 0)
(-0.020824822 0.026875712 0 1.4457891e-006 0 0)
(-0.020823822 0.026876561 0 1.8205885e-007 0 0)
(-0.020823368 0.026876654 0 -1.4597226e-007 0 0)
(-0.020823358 0.026876561 0 -9.5627124e-008 0 0)
(-0.020823431 0.026876524 0 -1.9909855e-008 0 0)
(-0.020823469 0.026876524 0 3.9311795e-009 0 0)
(-0.020823472 0.026876529 0 2.3004697e-009 0 0)
(-0.020823469 0.02687653 0 -5.0079713e-010 0 0)
(-0.020823468 0.02687653 0 -7.5560737e-010 0 0)
(-0.020823468 0.026876529 0 -1.2638321e-010 0 0)
(-0.020823469 0.026876529 0 3.9226543e-011 0 0)
(-0.020823469 0.026876529 0 1.7881254e-010 0 0)
(-0.02082347 0.026876529 0 1.2465149e-009 0 0)
(-0.020823471 0.026876527 0 3.5214733e-009 0 0)
(-0.020823472 0.026876523 0 5.7473596e-009 0 0)
(-0.020823469 0.026876515 0 3.554328e-009 0 0)
(-0.010990064 0.024617308 0 -0.0053974844 0 0)
(-0.020590476 0.029871146 0 -0.0028273812 0 0)
(-0.02588385 0.030093878 0 -0.00027614596 0 0)
(-0.026044802 0.030188477 0 2.3348131e-006 0 0)
(-0.026240283 0.030205447 0 6.0605193e-005 0 0)
(-0.026195566 0.030231702 0 1.8049718e-005 0 0)
(-0.026209335 0.030235601 0 8.9240075e-006 0 0)
(-0.026213439 0.030242 0 3.7328106e-006 0 0)
(-0.026219762 0.030246032 0 2.5168976e-006 0 0)
(-0.026220144 0.030248804 0 7.4356973e-007 0 0)
(-0.026219724 0.030249477 0 -2.1283089e-008 0 0)
(-0.026219303 0.030249386 0 -1.5962047e-007 0 0)
(-0.026219265 0.030249224 0 -6.8684712e-008 0 0)
(-0.026219307 0.030249179 0 -9.6093803e-009 0 0)
(-0.026219333 0.03024918 0 4.1489377e-009 0 0)
(-0.026219335 0.030249186 0 1.3917833e-009 0 0)
(-0.026219332 0.030249186 0 -5.7882277e-010 0 0)
(-0.026219331 0.030249185 0 -5.7359683e-010 0 0)
(-0.02621933 0.030249185 0 -1.0579289e-010 0 0)
(-0.02621933 0.030249185 0 -4.124087e-011 0 0)
(-0.026219331 0.030249185 0 1.2114491e-010 0 0)
(-0.026219332 0.030249184 0 9.399846e-010 0 0)
(-0.026219336 0.030249184 0 4.3238997e-009 0 0)
(-0.026219344 0.030249183 0 7.6380126e-009 0 0)
(-0.026219357 0.030249191 0 4.4483799e-009 0 0)
(-0.032996776 0.041418679 0 -0.009880556 0 0)
(-0.030666343 0.034677758 0 -0.0018665445 0 0)
(-0.036709021 0.035699739 0 -0.00016471094 0 0)
(-0.035028318 0.034952566 0 1.2565244e-005 0 0)
(-0.035797453 0.035271197 0 3.8583563e-005 0 0)
(-0.035687171 0.035259618 0 1.0228238e-005 0 0)
(-0.035790604 0.035302696 0 4.0441726e-006 0 0)
(-0.035790095 0.03530448 0 1.1885617e-006 0 0)
(-0.035806078 0.035312241 0 8.4197584e-007 0 0)
(-0.035805714 0.035313642 0 1.339946e-007 0 0)
(-0.035805928 0.03531405 0 -6.9597166e-008 0 0)
(-0.035805183 0.035313654 0 -7.6848434e-008 0 0)
(-0.03580509 0.035313495 0 -2.5236422e-008 0 0)
(-0.035805068 0.035313449 0 -1.8078602e-009 0 0)
(-0.035805092 0.035313458 0 2.2595581e-009 0 0)
(-0.035805094 0.035313463 0 4.8055413e-010 0 0)
(-0.035805091 0.035313463 0 -2.8063427e-010 0 0)
(-0.035805089 0.035313461 0 -2.0384876e-010 0 0)
(-0.035805088 0.035313461 0 1.9930643e-012 0 0)
(-0.035805088 0.035313461 0 -6.7538451e-011 0 0)
(-0.035805089 0.035313461 0 -2.7326916e-011 0 0)
(-0.035805091 0.035313462 0 6.3128299e-010 0 0)
(-0.035805095 0.035313463 0 3.3808674e-009 0 0)
(-0.035805107 0.035313469 0 4.7568489e-009 0 0)
(-0.03580514 0.035313493 0 1.7780132e-009 0 0)
(-0.00037421352 0.00047439038 0 0.00034542225 0 0)
(-0.00044190574 2.3256635e-005 0 0.00047474338 0 0)
(-0.00043749375 -0.00014256517 0 0.0004187224 0 0)
(-0.00033322286 -0.0001895801 0 0.00032839128 0 0)
(-0.00024267844 -0.00017345358 0 0.00024082209 0 0)
(-0.00017904689 -0.00014167672 0 0.00017637498 0 0)
(-0.00013400939 -0.0001083171 0 0.00013258895 0 0)
(-0.00010137015 -7.1189758e-005 0 0.00010033646 0 0)
(-8.3671959e-005 -3.93637e-005 0 8.2832821e-005 0 0)
(-7.5059449e-005 -3.6765678e-006 0 7.4418265e-005 0 0)
(-7.6336341e-005 3.2957013e-005 0 7.5592031e-005 0 0)
(-8.5250764e-005 7.3689209e-005 0 8.4060041e-005 0 0)
(-0.0001064778 0.00013324066 0 0.00010546374 0 0)
(-0.00013674751 0.00020428079 0 0.0001342818 0 0)
(-0.00018193773 0.00030270969 0 0.00017630076 0 0)
(-0.00024907702 0.00046215168 0 0.00024155619 0 0)
(-0.00033034826 0.00067135238 0 0.00031229281 0 0)
(-0.0004423529 0.00098681829 0 0.00040522161 0 0)
(-0.00056010052 0.0015571515 0 0.00049905596 0 0)
(-0.00070997543 0.0022528961 0 0.00052856192 0 0)
(-0.00067713146 0.0036484364 0 0.00040894613 0 0)
(-0.00064958215 0.0049270346 0 -0.00022523598 0 0)
(0.0011296488 0.007002558 0 -0.0017913895 0 0)
(0.0017949912 0.0074749772 0 -0.0041532998 0 0)
(0.0097929255 0.0065638372 0 -0.012583449 0 0)
(-0.0004467947 0.00061872639 0 0.00040382525 0 0)
(-0.00050169029 -1.1482678e-006 0 0.00054530673 0 0)
(-0.00047571743 -0.00023243633 0 0.00045056503 0 0)
(-0.00033421108 -0.00027916131 0 0.00032565077 0 0)
(-0.00022192565 -0.00024941455 0 0.0002205202 0 0)
(-0.00015028009 -0.00019993435 0 0.00014767265 0 0)
(-0.00010439675 -0.00015306146 0 0.0001032914 0 0)
(-7.2343472e-005 -0.00010460137 0 7.2066881e-005 0 0)
(-5.4864806e-005 -6.2395136e-005 0 5.4514143e-005 0 0)
(-4.6125767e-005 -2.1982931e-005 0 4.5785819e-005 0 0)
(-4.3168931e-005 2.0262729e-005 0 4.3480771e-005 0 0)
(-4.5720444e-005 6.5974121e-005 0 4.5225044e-005 0 0)
(-5.392534e-005 0.00013079257 0 5.3561143e-005 0 0)
(-6.6784949e-005 0.00021429338 0 6.6339525e-005 0 0)
(-8.3448381e-005 0.00031483787 0 7.904464e-005 0 0)
(-0.00010620582 0.00048092006 0 0.00010040559 0 0)
(-0.00012284736 0.00070100399 0 0.00011098011 0 0)
(-0.00014007587 0.0010024027 0 0.00010699417 0 0)
(-9.0477179e-005 0.0015344808 0 3.8491625e-005 0 0)
(-1.2584227e-006 0.0021585505 0 -0.00014993832 0 0)
(0.00043756364 0.003158918 0 -0.00068305009 0 0)
(0.0010306703 0.003843972 0 -0.0017247413 0 0)
(0.003027495 0.0043040555 0 -0.0037310427 0 0)
(0.0051409814 0.0018274953 0 -0.0072639907 0 0)
(0.0063627151 -0.0017920998 0 -0.0094047558 0 0)
(-0.00057868728 0.00077514546 0 0.00052399339 0 0)
(-0.00059669529 -5.7766486e-005 0 0.00064606606 0 0)
(-0.0005219397 -0.00035412287 0 0.00048965674 0 0)
(-0.00032336923 -0.00038786119 0 0.00031134192 0 0)
(-0.0001852851 -0.00033011238 0 0.00018324018 0 0)
(-0.00010793713 -0.00025448178 0 0.00010483999 0 0)
(-6.4620562e-005 -0.00019150133 0 6.313025e-005 0 0)
(-3.6085882e-005 -0.00013053491 0 3.5688118e-005 0 0)
(-2.1192501e-005 -8.0029247e-005 0 2.0707787e-005 0 0)
(-1.2745198e-005 -3.7916734e-005 0 1.2573217e-005 0 0)
(-6.6341996e-006 1.0046615e-005 0 7.2430107e-006 0 0)
(-2.9740235e-006 5.9459815e-005 0 2.8762147e-006 0 0)
(4.5714337e-007 0.00012458137 0 -1.8355134e-006 0 0)
(7.4186227e-006 0.00020788314 0 -7.4494068e-006 0 0)
(1.6904885e-005 0.0003116983 0 -1.9423118e-005 0 0)
(3.397095e-005 0.00045840322 0 -4.0563343e-005 0 0)
(7.5658374e-005 0.00068348474 0 -8.5382858e-005 0 0)
(0.00013565411 0.000948563 0 -0.00016476135 0 0)
(0.00029266278 0.0014064303 0 -0.00033909703 0 0)
(0.00054134792 0.0019164808 0 -0.00065925978 0 0)
(0.0011173288 0.0026274215 0 -0.0013075406 0 0)
(0.0019483809 0.0029774254 0 -0.0023655931 0 0)
(0.0034159153 0.0028144581 0 -0.0037865074 0 0)
(0.0046688394 0.00056957835 0 -0.0054188621 0 0)
(0.0036503694 -0.0034259465 0 -0.0040010285 0 0)
(-0.00080701286 0.00096952841 0 0.00073153521 0 0)
(-0.00071422492 -0.00013821719 0 0.00077188348 0 0)
(-0.00055225608 -0.00047185822 0 0.00050839331 0 0)