/*--------------------------------*- C++ -*----------------------------------*\
| =========                 |                                                 |
| \\      /  F ield         | OpenFOAM: The Open Source CFD Toolbox           |
|  \\    /   O peration     | Version:  5.x                                   |
|   \\  /    A nd           | Web:      www.OpenFOAM.org                      |
|    \\/     M anipulation  |                                                 |
\*---------------------------------------------------------------------------*/
/*   Windows 32 and 64 bit porting by blueCAPE: http://www.bluecape.com.pt   *\
|  Based on Windows porting (2.0.x v4) by Symscape: http://www.symscape.com   |
\*---------------------------------------------------------------------------*/
FoamFile
{
    version     2.0;
    format      ascii;
    class       volVectorField;
    location    "0.15";
    object      U;
}
// * * * * * * * * * * * * * * * * * * * * * * * * * * * * * * * * * * * * * //

dimensions      [0 1 -1 0 0 0 0];

internalField   nonuniform List<vector> 
750
(
(0.039221497 -0.00011823348 0)
(0.040216913 -0.00014729453 0)
(0.041534366 -0.00014457036 0)
(0.042563268 -0.00012244283 0)
(0.043479953 -0.00010193694 0)
(0.044197803 -8.1145697e-005 0)
(0.044776078 -6.5447214e-005 0)
(0.045243853 -5.402586e-005 0)
(0.045638678 -4.7144941e-005 0)
(0.045996392 -4.4728335e-005 0)
(0.046351895 -4.7166374e-005 0)
(0.046749242 -5.5551046e-005 0)
(0.047237906 -7.0866875e-005 0)
(0.047878064 -9.5656069e-005 0)
(0.048763606 -0.00013418099 0)
(0.05001713 -0.0001919194 0)
(0.051819016 -0.00027947818 0)
(0.054472227 -0.00041559773 0)
(0.058436672 -0.00063345025 0)
(0.064533503 -0.0010020976 0)
(0.074446154 -0.001556666 0)
(0.089078966 -0.0024177126 0)
(0.11330488 -0.003393216 0)
(0.14211175 -0.004338891 0)
(0.18359686 -0.0047762276 0)
(0.039224547 -0.00035338435 0)
(0.040221995 -0.00044611092 0)
(0.041542873 -0.00043177847 0)
(0.042573524 -0.00036836665 0)
(0.043489242 -0.00030509384 0)
(0.044205978 -0.00024336171 0)
(0.04478247 -0.00019595876 0)
(0.045248138 -0.00016164749 0)
(0.045640718 -0.00014095453 0)
(0.045995989 -0.00013372926 0)
(0.046348903 -0.00014093984 0)
(0.046743102 -0.00016593782 0)
(0.047227423 -0.00021164782 0)
(0.047861812 -0.00028559954 0)
(0.048739144 -0.00040053818 0)
(0.049979852 -0.00057272969 0)
(0.051762469 -0.00083357852 0)
(0.054385611 -0.0012389854 0)
(0.058299302 -0.0018871896 0)
(0.064312394 -0.0029804267 0)
(0.074071137 -0.004638812 0)
(0.0884516 -0.0071611495 0)
(0.11220436 -0.010118617 0)
(0.14031627 -0.01283628 0)
(0.18142468 -0.014323988 0)
(0.039229506 -0.00058868822 0)
(0.040232429 -0.00074816828 0)
(0.041560126 -0.00071843726 0)
(0.042593814 -0.00061498869 0)
(0.043508116 -0.00050767362 0)
(0.044222591 -0.00040513741 0)
(0.044795362 -0.00032578191 0)
(0.045256836 -0.00026851274 0)
(0.045644978 -0.00023394169 0)
(0.045995397 -0.00022187088 0)
(0.046343094 -0.00023369884 0)
(0.046730964 -0.00027502051 0)
(0.047206808 -0.00035067195 0)
(0.0478296 -0.00047308237 0)
(0.048690344 -0.00066322622 0)
(0.049905723 -0.00094793199 0)
(0.051649484 -0.0013788959 0)
(0.054211857 -0.0020481402 0)
(0.058024766 -0.0031184518 0)
(0.063870837 -0.0049157354 0)
(0.073318015 -0.0076519116 0)
(0.087160129 -0.011765202 0)
(0.1100536 -0.01667855 0)
(0.13684475 -0.021112279 0)
(0.17704573 -0.023776586 0)
(0.039236376 -0.00082631288 0)
(0.040248049 -0.0010523422 0)
(0.041585968 -0.0010065841 0)
(0.042624039 -0.00086182637 0)
(0.043536514 -0.0007097957 0)
(0.044247539 -0.00056589871 0)
(0.044814565 -0.00045436103 0)
(0.045269722 -0.0003740298 0)
(0.045651242 -0.00032547933 0)
(0.045994461 -0.00030844074 0)
(0.046334311 -0.00032464378 0)
(0.046712692 -0.00038178471 0)
(0.047176121 -0.0004865724 0)
(0.047781641 -0.00065615846 0)
(0.048617601 -0.00091934005 0)
(0.049795757 -0.0013131417 0)
(0.051481836 -0.0019086711 0)
(0.053954261 -0.0028323721 0)
(0.057619994 -0.0043070263 0)
(0.063210308 -0.0067755786 0)
(0.072197937 -0.010533946 0)
(0.085250067 -0.016153954 0)
(0.10690757 -0.022890575 0)
(0.1316466 -0.028977064 0)
(0.17038674 -0.032921813 0)
(0.039245668 -0.0010672453 0)
(0.040268619 -0.0013591917 0)
(0.041620299 -0.0012970249 0)
(0.042664315 -0.0011088989 0)
(0.043574375 -0.00091123074 0)
(0.044280609 -0.00072526663 0)
(0.044839848 -0.00058117713 0)
(0.045286529 -0.0004776609 0)
(0.045659234 -0.00041499767 0)
(0.045992946 -0.00039282078 0)
(0.046322387 -0.00041305093 0)
(0.046688171 -0.00048537759 0)
(0.047135368 -0.00061820536 0)
(0.047718272 -0.00083312121 0)
(0.048521663 -0.0011665133 0)
(0.049651361 -0.0016646821 0)
(0.051262059 -0.0024170105 0)
(0.053616611 -0.0035820026 0)
(0.057090307 -0.0054373028 0)
(0.062339434 -0.0085322859 0)
(0.070754455 -0.013236548 0)
(0.082753499 -0.020248647 0)
(0.10278944 -0.028637878 0)
(0.12476885 -0.036300287 0)
(0.16148542 -0.041375869 0)
(0.039257959 -0.0013123225 0)
(0.040294149 -0.0016695776 0)
(0.041663304 -0.0015903525 0)
(0.042715127 -0.0013563562 0)
(0.043621982 -0.0011117043 0)
(0.044321858 -0.00088282155 0)
(0.04487126 -0.00070570263 0)
(0.045307268 -0.00057886256 0)
(0.045669 -0.00050194766 0)
(0.045990852 -0.00047440112 0)
(0.046307421 -0.00049824279 0)
(0.046657699 -0.00058496012 0)
(0.047084899 -0.00074442273 0)
(0.047640093 -0.0010023418 0)
(0.048403301 -0.0014023606 0)
(0.049474003 -0.0019990504 0)
(0.050992879 -0.0028984907 0)
(0.053203665 -0.0042889116 0)
(0.056444442 -0.0064937143 0)
(0.061283992 -0.010161951 0)
(0.069000992 -0.015710832 0)
(0.079703402 -0.023973773 0)
(0.097777056 -0.033773078 0)
(0.11627438 -0.042982727 0)
(0.15057446 -0.04900312 0)
(0.039273914 -0.0015625699 0)
(0.040324961 -0.001984153 0)
(0.041715571 -0.0018872785 0)
(0.042777441 -0.0016043219 0)
(0.043680051 -0.0013109184 0)
(0.044371721 -0.001038073 0)
(0.04490923 -0.00082741465 0)
(0.045332291 -0.00067709007 0)
(0.045680864 -0.00058575167 0)
(0.045988637 -0.00055259095 0)
(0.046289842 -0.00057960077 0)
(0.046621938 -0.00067965249 0)
(0.047025436 -0.00086407155 0)
(0.047547988 -0.0011623872 0)
(0.048264208 -0.0016247047 0)
(0.049265728 -0.0023128809 0)
(0.050678343 -0.0033479235 0)
(0.052722585 -0.0049442841 0)
(0.055692321 -0.007463193 0)
(0.060063087 -0.011641372 0)
(0.066966566 -0.017912563 0)
(0.076151064 -0.027247624 0)
(0.09196007 -0.038154526 0)
(0.10614107 -0.048761791 0)
(0.13829129 -0.055858121 0)
(0.039294928 -0.0018194646 0)
(0.040361857 -0.0023033602 0)
(0.041778551 -0.0021888552 0)
(0.042852952 -0.0018529 0)
(0.043749854 -0.0015084989 0)
(0.044431255 -0.0011904633 0)
(0.044954729 -0.00094575903 0)
(0.045362388 -0.00077176177 0)
(0.045695623 -0.00066589287 0)
(0.045987334 -0.0006268001 0)
(0.046270747 -0.00065639956 0)
(0.046581922 -0.00076867312 0)
(0.046958209 -0.0009762167 0)
(0.047443863 -0.0013117365 0)
(0.048106979 -0.0018314402 0)
(0.049029659 -0.0026032612 0)
(0.050323897 -0.0037611961 0)
(0.052182067 -0.0055415922 0)
(0.054848292 -0.0083350025 0)
(0.058705671 -0.01295053 0)
(0.064693 -0.019806835 0)
(0.072168474 -0.030020327 0)
(0.085426149 -0.041682038 0)
(0.094920096 -0.053587041 0)
(0.12484476 -0.060699005 0)
(0.039322613 -0.0020846727 0)
(0.040406828 -0.0026280891 0)
(0.041854311 -0.0024960452 0)
(0.042944059 -0.0021022146 0)
(0.043833284 -0.0017039636 0)
(0.044502348 -0.0013394001 0)
(0.045009156 -0.0010601137 0)
(0.04539897 -0.00086227883 0)
(0.045714608 -0.00074183772 0)
(0.045988269 -0.00069648279 0)
(0.046251712 -0.00072805105 0)
(0.046539469 -0.00085134122 0)
(0.046885445 -0.0010798677 0)
(0.047330176 -0.0014491925 0)
(0.047934959 -0.0020206189 0)
(0.048770582 -0.0028678148 0)
(0.049935687 -0.0041345442 0)
(0.051592078 -0.0060742912 0)
(0.053930724 -0.0090996477 0)
(0.057228853 -0.014073025 0)
(0.062234707 -0.021351324 0)
(0.067859903 -0.032208433 0)
(0.078331975 -0.044275661 0)
(0.082746789 -0.057581711 0)
(0.11008856 -0.06392097 0)
(0.039357698 -0.0023580422 0)
(0.040463483 -0.0029622378 0)
(0.041945647 -0.0028079979 0)
(0.043053683 -0.0023525165 0)
(0.043933083 -0.001896608 0)
(0.044587275 -0.0014846362 0)
(0.045074146 -0.0011697747 0)
(0.045443939 -0.00094813313 0)
(0.045739502 -0.00081300098 0)
(0.045993134 -0.00076122425 0)
(0.046234719 -0.00079408474 0)
(0.046496881 -0.00092698384 0)
(0.046809968 -0.0011741845 0)
(0.047209597 -0.0015738178 0)
(0.047752101 -0.0021911288 0)
(0.048493968 -0.0031045023 0)
(0.049518494 -0.0044650163 0)
(0.050961732 -0.006539973 0)
(0.05295717 -0.0097513235 0)
(0.055656062 -0.0149923 0)
(0.059651906 -0.022568623 0)
(0.063443732 -0.033777262 0)
(0.070711655 -0.045965591 0)
(0.069396705 -0.060253877 0)
(0.09052243 -0.064254165 0)
(0.21624081 -0.0025581369 0)
(0.22529001 -0.00076891757 0)
(0.22717825 1.0738358e-005 0)
(0.22555074 0.00018650506 0)
(0.22456431 0.0001151071 0)
(0.22384708 5.3090608e-005 0)
(0.22374301 5.3953751e-006 0)
(0.22379424 -6.9274788e-006 0)
(0.22384618 -4.1578128e-006 0)
(0.22385576 -6.4037288e-007 0)
(0.22385217 4.436061e-007 0)
(0.22384858 2.6017163e-007 0)
(0.22384822 3.216228e-009 0)
(0.22384866 -4.0696098e-008 0)
(0.22384887 -1.5654438e-008 0)
(0.22384888 2.3215663e-010 0)
(0.22384886 2.213704e-009 0)
(0.22384885 9.4328402e-010 0)
(0.22384885 3.3355878e-010 0)
(0.22384885 1.7298493e-010 0)
(0.22384885 -1.7916473e-010 0)
(0.22384885 3.6703932e-011 0)
(0.22384885 -3.9061204e-010 0)
(0.22384885 -4.8837114e-009 0)
(0.22384892 -4.7878734e-009 0)
(0.21324559 -0.0073837499 0)
(0.22124777 -0.002259019 0)
(0.22334953 4.7126969e-005 0)
(0.22194494 0.00042085516 0)
(0.22106418 0.00033127737 0)
(0.22049694 0.00014324439 0)
(0.22044278 1.1351709e-005 0)
(0.22049159 -2.0099035e-005 0)
(0.22053142 -1.0857758e-005 0)
(0.22053681 -1.1354023e-006 0)
(0.22053273 1.3598108e-006 0)
(0.22052994 6.9231609e-007 0)
(0.22052986 -1.673727e-008 0)
(0.22053028 -1.223444e-007 0)
(0.22053044 -4.0530792e-008 0)
(0.22053044 2.335447e-009 0)
(0.22053042 6.1472025e-009 0)
(0.22053042 2.3015038e-009 0)
(0.22053041 4.2043886e-010 0)
(0.22053041 4.213825e-010 0)
(0.22053041 4.2144142e-010 0)
(0.22053041 -4.6661952e-010 0)
(0.22053042 -1.9645675e-009 0)
(0.22053042 -1.3442614e-008 0)
(0.22053048 -1.3543901e-008 0)
(0.20712534 -0.011796963 0)
(0.21311993 -0.00360934 0)
(0.21562309 7.2118709e-006 0)
(0.21432836 0.00064851824 0)
(0.21371797 0.00050427823 0)
(0.21345684 0.00019592163 0)
(0.21348212 1.0036292e-005 0)
(0.21351962 -3.0518546e-005 0)
(0.21353945 -1.4933729e-005 0)
(0.21353815 -9.1041204e-007 0)
(0.21353419 2.2048761e-006 0)
(0.21353276 9.5883577e-007 0)
(0.21353307 -7.2108857e-008 0)
(0.2135334 -1.8996823e-007 0)
(0.21353348 -5.6345345e-008 0)
(0.21353347 5.6096129e-009 0)
(0.21353345 9.1627493e-009 0)
(0.21353345 2.8380367e-009 0)
(0.21353345 1.8120099e-010 0)
(0.21353345 3.5297832e-010 0)
(0.21353345 6.7056741e-010 0)
(0.21353345 -2.6943104e-010 0)
(0.21353345 -2.9696253e-009 0)
(0.21353346 -2.0642744e-008 0)
(0.2135335 -2.0828865e-008 0)
(0.19757664 -0.015544654 0)
(0.2012014 -0.0048738319 0)
(0.20334299 -2.8860373e-005 0)
(0.20222892 0.00082610043 0)
(0.20216352 0.00058136067 0)
(0.20219481 0.00019748055 0)
(0.20227907 3.5762175e-007 0)
(0.20229454 -3.5687923e-005 0)
(0.20229344 -1.5283642e-005 0)
(0.20228627 5.3700583e-008 0)
(0.20228352 2.740329e-006 0)
(0.20228361 9.6488577e-007 0)
(0.20228419 -1.6497772e-007 0)
(0.20228436 -2.2751436e-007 0)
(0.20228435 -5.8452084e-008 0)
(0.20228432 9.5917437e-009 0)
(0.20228432 1.0271716e-008 0)
(0.20228432 2.5308968e-009 0)
(0.20228432 -3.2691306e-011 0)
(0.20228432 1.3288914e-010 0)
(0.20228433 7.5345788e-010 0)
(0.20228433 1.1853118e-010 0)
(0.20228432 -3.6764554e-009 0)
(0.20228432 -2.4671317e-008 0)
(0.20228434 -2.4961727e-008 0)
(0.18468908 -0.018411518 0)
(0.18480262 -0.0057121078 0)
(0.18592233 2.4927278e-005 0)
(0.18546135 0.0008368624 0)
(0.18593433 0.00054225237 0)
(0.18613917 0.00016056688 0)
(0.18624303 -1.1300143e-005 0)
(0.1862308 -3.500978e-005 0)
(0.18621375 -1.2505583e-005 0)
(0.18620422 1.4276616e-006 0)
(0.18620388 2.865087e-006 0)
(0.18620522 7.6719489e-007 0)
(0.18620582 -2.5290705e-007 0)
(0.18620577 -2.2956085e-007 0)
(0.18620568 -4.748638e-008 0)
(0.18620565 1.2964599e-008 0)
(0.18620566 9.7505672e-009 0)
(0.18620567 1.665596e-009 0)
(0.18620567 -1.6594695e-010 0)
(0.18620567 -7.5852397e-013 0)
(0.18620567 3.8765026e-010 0)
(0.18620567 7.9521065e-010 0)
(0.18620566 -3.1052391e-009 0)
(0.18620566 -2.5668553e-008 0)
(0.18620566 -2.6163416e-008 0)
(0.16864358 -0.020323892 0)
(0.16285529 -0.0057133996 0)
(0.16362841 7.0322218e-005 0)
(0.16379638 0.00070834113 0)
(0.16459857 0.00043859306 0)
(0.16486606 0.0001096221 0)
(0.16495568 -1.8952749e-005 0)
(0.16491841 -2.9393394e-005 0)
(0.16489364 -8.0954082e-006 0)
(0.16488615 2.4120395e-006 0)
(0.16488866 2.5121352e-006 0)
(0.16489061 4.6501801e-007 0)
(0.16489095 -2.938239e-007 0)
(0.16489069 -1.9503879e-007 0)
(0.16489056 -2.9517476e-008 0)
(0.16489055 1.4173803e-008 0)
(0.16489056 7.5661436e-009 0)
(0.16489057 7.471283e-010 0)
(0.16489057 -1.1261047e-010 0)
(0.16489057 -5.7322611e-011 0)
(0.16489057 1.1748238e-010 0)
(0.16489057 1.1071277e-009 0)
(0.16489057 -1.8529243e-009 0)
(0.16489056 -2.35896e-008 0)
(0.16489054 -2.4355259e-008 0)
(0.14784069 -0.020428342 0)
(0.13557586 -0.0050664684 0)
(0.13668254 5.7399858e-005 0)
(0.13701572 0.00049765302 0)
(0.13794588 0.00030678217 0)
(0.13818707 6.1109944e-005 0)
(0.13824426 -1.9855685e-005 0)
(0.13819156 -2.0590084e-005 0)
(0.13816821 -3.8833473e-006 0)
(0.1381655 2.5046849e-006 0)
(0.13817003 1.7921223e-006 0)
(0.13817185 1.7923121e-007 0)
(0.13817181 -2.6489672e-007 0)
(0.13817143 -1.3667975e-007 0)
(0.13817131 -1.2080928e-008 0)
(0.13817131 1.2432613e-008 0)
(0.13817133 4.8326456e-009 0)
(0.13817133 1.1931942e-010 0)
(0.13817133 -1.852985e-010 0)
(0.13817133 -1.3709798e-010 0)
(0.13817133 9.3272568e-011 0)
(0.13817133 1.2267458e-009 0)
(0.13817133 -6.8722422e-010 0)
(0.13817133 -1.8595551e-008 0)
(0.13817128 -1.9794325e-008 0)
(0.1203418 -0.017890755 0)
(0.10338944 -0.0038320292 0)
(0.10494112 2.4889671e-005 0)
(0.10503667 0.00027979197 0)
(0.10596323 0.00017920186 0)
(0.10611719 2.4954382e-005 0)
(0.10614345 -1.4807631e-005 0)
(0.10608787 -1.135313e-005 0)
(0.10607283 -1.0877667e-006 0)
(0.10607436 1.8014632e-006 0)
(0.10607934 9.6919727e-007 0)
(0.10608051 2.7569717e-009 0)
(0.10608017 -1.793849e-007 0)
(0.10607979 -7.3865515e-008 0)
(0.10607971 -8.896195e-010 0)
(0.10607973 8.3202715e-009 0)
(0.10607974 2.384593e-009 0)
(0.10607975 -1.142853e-010 0)
(0.10607974 -1.6472379e-010 0)
(0.10607974 -2.1072028e-010 0)
(0.10607974 9.0761255e-011 0)
(0.10607974 1.1605045e-009 0)
(0.10607974 3.0560215e-010 0)
(0.10607974 -1.1284066e-008 0)
(0.10607969 -1.2778496e-008 0)
(0.085737969 -0.012889236 0)
(0.066404545 -0.0022299622 0)
(0.068146594 2.9218566e-005 0)
(0.06791481 0.00010369115 0)
(0.068714321 7.8640543e-005 0)
(0.068759832 5.0088094e-006 0)
(0.068770008 -6.1859927e-006 0)
(0.06872458 -4.173212e-006 0)
(0.068719366 1.213113e-007 0)
(0.068722297 7.6899886e-007 0)
(0.068726112 3.157087e-007 0)
(0.068726504 -4.8372379e-008 0)
(0.068726108 -7.7544419e-008 0)
(0.068725824 -2.4211231e-008 0)
(0.068725797 2.6659559e-009 0)
(0.068725818 3.5606179e-009 0)
(0.068725829 6.8776401e-010 0)
(0.068725829 -1.1323252e-010 0)
(0.068725828 -5.3126628e-011 0)
(0.068725828 -1.3584791e-010 0)
(0.068725827 5.9491355e-011 0)
(0.068725828 7.1621093e-010 0)
(0.06872583 8.5781711e-010 0)
(0.068725831 -3.8923927e-009 0)
(0.068725779 -5.2731282e-009 0)
(0.039742717 -0.0067935732 0)
(0.024240233 -9.8502544e-005 0)
(0.0261815 1.5118273e-005 0)
(0.025674471 1.9594486e-005 0)
(0.026186956 -2.9355345e-006 0)
(0.026136217 -2.5842593e-006 0)
(0.026150869 -1.8412022e-006 0)
(0.026126259 -3.6645379e-007 0)
(0.026127756 -5.2151236e-008 0)
(0.026128672 9.9848744e-009 0)
(0.026130214 -5.4992551e-009 0)
(0.026130104 -4.3130997e-009 0)
(0.02612992 -1.2666536e-009 0)
(0.026129811 1.6136744e-009 0)
(0.026129816 8.7354997e-010 0)
(0.026129826 2.0478413e-010 0)
(0.02612983 1.0849393e-011 0)
(0.026129829 2.2922424e-011 0)
(0.026129829 5.3258816e-012 0)
(0.026129829 -4.2587086e-011 0)
(0.026129828 -9.9682563e-012 0)
(0.026129829 6.7540292e-011 0)
(0.026129831 1.4693845e-010 0)
(0.026129835 -1.02703e-009 0)
(0.026129811 -1.3906802e-009 0)
(0.039442367 -0.0029144581 0)
(0.040608246 -0.0036654091 0)
(0.042168314 -0.0034350499 0)
(0.043316798 -0.0028559026 0)
(0.044172033 -0.0022760222 0)
(0.044789245 -0.0017661571 0)
(0.045229758 -0.0013790005 0)
(0.04555483 -0.0011098571 0)
(0.045805278 -0.00094513687 0)
(0.046015397 -0.00088053875 0)
(0.046209744 -0.00091432303 0)
(0.046416201 -0.0010634886 0)
(0.046659022 -0.0013432119 0)
(0.046960955 -0.0017958745 0)
(0.047370545 -0.0024930174 0)
(0.047915737 -0.0035187059 0)
(0.048642323 -0.005033494 0)
(0.049639969 -0.0073283496 0)
(0.050930236 -0.010815684 0)
(0.052437385 -0.016391979 0)
(0.054424634 -0.024294894 0)
(0.055025172 -0.035483057 0)
(0.055809016 -0.046914854 0)
(0.0429508 -0.059578699 0)
(0.035961161 -0.048165904 0)
(0.03962712 -0.0038601392 0)
(0.041001092 -0.0048825381 0)
(0.042748519 -0.0044274332 0)
(0.043942149 -0.0036118067 0)
(0.044736908 -0.0028071616 0)
(0.045261731 -0.0021328825 0)
(0.045604802 -0.0016356417 0)
(0.045836556 -0.0012972948 0)
(0.046000893 -0.0010893206 0)
(0.04612946 -0.0010032432 0)
(0.046236771 -0.0010322964 0)
(0.046342441 -0.0011917426 0)
(0.046463182 -0.0014991164 0)
(0.046602524 -0.0019923423 0)
(0.046777823 -0.0027479325 0)
(0.047008201 -0.0038545694 0)
(0.04726175 -0.0054570947 0)
(0.047553853 -0.0078418489 0)
(0.047831891 -0.01137042 0)
(0.047748249 -0.016768177 0)
(0.047245645 -0.024101397 0)
(0.044653443 -0.033151621 0)
(0.040075327 -0.040309122 0)
(0.02600499 -0.043196153 0)
(0.010829284 -0.022499372 0)
(0.039957272 -0.0050740493 0)
(0.041654046 -0.0063086387 0)
(0.043630186 -0.0055088492 0)
(0.044821218 -0.0043461028 0)
(0.045501748 -0.0032668879 0)
(0.045885826 -0.0024142122 0)
(0.046094548 -0.0018092881 0)
(0.046206764 -0.0014087477 0)
(0.046268539 -0.0011633035 0)
(0.046299699 -0.0010565644 0)
(0.046310543 -0.001076645 0)
(0.046308158 -0.0012317973 0)
(0.046295956 -0.0015406404 0)
(0.046269496 -0.0020363063 0)
(0.046202845 -0.0027880309 0)
(0.046108866 -0.0038903621 0)
(0.045915169 -0.0054523427 0)
(0.045551739 -0.0077328081 0)
(0.044924912 -0.011023001 0)
(0.043569511 -0.015837861 0)
(0.041174123 -0.022147514 0)
(0.036442783 -0.029081649 0)
(0.02902553 -0.033615845 0)
(0.016200781 -0.032866754 0)
(0.0026867801 -0.015977858 0)
(0.040513375 -0.0067361592 0)
(0.042560949 -0.0079947585 0)
(0.044674167 -0.0066447851 0)
(0.045734958 -0.0050088312 0)
(0.046206483 -0.0036087262 0)
(0.046388201 -0.0025737993 0)
(0.046419935 -0.0018750235 0)
(0.046389772 -0.0014282161 0)
(0.046334105 -0.0011581417 0)
(0.046261449 -0.0010349637 0)
(0.046173573 -0.0010417032 0)
(0.046065403 -0.0011798644 0)
(0.045919327 -0.0014647487 0)
(0.045726319 -0.0019312902 0)
(0.045445252 -0.0026247734 0)
(0.045038236 -0.0036357252 0)
(0.044448751 -0.0050569465 0)
(0.043522916 -0.0070775821 0)
(0.042144335 -0.0099263038 0)
(0.039848685 -0.013914665 0)
(0.036245329 -0.018925076 0)
(0.030436632 -0.023897574 0)
(0.0221986 -0.026224348 0)
(0.011501412 -0.023410937 0)
(0.00047933625 -0.010431744 0)
(0.041256825 -0.0090181242 0)
(0.043464573 -0.0098577073 0)
(0.045349214 -0.0076890551 0)
(0.046030355 -0.0054871686 0)
(0.046150765 -0.003762049 0)
(0.04605884 -0.0025704414 0)
(0.045874403 -0.0018109293 0)
(0.04569103 -0.0013443452 0)
(0.045512357 -0.0010673014 0)
(0.045339659 -0.00093698923 0)
(0.045160621 -0.00092931337 0)
(0.044952378 -0.0010419644 0)
(0.044694836 -0.0012848794 0)
(0.044354479 -0.001681678 0)
(0.043896034 -0.0022791709 0)
(0.043235144 -0.0031333842 0)
(0.042319145 -0.004329198 0)
(0.040971172 -0.0059898601 0)
(0.039045712 -0.008289464 0)
(0.036145664 -0.011389544 0)
(0.031852692 -0.015106013 0)
(0.025650294 -0.018435711 0)
(0.017540035 -0.019425058 0)
(0.0085835194 -0.016146393 0)
(-8.983736e-005 -0.006910269 0)
(0.04189448 -0.011909936 0)
(0.043781512 -0.011538203 0)
(0.044725258 -0.0083337426 0)
(0.044667812 -0.0055954084 0)
(0.044271481 -0.0036373794 0)
(0.043839325 -0.0023658293 0)
(0.043428971 -0.0016020086 0)
(0.043092678 -0.0011538554 0)
(0.042806852 -0.00089655771 0)
(0.042549488 -0.00077056945 0)
(0.042299254 -0.00075257392 0)
(0.042019201 -0.00083134492 0)
(0.041685585 -0.0010194121 0)
(0.041247087 -0.0013270696 0)
(0.040664012 -0.0017901877 0)
(0.039848877 -0.0024503598 0)
(0.038725755 -0.0033652205 0)
(0.03713785 -0.0046164878 0)
(0.034917719 -0.006316159 0)
(0.031762041 -0.0085324801 0)
(0.027300124 -0.011075695 0)
(0.021270595 -0.013143478 0)
(0.013823242 -0.013306263 0)
(0.0065323198 -0.010331994 0)
(-0.0002254396 -0.0041634169 0)
(0.041914577 -0.015067083 0)
(0.042673366 -0.012274596 0)
(0.041763421 -0.0081490955 0)
(0.040633214 -0.0051127988 0)
(0.039593221 -0.0031386357 0)
(0.038797049 -0.0019378329 0)
(0.038200413 -0.0012574246 0)
(0.037744725 -0.00087487256 0)
(0.037389072 -0.00066237526 0)
(0.037084727 -0.00055700223 0)
(0.036798909 -0.00053308814 0)
(0.036493921 -0.0005821555 0)
(0.03613116 -0.00070697237 0)
(0.035666645 -0.00091790754 0)
(0.035047899 -0.0012329263 0)
(0.03420163 -0.0016825995 0)
(0.033038618 -0.0023014956 0)
(0.031430277 -0.0031377793 0)
(0.029218561 -0.0042567415 0)
(0.026169241 -0.0056851844 0)
(0.022013289 -0.0072442079 0)
(0.01665982 -0.0083805153 0)
(0.010348533 -0.0081399234 0)
(0.0047317929 -0.0058402628 0)
(-0.00025347336 -0.0021251618 0)
(0.040363647 -0.017531083 0)
(0.039200146 -0.011270193 0)
(0.035556763 -0.0067884079 0)
(0.033332954 -0.0039348028 0)
(0.031726727 -0.0022685028 0)
(0.030670808 -0.0013235436 0)
(0.029981978 -0.00081577149 0)
(0.029491879 -0.00054485364 0)
(0.029128153 -0.00040049831 0)
(0.028831608 -0.0003281967 0)
(0.02856149 -0.00030721019 0)
(0.028282551 -0.0003303578 0)
(0.027955147 -0.00039700633 0)
(0.027541816 -0.00051386104 0)
(0.026993339 -0.00068975622 0)
(0.026248498 -0.00094014892 0)
(0.025229168 -0.0012837674 0)
(0.023833331 -0.0017460923 0)
(0.021936369 -0.0023603994 0)
(0.019360241 -0.0031251147 0)
(0.015938018 -0.0039253732 0)
(0.011678935 -0.0044331067 0)
(0.0068706298 -0.0041077586 0)
(0.0029822068 -0.0026066014 0)
(-0.00023087262 -0.00072326199 0)
(0.034973428 -0.016179931 0)
(0.032180323 -0.0076649721 0)
(0.025420942 -0.0042627875 0)
(0.022750452 -0.0022462211 0)
(0.020935553 -0.0012296767 0)
(0.01988996 -0.00068089499 0)
(0.019265543 -0.00039921769 0)
(0.018857425 -0.00025564323 0)
(0.018568184 -0.00018174484 0)
(0.018341745 -0.00014473632 0)
(0.01814278 -0.00013256585 0)
(0.017942199 -0.00013992416 0)
(0.017712008 -0.00016625465 0)
(0.017423349 -0.00021462072 0)
(0.017041142 -0.00028754429 0)
(0.016522339 -0.00039157241 0)
(0.015812902 -0.00053312886 0)
(0.014844429 -0.0007234389 0)
(0.013528437 -0.00097396816 0)
(0.011753914 -0.0012758793 0)
(0.0094246051 -0.0015822605 0)
(0.0066039228 -0.0017406476 0)
(0.0035256853 -0.0015238603 0)
(0.0013093744 -0.00076392621 0)
(-0.00023029935 -3.690572e-005 0)
(0.020661052 -0.012099068 0)
(0.017540298 -0.0023444026 0)
(0.010794783 -0.00043769407 0)
(0.0093932783 -0.00020131197 0)
(0.0080745416 -7.5460052e-005 0)
(0.0074624179 -3.1111195e-005 0)
(0.0071058373 -1.068791e-005 0)
(0.0068921408 -1.6542268e-006 0)
(0.0067492731 2.1918854e-006 0)
(0.0066434128 3.9476662e-006 0)
(0.0065543394 5.1495201e-006 0)
(0.0064673749 6.3833217e-006 0)
(0.0063700595 8.0719297e-006 0)
(0.0062488192 1.0097202e-005 0)
(0.0060884754 1.3180426e-005 0)
(0.0058709599 1.7481461e-005 0)
(0.0055742432 2.3330279e-005 0)
(0.0051705968 3.0953571e-005 0)
(0.0046236363 4.0892877e-005 0)
(0.0038945181 5.4340177e-005 0)
(0.0029484791 7.1175214e-005 0)
(0.001848239 0.00010221219 0)
(0.00067938779 0.00011370637 0)
(1.9668039e-005 0.00016980185 0)
(-0.00018750265 0.00015689487 0)
)
;

boundaryField
{
    inlet
    {
        type            fixedValue;
        value           uniform (0.03876 0 0);
    }
    walls
    {
        type            fixedValue;
        value           uniform (0 0 0);
    }
    outlet
    {
        type            zeroGradient;
    }
    centreline
    {
        type            symmetryPlane;
    }
    frontAndBack
    {
        type            empty;
    }
}


// ************************************************************************* //
