/*--------------------------------*- C++ -*----------------------------------*\
| =========                 |                                                 |
| \\      /  F ield         | OpenFOAM: The Open Source CFD Toolbox           |
|  \\    /   O peration     | Version:  5.x                                   |
|   \\  /    A nd           | Web:      www.OpenFOAM.org                      |
|    \\/     M anipulation  |                                                 |
\*---------------------------------------------------------------------------*/
/*   Windows 32 and 64 bit porting by blueCAPE: http://www.bluecape.com.pt   *\
|  Based on Windows porting (2.0.x v4) by Symscape: http://www.symscape.com   |
\*---------------------------------------------------------------------------*/
FoamFile
{
    version     2.0;
    format      ascii;
    class       volVectorField;
    location    "0.15";
    object      U_0;
}
// * * * * * * * * * * * * * * * * * * * * * * * * * * * * * * * * * * * * * //

dimensions      [0 1 -1 0 0 0 0];

internalField   nonuniform List<vector> 
750
(
(0.039221058 -0.00011813114 0)
(0.040215679 -0.00014716172 0)
(0.04153186 -0.00014442745 0)
(0.042559699 -0.00012230726 0)
(0.043475297 -0.00010181902 0)
(0.044192352 -8.1059337e-005 0)
(0.044770038 -6.5384891e-005 0)
(0.045237405 -5.3983001e-005 0)
(0.045631953 -4.711674e-005 0)
(0.045989494 -4.4710071e-005 0)
(0.046344879 -4.7154218e-005 0)
(0.046742149 -5.5542385e-005 0)
(0.047230755 -7.0859686e-005 0)
(0.047870855 -9.564693e-005 0)
(0.04875631 -0.00013416625 0)
(0.050009693 -0.00019189512 0)
(0.051811329 -0.00027943371 0)
(0.054464088 -0.00041549824 0)
(0.058427398 -0.00063324405 0)
(0.064522129 -0.0010017732 0)
(0.074431832 -0.0015563932 0)
(0.089063372 -0.0024178544 0)
(0.11329284 -0.0033940375 0)
(0.14210851 -0.0043400975 0)
(0.18360337 -0.0047771603 0)
(0.039224104 -0.00035307811 0)
(0.040220756 -0.00044570858 0)
(0.041540356 -0.0004313512 0)
(0.04256994 -0.00036795818 0)
(0.043484576 -0.00030474345 0)
(0.04420052 -0.00024310137 0)
(0.044776423 -0.00019577202 0)
(0.045241686 -0.00016151929 0)
(0.04563399 -0.00014087012 0)
(0.045989092 -0.00013367505 0)
(0.046341888 -0.00014090356 0)
(0.046736011 -0.00016591205 0)
(0.047220276 -0.00021162623 0)
(0.047854609 -0.00028557304 0)
(0.048731857 -0.0004004945 0)
(0.049972426 -0.00057265726 0)
(0.051754797 -0.00083344617 0)
(0.054377493 -0.0012386892 0)
(0.058290075 -0.0018865837 0)
(0.064301147 -0.0029794881 0)
(0.074057125 -0.004638031 0)
(0.088436377 -0.0071615584 0)
(0.11219238 -0.01012091 0)
(0.14031208 -0.012839703 0)
(0.18142995 -0.014326745 0)
(0.039229055 -0.00058817782 0)
(0.040231181 -0.00074749293 0)
(0.041557588 -0.0007177255 0)
(0.042590203 -0.00061430642 0)
(0.043503428 -0.00050709263 0)
(0.044217117 -0.00040470342 0)
(0.044789302 -0.00032547145 0)
(0.045250375 -0.00026830001 0)
(0.045638247 -0.00023380178 0)
(0.045988501 -0.0002217814 0)
(0.046336083 -0.00023363867 0)
(0.046723878 -0.00027497791 0)
(0.04719967 -0.00035063681 0)
(0.047822409 -0.00047303937 0)
(0.048683073 -0.00066315441 0)
(0.049898321 -0.00094781279 0)
(0.051641844 -0.0013786779 0)
(0.054203786 -0.0020476538 0)
(0.058015639 -0.0031174646 0)
(0.063859833 -0.0049142214 0)
(0.073304514 -0.0076506553 0)
(0.087145496 -0.011765836 0)
(0.11004175 -0.016682133 0)
(0.13683913 -0.021117705 0)
(0.17704893 -0.023780954 0)
(0.039235913 -0.00082559616 0)
(0.040246789 -0.0010513911 0)
(0.041583397 -0.0010055853 0)
(0.042620389 -0.00086087038 0)
(0.043531792 -0.00070898493 0)
(0.044242038 -0.00056529311 0)
(0.044808486 -0.00045392809 0)
(0.045263248 -0.00037373394 0)
(0.045644505 -0.00032528545 0)
(0.045987565 -0.00030831702 0)
(0.046327305 -0.00032456028 0)
(0.046705611 -0.00038172587 0)
(0.047168994 -0.00048652534 0)
(0.047774467 -0.0006561 0)
(0.048610353 -0.00091924171 0)
(0.049788389 -0.0013129781 0)
(0.051474242 -0.001908371 0)
(0.053946261 -0.0028317054 0)
(0.057611007 -0.0043056837 0)
(0.063199618 -0.0067735426 0)
(0.072185002 -0.01053225 0)
(0.085236153 -0.016154771 0)
(0.10689605 -0.022895226 0)
(0.13164009 -0.028984256 0)
(0.17038744 -0.032927676 0)
(0.03924519 -0.0010663191 0)
(0.040267342 -0.0013579616 0)
(0.041617683 -0.0012957352 0)
(0.042660612 -0.0011076689 0)
(0.043569603 -0.00091019126 0)
(0.044275066 -0.00072449214 0)
(0.044833741 -0.00058062374 0)
(0.045280035 -0.00047728381 0)
(0.045652486 -0.00041475181 0)
(0.045986045 -0.00039266419 0)
(0.046315383 -0.00041294508 0)
(0.046681096 -0.00048530404 0)
(0.047128253 -0.00061814744 0)
(0.047711118 -0.00083304868 0)
(0.048514441 -0.0011663912 0)
(0.049644034 -0.001664477 0)
(0.051254522 -0.0024166334 0)
(0.053608698 -0.0035811698 0)
(0.057081496 -0.0054356392 0)
(0.062329097 -0.0085297907 0)
(0.07074221 -0.013234484 0)
(0.08274039 -0.020249594 0)
(0.10277855 -0.028643374 0)
(0.12476183 -0.03630864 0)
(0.16148334 -0.041382924 0)
(0.039257461 -0.001311182 0)
(0.040292844 -0.0016680639 0)
(0.041660625 -0.0015887669 0)
(0.042711351 -0.0013548518 0)
(0.04361714 -0.0011104373 0)
(0.044316253 -0.00088188132 0)
(0.044865109 -0.0007050319 0)
(0.045300741 -0.00057840674 0)
(0.04566223 -0.00050165185 0)
(0.045983938 -0.00047421354 0)
(0.046300413 -0.00049811622 0)
(0.046650623 -0.00058487334 0)
(0.047077792 -0.00074435513 0)
(0.047632955 -0.0010022575 0)
(0.048396104 -0.0014022178 0)
(0.04946672 -0.0019988094 0)
(0.050985408 -0.002898043 0)
(0.053195855 -0.0042879266 0)
(0.056435834 -0.0064917671 0)
(0.061274043 -0.010159054 0)
(0.068989489 -0.015708466 0)
(0.079691274 -0.023974898 0)
(0.097766969 -0.033779293 0)
(0.11626735 -0.042992036 0)
(0.15057035 -0.049010683 0)
(0.039273392 -0.0015612082 0)
(0.040323611 -0.0019823489 0)
(0.041712802 -0.0018853908 0)
(0.042773564 -0.0016025422 0)
(0.043675109 -0.0013094261 0)
(0.044366028 -0.0010369695 0)
(0.044903013 -0.00082663081 0)
(0.045325713 -0.00067655858 0)
(0.045674054 -0.00058540828 0)
(0.045981692 -0.0005523749 0)
(0.046282814 -0.00057945537 0)
(0.046614849 -0.00067955326 0)
(0.047018323 -0.00086399763 0)
(0.047540856 -0.0011622939 0)
(0.048257027 -0.0016245444 0)
(0.049258483 -0.0023126093 0)
(0.050670936 -0.0033474148 0)
(0.052714889 -0.0049431648 0)
(0.05568392 -0.0074609955 0)
(0.060053544 -0.011638155 0)
(0.0669558 -0.017909951 0)
(0.076140045 -0.027248933 0)
(0.091951069 -0.038161316 0)
(0.10613449 -0.048771769 0)
(0.13828638 -0.055866055 0)
(0.039294375 -0.0018178714 0)
(0.040360435 -0.0023012555 0)
(0.041775655 -0.0021866575 0)
(0.042848932 -0.0018508437 0)
(0.04374477 -0.0015067835 0)
(0.044425441 -0.0011892012 0)
(0.04494841 -0.00094486661 0)
(0.045355729 -0.00077115854 0)
(0.045688749 -0.00066550481 0)
(0.045980331 -0.00062655773 0)
(0.046263674 -0.00065623777 0)
(0.046574798 -0.00076856388 0)
(0.046951068 -0.00097613907 0)
(0.047436715 -0.0013116366 0)
(0.048099794 -0.0018312671 0)
(0.049022434 -0.0026029644 0)
(0.050316543 -0.0037606354 0)
(0.052174485 -0.0055403629 0)
(0.054840097 -0.0083325924 0)
(0.058696549 -0.012947037 0)
(0.064682967 -0.01980409 0)
(0.072158592 -0.03002185 0)
(0.085418271 -0.041689347 0)
(0.09491387 -0.053597238 0)
(0.12484042 -0.060706938 0)
(0.039322013 -0.0020828329 0)
(0.040405299 -0.0026256691 0)
(0.041851241 -0.0024935276 0)
(0.042939841 -0.0020998801 0)
(0.043828009 -0.0017020213 0)
(0.044496375 -0.0013379938 0)
(0.045002689 -0.0010591164 0)
(0.045392193 -0.00086160902 0)
(0.045707633 -0.00074140838 0)
(0.045981174 -0.00069621632 0)
(0.046244559 -0.00072787658 0)
(0.046532281 -0.00085122473 0)
(0.046878248 -0.0010797872 0)
(0.047322983 -0.0014490895 0)
(0.047927744 -0.0020204376 0)
(0.048763351 -0.0028675011 0)
(0.049928368 -0.0041339458 0)
(0.051584586 -0.0060729617 0)
(0.053922726 -0.0090970647 0)
(0.057220161 -0.01406934 0)
(0.062225413 -0.021348511 0)
(0.067851144 -0.032210263 0)
(0.078325099 -0.04428344 0)
(0.082741516 -0.057592409 0)
(0.11008548 -0.063928704 0)
(0.039357027 -0.0023559356 0)
(0.040461811 -0.0029594818 0)
(0.041942352 -0.0028051488 0)
(0.043049205 -0.0023499021 0)
(0.043927573 -0.0018944502 0)
(0.044581089 -0.001483083 0)
(0.045067482 -0.0011686797 0)
(0.045437001 -0.00094740257 0)
(0.045732386 -0.00081253411 0)
(0.045985914 -0.00076093768 0)
(0.046227454 -0.0007939002 0)
(0.046489594 -0.00092686209 0)
(0.046802681 -0.0011741046 0)
(0.047202323 -0.0015737153 0)
(0.047744821 -0.0021909451 0)
(0.048486708 -0.0031041806 0)
(0.049511183 -0.0044643918 0)
(0.050954298 -0.0065385663 0)
(0.052949398 -0.0097486156 0)
(0.055647797 -0.014988498 0)
(0.059643351 -0.02256586 0)
(0.063435942 -0.033779395 0)
(0.070705822 -0.045973855 0)
(0.069392704 -0.060265101 0)
(0.0905199 -0.064261808 0)
(0.21625198 -0.0025579668 0)
(0.22529506 -0.00076767595 0)
(0.22717241 1.2784613e-005 0)
(0.22553407 0.00018747584 0)
(0.22454574 0.00011500675 0)
(0.22383097 5.2702353e-005 0)
(0.22372982 5.126176e-006 0)
(0.22378198 -6.9916931e-006 0)
(0.22383375 -4.1271423e-006 0)
(0.22384302 -6.1115409e-007 0)
(0.22383933 4.5087357e-007 0)
(0.22383575 2.5840131e-007 0)
(0.22383542 1.3969272e-009 0)
(0.22383586 -4.1028745e-008 0)
(0.22383607 -1.5445635e-008 0)
(0.22383608 3.1901807e-010 0)
(0.22383606 2.2114746e-009 0)
(0.22383605 9.2988181e-010 0)
(0.22383605 3.2472767e-010 0)
(0.22383605 1.7005463e-010 0)
(0.22383605 -1.848822e-010 0)
(0.22383605 4.5261375e-011 0)
(0.22383605 -3.8124046e-010 0)
(0.22383605 -4.9525495e-009 0)
(0.22383612 -4.8624846e-009 0)
(0.21325529 -0.007383503 0)
(0.22125333 -0.0022558798 0)
(0.22334893 5.1041937e-005 0)
(0.22193634 0.00042334378 0)
(0.22105504 0.00033123694 0)
(0.22049014 0.00014222004 0)
(0.22043822 1.0661646e-005 0)
(0.22048759 -2.0235862e-005 0)
(0.22052719 -1.0766072e-005 0)
(0.22053232 -1.0600118e-006 0)
(0.22052816 1.3765674e-006 0)
(0.2205254 6.8591691e-007 0)
(0.22052533 -2.1794257e-008 0)
(0.22052575 -1.2297128e-007 0)
(0.22052592 -3.9981057e-008 0)
(0.22052592 2.5639006e-009 0)
(0.2205259 6.1299902e-009 0)
(0.22052589 2.2610142e-009 0)
(0.22052589 4.0385647e-010 0)
(0.22052589 4.2038352e-010 0)
(0.22052589 4.1689051e-010 0)
(0.22052589 -4.5285766e-010 0)
(0.22052589 -1.9430612e-009 0)
(0.2205259 -1.3598111e-008 0)
(0.22052596 -1.3715236e-008 0)
(0.20713206 -0.011796976 0)
(0.21312666 -0.0036054703 0)
(0.21562881 1.1209695e-005 0)
(0.21433214 0.00065118055 0)
(0.21372309 0.00050396931 0)
(0.21346377 0.00019443397 0)
(0.21349006 9.0966785e-006 0)
(0.21352753 -3.0657859e-005 0)
(0.21354706 -1.4781297e-005 0)
(0.2135456 -8.0337424e-007 0)
(0.21354162 2.2247968e-006 0)
(0.21354021 9.4728526e-007 0)
(0.21354054 -7.952629e-008 0)
(0.21354087 -1.9054431e-007 0)
(0.21354095 -5.5487429e-008 0)
(0.21354094 5.928462e-009 0)
(0.21354092 9.1204583e-009 0)
(0.21354092 2.7749745e-009 0)
(0.21354092 1.6049159e-010 0)
(0.21354092 3.5477427e-010 0)
(0.21354092 6.7187866e-010 0)
(0.21354092 -2.5084495e-010 0)
(0.21354092 -2.9391985e-009 0)
(0.21354093 -2.0814015e-008 0)
(0.21354097 -2.1024969e-008 0)
(0.19757925 -0.015545068 0)
(0.20120886 -0.004870869 0)
(0.20335268 -2.3951459e-005 0)
(0.20224325 0.00082827598 0)
(0.20218034 0.00058044779 0)
(0.20221251 0.00019573565 0)
(0.2022965 -5.9118262e-007 0)
(0.20231142 -3.5747906e-005 0)
(0.20231004 -1.5078279e-005 0)
(0.20230283 1.7426315e-007 0)
(0.20230012 2.7547725e-006 0)
(0.20230023 9.4881717e-007 0)
(0.20230082 -1.7313072e-007 0)
(0.20230098 -2.2770927e-007 0)
(0.20230097 -5.7354308e-008 0)
(0.20230095 9.9208656e-009 0)
(0.20230094 1.0194512e-008 0)
(0.20230095 2.4566623e-009 0)
(0.20230095 -5.075152e-011 0)
(0.20230095 1.360141e-010 0)
(0.20230095 7.5541139e-010 0)
(0.20230095 1.3798364e-010 0)
(0.20230094 -3.6304877e-009 0)
(0.20230095 -2.4762808e-008 0)
(0.20230097 -2.5089526e-008 0)
(0.18468841 -0.018412792 0)
(0.18480797 -0.0057101807 0)
(0.18593242 2.9172444e-005 0)
(0.18547844 0.00083810246 0)
(0.18595447 0.0005409698 0)
(0.18615913 0.00015888823 0)
(0.18626175 -1.2042712e-005 0)
(0.18624877 -3.4948711e-005 0)
(0.18623157 -1.2271641e-005 0)
(0.18622213 1.5384986e-006 0)
(0.18622187 2.8683888e-006 0)
(0.18622322 7.4865649e-007 0)
(0.18622381 -2.6018242e-007 0)
(0.18622375 -2.2917222e-007 0)
(0.18622366 -4.6329956e-008 0)
(0.18622364 1.3229513e-008 0)
(0.18622365 9.6447529e-009 0)
(0.18622365 1.5917319e-009 0)
(0.18622365 -1.7659959e-010 0)
(0.18622365 -1.2180169e-012 0)
(0.18622365 3.858324e-010 0)
(0.18622365 8.1454341e-010 0)
(0.18622365 -3.0385289e-009 0)
(0.18622365 -2.5621436e-008 0)
(0.18622364 -2.6164319e-008 0)
(0.16864061 -0.020326204 0)
(0.16285486 -0.0057126381 0)
(0.16363438 7.1955715e-005 0)
(0.16380878 0.00070820184 0)
(0.16461272 0.00043706037 0)
(0.16487887 0.00010824642 0)
(0.16496683 -1.9396425e-005 0)
(0.16492896 -2.9231561e-005 0)
(0.16490425 -7.8718579e-006 0)
(0.16489694 2.494154e-006 0)
(0.16489951 2.5046135e-006 0)
(0.16490146 4.4728161e-007 0)
(0.16490178 -2.991187e-007 0)
(0.16490152 -1.9414993e-007 0)
(0.1649014 -2.8498989e-008 0)
(0.16490139 1.4332557e-008 0)
(0.1649014 7.4519552e-009 0)
(0.1649014 6.8700558e-010 0)
(0.1649014 -1.1809195e-010 0)
(0.16490141 -6.1668917e-011 0)
(0.16490141 1.1257662e-010 0)
(0.16490141 1.1213087e-009 0)
(0.1649014 -1.7687199e-009 0)
(0.1649014 -2.3405732e-008 0)
(0.16490137 -2.4234355e-008 0)
(0.14783516 -0.020430713 0)
(0.13556986 -0.0050668242 0)
(0.13668154 5.7621182e-005 0)
(0.13701846 0.00049675324 0)
(0.13794829 0.00030536528 0)
(0.13818733 6.0183574e-005 0)
(0.13824302 -2.0028839e-005 0)
(0.13819008 -2.0391984e-005 0)
(0.138167 -3.7094934e-006 0)
(0.13816449 2.5525409e-006 0)
(0.13816907 1.7788936e-006 0)
(0.13817086 1.6551848e-007 0)
(0.1381708 -2.6790401e-007 0)
(0.13817042 -1.3563058e-007 0)
(0.1381703 -1.1345373e-008 0)
(0.13817031 1.2488833e-008 0)
(0.13817033 4.7339236e-009 0)
(0.13817033 7.895574e-011 0)
(0.13817033 -1.8555887e-010 0)
(0.13817033 -1.4089513e-010 0)
(0.13817033 8.7544573e-011 0)
(0.13817033 1.2361565e-009 0)
(0.13817033 -5.9757576e-010 0)
(0.13817032 -1.8344418e-008 0)
(0.13817028 -1.9611111e-008 0)
(0.12033454 -0.017892583 0)
(0.10338002 -0.0038326956 0)
(0.10493395 2.4460437e-005 0)
(0.10502998 0.00027882014 0)
(0.10595456 0.00017824589 0)
(0.10610627 2.4487782e-005 0)
(0.10613157 -1.4812679e-005 0)
(0.1060761 -1.1194315e-005 0)
(0.10606143 -9.8684286e-007 0)
(0.10606314 1.8207216e-006 0)
(0.10606813 9.571656e-007 0)
(0.10606926 -5.5208277e-009 0)
(0.10606891 -1.8055269e-007 0)
(0.10606853 -7.3053814e-008 0)
(0.10606845 -4.786625e-010 0)
(0.10606847 8.3141453e-009 0)
(0.10606849 2.3195164e-009 0)
(0.10606849 -1.3503136e-010 0)
(0.10606849 -1.6334122e-010 0)
(0.10606849 -2.1436397e-010 0)
(0.10606849 8.5010698e-011 0)
(0.10606849 1.1660379e-009 0)
(0.10606849 3.8308174e-010 0)
(0.10606848 -1.1058833e-008 0)
(0.10606843 -1.2608776e-008 0)
(0.085731003 -0.012890206 0)
(0.066394913 -0.0022304699 0)
(0.068136962 2.8718673e-005 0)
(0.06790381 0.00010311371 0)
(0.068701022 7.8252083e-005 0)
(0.068744939 4.8823207e-006 0)
(0.068754755 -6.1393201e-006 0)
(0.068709622 -4.0957184e-006 0)
(0.068704724 1.5691595e-007 0)
(0.068707758 7.7194357e-007 0)
(0.068711554 3.0941417e-007 0)
(0.068711919 -5.1565305e-008 0)
(0.068711516 -7.7708294e-008 0)
(0.068711235 -2.3833735e-008 0)
(0.068711209 2.8081059e-009 0)
(0.06871123 3.5401591e-009 0)
(0.068711241 6.5984838e-010 0)
(0.068711241 -1.1949654e-010 0)
(0.06871124 -5.2021959e-011 0)
(0.06871124 -1.3836541e-010 0)
(0.068711239 5.5946423e-011 0)
(0.06871124 7.1840177e-010 0)
(0.068711242 9.0192527e-010 0)
(0.068711243 -3.759325e-009 0)
(0.068711192 -5.1725559e-009 0)
(0.039738536 -0.0067936211 0)
(0.024234509 -9.8472258e-005 0)
(0.026175105 1.5109458e-005 0)
(0.025666928 1.9587795e-005 0)
(0.026178351 -2.9191255e-006 0)
(0.026127133 -2.5704993e-006 0)
(0.026141811 -1.8323187e-006 0)
(0.026117394 -3.6291087e-007 0)
(0.026119022 -5.3076169e-008 0)
(0.026119963 8.8816635e-009 0)
(0.026121489 -6.0035736e-009 0)
(0.026121368 -4.3306885e-009 0)
(0.026121182 -1.2171003e-009 0)
(0.026121075 1.6299526e-009 0)
(0.026121079 8.7354096e-010 0)
(0.02612109 2.0005055e-010 0)
(0.026121093 9.5630889e-012 0)
(0.026121093 2.3277691e-011 0)
(0.026121093 5.3591268e-012 0)
(0.026121093 -4.3668488e-011 0)
(0.026121092 -1.0363029e-011 0)
(0.026121093 6.8053021e-011 0)
(0.026121094 1.5487259e-010 0)
(0.026121099 -1.0009796e-009 0)
(0.026121076 -1.3746753e-009 0)
(0.039441492 -0.0029117796 0)
(0.040606214 -0.0036619208 0)
(0.042164471 -0.0034315213 0)
(0.043311707 -0.0028527218 0)
(0.044165961 -0.0022734573 0)
(0.044782524 -0.0017643017 0)
(0.045222642 -0.001377731 0)
(0.045547507 -0.0011090168 0)
(0.045797819 -0.00094460284 0)
(0.046007872 -0.00088021874 0)
(0.046202201 -0.00091412388 0)
(0.046408661 -0.0010633649 0)
(0.046651508 -0.0013431384 0)
(0.046953475 -0.0017957788 0)
(0.047363094 -0.0024928392 0)
(0.047908372 -0.003518386 0)
(0.048634991 -0.0050328371 0)
(0.049632647 -0.0073268664 0)
(0.050922945 -0.010812825 0)
(0.052429974 -0.016388021 0)
(0.054417504 -0.024292376 0)
(0.055019062 -0.035485922 0)
(0.055805035 -0.046924147 0)
(0.042949355 -0.059590759 0)
(0.035960365 -0.048174197 0)
(0.039625717 -0.003856272 0)
(0.040998225 -0.0048776473 0)
(0.042743552 -0.004422779 0)
(0.043935912 -0.0036077656 0)
(0.044729779 -0.0028040103 0)
(0.045254088 -0.0021306889 0)
(0.04559692 -0.0016341897 0)
(0.045828585 -0.0012963556 0)
(0.045992877 -0.0010887403 0)
(0.046121439 -0.0010029062 0)
(0.046228789 -0.0010321104 0)
(0.046334502 -0.0011916443 0)
(0.046455319 -0.0014990772 0)
(0.04659474 -0.0019922983 0)
(0.046770144 -0.0027478112 0)
(0.047000659 -0.0038543336 0)
(0.047254451 -0.0054565518 0)
(0.047546801 -0.007840503 0)
(0.047825324 -0.011367722 0)
(0.047742346 -0.016764555 0)
(0.047240686 -0.024099449 0)
(0.04464959 -0.033155654 0)
(0.040073154 -0.040320132 0)
(0.026004441 -0.043209597 0)
(0.010829496 -0.022508169 0)
(0.039955212 -0.0050684064 0)
(0.041650489 -0.0063020883 0)
(0.043624583 -0.0055030127 0)
(0.044814545 -0.0043412558 0)
(0.045494375 -0.0032632665 0)
(0.045878125 -0.0024118039 0)
(0.046086788 -0.0018077648 0)
(0.04619906 -0.0014077976 0)
(0.046260893 -0.0011627447 0)
(0.046292142 -0.0010562643 0)
(0.046303058 -0.0010765067 0)
(0.046300773 -0.0012317586 0)
(0.046288662 -0.0015406705 0)
(0.046262347 -0.0020363617 0)
(0.046195881 -0.0027880509 0)
(0.046102091 -0.0038902932 0)
(0.045908756 -0.0054520584 0)
(0.045545803 -0.0077318749 0)
(0.044919785 -0.011020964 0)
(0.043565637 -0.01583509 0)
(0.041171828 -0.022146495 0)
(0.036441827 -0.029086638 0)
(0.029025536 -0.033627877 0)
(0.016201249 -0.032880557 0)
(0.0026873333 -0.015986139 0)
(0.040510985 -0.0067283506 0)
(0.042557861 -0.0079867256 0)
(0.044669882 -0.0066380293 0)
(0.045730207 -0.0050034059 0)
(0.0462014 -0.0036048058 0)
(0.046383026 -0.0025713271 0)
(0.046414922 -0.001873564 0)
(0.046384952 -0.0014273593 0)
(0.046329454 -0.0011576632 0)
(0.046256942 -0.0010347454 0)
(0.046169192 -0.0010416546 0)
(0.046061145 -0.0011799198 0)
(0.045915183 -0.0014648842 0)
(0.045722341 -0.0019314656 0)
(0.04544148 -0.0026249784 0)
(0.045034714 -0.0036359004 0)
(0.044445578 -0.0050570155 0)
(0.043520317 -0.00707724 0)
(0.042142639 -0.009925177 0)
(0.039848454 -0.013913138 0)
(0.03624698 -0.018925336 0)
(0.030439567 -0.023903275 0)
(0.022201327 -0.026236475 0)
(0.011503106 -0.023424516 0)
(0.0004790876 -0.010439768 0)
(0.041255077 -0.0090086328 0)
(0.043463877 -0.0098492633 0)
(0.04534908 -0.0076821945 0)
(0.046030763 -0.0054816691 0)
(0.046151457 -0.0037581214 0)
(0.046059761 -0.0025680824 0)
(0.045875698 -0.0018096508 0)
(0.045692622 -0.0013436767 0)
(0.045514206 -0.0010669843 0)
(0.045341675 -0.00093688176 0)
(0.045162785 -0.00092935346 0)
(0.044954642 -0.0010421135 0)
(0.044697213 -0.0012851249 0)
(0.044356969 -0.001681987 0)
(0.043898656 -0.0022795326 0)
(0.043237979 -0.0031337913 0)
(0.042322229 -0.004329586 0)
(0.040974695 -0.005990058 0)
(0.039049957 -0.0082892112 0)
(0.036151101 -0.011389229 0)
(0.031859684 -0.015107375 0)
(0.025657985 -0.018441577 0)
(0.017546237 -0.019435986 0)
(0.0085868293 -0.016158272 0)
(-9.0358893e-005 -0.0069174966 0)
(0.041894558 -0.011900479 0)
(0.043784423 -0.011531137 0)
(0.044730742 -0.00832797 0)
(0.044674912 -0.0055905679 0)
(0.044279669 -0.0036338747 0)
(0.043848154 -0.0023638078 0)
(0.0434383 -0.00160102 0)
(0.043102379 -0.0011534271 0)
(0.042816826 -0.00089640683 0)
(0.042559634 -0.00077058426 0)
(0.042309491 -0.00075270313 0)
(0.042029497 -0.0008315594 0)
(0.041695912 -0.0010197077 0)
(0.041257428 -0.0013274434 0)
(0.040674353 -0.0017906302 0)
(0.03985927 -0.0024508848 0)
(0.038736189 -0.0033657865 0)
(0.037148406 -0.004616993 0)
(0.034928574 -0.0063164755 0)
(0.031773494 -0.0085329569 0)
(0.027312278 -0.011077616 0)
(0.021282415 -0.013148661 0)
(0.013832364 -0.013314838 0)
(0.0065372441 -0.010340919 0)
(-0.00022575373 -0.0041690991 0)
(0.041916758 -0.015059731 0)
(0.042678885 -0.01227036 0)
(0.041772552 -0.0081453092 0)
(0.040644672 -0.0051093269 0)
(0.039606335 -0.0031359923 0)
(0.038811218 -0.0019363666 0)
(0.038215144 -0.0012567943 0)
(0.037759818 -0.00087468071 0)
(0.037404371 -0.00066237949 0)
(0.037100136 -0.00055709905 0)
(0.03681435 -0.0005332484 0)
(0.036509349 -0.0005823724 0)
(0.036146523 -0.00070724212 0)
(0.035681913 -0.00091823634 0)
(0.035063042 -0.0012333235 0)
(0.034216634 -0.00168307 0)
(0.033053444 -0.0023020125 0)
(0.031444921 -0.0031382763 0)
(0.029233105 -0.0042571642 0)
(0.026183733 -0.0056858333 0)
(0.022027623 -0.0072458703 0)
(0.016672962 -0.0083842161 0)
(0.010358299 -0.0081454114 0)
(0.0047372655 -0.0058455431 0)
(-0.00025356404 -0.002128734 0)
(0.040366941 -0.017527166 0)
(0.039205408 -0.011268889 0)
(0.035565064 -0.0067868876 0)
(0.03334349 -0.0039330827 0)
(0.031738969 -0.0022670635 0)
(0.030684195 -0.0013227342 0)
(0.029995901 -0.00081549667 0)
(0.029506038 -0.00054484733 0)
(0.029142404 -0.00040058936 0)
(0.028845878 -0.00032831763 0)
(0.028575724 -0.00030734702 0)
(0.028296713 -0.00033051247 0)
(0.027969196 -0.00039718057 0)
(0.027555719 -0.00051406266 0)
(0.027007059 -0.0006899953 0)
(0.026261993 -0.00094042536 0)
(0.025242395 -0.001284062 0)
(0.023846265 -0.0017463599 0)
(0.021949066 -0.0023606144 0)
(0.019372635 -0.0031254169 0)
(0.015949841 -0.0039262342 0)
(0.011689383 -0.0044349576 0)
(0.0068780022 -0.0041101966 0)
(0.0029864978 -0.0026085284 0)
(-0.00023082445 -0.00072469983 0)
(0.034975916 -0.016178529 0)
(0.032183207 -0.0076647859 0)
(0.025425057 -0.0042623157 0)
(0.022755753 -0.0022456051 0)
(0.02094204 -0.0012291055 0)
(0.019897206 -0.00068058994 0)
(0.019273127 -0.00039914415 0)
(0.018865065 -0.00025569545 0)
(0.018575799 -0.0001818341 0)
(0.018349301 -0.00014482788 0)
(0.018150262 -0.00013265482 0)
(0.017949594 -0.00014001487 0)
(0.017719302 -0.00016634908 0)
(0.017430528 -0.00021472626 0)
(0.017048183 -0.00028766741 0)
(0.016529217 -0.00039171397 0)
(0.015819592 -0.00053328306 0)
(0.014850927 -0.00072358223 0)
(0.013534777 -0.00097407013 0)
(0.011760142 -0.001275953 0)
(0.0094305112 -0.0015825684 0)
(0.0066089595 -0.001741293 0)
(0.0035288745 -0.0015245675 0)
(0.0013113292 -0.00076422458 0)
(-0.0002303206 -3.7201662e-005 0)
(0.020662056 -0.012099554 0)
(0.017541006 -0.0023448209 0)
(0.010795529 -0.0004381351 0)
(0.0093941425 -0.00020159933 0)
(0.0080758051 -7.5594562e-005 0)
(0.0074639215 -3.1177369e-005 0)
(0.0071074494 -1.0711714e-005 0)
(0.0068937231 -1.6782067e-006 0)
(0.0067507826 2.1711487e-006 0)
(0.0066448454 3.9343938e-006 0)
(0.0065557029 5.1437988e-006 0)
(0.0064686734 6.383666e-006 0)
(0.0063712949 8.0782216e-006 0)
(0.006249989 1.0108663e-005 0)
(0.0060895716 1.3198432e-005 0)
(0.0058719731 1.7508289e-005 0)
(0.0055751643 2.3368368e-005 0)
(0.0051714263 3.1006978e-005 0)
(0.0046244071 4.0970434e-005 0)
(0.00389529 5.4447764e-005 0)
(0.0029492124 7.1337491e-005 0)
(0.001848787 0.0001024672 0)
(0.00067939033 0.00011403976 0)
(1.9770748e-005 0.00017024007 0)
(-0.00018750682 0.00015711061 0)
)
;

boundaryField
{
    inlet
    {
        type            fixedValue;
        value           uniform (0.03876 0 0);
    }
    walls
    {
        type            fixedValue;
        value           uniform (0 0 0);
    }
    outlet
    {
        type            zeroGradient;
    }
    centreline
    {
        type            symmetryPlane;
    }
    frontAndBack
    {
        type            empty;
    }
}


// ************************************************************************* //
