# vtk DataFile Version 2.0
track0
ASCII
DATASET POLYDATA
POINTS 11930 float
-0.0205 0.001 1e-005
-0.0203851 0.00100536 1.50243e-005
-0.0202701 0.00101047 1.96639e-005
-0.0201551 0.00101535 2.39718e-005
-0.0200401 0.00102 2.79432e-005
-0.0198624 0.00102682 3.35501e-005
-0.0196934 0.00103276 3.80972e-005
-0.0195243 0.00103809 4.16126e-005
-0.0193551 0.00104282 4.41053e-005
-0.019186 0.00104693 4.55846e-005
-0.0190172 0.00105043 4.60589e-005
-0.0187132 0.00105594 4.60589e-005
-0.0184093 0.00106081 4.60589e-005
-0.0181054 0.00106516 4.60589e-005
-0.0178014 0.00106898 4.60589e-005
-0.0174976 0.00107228 4.60589e-005
-0.0172058 0.00107515 4.60589e-005
-0.016914 0.00107795 4.60589e-005
-0.0166222 0.00108068 4.60589e-005
-0.0163305 0.00108334 4.60589e-005
-0.0160387 0.00108594 4.60589e-005
-0.0157586 0.00108833 4.60589e-005
-0.0154784 0.00109065 4.60589e-005
-0.0151983 0.0010929 4.60589e-005
-0.0149182 0.00109506 4.60589e-005
-0.0146381 0.00109714 4.60589e-005
-0.0143692 0.00109901 4.60589e-005
-0.0141002 0.00110079 4.60589e-005
-0.0138313 0.00110249 4.60589e-005
-0.0135624 0.00110412 4.60589e-005
-0.0132934 0.00110567 4.60589e-005
-0.0130353 0.00110708 4.60589e-005
-0.0127771 0.00110844 4.60589e-005
-0.0125189 0.00110975 4.60589e-005
-0.0122607 0.00111103 4.60589e-005
-0.0120025 0.00111227 4.60589e-005
-0.0117547 0.00111342 4.60589e-005
-0.0115068 0.00111455 4.60589e-005
-0.0112589 0.00111567 4.60589e-005
-0.0110111 0.00111676 4.60589e-005
-0.0107632 0.00111784 4.60589e-005
-0.0105252 0.00111885 4.60589e-005
-0.0102873 0.00111985 4.60589e-005
-0.0100493 0.00112083 4.60589e-005
-0.00981133 0.00112181 4.60589e-005
-0.00957337 0.00112277 4.60589e-005
-0.00934491 0.00112368 4.60589e-005
-0.00911645 0.00112458 4.60589e-005
-0.00888799 0.00112547 4.60589e-005
-0.00865954 0.00112636 4.60589e-005
-0.00843108 0.00112723 4.60589e-005
-0.00821175 0.00112806 4.60589e-005
-0.00799242 0.00112889 4.60589e-005
-0.00777309 0.00112971 4.60589e-005
-0.00755376 0.00113052 4.60589e-005
-0.00733443 0.00113133 4.60589e-005
-0.00712387 0.0011321 4.60589e-005
-0.0069133 0.00113287 4.60589e-005
-0.00670273 0.00113363 4.60589e-005
-0.00649216 0.00113439 4.60589e-005
-0.0062816 0.00113515 4.60589e-005
-0.00607944 0.00113588 4.60589e-005
-0.00587729 0.0011366 4.60589e-005
-0.00567514 0.00113732 4.60589e-005
-0.00547298 0.00113804 4.60589e-005
-0.00527083 0.00113876 4.60589e-005
-0.00507675 0.00113945 4.60589e-005
-0.00488267 0.00114014 4.60589e-005
-0.0046886 0.00114083 4.60589e-005
-0.00449452 0.00114151 4.60589e-005
-0.00430044 0.0011422 4.60589e-005
-0.00411412 0.00114286 4.60589e-005
-0.0039278 0.00114352 4.60589e-005
-0.00374147 0.00114418 4.60589e-005
-0.00355515 0.00114484 4.60589e-005
-0.00336883 0.0011455 4.60589e-005
-0.00318995 0.00114614 4.60589e-005
-0.00301107 0.00114677 4.60589e-005
-0.00283219 0.0011474 4.60589e-005
-0.00265331 0.00114804 4.60589e-005
-0.00247443 0.00114868 4.60589e-005
-0.0023027 0.0011493 4.60589e-005
-0.00213097 0.00114991 4.60589e-005
-0.00195924 0.00115053 4.60589e-005
-0.0017875 0.00115114 4.60589e-005
-0.00161577 0.00115176 4.60589e-005
-0.0014509 0.00115237 4.60589e-005
-0.00128603 0.00115297 4.60589e-005
-0.00112116 0.00115356 4.60589e-005
-0.000956289 0.00115416 4.60589e-005
-0.000791418 0.00115477 4.60589e-005
-0.000633135 0.00115536 4.60589e-005
-0.000474851 0.00115595 4.60589e-005
-0.000316567 0.00115654 4.60589e-005
-0.000158284 0.00115713 4.60589e-005
0 0.00115773 4.60589e-005
0.000105677 0.00115814 4.60589e-005
0.000211355 0.00115854 4.60589e-005
0.000317032 0.00115894 4.60589e-005
0.00042271 0.00115935 4.60589e-005
0.000528387 0.00115977 4.60589e-005
0.000634886 0.0011602 4.60589e-005
0.000741385 0.00116062 4.60589e-005
0.000847885 0.00116105 4.60589e-005
0.000954384 0.00116148 4.60589e-005
0.00106088 0.00116193 4.60589e-005
0.00116821 0.00116239 4.60589e-005
0.00127554 0.00116285 4.60589e-005
0.00138286 0.0011633 4.60589e-005
0.00149019 0.00116377 4.60589e-005
0.00159752 0.00116424 4.60589e-005
0.00170568 0.00116472 4.60589e-005
0.00181384 0.0011652 4.60589e-005
0.001922 0.00116568 4.60589e-005
0.00203016 0.00116617 4.60589e-005
0.00213833 0.00116665 4.60589e-005
0.00224733 0.00116715 4.60589e-005
0.00235633 0.00116765 4.60589e-005
0.00246533 0.00116815 4.60589e-005
0.00257434 0.00116864 4.60589e-005
0.00268334 0.00116914 4.60589e-005
0.00279319 0.00116965 4.60589e-005
0.00290304 0.00117016 4.60589e-005
0.00301289 0.00117067 4.60589e-005
0.00312274 0.00117118 4.60589e-005
0.00323259 0.00117169 4.60589e-005
0.00334329 0.0011722 4.60589e-005
0.003454 0.00117273 4.60589e-005
0.0035647 0.00117325 4.60589e-005
0.0036754 0.00117378 4.60589e-005
0.00378611 0.0011743 4.60589e-005
0.00389767 0.00117482 4.60589e-005
0.00400924 0.00117535 4.60589e-005
0.0041208 0.00117589 4.60589e-005
0.00423237 0.00117643 4.60589e-005
0.00434393 0.00117696 4.60589e-005
0.00445636 0.00117748 4.60589e-005
0.00456879 0.00117802 4.60589e-005
0.00468123 0.00117857 4.60589e-005
0.00479366 0.00117911 4.60589e-005
0.00490609 0.00117965 4.60589e-005
0.0050194 0.00118018 4.60589e-005
0.0051327 0.00118072 4.60589e-005
0.00524601 0.00118127 4.60589e-005
0.00535931 0.00118182 4.60589e-005
0.00547262 0.00118237 4.60589e-005
0.00558681 0.00118289 4.60589e-005
0.005701 0.00118344 4.60589e-005
0.00581518 0.00118399 4.60589e-005
0.00592937 0.00118454 4.60589e-005
0.00604356 0.00118509 4.60589e-005
0.00615863 0.00118562 4.60589e-005
0.00627371 0.00118617 4.60589e-005
0.00638878 0.00118672 4.60589e-005
0.00650386 0.00118727 4.60589e-005
0.00661893 0.00118782 4.60589e-005
0.0067349 0.00118835 4.60589e-005
0.00685087 0.00118889 4.60589e-005
0.00696684 0.00118944 4.60589e-005
0.00708281 0.00118999 4.60589e-005
0.00719878 0.00119053 4.60589e-005
0.00731565 0.00119106 4.60589e-005
0.00743252 0.00119161 4.60589e-005
0.00754939 0.00119215 4.60589e-005
0.00766626 0.00119269 4.60589e-005
0.00778313 0.00119323 4.60589e-005
0.00790091 0.00119376 4.60589e-005
0.00801869 0.00119429 4.60589e-005
0.00813647 0.00119483 4.60589e-005
0.00825425 0.00119536 4.60589e-005
0.00837203 0.0011959 4.60589e-005
0.00849073 0.00119642 4.60589e-005
0.00860942 0.00119695 4.60589e-005
0.00872812 0.00119748 4.60589e-005
0.00884682 0.00119801 4.60589e-005
0.00896551 0.00119854 4.60589e-005
0.00908513 0.00119906 4.60589e-005
0.00920475 0.00119958 4.60589e-005
0.00932437 0.00120011 4.60589e-005
0.00944398 0.00120063 4.60589e-005
0.0095636 0.00120115 4.60589e-005
0.00968415 0.00120167 4.60589e-005
0.0098047 0.00120219 4.60589e-005
0.00992525 0.0012027 4.60589e-005
0.0100458 0.00120321 4.60589e-005
0.0101663 0.00120372 4.60589e-005
0.0102878 0.00120423 4.60589e-005
0.0104093 0.00120474 4.60589e-005
0.0105308 0.00120525 4.60589e-005
0.0106523 0.00120575 4.60589e-005
0.0107738 0.00120625 4.60589e-005
0.0108962 0.00120674 4.60589e-005
0.0110186 0.00120724 4.60589e-005
0.0111411 0.00120774 4.60589e-005
0.0112635 0.00120823 4.60589e-005
0.0113859 0.00120872 4.60589e-005
0.0115093 0.0012092 4.60589e-005
0.0116327 0.00120969 4.60589e-005
0.0117561 0.00121018 4.60589e-005
0.0118795 0.00121066 4.60589e-005
0.0120028 0.00121113 4.60589e-005
0.0121272 0.00121161 4.60589e-005
0.0122515 0.00121208 4.60589e-005
0.0123759 0.00121256 4.60589e-005
0.0125002 0.00121303 4.60589e-005
0.0126245 0.00121349 4.60589e-005
0.0127498 0.00121395 4.60589e-005
0.0128752 0.00121442 4.60589e-005
0.0130005 0.00121488 4.60589e-005
0.0131258 0.00121534 4.60589e-005
0.0132511 0.00121579 4.60589e-005
0.0133774 0.00121623 4.60589e-005
0.0135036 0.00121669 4.60589e-005
0.0136299 0.00121713 4.60589e-005
0.0137562 0.00121757 4.60589e-005
0.0138825 0.00121801 4.60589e-005
0.0140098 0.00121844 4.60589e-005
0.014137 0.00121888 4.60589e-005
0.0142643 0.00121931 4.60589e-005
0.0143915 0.00121973 4.60589e-005
0.0145188 0.00122015 4.60589e-005
0.0146471 0.00122056 4.60589e-005
0.0147753 0.00122098 4.60589e-005
0.0149036 0.00122139 4.60589e-005
0.0150318 0.0012218 4.60589e-005
0.0151601 0.0012222 4.60589e-005
0.0152893 0.00122259 4.60589e-005
0.0154186 0.00122299 4.60589e-005
0.0155478 0.00122338 4.60589e-005
0.0156771 0.00122376 4.60589e-005
0.0158063 0.00122414 4.60589e-005
0.0159366 0.00122452 4.60589e-005
0.0160668 0.00122489 4.60589e-005
0.0161971 0.00122526 4.60589e-005
0.0163274 0.00122562 4.60589e-005
0.0164576 0.00122597 4.60589e-005
0.0165889 0.00122632 4.60589e-005
0.0167201 0.00122667 4.60589e-005
0.0168514 0.00122701 4.60589e-005
0.0169827 0.00122734 4.60589e-005
0.0171139 0.00122767 4.60589e-005
0.0172205 0.00122793 4.60589e-005
0.0173271 0.00122819 4.60589e-005
0.0174337 0.00122844 4.60589e-005
0.0175403 0.00122869 4.60589e-005
0.0176431 0.00122893 4.60589e-005
0.0176696 0.00122899 4.60589e-005
0.017696 0.00122905 4.60589e-005
0.0177225 0.00122911 4.60589e-005
0.0177489 0.00122917 4.60589e-005
0.0177754 0.00122923 4.60589e-005
0.0179087 0.00122952 4.60589e-005
0.018042 0.00122981 4.60589e-005
0.0181753 0.00123009 4.60589e-005
0.0183087 0.00123036 4.60589e-005
0.018442 0.00123062 4.60589e-005
0.0185763 0.00123088 4.60589e-005
0.0187107 0.00123113 4.60589e-005
0.018845 0.00123138 4.60589e-005
0.0189794 0.00123161 4.60589e-005
0.0191137 0.00123184 4.60589e-005
0.0192491 0.00123206 4.60589e-005
0.0193845 0.00123227 4.60589e-005
0.0195199 0.00123248 4.60589e-005
0.0196553 0.00123268 4.60589e-005
0.0197907 0.00123286 4.60589e-005
0.0199272 0.00123304 4.60589e-005
0.0200636 0.00123321 4.60589e-005
0.0202001 0.00123338 4.60589e-005
0.0203365 0.00123353 4.60589e-005
0.020473 0.00123367 4.60589e-005
0.0206105 0.00123381 4.60589e-005
0.020748 0.00123393 4.60589e-005
0.0208855 0.00123405 4.60589e-005
0.021023 0.00123416 4.60589e-005
0.0211606 0.00123425 4.60589e-005
0.0212991 0.00123434 4.60589e-005
0.0214377 0.00123442 4.60589e-005
0.0215763 0.00123449 4.60589e-005
0.0217149 0.00123454 4.60589e-005
0.0218535 0.00123459 4.60589e-005
0.0219931 0.00123463 4.60589e-005
0.0221328 0.00123465 4.60589e-005
0.0222724 0.00123467 4.60589e-005
0.0224121 0.00123467 4.60589e-005
0.0225517 0.00123467 4.60589e-005
[...]
POINT_DATA 11930
 FIELD attributes 2
p 1 11930 float
-1548.29 -1535.7 -1521.9 -1508.25 -1494.75 -1474.13 -1459.47 -1444.74 -1429.93 -1415.05 -1394.29 -1346.2 -1298.2 -1250.27 -1202.4 -1160.01 -1128.44 -1103.07 -1077.7 -1052.34 -1035.6 -1023.86 -1014.38 -1004.9 -995.42 -987.77 -980.936 -972.972 -965.008 -957.044 -947.983 -939.48 -930.807 -922.129 -913.472 -905.064 -897.081 -889.876 -882.764 -875.805 -869.759 -863.975 -858.757 -853.658 -848.713 -844.353 -840.176 -836.221 -832.333 -828.534 -824.978 -821.569 -818.289 -815.062 -811.907 -808.904 -806.016 -803.255 -800.56 -797.945 -795.47 -793.073 -790.788 -788.576 -786.447 -784.435 -782.466 -780.581 -778.761 -777.014 -775.355 -773.704 -772.118 -770.591 -769.133 -767.744 -766.33 -764.965 -763.656 -762.414 -761.231 -759.992 -758.799 -757.665 -756.608 -755.607 -754.519 -753.464 -752.457 -751.533 -750.661 -749.676 -748.744 -747.906 -747.198 -746.558 -745.812 -745.132 -744.575 -744.168 -743.849 -743.327 -742.852 -742.446 -742.144 -741.921 -741.489 -741.165 -740.964 -740.886 -740.924 -740.761 -740.682 -740.679 -740.743 -740.886 -740.978 -741.059 -741.132 -741.198 -741.253 -741.516 -741.681 -741.787 -741.834 -741.77 -742.158 -742.376 -742.515 -742.567 -742.415 -742.882 -743.125 -743.286 -743.357 -743.148 -743.638 -743.864 -744.017 -744.092 -743.842 -744.293 -744.467 -744.586 -744.651 -744.385 -744.761 -744.888 -744.984 -745.051 -744.82 -745.119 -745.22 -745.308 -745.388 -745.225 -745.449 -745.528 -745.605 -745.682 -745.589 -745.736 -745.795 -745.855 -745.915 -745.884 -745.97 -746.021 -746.072 -746.124 -746.146 -746.201 -746.255 -746.31 -746.365 -746.43 -746.474 -746.536 -746.597 -746.659 -746.752 -746.802 -746.871 -746.939 -747.008 -747.11 -747.176 -747.25 -747.324 -747.398 -747.496 -747.582 -747.663 -747.743 -747.824 -747.916 -748.027 -748.12 -748.213 -748.305 -748.393 -748.531 -748.638 -748.744 -748.85 -748.937 -749.098 -749.218 -749.337 -749.457 -749.545 -749.725 -749.856 -749.987 -750.119 -750.212 -750.405 -750.548 -750.692 -750.835 -750.939 -751.141 -751.296 -751.452 -751.608 -751.727 -751.933 -752.1 -752.267 -752.434 -752.572 -752.782 -752.962 -753.143 -753.323 -753.484 -753.699 -753.895 -754.091 -754.287 -754.474 -754.65 -754.819 -754.988 -755.156 -755.319 -755.361 -755.402 -755.444 -755.486 -755.535 -755.749 -755.97 -756.19 -756.411 -756.674 -756.87 -757.103 -757.336 -757.57 -757.876 -758.059 -758.305 -758.551 -758.797 -759.141 -759.317 -759.574 -759.832 -760.09 -760.464 -760.638 -760.907 -761.176 -761.445 -761.84 -762.021 -762.301 -762.581 -762.861 -763.267 -763.463 -763.753 -764.043 -764.333 -764.742 -764.959 -765.259 -765.559 -765.859 -766.261 -766.505 -766.814 -767.123 -767.432 -767.821 -768.098 -768.415 -768.733 -769.051 -769.419 -769.732 -770.058 -770.385 -770.711 -771.054 -771.407 -771.742 -772.076 -772.411 -772.728 -773.118 -773.463 -773.806 -774.144 -774.439 -774.858 -775.22 -775.572 -775.908 -776.187 -776.63 -777.012 -777.372 -777.703 -777.972 -778.433 -778.836 -779.204 -779.529 -779.795 -780.27 -780.694 -781.072 -781.392 -781.66 -782.148 -782.595 -782.983 -783.297 -783.57 -784.068 -784.536 -784.932 -785.238 -785.516 -786.019 -786.506 -786.907 -787.204 -787.486 -787.988 -788.486 -788.889 -789.181 -789.471 -789.967 -790.463 -790.864 -791.166 -791.468 -791.954 -792.44 -792.843 -793.158 -793.474 -793.948 -794.423 -794.827 -795.156 -795.486 -795.948 -796.41 -796.813 -797.157 -797.501 -797.948 -798.397 -798.799 -799.155 -799.511 -799.945 -800.379 -800.779 -801.146 -801.513 -801.932 -802.352 -802.749 -803.124 -803.498 -803.904 -804.309 -804.701 -805.081 -805.46 -805.851 -806.242 -806.628 -807.01 -807.391 -807.767 -808.144 -808.523 -808.902 -809.281 -809.643 -810.008 -810.378 -810.749 -811.123 -811.47 -811.823 -812.182 -812.543 -812.908 -813.239 -813.58 -813.926 -814.273 -814.626 -814.941 -815.269 -815.599 -815.929 -816.268 -816.565 -816.876 -817.188 -817.5 -817.82 -818.098 -818.389 -818.681 -818.972 -819.271 -819.529 -819.798 -820.067 -820.337 -820.614 -820.85 -821.096 -821.342 -821.588 -821.841 -822.054 -822.276 -822.497 -822.719 -822.944 -823.135 -823.329 -823.524 -823.72 -823.915 -823.948 -823.982 -824.016 -824.05 -824.083 -824.216 -824.35 -824.483 -824.617 -824.749 -824.886 -825.022 -825.157 -825.292 -825.423 -825.531 -825.632 -825.733 -825.834 -825.928 -826.004 -826.07 -826.135 -826.201 -826.256 -826.298 -826.326 -826.353 -826.381 -826.394 -826.402 -826.389 -826.376 -826.361 -826.33 -826.297 -826.246 -826.19 -826.129 -826.054 -825.978 -825.888 -825.788 -825.677 -825.556 -825.435 -825.304 -825.158 -824.995 -824.825 -824.657 -824.485 -824.289 -824.071 -823.852 -823.633 -823.415 -823.168 -822.896 -822.624 -822.354 -822.084 -821.785 -821.458 -821.132 -820.807 -820.483 -820.13 -819.747 -819.364 -818.982 -818.601 -818.192 -817.75 -817.308 -816.868 -816.426 -815.955 -815.457 -814.954 -814.452 -813.941 -813.408 -812.856 -812.289 -811.724 -811.141 -810.543 -809.935 -809.304 -808.673 -808.015 -807.35 -806.685 -805.986 -805.284 -804.55 -803.817 -803.083 -802.324 -801.542 -800.736 -799.931 -799.126 -798.306 -797.44 -796.56 -795.681 -794.802 -793.919 -793.633 -793.344 -793.055 -792.766 -792.483 -791.819 -791.155 -790.491 -789.828 -789.154 -788.136 -787.107 -786.079 -785.051 -783.997 -782.916 -781.807 -780.699 -779.592 -778.44 -777.294 -776.104 -774.914 -773.717 -772.471 -771.246 -769.987 -768.713 -767.414 -766.083 -764.772 -763.446 -762.087 -760.682 -759.265 -757.868 -756.471 -755.021 -753.515 -752.009 -750.524 -749.039 -747.5 -745.904 -744.308 -742.733 -741.159 -739.528 -737.841 -736.154 -734.489 -732.813 -731.085 -729.32 -727.541 -725.784 -723.992 -722.171 -720.335 -718.463 -716.613 -714.703 -712.787 -710.872 -708.915 -706.951 -704.94 -702.93 -700.92 -698.891 -697.212 -695.512 -693.813 -692.113 -690.502 -690.081 -689.66 -689.239 -688.818 -688.392 -686.208 -684.02 -681.832 -679.645 -677.424 -675.169 -672.886 -670.603 -668.32 -665.974 -663.639 -661.269 -658.89 -656.484 -654.04 -651.609 -649.169 -646.696 -644.162 -641.623 -639.097 -636.571 -633.992 -631.358 -628.723 -626.102 -623.481 -620.802 -618.073 -615.344 -612.628 -609.886 -607.106 -604.309 -601.487 -598.677 -595.808 -592.933 -590.059 -587.156 -584.225 -581.257 -578.29 -575.323 -572.355 -572.206 -572.055 -571.904 -571.753 -571.602 -568.701 -565.8 -562.9 -560 -557.076 -553.95 -550.809 -547.668 -544.526 -541.34 -538.133 -534.912 -531.683 -528.428 -525.155 -521.861 -518.567 -515.247 -511.888 -508.529 -505.149 -501.77 -498.355 -494.913 -491.47 -488.007 -484.53 -481.025 -477.514 -473.99 -470.445 -466.863 -463.278 -459.694 -456.098 -453.383 -450.649 -447.916 -445.183 -442.562 -441.611 -440.661 -439.711 -438.761 -437.804 -434.075 -430.342 -426.61 -422.879 -419.113 -415.324 -411.519 -407.714 -403.893 -400.046 -396.185 -392.323 -388.446 -384.531 -380.615 -376.685 -372.756 -368.797 -364.816 -360.835 -356.839 -352.83 -348.798 -344.763 -340.719 -336.658 -332.565 -328.471 -324.379 -320.281 -318.605 -316.919 -315.233 -313.548 -311.897 -309.426 -306.956 -304.485 -302.015 -299.53 -295.332 -291.128 -286.925 -282.72 -278.483 -274.235 -269.984 -265.728 -261.448 -257.161 -252.862 -248.565 -244.249 -239.916 -235.582 -231.236 -226.884 -222.512 -218.139 -213.761 -209.372 -204.958 -200.545 -196.132 -191.717 -190.242 -188.761 -187.28 -185.8 -184.342 -181.367 -178.392 -175.417 -172.443 -169.455 -164.97 -160.484 -155.999 -151.508 -146.999 -142.482 -137.965 -133.448 -128.911 -124.372 -119.826 -115.28 -110.72 -106.156 -101.59 -97.0152 -92.4324 -87.8447 -83.2575 -78.6704 -75.4479 -72.2204 -68.9932 -65.7662 -62.6391 -61.2404 -59.8418 -58.4432 -57.0447 -55.6429 -51.0186 -46.3959 -41.7738 -37.1513 -32.5151 -27.874 -23.2353 -18.5998 -13.9558 -9.30852 -4.65571 -0.00348411 4.65203 9.30329 13.9567 18.6164 23.2777 27.94 32.6018 37.259 40.1482 43.0378 45.9271 48.8163 51.6324 53.4235 55.2145 57.0054 58.7963 60.5886 65.2613 69.9291 74.5963 79.2633 83.9328 88.6058 93.2769 97.9384 102.598 107.259 111.925 116.589 121.249 125.9 130.551 135.205 139.853 144.499 149.146 153.791 154.61 155.428 156.246 157.065 157.877 161.7 165.522 169.344 173.166 176.983 181.62 186.245 190.867 195.482 200.096 204.712 209.327 213.93 218.518 223.109 227.701 232.284 236.861 241.437 246.006 248.004 249.995 251.986 253.977 255.938 258.51 261.082 263.654 266.225 268.79 273.336 277.869 282.402 286.925 291.443 295.959 300.475 304.974 309.456 313.94 318.422 322.893 327.354 331.815 336.267 338.234 340.192 342.15 344.108 346.04 348.52 351 353.481 355.96 358.43 362.846 367.247 371.647 376.035 380.416 384.791 389.166 393.522 397.859 402.197 406.529 410.844 415.152 419.46 423.763 424.72 425.672 426.624 427.576 428.522 431.848 435.174 438.5 441.825 445.134 449.383 453.623 457.856 462.067 466.278 470.478 474.678 478.852 483.017 487.177 490.518 493.84 497.159 500.478 503.737 504.557 505.376 506.196 507.015 507.83 511.927 516.018 520.108 524.19 528.257 532.308 536.359 540.389 544.398 548.408 552.403 556.381 560.347 564.313 568.275 569.043 569.806 570.568 571.33 572.09 575.255 578.42 581.585 584.746 587.888 591.775 595.659 599.525 603.364 607.205 611.028 614.841 618.632 622.423 626.2 627.576 628.941 630.304 631.667 633.026 635.405 637.784 640.163 642.538 644.896 648.597 652.289 655.969 659.615 663.261 666.888 670.506 674.093 677.679 681.24 682.715 684.179 685.64 687.102 688.569 690.635 692.701 694.767 696.829 698.877 702.369 705.831 709.267 712.617 715.962 719.286 722.641 726.109 729.582 733.109 734.667 735.929 737.1 738.271 739.467 741.173 742.878 744.584 746.185 747.425 749.629 752.424 755.502 760.085 764.841 769.48 773.496 775.923 778.353 780.455 780.604 780.787 781.022 781.258 781.494 783.309 785.125 786.942 789.251 791.885 794.817 797.741 800.528 803.314 806.038 806.573 807.098 807.602 808.107 808.62 810.812 813.003 815.193 817.312 819.386 821.977 824.566 827.061 829.538 831.964 832.584 833.19 833.77 834.349 834.948 836.752 838.554 840.354 842.085 843.772 846.027 848.279 850.373 852.381 854.341 855.027 855.681 856.283 856.886 857.526 858.747 859.964 861.179 862.314 863.386 865.006 866.619 868.033 869.242 870.441 871.107 871.685 872.159 872.631 873.165 873.573 873.98 874.386 874.737 875.023 875.649 876.152 876.561 876.619 876.668 876.581 876.301 875.78 875.251 874.617 874.479 874.294 874.083 873.872 873.652 872.725 871.786 870.836 869.756 868.4 866.586 864.76 862.494 859.82 857.133 854.189 850.867 847.277 843.68 839.893 838.894 837.766 836.615 835.464 834.226 830.714 827.192 823.659 820.079 816.071 810.418 804.449 798.227 791.279 784.211 776.675 769.125 761.014 752.402 743.741 734.558 724.227 713.579 702.929 691.755 686.855 681.946 677.035 672.123 666.515 659.282 652.044 644.802 637.556 630.27 616.42 600.745 585.038 568.419 549.12 528.851 509.214 491.687 477.707 463.831 449.209 434.588 407.157 367.392 327.594 286.001 252.991 236.633 228.182 231.149 233.927 177.57 120.179 62.4933 0