/*--------------------------------*- C++ -*----------------------------------*\
| =========                 |                                                 |
| \\      /  F ield         | OpenFOAM: The Open Source CFD Toolbox           |
|  \\    /   O peration     | Version:  5.x                                   |
|   \\  /    A nd           | Web:      www.OpenFOAM.org                      |
|    \\/     M anipulation  |                                                 |
\*---------------------------------------------------------------------------*/
/*   Windows 32 and 64 bit porting by blueCAPE: http://www.bluecape.com.pt   *\
|  Based on Windows porting (2.0.x v4) by Symscape: http://www.symscape.com   |
\*---------------------------------------------------------------------------*/
FoamFile
{
    version     2.0;
    format      ascii;
    class       surfaceScalarField;
    location    "0";
    object      phi;
}
// * * * * * * * * * * * * * * * * * * * * * * * * * * * * * * * * * * * * * //

dimensions      [0 3 -1 0 0 0 0];

internalField   nonuniform List<scalar> 
1890
(
0.000100095
-9.99978e-008
0.000100195
-1.00003e-007
0.000100295
-1.00008e-007
0.000100395
-1.00013e-007
0.000100495
-1.00016e-007
0.000100595
-1.00019e-007
0.000100695
-1.00021e-007
0.000100795
-1.00024e-007
0.000100895
-1.00027e-007
0.000100995
-1.00032e-007
0.000101095
-1.00037e-007
0.000101195
-1.00042e-007
0.000101295
-1.00044e-007
0.000101395
-1.0004e-007
0.000101495
-1.00021e-007
0.000101595
-9.9983e-008
0.000101695
-9.99259e-008
0.000101794
-9.98617e-008
0.000101894
-9.98115e-008
0.000101993
-9.97793e-008
0.000102092
-9.98152e-008
0.000102192
-9.99029e-008
0.000102291
-9.99719e-008
0.00010239
-1.00016e-007
0.00010249
-1.00028e-007
0.00010259
-1.00036e-007
0.00010269
-1.00026e-007
0.00010279
-1.00026e-007
0.00010289
-1.00014e-007
0.00010299
-1.00016e-007
0.00010309
-1.00008e-007
0.00010319
-1.00014e-007
0.00010329
-1.0001e-007
0.00010339
-1.00018e-007
0.00010349
-1.00017e-007
0.000103589
-1.00025e-007
0.000103689
-1.00024e-007
0.000103789
-1.00032e-007
0.000103889
-1.0003e-007
0.000103989
-1.00037e-007
0.000104089
-1.00035e-007
0.000104189
-1.00042e-007
0.000104289
-1.00039e-007
0.000104389
-1.00046e-007
0.000104489
-1.00043e-007
0.000104589
-1.00049e-007
0.000104689
-1.00047e-007
0.000104789
-1.00053e-007
0.000104889
-1.00051e-007
0.000104989
-1.00057e-007
0.000105089
-1.00055e-007
0.000105189
-1.00061e-007
0.000105289
-1.0006e-007
0.000105389
-1.00066e-007
0.00010549
-1.00064e-007
0.00010559
-1.00071e-007
0.00010569
-1.00069e-007
0.00010579
-1.00075e-007
0.00010589
-1.00074e-007
0.00010599
-1.0008e-007
0.00010609
-1.00079e-007
0.00010619
-1.00085e-007
0.00010629
-1.00084e-007
0.000106391
-1.0009e-007
0.000106491
-1.00089e-007
0.000106591
-1.00095e-007
0.000106691
-1.00094e-007
0.000106791
-1.001e-007
0.000106892
-1.001e-007
0.000106992
-1.00106e-007
0.000107092
-1.00108e-007
0.000107192
-1.00114e-007
0.000107292
-1.00117e-007
0.000107393
-1.00126e-007
0.000107493
-1.00131e-007
0.000107593
-1.00143e-007
0.000107694
-1.00153e-007
0.000107794
-1.00171e-007
0.000107894
-1.0019e-007
0.000107995
-1.00218e-007
0.000108095
-1.00252e-007
0.000108196
-1.003e-007
0.000108296
-1.00359e-007
0.000108397
-1.00441e-007
0.000108498
-1.00544e-007
0.000108598
-1.00683e-007
0.0001087
-1.00862e-007
0.000108801
-1.01096e-007
0.000108902
-1.01395e-007
0.000109004
-1.01779e-007
0.000109107
-1.02262e-007
0.00010921
-1.02863e-007
0.000109314
-1.0359e-007
0.000109418
-1.0445e-007
0.000109524
-1.05426e-007
0.000109631
-1.06481e-007
0.000109739
-1.07543e-007
0.000109847
-1.0851e-007
0.000109957
-1.09248e-007
-4.28557e-008
0.000100095
-2e-007
0.000100195
-2.00018e-007
0.000100295
-2.00034e-007
0.000100395
-2.00047e-007
0.000100495
-2.00059e-007
0.000100595
-2.00069e-007
0.000100695
-2.00077e-007
0.000100795
-2.00086e-007
0.000100895
-2.00094e-007
0.000100995
-2.00102e-007
0.000101095
-2.00111e-007
0.000101195
-2.0012e-007
0.000101295
-2.00128e-007
0.000101395
-2.00132e-007
0.000101495
-2.00128e-007
0.000101595
-2.0011e-007
0.000101695
-2.00077e-007
0.000101794
-2.00042e-007
0.000101894
-2.00039e-007
0.000101993
-2.00049e-007
0.000102092
-2.0007e-007
0.000102191
-2.00079e-007
0.000102291
-2.00088e-007
0.00010239
-2.00085e-007
0.00010249
-2.00082e-007
0.00010259
-2.00074e-007
0.00010269
-2.00073e-007
0.00010279
-2.00068e-007
0.00010289
-2.00072e-007
0.00010299
-2.00071e-007
0.00010309
-2.00078e-007
0.00010319
-2.00078e-007
0.00010329
-2.00085e-007
0.00010339
-2.00084e-007
0.00010349
-2.00089e-007
0.000103589
-2.00087e-007
0.000103689
-2.00091e-007
0.000103789
-2.00087e-007
0.000103889
-2.0009e-007
0.000103989
-2.00086e-007
0.000104089
-2.00089e-007
0.000104189
-2.00085e-007
0.000104289
-2.00088e-007
0.000104389
-2.00084e-007
0.000104489
-2.00087e-007
0.000104589
-2.00084e-007
0.000104689
-2.00088e-007
0.000104789
-2.00085e-007
0.000104889
-2.00088e-007
0.000104989
-2.00085e-007
0.000105089
-2.00088e-007
0.000105189
-2.00085e-007
0.000105289
-2.00089e-007
0.000105389
-2.00086e-007
0.00010549
-2.00089e-007
0.00010559
-2.00086e-007
0.00010569
-2.00089e-007
0.00010579
-2.00086e-007
0.00010589
-2.00089e-007
0.00010599
-2.00086e-007
0.00010609
-2.00089e-007
0.00010619
-2.00086e-007
0.00010629
-2.00089e-007
0.000106391
-2.00086e-007
0.000106491
-2.00089e-007
0.000106591
-2.00086e-007
0.000106691
-2.00089e-007
0.000106791
-2.00087e-007
0.000106892
-2.00091e-007
0.000106992
-2.0009e-007
0.000107092
-2.00096e-007
0.000107192
-2.00097e-007
0.000107292
-2.00105e-007
0.000107393
-2.0011e-007
0.000107493
-2.00123e-007
0.000107593
-2.00135e-007
0.000107694
-2.00157e-007
0.000107794
-2.00182e-007
0.000107894
-2.00219e-007
0.000107995
-2.00266e-007
0.000108095
-2.00331e-007
0.000108196
-2.00415e-007
0.000108296
-2.0053e-007
0.000108397
-2.00679e-007
0.000108497
-2.0088e-007
0.000108598
-2.01141e-007
0.000108699
-2.01486e-007
0.0001088
-2.01933e-007
0.000108902
-2.02515e-007
0.000109004
-2.03261e-007
0.000109106
-2.04209e-007
0.000109209
-2.05393e-007
0.000109313
-2.06845e-007
0.000109417
-2.08578e-007
0.000109523
-2.10575e-007
0.00010963
-2.12767e-007
0.000109738
-2.15015e-007
0.000109847
-2.17102e-007
0.000109956
-2.18751e-007
-8.61779e-008
0.000100095
-3.00002e-007
0.000100195
-3.00032e-007
0.000100295
-3.00058e-007
0.000100395
-3.00079e-007
0.000100495
-3.00097e-007
0.000100595
-3.00112e-007
0.000100695
-3.00126e-007
0.000100795
-3.00138e-007
0.000100895
-3.00149e-007
0.000100995
-3.0016e-007
0.000101095
-3.00171e-007
0.000101195
-3.00181e-007
0.000101295
-3.0019e-007
0.000101395
-3.00198e-007
0.000101495
-3.00201e-007
0.000101595
-3.00197e-007
0.000101695
-3.00184e-007
0.000101794
-3.00164e-007
0.000101894
-3.00148e-007
0.000101993
-3.00152e-007
0.000102092
-3.00142e-007
0.000102191
-3.00144e-007
0.000102291
-3.00126e-007
0.00010239
-3.00128e-007
0.00010249
-3.00109e-007
0.00010259
-3.00116e-007
0.00010269
-3.00103e-007
0.00010279
-3.00117e-007
0.00010289
-3.00109e-007
0.00010299
-3.00126e-007
0.00010309
-3.00121e-007
0.00010319
-3.00137e-007
0.00010329
-3.00129e-007
0.00010339
-3.00143e-007
0.00010349
-3.00133e-007
0.000103589
-3.00145e-007
0.000103689
-3.00132e-007
0.000103789
-3.00142e-007
0.000103889
-3.00129e-007
0.000103989
-3.00139e-007
0.000104089
-3.00126e-007
0.000104189
-3.00136e-007
0.000104289
-3.00123e-007
0.000104389
-3.00133e-007
0.000104489
-3.00121e-007
0.000104589
-3.00131e-007
0.000104689
-3.0012e-007
0.000104789
-3.0013e-007
0.000104889
-3.00119e-007
0.000104989
-3.00129e-007
0.000105089
-3.00118e-007
0.000105189
-3.00128e-007
0.000105289
-3.00116e-007
0.000105389
-3.00126e-007
0.00010549
-3.00115e-007
0.00010559
-3.00125e-007
0.00010569
-3.00113e-007
0.00010579
-3.00122e-007
0.00010589
-3.00111e-007
0.00010599
-3.0012e-007
0.00010609
-3.00109e-007
0.00010619
-3.00117e-007
0.00010629
-3.00106e-007
0.000106391
-3.00115e-007
0.000106491
-3.00104e-007
0.000106591
-3.00112e-007
0.000106691
-3.00103e-007
0.000106791
-3.00112e-007
0.000106892
-3.00104e-007
0.000106992
-3.00113e-007
0.000107092
-3.00108e-007
0.000107192
-3.0012e-007
0.000107292
-3.00119e-007
0.000107393
-3.00136e-007
0.000107493
-3.00143e-007
0.000107593
-3.00168e-007
0.000107694
-3.00188e-007
0.000107794
-3.0023e-007
0.000107894
-3.00272e-007
0.000107995
-3.00343e-007
0.000108095
-3.00425e-007
0.000108195
-3.00548e-007
0.000108296
-3.007e-007
0.000108396
-3.00913e-007
0.000108497
-3.01185e-007
0.000108598
-3.01554e-007
0.000108699
-3.02032e-007
0.0001088
-3.02667e-007
0.000108901
-3.03487e-007
0.000109003
-3.04557e-007
0.000109105
-3.05923e-007
0.000109207
-3.07659e-007
0.000109311
-3.09816e-007
0.000109415
-3.12446e-007
0.00010952
-3.15544e-007
0.000109627
-3.19041e-007
0.000109735
-3.22737e-007
0.000109845
-3.26283e-007
0.000109955
-3.29175e-007
-1.30592e-007
0.000100095
-4.00006e-007
0.000100195
-4.0005e-007
0.000100295
-4.00087e-007
0.000100395
-4.00115e-007
0.000100495
-4.00138e-007
0.000100595
-4.00156e-007
0.000100695
-4.00172e-007
0.000100795
-4.00187e-007
0.000100895
-4.002e-007
0.000100995
-4.00212e-007
0.000101095
-4.00223e-007
0.000101195
-4.00234e-007
0.000101295
-4.00244e-007
0.000101395
-4.00252e-007
0.000101495
-4.00257e-007
0.000101595
-4.00257e-007
0.000101695
-4.0025e-007
0.000101794
-4.00237e-007
0.000101894
-4.00221e-007
0.000101993
-4.00212e-007
0.000102092
-4.00196e-007
0.000102191
-4.00187e-007
0.000102291
-4.00168e-007
0.000102391
-4.0016e-007
0.00010249
-4.00146e-007
0.00010259
-4.00147e-007
0.00010269
-4.00142e-007
0.00010279
-4.00151e-007
0.00010289
-4.00153e-007
0.00010299
-4.00165e-007
0.00010309
-4.00168e-007
0.00010319
-4.00179e-007
0.00010329
-4.00179e-007
0.00010339
-4.00187e-007
0.00010349
-4.00183e-007
0.000103589
-4.00188e-007
0.000103689
-4.00181e-007
0.000103789
-4.00184e-007
0.000103889
-4.00177e-007
0.000103989
-4.00179e-007
0.000104089
-4.00172e-007
0.000104189
-4.00174e-007
0.000104289
-4.00168e-007
0.000104389
-4.00171e-007
0.000104489
-4.00165e-007
0.000104589
-4.00168e-007
0.000104689
-4.00162e-007
0.000104789
-4.00166e-007
0.000104889
-4.0016e-007
0.000104989
-4.00164e-007
0.000105089
-4.00158e-007
0.000105189
-4.00162e-007
0.000105289
-4.00156e-007
0.000105389
-4.00159e-007
0.00010549
-4.00153e-007
0.00010559
-4.00156e-007
0.00010569
-4.00149e-007
0.00010579
-4.00152e-007
0.00010589
-4.00146e-007
0.00010599
-4.00148e-007
0.00010609
-4.00141e-007
0.00010619
-4.00143e-007
0.00010629
-4.00137e-007
0.000106391
-4.00139e-007
0.000106491
-4.00133e-007
0.000106591
-4.00135e-007
0.000106691
-4.0013e-007
0.000106791
-4.00133e-007
0.000106892
-4.00129e-007
0.000106992
-4.00133e-007
0.000107092
-4.00132e-007
0.000107192
-4.0014e-007
0.000107292
-4.00144e-007
0.000107393
-4.00157e-007
0.000107493
-4.00169e-007
0.000107593
-4.00194e-007
0.000107694
-4.00221e-007
0.000107794
-4.00265e-007
0.000107894
-4.00319e-007
0.000107994
-4.00397e-007
0.000108095
-4.00498e-007
0.000108195
-4.00638e-007
0.000108296
-4.00822e-007
0.000108396
-4.0107e-007
0.000108497
-4.01398e-007
0.000108597
-4.01836e-007
0.000108698
-4.02413e-007
0.000108799
-4.03179e-007
0.0001089
-4.04184e-007
0.000109001
-4.05503e-007
0.000109103
-4.07216e-007
0.000109205
-4.09428e-007
0.000109308
-4.12242e-007
0.000109411
-4.15764e-007
0.000109516
-4.20055e-007
0.000109623
-4.25089e-007
0.000109731
-4.30655e-007
0.000109841
-4.36263e-007
0.000109953
-4.41069e-007
-1.7696e-007
0.000100095
-5.00014e-007
0.000100195
-5.00078e-007
0.000100295
-5.00124e-007
0.000100395
-5.00156e-007
0.000100495
-5.0018e-007
0.000100595
-5.00199e-007
0.000100695
-5.00215e-007
0.000100795
-5.00229e-007
0.000100895
-5.00243e-007
0.000100995
-5.00254e-007
0.000101095
-5.00265e-007
0.000101195
-5.00275e-007
0.000101295
-5.00283e-007
0.000101395
-5.0029e-007
0.000101495
-5.00294e-007
0.000101595
-5.00295e-007
0.000101695
-5.0029e-007
0.000101794
-5.0028e-007
0.000101894
-5.00267e-007
0.000101993
-5.00256e-007
0.000102092
-5.00242e-007
0.000102191
-5.00229e-007
0.000102291
-5.00212e-007
0.000102391
-5.00196e-007
0.00010249
-5.00184e-007
0.00010259
-5.00179e-007
0.00010269
-5.00179e-007
0.00010279
-5.00184e-007
0.00010289
-5.00192e-007
0.00010299
-5.00202e-007
0.00010309
-5.0021e-007
0.00010319
-5.00218e-007
0.00010329
-5.00224e-007
0.00010339
-5.00228e-007
0.00010349
-5.00229e-007
0.000103589
-5.00229e-007
0.000103689
-5.00227e-007
0.000103789
-5.00225e-007
0.000103889
-5.00221e-007
0.000103989
-5.00219e-007
0.000104089
-5.00215e-007
0.000104189
-5.00213e-007
0.000104289
-5.0021e-007
0.000104389
-5.00209e-007
0.000104489
-5.00207e-007
0.000104589
-5.00205e-007
0.000104689
-5.00203e-007
0.000104789
-5.00202e-007
0.000104889
-5.002e-007
0.000104989
-5.00199e-007
0.000105089
-5.00197e-007
0.000105189
-5.00196e-007
0.000105289
-5.00194e-007
0.000105389
-5.00192e-007
0.00010549
-5.00189e-007
0.00010559
-5.00187e-007
0.00010569
-5.00184e-007
0.00010579
-5.00182e-007
0.00010589
-5.00179e-007
0.00010599
-5.00176e-007
0.00010609
-5.00173e-007
0.00010619
-5.0017e-007
0.00010629
-5.00167e-007
0.000106391
-5.00164e-007
0.000106491
-5.00161e-007
0.000106591
-5.00158e-007
0.000106691
-5.00156e-007
0.000106791
-5.00154e-007
0.000106892
-5.00153e-007
0.000106992
-5.00153e-007
0.000107092
-5.00154e-007
0.000107192
-5.00158e-007
0.000107292
-5.00164e-007
0.000107393
-5.00174e-007
0.000107493
-5.00189e-007
0.000107593
-5.00211e-007
0.000107693
-5.00241e-007
0.000107794
-5.00284e-007
0.000107894
-5.00343e-007
0.000107994
-5.00422e-007
0.000108095
-5.0053e-007
0.000108195
-5.00676e-007
0.000108295
-5.00871e-007
0.000108396
-5.01133e-007
0.000108496
-5.01484e-007
0.000108597
-5.01952e-007
0.000108697
-5.02576e-007
0.000108798
-5.03407e-007
0.000108898
-5.04513e-007
0.000108999
-5.0598e-007
0.0001091
-5.07922e-007
0.000109202
-5.1048e-007
0.000109303
-5.1383e-007
0.000109406
-5.18168e-007
0.00010951
-5.23688e-007
0.000109616
-5.30509e-007
0.000109724
-5.38538e-007
0.000109835
-5.47226e-007
0.00010995
-5.55265e-007
-2.26717e-007
0.000100095
-6.00037e-007
0.000100195
-6.00125e-007
0.000100295
-6.00173e-007
0.000100395
-6.002e-007
0.000100495
-6.00219e-007
0.000100595
-6.00234e-007
0.000100695
-6.00247e-007
0.000100795
-6.00259e-007
0.000100895
-6.0027e-007
0.000100995
-6.0028e-007
0.000101095
-6.00289e-007
0.000101195
-6.00296e-007
0.000101295
-6.00302e-007
0.000101395
-6.00306e-007
0.000101495
-6.00307e-007
0.000101595
-6.00307e-007
0.000101695
-6.00304e-007
0.000101794
-6.003e-007
0.000101894
-6.00295e-007
0.000101993
-6.00292e-007
0.000102092
-6.00288e-007
0.000102192
-6.00282e-007
0.000102291
-6.00266e-007
0.000102391
-6.00243e-007
0.00010249
-6.00229e-007
0.00010259
-6.00216e-007
0.00010269
-6.00217e-007
0.00010279
-6.00218e-007
0.00010289
-6.00229e-007
0.00010299
-6.00236e-007
0.00010309
-6.00249e-007
0.00010319
-6.00255e-007
0.00010329
-6.00265e-007
0.00010339
-6.00266e-007
0.00010349
-6.00271e-007
0.000103589
-6.00268e-007
0.000103689
-6.0027e-007
0.000103789
-6.00264e-007
0.000103889
-6.00264e-007
0.000103989
-6.00258e-007
0.000104089
-6.00258e-007
0.000104189
-6.00252e-007
0.000104289
-6.00252e-007
0.000104389
-6.00247e-007
0.000104489
-6.00247e-007
0.000104589
-6.00242e-007
0.000104689
-6.00243e-007
0.000104789
-6.00238e-007
0.000104889
-6.00239e-007
0.000104989
-6.00234e-007
0.000105089
-6.00235e-007
0.000105189
-6.0023e-007
0.000105289
-6.0023e-007
0.000105389
-6.00224e-007
0.00010549
-6.00224e-007
0.00010559
-6.00218e-007
0.00010569
-6.00218e-007
0.00010579
-6.00211e-007
0.00010589
-6.0021e-007
0.00010599
-6.00204e-007
0.00010609
-6.00203e-007
0.00010619
-6.00196e-007
0.00010629
-6.00194e-007
0.000106391
-6.00188e-007
0.000106491
-6.00186e-007
0.000106591
-6.0018e-007
0.000106691
-6.00179e-007
0.000106791
-6.00174e-007
0.000106892
-6.00173e-007
0.000106992
-6.0017e-007
0.000107092
-6.00172e-007
0.000107192
-6.00172e-007
0.000107292
-6.00179e-007
0.000107393
-6.00185e-007
0.000107493
-6.002e-007
0.000107593
-6.00217e-007
0.000107693
-6.00246e-007
0.000107794
-6.00284e-007
0.000107894
-6.0034e-007
0.000107994
-6.00413e-007
0.000108095
-6.00516e-007
0.000108195
-6.00653e-007
0.000108295
-6.00841e-007
0.000108395
-6.01091e-007
0.000108496
-6.01429e-007
0.000108596
-6.01882e-007
0.000108696
-6.02492e-007
0.000108796
-6.03309e-007
0.000108897
-6.04411e-007
0.000108997
-6.05892e-007
0.000109097
-6.07891e-007
0.000109198
-6.1059e-007
0.000109298
-6.14239e-007
0.0001094
-6.19162e-007
0.000109502
-6.25767e-007
0.000109606
-6.34491e-007
0.000109714
-6.45651e-007
0.000109826
-6.59002e-007
0.000109944
-6.72889e-007
-2.8258e-007
0.000100095
-7.00106e-007
0.000100195
-7.00213e-007
0.000100295
-7.0024e-007
0.000100395
-7.00247e-007
0.000100495
-7.00251e-007
0.000100595
-7.00257e-007
0.000100695
-7.00264e-007
0.000100795
-7.00272e-007
0.000100895
-7.0028e-007
0.000100995
-7.00288e-007
0.000101095
-7.00294e-007
0.000101195
-7.00298e-007
0.000101295
-7.00301e-007
0.000101395
-7.00302e-007
0.000101495
-7.00301e-007
0.000101595
-7.00299e-007
0.000101695
-7.003e-007
0.000101794
-7.00304e-007
0.000101894
-7.00315e-007
0.000101993
-7.00331e-007
0.000102092
-7.00346e-007
0.000102192
-7.00355e-007
0.000102291
-7.00348e-007
0.000102391
-7.00315e-007
0.00010249
-7.00294e-007
0.00010259
-7.00268e-007
0.00010269
-7.00266e-007
0.00010279
-7.00259e-007
0.00010289
-7.00271e-007
0.00010299
-7.00273e-007
0.00010309
-7.0029e-007
0.00010319
-7.00291e-007
0.00010329
-7.00305e-007
0.00010339
-7.00303e-007
0.00010349
-7.00313e-007
0.000103589
-7.00306e-007
0.000103689
-7.00312e-007
0.000103789
-7.00302e-007
0.000103889
-7.00307e-007
0.000103989
-7.00296e-007
0.000104089
-7.003e-007
0.000104189
-7.0029e-007
0.000104289
-7.00294e-007
0.000104389
-7.00284e-007
0.000104489
-7.00288e-007
0.000104589
-7.00278e-007
0.000104689
-7.00283e-007
0.000104789
-7.00273e-007
0.000104889
-7.00278e-007
0.000104989
-7.00268e-007
0.000105089
-7.00272e-007
0.000105189
-7.00262e-007
0.000105289
-7.00265e-007
0.000105389
-7.00255e-007
0.00010549
-7.00258e-007
0.00010559
-7.00247e-007
0.00010569
-7.00249e-007
0.00010579
-7.00238e-007
0.00010589
-7.0024e-007
0.00010599
-7.00229e-007
0.00010609
-7.0023e-007
0.00010619
-7.00219e-007
0.00010629
-7.0022e-007
0.000106391
-7.00208e-007
0.000106491
-7.00209e-007
0.000106591
-7.00198e-007
0.000106691
-7.00198e-007
0.000106791
-7.00188e-007
0.000106892
-7.0019e-007
0.000106992
-7.00181e-007
0.000107092
-7.00184e-007
0.000107192
-7.00179e-007
0.000107292
-7.00185e-007
0.000107393
-7.00185e-007
0.000107493
-7.00199e-007
0.000107593
-7.00208e-007
0.000107693
-7.00234e-007
0.000107794
-7.00261e-007
0.000107894
-7.00309e-007
0.000107994
-7.00367e-007
0.000108094
-7.00455e-007
0.000108195
-7.00568e-007
0.000108295
-7.00729e-007
0.000108395
-7.0094e-007
0.000108495
-7.01232e-007
0.000108595
-7.01621e-007
0.000108695
-7.02154e-007
0.000108795
-7.0287e-007
0.000108895
-7.03849e-007
0.000108994
-7.05182e-007
0.000109094
-7.07019e-007
0.000109193
-7.09561e-007
0.000109292
-7.13119e-007
0.000109392
-7.18141e-007
0.000109492
-7.25303e-007
0.000109593
-7.35562e-007
0.000109698
-7.50157e-007
0.000109809
-7.70196e-007
0.000109932
-7.95031e-007
-3.50443e-007
0.000100095
-8.00368e-007
0.000100195
-8.00383e-007
0.000100295
-8.0032e-007
0.000100395
-8.00282e-007
0.000100495
-8.00265e-007
0.000100595
-8.0026e-007
0.000100695
-8.00261e-007
0.000100795
-8.00265e-007
0.000100895
-8.0027e-007
0.000100995
-8.00274e-007
0.000101095
-8.00278e-007
0.000101195
-8.00279e-007
0.000101295
-8.00278e-007
0.000101395
-8.00276e-007
0.000101495
-8.00272e-007
0.000101595
-8.00272e-007
0.000101695
-8.00279e-007
0.000101794
-8.003e-007
0.000101894
-8.00337e-007
0.000101993
-8.00387e-007
0.000102092
-8.00431e-007
0.000102192
-8.00457e-007
0.000102291
-8.00455e-007
0.000102391
-8.00424e-007
0.00010249
-8.00381e-007
0.00010259
-8.00351e-007
0.00010269
-8.00327e-007
0.00010279
-8.00321e-007
0.00010289
-8.00316e-007
0.00010299
-8.00324e-007
0.00010309
-8.00326e-007
0.00010319
-8.00338e-007
0.00010329
-8.00339e-007
0.00010339
-8.00349e-007
0.00010349
-8.00346e-007
0.000103589
-8.00352e-007
0.000103689
-8.00346e-007
0.000103789
-8.00349e-007
0.000103889
-8.00341e-007
0.000103989
-8.00343e-007
0.000104089
-8.00334e-007
0.000104189
-8.00336e-007
0.000104289
-8.00327e-007
0.000104389
-8.00329e-007
0.000104489
-8.0032e-007
0.000104589
-8.00322e-007
0.000104689
-8.00313e-007
0.000104789
-8.00316e-007
0.000104889
-8.00306e-007
0.000104989
-8.00308e-007
0.000105089
-8.00299e-007
0.000105189
-8.003e-007
0.000105289
-8.0029e-007
0.000105389
-8.00292e-007
0.00010549
-8.00281e-007
0.00010559
-8.00282e-007
0.00010569
-8.0027e-007
0.00010579
-8.0027e-007
0.00010589
-8.00259e-007
0.00010599
-8.00258e-007
0.00010609
-8.00246e-007
0.00010619
-8.00245e-007
0.00010629
-8.00233e-007
0.000106391
-8.00232e-007
0.000106491
-8.00219e-007
0.000106591
-8.00218e-007
0.000106691
-8.00206e-007
0.000106791
-8.00204e-007
0.000106892
-8.00193e-007
0.000106992
-8.00192e-007
0.000107092
-8.00182e-007
0.000107192
-8.00184e-007
0.000107292
-8.00176e-007
0.000107393
-8.00181e-007
0.000107493
-8.00179e-007
0.000107593
-8.0019e-007
0.000107693
-8.00198e-007
0.000107794
-8.00221e-007
0.000107894
-8.00245e-007
0.000107994
-8.00291e-007
0.000108094
-8.00345e-007
0.000108194
-8.0043e-007
0.000108295
-8.00538e-007
0.000108395
-8.00695e-007
0.000108495
-8.00901e-007
0.000108594
-8.01191e-007
0.000108694
-8.01578e-007
0.000108794
-8.02115e-007
0.000108893
-8.02846e-007
0.000108992
-8.03866e-007
0.000109091
-8.05287e-007
0.000109189
-8.07308e-007
0.000109286
-8.10224e-007
0.000109383
-8.14542e-007
0.000109479
-8.21106e-007
0.000109575
-8.31423e-007
0.000109674
-8.48142e-007
0.00010978
-8.75733e-007
0.000109905
-9.20032e-007
-4.45115e-007
0.000100095
-9.01498e-007
0.000100195
-9.00619e-007
0.000100295
-9.00361e-007
0.000100395
-9.00278e-007
0.000100495
-9.0025e-007
0.000100595
-9.00242e-007
0.000100695
-9.0024e-007
0.000100795
-9.00242e-007
0.000100895
-9.00244e-007
0.000100995
-9.00247e-007
0.000101095
-9.00248e-007
0.000101195
-9.00246e-007
0.000101295
-9.00242e-007
0.000101395
-9.00236e-007
0.000101495
-9.00229e-007
0.000101595
-9.00229e-007
0.000101695
-9.00246e-007
0.000101794
-9.00294e-007
0.000101894
-9.00381e-007
0.000101993
-9.00492e-007
0.000102092
-9.00571e-007
0.000102192
-9.00588e-007
0.000102291
-9.00575e-007
0.000102391
-9.00529e-007
0.00010249
-9.0048e-007
0.00010259
-9.00433e-007
0.00010269
-9.00402e-007
0.00010279
-9.0038e-007
0.00010289
-9.00373e-007
0.00010299
-9.00369e-007
0.00010309
-9.00373e-007
0.00010319
-9.00376e-007
0.00010329
-9.00383e-007
0.00010339
-9.00385e-007
0.00010349
-9.00389e-007
0.000103589
-9.00389e-007
0.000103689
-9.0039e-007
0.000103789
-9.00387e-007
0.000103889
-9.00385e-007
0.000103989
-9.00381e-007
0.000104089
-9.00378e-007
0.000104189
-9.00373e-007
0.000104289
-9.0037e-007
0.000104389
-9.00365e-007
0.000104489
-9.00361e-007
0.000104589
-9.00357e-007
0.000104689
-9.00353e-007
0.000104789
-9.00348e-007
0.000104889
-9.00344e-007
0.000104989
-9.00339e-007
0.000105089
-9.00334e-007
0.000105189
-9.00329e-007
0.000105289
-9.00323e-007
0.000105389
-9.00318e-007
0.00010549
-9.00312e-007
0.00010559
-9.00305e-007
0.00010569
-9.00299e-007
0.00010579
-9.00292e-007
0.00010589
-9.00284e-007
0.00010599
-9.00277e-007
0.00010609
-9.00269e-007
0.00010619
-9.00261e-007
0.00010629
-9.00252e-007
0.000106391
-9.00244e-007
0.000106491
-9.00235e-007
0.000106591
-9.00227e-007
0.000106691
-9.00217e-007
0.000106791
-9.00209e-007
0.000106892
-9.002e-007
0.000106992
-9.00192e-007
0.000107092
-9.00183e-007
0.000107192
-9.00176e-007
0.000107292
-9.00168e-007
0.000107393
-9.00163e-007
0.000107493
-9.00157e-007
0.000107593
-9.00156e-007
0.000107693
-9.00155e-007
0.000107794
-9.0016e-007
0.000107894
-9.00168e-007
0.000107994
-9.00184e-007
0.000108094
-9.00208e-007
0.000108194
-9.00245e-007
0.000108294
-9.00297e-007
0.000108394
-9.00374e-007
0.000108494
-9.00478e-007
0.000108594
-9.00626e-007
0.000108694
-9.00827e-007
0.000108793
-9.0111e-007
0.000108892
-9.01501e-007
0.00010899
-9.02051e-007
0.000109088
-9.0283e-007
0.000109185
-9.0396e-007
0.000109281
-9.05633e-007
0.000109375
-9.08209e-007
0.000109467
-9.12366e-007
0.000109555
-9.19539e-007
0.000109641
-9.33032e-007
0.000109726
-9.61274e-007
0.000109835
-1.02803e-006
-6.10081e-007
0.000100089
0.000100189
0.000100289
0.000100389
0.000100489
0.000100589
0.000100689
0.000100789
0.000100889
0.000100988
0.000101088
0.000101188
0.000101288
0.000101388
0.000101488
0.000101588
0.000101688
0.000101788
0.000101887
0.000101986
0.000102086
0.000102185
0.000102285
0.000102384
0.000102484
0.000102584
0.000102684
0.000102784
0.000102884
0.000102983
0.000103083
0.000103183
0.000103283
0.000103383
0.000103483
0.000103583
0.000103683
0.000103783
0.000103883
0.000103983
0.000104083
0.000104183
0.000104283
0.000104383
0.000104483
0.000104583
0.000104683
0.000104783
0.000104883
0.000104983
0.000105083
0.000105183
0.000105283
0.000105383
0.000105483
0.000105583
0.000105683
0.000105783
0.000105883
0.000105983
0.000106083
0.000106184
0.000106284
0.000106384
0.000106484
0.000106584
0.000106684
0.000106785
0.000106885
0.000106985
0.000107085
0.000107185
0.000107286
0.000107386
0.000107486
0.000107586
0.000107686
0.000107787
0.000107887
0.000107987
0.000108087
0.000108187
0.000108287
0.000108387
0.000108487
0.000108587
0.000108686
0.000108786
0.000108884
0.000108983
0.00010908
0.000109176
0.000109271
0.000109363
0.000109451
0.000109532
0.000109599
0.000109638
0.00010961
)
;

boundaryField
{
    walls
    {
        type            calculated;
        value           nonuniform List<scalar> 
200
(
0
0
0
0
0
0
0
0
0
0
0
0
0
0
0
0
0
0
0
0
0
0
0
0
0
0
0
0
0
0
0
0
0
0
0
0
0
0
0
0
0
0
0
0
0
0
0
0
0
0
0
0
0
0
0
0
0
0
0
0
0
0
0
0
0
0
0
0
0
0
0
0
0
0
0
0
0
0
0
0
0
0
0
0
0
0
0
0
0
0
0
0
0
0
0
0
0
0
0
0
-1e-006
-1e-006
-1e-006
-1e-006
-1e-006
-1e-006
-1e-006
-1e-006
-1e-006
-1e-006
-1e-006
-1e-006
-1e-006
-1e-006
-1e-006
-1e-006
-1e-006
-1e-006
-1e-006
-1e-006
-1e-006
-1e-006
-1e-006
-1e-006
-1e-006
-1e-006
-1e-006
-1e-006
-1e-006
-1e-006
-1e-006
-1e-006
-1e-006
-1e-006
-1e-006
-1e-006
-1e-006
-1e-006
-1e-006
-1e-006
-1e-006
-1e-006
-1e-006
-1e-006
-1e-006
-1e-006
-1e-006
-1e-006
-1e-006
-1e-006
-1e-006
-1e-006
-1e-006
-1e-006
-1e-006
-1e-006
-1e-006
-1e-006
-1e-006
-1e-006
-1e-006
-1e-006
-1e-006
-1e-006
-1e-006
-1e-006
-1e-006
-1e-006
-1e-006
-1e-006
-1e-006
-1e-006
-1e-006
-1e-006
-1e-006
-1e-006
-1e-006
-1e-006
-1e-006
-1e-006
-1e-006
-1e-006
-1e-006
-1e-006
-1e-006
-1e-006
-1e-006
-1e-006
-1e-006
-1e-006
-1e-006
-1e-006
-1e-006
-1e-006
-1e-006
-1e-006
-1e-006
-1e-006
-1e-006
-1e-006
)
;
    }
    inlet
    {
        type            calculated;
        value           nonuniform List<scalar> 10(-9.99952e-005 -9.99952e-005 -9.99952e-005 -9.99951e-005 -9.99951e-005 -9.9995e-005 -9.99949e-005 -9.99946e-005 -9.99938e-005 -9.99907e-005);
    }
    outlet
    {
        type            calculated;
        value           nonuniform List<scalar> 10(0.00011 0.00011 0.00011 0.00011 0.00011 0.00011 0.00011 0.00011 0.00011 0.00011);
    }
    frontAndBack
    {
        type            empty;
        value           nonuniform 0();
    }
}


// ************************************************************************* //
