/*--------------------------------*- C++ -*----------------------------------*\
| =========                 |                                                 |
| \\      /  F ield         | OpenFOAM: The Open Source CFD Toolbox           |
|  \\    /   O peration     | Version:  5.x                                   |
|   \\  /    A nd           | Web:      www.OpenFOAM.org                      |
|    \\/     M anipulation  |                                                 |
\*---------------------------------------------------------------------------*/
/*   Windows 32 and 64 bit porting by blueCAPE: http://www.bluecape.com.pt   *\
|  Based on Windows porting (2.0.x v4) by Symscape: http://www.symscape.com   |
\*---------------------------------------------------------------------------*/
FoamFile
{
    version     2.0;
    format      ascii;
    class       volVectorField;
    location    "0";
    object      U;
}
// * * * * * * * * * * * * * * * * * * * * * * * * * * * * * * * * * * * * * //

dimensions      [0 1 -1 0 0 0 0];

internalField   nonuniform List<vector> 
1000
(
(1.00025 0.000332433 0)
(0.999919 -1.92002e-006 3.31481e-027)
(0.999924 -2.84511e-006 0)
(0.999929 -3.28899e-006 0)
(0.999936 -3.32641e-006 0)
(0.999941 -3.09061e-006 0)
(0.999947 -2.71258e-006 0)
(0.999951 -2.29118e-006 3.31614e-027)
(0.999955 -1.8893e-006 3.31482e-027)
(0.999958 -1.53907e-006 0)
(0.99996 -1.25171e-006 3.31273e-027)
(0.999961 -1.02303e-006 0)
(0.999963 -8.38363e-007 0)
(0.999964 -6.73336e-007 0)
(0.999964 -4.9813e-007 0)
(0.999965 -2.85223e-007 0)
(0.999964 -2.87489e-008 0)
(0.999963 2.35263e-007 0)
(0.999961 4.3792e-007 0)
(0.999957 5.67874e-007 0)
(0.999952 4.56369e-007 0)
(0.999947 1.5936e-007 0)
(0.999942 -8.0219e-008 0)
(0.999939 -2.37607e-007 0)
(0.999937 -2.86004e-007 0)
(0.999936 -3.21082e-007 0)
(0.999935 -2.94863e-007 0)
(0.999935 -2.96591e-007 0)
(0.999934 -2.60717e-007 0)
(0.999934 -2.67562e-007 0)
(0.999934 -2.44279e-007 0)
(0.999933 -2.64333e-007 0)
(0.999933 -2.53786e-007 0)
(0.999932 -2.82554e-007 0)
(0.999931 -2.78218e-007 0)
(0.999931 -3.09417e-007 0)
(0.99993 -3.05735e-007 0)
(0.99993 -3.35477e-007 0)
(0.999929 -3.29932e-007 0)
(0.999929 -3.56999e-007 0)
(0.999929 -3.49354e-007 0)
(0.999929 -3.74092e-007 0)
(0.999929 -3.65179e-007 0)
(0.999929 -3.88411e-007 0)
(0.999929 -3.79144e-007 0)
(0.999929 -4.01559e-007 0)
(0.999929 -3.92595e-007 0)
(0.999929 -4.14568e-007 3.30986e-027)
(0.999929 -4.06193e-007 0)
(0.999929 -4.27822e-007 0)
(0.99993 -4.20112e-007 0)
(0.99993 -4.41339e-007 0)
(0.99993 -4.34221e-007 0)
(0.999931 -4.54924e-007 0)
(0.999931 -4.48319e-007 3.30998e-027)
(0.999932 -4.68376e-007 0)
(0.999933 -4.62187e-007 3.31003e-027)
(0.999933 -4.81501e-007 0)
(0.999934 -4.75693e-007 0)
(0.999935 -4.94214e-007 0)
(0.999936 -4.88778e-007 0)
(0.999937 -5.06524e-007 0)
(0.999938 -5.01562e-007 0)
(0.999939 -5.1867e-007 3.31023e-027)
(0.99994 -5.14408e-007 0)
(0.999941 -5.31215e-007 3.31028e-027)
(0.999942 -5.2817e-007 0)
(0.999944 -5.45376e-007 0)
(0.999945 -5.44513e-007 0)
(0.999947 -5.63454e-007 0)
(0.999948 -5.666e-007 0)
(0.99995 -5.89734e-007 0)
(0.999952 -6.00176e-007 3.31055e-027)
(0.999953 -6.31925e-007 0)
(0.999955 -6.55563e-007 3.31074e-027)
(0.999957 -7.03792e-007 0)
(0.999959 -7.51042e-007 0)
(0.999962 -8.29601e-007 0)
(0.999964 -9.18778e-007 0)
(0.999967 -1.05189e-006 0)
(0.99997 -1.21488e-006 0)
(0.999974 -1.44451e-006 3.31341e-027)
(0.999978 -1.73627e-006 0)
(0.999982 -2.13409e-006 0)
(0.999988 -2.64738e-006 0)
(0.999995 -3.33259e-006 0)
(1 -4.21868e-006 0)
(1.00001 -5.38021e-006 0)
(1.00003 -6.86985e-006 3.33154e-027)
(1.00004 -8.78098e-006 0)
(1.00006 -1.11832e-005 3.34592e-027)
(1.00009 -1.41694e-005 0)
(1.00012 -1.77863e-005 0)
(1.00015 -2.2058e-005 0)
(1.0002 -2.69043e-005 0)
(1.00026 -3.21428e-005 0)
(1.00032 -3.74139e-005 0)
(1.00039 -4.22112e-005 3.44969e-027)
(1.00048 -4.58888e-005 0)
(1.00026 0.000285858 2.36375e-027)
(1.00025 0.000997118 0)
(0.999917 -6.21498e-006 1.66039e-026)
(0.999922 -9.06887e-006 0)
(0.999929 -1.03375e-005 0)
(0.999936 -1.03264e-005 0)
(0.999942 -9.49913e-006 0)
(0.999948 -8.27621e-006 0)
(0.999952 -6.95792e-006 1.66119e-026)
(0.999956 -5.7234e-006 1.65997e-026)
(0.999958 -4.65911e-006 0)
(0.99996 -3.79071e-006 1.65806e-026)
(0.999962 -3.10651e-006 0)
(0.999963 -2.57142e-006 0)
(0.999964 -2.13345e-006 0)
(0.999965 -1.72936e-006 0)
(0.999965 -1.29861e-006 0)
(0.999965 -8.18177e-007 0)
(0.999964 -3.58342e-007 0)
(0.999961 -9.69155e-008 0)
(0.999957 2.30332e-008 0)
(0.999952 -1.53378e-007 0)
(0.999947 -4.84315e-007 0)
(0.999942 -7.67607e-007 0)
(0.999939 -9.24452e-007 0)
(0.999937 -9.77963e-007 0)
(0.999936 -9.93516e-007 0)
(0.999935 -9.70802e-007 0)
(0.999935 -9.62715e-007 0)
(0.999934 -9.43324e-007 0)
(0.999934 -9.52035e-007 0)
(0.999934 -9.53373e-007 0)
(0.999933 -9.78459e-007 0)
(0.999933 -9.92271e-007 0)
(0.999932 -1.0223e-006 0)
(0.999931 -1.03751e-006 0)
(0.999931 -1.0641e-006 0)
(0.99993 -1.07493e-006 0)
(0.99993 -1.09547e-006 0)
(0.999929 -1.1013e-006 0)
(0.999929 -1.11682e-006 0)
(0.999929 -1.11945e-006 0)
(0.999929 -1.13205e-006 0)
(0.999929 -1.13352e-006 0)
(0.999928 -1.14484e-006 0)
(0.999929 -1.1464e-006 0)
(0.999929 -1.15721e-006 0)
(0.999929 -1.1593e-006 0)
(0.999929 -1.16967e-006 1.6554e-026)
(0.999929 -1.17217e-006 0)
(0.999929 -1.18185e-006 0)
(0.99993 -1.18445e-006 0)
(0.99993 -1.19312e-006 0)
(0.99993 -1.19547e-006 0)
(0.999931 -1.20286e-006 0)
(0.999931 -1.2047e-006 1.65544e-026)
(0.999932 -1.21066e-006 0)
(0.999933 -1.21184e-006 1.65545e-026)
(0.999933 -1.21633e-006 0)
(0.999934 -1.2168e-006 0)
(0.999935 -1.21993e-006 0)
(0.999936 -1.21981e-006 0)
(0.999937 -1.22186e-006 0)
(0.999938 -1.22152e-006 0)
(0.999939 -1.22312e-006 1.65547e-026)
(0.99994 -1.22335e-006 0)
(0.999941 -1.22573e-006 1.65548e-026)
(0.999942 -1.22812e-006 0)
(0.999944 -1.23353e-006 0)
(0.999945 -1.24101e-006 0)
(0.999947 -1.25353e-006 0)
(0.999948 -1.27151e-006 0)
(0.99995 -1.29847e-006 0)
(0.999951 -1.33661e-006 1.6556e-026)
(0.999953 -1.39101e-006 0)
(0.999955 -1.46652e-006 1.65574e-026)
(0.999957 -1.57137e-006 0)
(0.999959 -1.71464e-006 0)
(0.999961 -1.91035e-006 0)
(0.999964 -2.17481e-006 0)
(0.999967 -2.53211e-006 0)
(0.99997 -3.01092e-006 0)
(0.999973 -3.65253e-006 1.65794e-026)
(0.999977 -4.50656e-006 0)
(0.999981 -5.64263e-006 0)
(0.999986 -7.14456e-006 0)
(0.999993 -9.12635e-006 0)
(1 -1.17237e-005 0)
(1.00001 -1.51131e-005 0)
(1.00002 -1.94973e-005 1.67375e-026)
(1.00004 -2.51216e-005 0)
(1.00005 -3.2242e-005 1.68645e-026)
(1.00008 -4.11237e-005 0)
(1.00011 -5.19671e-005 0)
(1.00014 -6.48605e-005 0)
(1.00019 -7.96361e-005 0)
(1.00024 -9.57689e-005 0)
(1.00031 -0.000112206 0)
(1.00039 -0.000127362 1.78142e-026)
(1.00047 -0.000139205 0)
(1.00026 0.000855193 8.05906e-027)
(1.00024 0.00166118 0)
(0.999912 -1.1981e-005 5.31725e-026)
(0.999919 -1.69308e-005 0)
(0.999928 -1.87239e-005 0)
(0.999936 -1.82051e-005 0)
(0.999944 -1.63706e-005 -3.99189e-026)
(0.999949 -1.40078e-005 0)
(0.999954 -1.16176e-005 1.33111e-026)
(0.999957 -9.46444e-006 1.32969e-026)
(0.99996 -7.65419e-006 0)
(0.999961 -6.20103e-006 1.32754e-026)
(0.999963 -5.07185e-006 0)
(0.999964 -4.21219e-006 3.97588e-026)
(0.999964 -3.55763e-006 3.97502e-026)
(0.999965 -3.03935e-006 0)
(0.999966 -2.59047e-006 3.97374e-026)
(0.999965 -2.16807e-006 3.97318e-026)
(0.999964 -1.80084e-006 0)
(0.999962 -1.62802e-006 3.97245e-026)
(0.999957 -1.6227e-006 3.97243e-026)
(0.999952 -1.6449e-006 0)
(0.999946 -1.69887e-006 3.97248e-026)
(0.999942 -1.69797e-006 3.97247e-026)
(0.999939 -1.72487e-006 0)
(0.999937 -1.6841e-006 3.97243e-026)
(0.999936 -1.70217e-006 3.97245e-026)
(0.999935 -1.67264e-006 0)
(0.999935 -1.717e-006 3.97246e-026)
(0.999934 -1.71457e-006 -3.97246e-026)
(0.999934 -1.77995e-006 3.97254e-026)
(0.999934 -1.78888e-006 3.97255e-026)
(0.999933 -1.85519e-006 0)
(0.999933 -1.85723e-006 3.97264e-026)
(0.999932 -1.91117e-006 3.97271e-026)
(0.999931 -1.8986e-006 -3.97269e-026)
(0.999931 -1.93801e-006 3.97274e-026)
(0.99993 -1.91264e-006 3.9727e-026)
(0.99993 -1.94197e-006 0)
(0.999929 -1.90945e-006 3.9727e-026)
(0.999929 -1.93433e-006 3.97273e-026)
(0.999929 -1.89976e-006 -3.97268e-026)
(0.999929 -1.92395e-006 0)
(0.999929 -1.89009e-006 0)
(0.999928 -1.91497e-006 0)
(0.999929 -1.88243e-006 0)
(0.999929 -1.90769e-006 0)
(0.999929 -1.87587e-006 -3.97265e-026)
(0.999929 -1.9005e-006 1.32465e-026)
(0.999929 -1.86844e-006 0)
(0.999929 -1.89138e-006 0)
(0.99993 -1.85827e-006 0)
(0.99993 -1.87873e-006 0)
(0.99993 -1.84407e-006 0)
(0.999931 -1.86159e-006 0)
(0.999931 -1.82516e-006 1.3246e-026)
(0.999932 -1.83955e-006 0)
(0.999933 -1.80137e-006 1.32459e-026)
(0.999933 -1.81263e-006 0)
(0.999934 -1.77294e-006 0)
(0.999935 -1.78127e-006 0)
(0.999936 -1.74054e-006 0)
(0.999937 -1.74647e-006 0)
(0.999938 -1.70555e-006 0)
(0.999939 -1.71013e-006 1.32454e-026)
(0.99994 -1.67058e-006 0)
(0.999941 -1.67575e-006 1.32452e-026)
(0.999942 -1.64031e-006 0)
(0.999944 -1.64965e-006 0)
(0.999945 -1.62322e-006 0)
(0.999947 -1.64316e-006 0)
(0.999948 -1.63443e-006 0)
(0.99995 -1.67641e-006 0)
(0.999951 -1.70073e-006 1.32455e-026)
(0.999953 -1.78508e-006 0)
(0.999955 -1.86956e-006 1.32466e-026)
(0.999957 -2.03221e-006 0)
(0.999959 -2.22459e-006 0)
(0.999961 -2.52879e-006 0)
(0.999963 -2.91296e-006 0)
(0.999966 -3.46964e-006 0)
(0.999969 -4.19221e-006 0)
(0.999972 -5.19463e-006 1.32689e-026)
(0.999975 -6.50977e-006 0)
(0.999979 -8.29093e-006 0)
(0.999984 -1.06329e-005 0)
(0.99999 -1.37553e-005 0)
(0.999996 -1.78465e-005 0)
(1 -2.3227e-005 0)
(1.00001 -3.02121e-005 1.3435e-026)
(1.00003 -3.92472e-005 0)
(1.00004 -5.07737e-005 1.35714e-026)
(1.00006 -6.5311e-005 0)
(1.00009 -8.32841e-005 0)
(1.00012 -0.000104995 0)
(1.00017 -0.000130342 0)
(1.00022 -0.000158623 0)
(1.00029 -0.000188154 0)
(1.00036 -0.000216109 1.46698e-026)
(1.00046 -0.000238588 0)
(1.00025 0.00141668 3.86338e-027)
(1.00023 0.0023238 0)
(0.999904 -2.08898e-005 9.31877e-026)
(0.999916 -2.79677e-005 0)
(0.999928 -2.94271e-005 0)
(0.999938 -2.73909e-005 0)
(0.999946 -2.37493e-005 -4.00167e-026)
(0.999952 -1.97352e-005 0)
(0.999957 -1.6001e-005 5.31486e-026)
(0.99996 -1.28179e-005 5.31066e-026)
(0.999962 -1.02429e-005 0)
(0.999963 -8.23133e-006 5.30461e-026)
(0.999964 -6.69786e-006 0)
(0.999965 -5.54971e-006 3.97765e-026)
(0.999965 -4.69781e-006 3.97653e-026)
(0.999966 -4.06216e-006 0)
(0.999966 -3.57134e-006 3.97504e-026)
(0.999966 -3.16974e-006 3.97451e-026)
(0.999964 -2.83411e-006 0)
(0.999962 -2.59863e-006 3.97374e-026)
(0.999957 -2.52641e-006 3.97362e-026)
(0.999952 -2.42879e-006 0)
(0.999946 -2.43703e-006 3.97346e-026)
(0.999942 -2.35457e-006 3.97333e-026)
(0.999939 -2.38453e-006 0)
(0.999937 -2.31676e-006 3.97326e-026)
(0.999936 -2.37622e-006 3.97334e-026)
(0.999935 -2.34211e-006 0)
(0.999935 -2.43797e-006 3.97342e-026)
(0.999934 -2.43346e-006 -3.97341e-026)
(0.999934 -2.54702e-006 3.97356e-026)
(0.999934 -2.54653e-006 3.97356e-026)
(0.999933 -2.65214e-006 0)
(0.999933 -2.63469e-006 3.97367e-026)
(0.999932 -2.71931e-006 3.97378e-026)
(0.999931 -2.67922e-006 -3.97372e-026)
(0.999931 -2.74377e-006 3.97381e-026)
(0.99993 -2.68641e-006 3.97373e-026)
(0.99993 -2.73856e-006 0)
(0.999929 -2.67252e-006 3.97371e-026)
(0.999929 -2.71994e-006 3.97377e-026)
(0.999929 -2.65192e-006 -3.97368e-026)
(0.999929 -2.69913e-006 0)
(0.999929 -2.6323e-006 0)
(0.999929 -2.68054e-006 0)
(0.999929 -2.61531e-006 0)
(0.999929 -2.66375e-006 0)
(0.999929 -2.59908e-006 -3.97361e-026)
(0.999929 -2.64614e-006 5.29704e-026)
(0.999929 -2.58073e-006 0)
(0.999929 -2.62492e-006 0)
(0.99993 -2.55772e-006 0)
(0.99993 -2.59798e-006 0)
(0.99993 -2.52844e-006 0)
(0.999931 -2.56413e-006 0)
(0.999931 -2.49209e-006 5.29685e-026)
(0.999932 -2.52293e-006 0)
(0.999933 -2.44854e-006 5.2968e-026)
(0.999933 -2.4745e-006 0)
(0.999934 -2.39814e-006 0)
(0.999935 -2.41947e-006 0)
(0.999936 -2.34187e-006 0)
(0.999937 -2.35919e-006 0)
(0.999938 -2.28155e-006 0)
(0.999939 -2.29615e-006 5.29663e-026)
(0.99994 -2.22055e-006 0)
(0.999941 -2.23488e-006 5.29656e-026)
(0.999942 -2.16492e-006 0)
(0.999944 -2.18347e-006 0)
(0.999945 -2.12548e-006 0)
(0.999947 -2.15635e-006 0)
(0.999948 -2.12141e-006 0)
(0.99995 -2.17906e-006 0)
(0.999951 -2.18669e-006 5.29655e-026)
(0.999953 -2.2968e-006 0)
(0.999955 -2.38139e-006 5.29683e-026)
(0.999957 -2.58939e-006 0)
(0.999959 -2.81152e-006 0)
(0.999961 -3.19757e-006 0)
(0.999963 -3.66378e-006 0)
(0.999965 -4.3689e-006 0)
(0.999968 -5.26607e-006 0)
(0.99997 -6.53723e-006 5.30241e-026)
(0.999973 -8.19148e-006 0)
(0.999977 -1.04579e-005 0)
(0.999981 -1.34328e-005 0)
(0.999985 -1.74308e-005 0)
(0.99999 -2.26825e-005 0)
(0.999997 -2.96439e-005 0)
(1 -3.87415e-005 5.34521e-026)
(1.00001 -5.06323e-005 0)
(1.00003 -6.59817e-005 5.38138e-026)
(1.00004 -8.56441e-005 0)
(1.00006 -0.000110417 0)
(1.00009 -0.00014105 0)
(1.00013 -0.000177838 0)
(1.00018 -0.000220273 0)
(1.00025 -0.000266318 0)
(1.00033 -0.000311765 5.70828e-026)
(1.00043 -0.000349883 0)
(1.00024 0.00196293 2.6973e-026)
(1.00021 0.00298287 0)
(0.999892 -3.63295e-005 5.34142e-026)
(0.999911 -4.46666e-005 0)
(0.999929 -4.36435e-005 0)
(0.999942 -3.818e-005 0)
(0.999951 -3.14846e-005 0)
(0.999957 -2.51562e-005 -1.33007e-025)
(0.999961 -1.98012e-005 -7.96671e-026)
(0.999963 -1.55266e-005 -7.96107e-026)
(0.999964 -1.22291e-005 -1.32666e-025)
(0.999965 -9.74022e-006 1.85667e-025)
(0.999965 -7.88959e-006 -1.32551e-025)
(0.999966 -6.52841e-006 -1.32516e-025)
(0.999966 -5.53412e-006 -1.32489e-025)
(0.999966 -4.80808e-006 0)
(0.999966 -4.27148e-006 0)
(0.999966 -3.86366e-006 -1.32445e-025)
(0.999965 -3.54619e-006 0)
(0.999962 -3.31581e-006 -1.3243e-025)
(0.999957 -3.20094e-006 0)
(0.999952 -3.11085e-006 0)
(0.999947 -3.08686e-006 -1.32422e-025)
(0.999942 -3.02796e-006 -1.3242e-025)
(0.999939 -3.01706e-006 0)
(0.999937 -2.98569e-006 0)
(0.999936 -3.0158e-006 -1.32419e-025)
(0.999935 -3.03203e-006 -1.32419e-025)
(0.999935 -3.10651e-006 -1.32421e-025)
(0.999934 -3.1572e-006 0)
(0.999934 -3.2499e-006 0)
(0.999934 -3.3021e-006 -1.32426e-025)
(0.999933 -3.38189e-006 -1.32428e-025)
(0.999932 -3.41136e-006 -1.32429e-025)
(0.999932 -3.46379e-006 -1.3243e-025)
(0.999931 -3.46522e-006 0)
(0.999931 -3.49257e-006 -1.32431e-025)
(0.99993 -3.47326e-006 -1.3243e-025)
(0.99993 -3.48529e-006 -1.3243e-025)
(0.999929 -3.45563e-006 -1.32429e-025)
(0.999929 -3.46169e-006 0)
(0.999929 -3.42938e-006 0)
(0.999929 -3.43486e-006 -1.32429e-025)
(0.999929 -3.40338e-006 -1.32428e-025)
(0.999929 -3.40979e-006 -1.32428e-025)
(0.999929 -3.37935e-006 0)
(0.999929 -3.3858e-006 -1.32427e-025)
(0.999929 -3.35501e-006 0)
(0.999929 -3.35977e-006 -7.94469e-026)
(0.999929 -3.32697e-006 0)
(0.999929 -3.32841e-006 -1.32426e-025)
(0.99993 -3.29228e-006 -1.32425e-025)
(0.99993 -3.28928e-006 -1.32425e-025)
(0.999931 -3.24907e-006 -1.32424e-025)
(0.999931 -3.24102e-006 0)
(0.999932 -3.19643e-006 -7.9445e-026)
(0.999932 -3.18313e-006 -1.32423e-025)
(0.999933 -3.13421e-006 5.29771e-026)
(0.999933 -3.11576e-006 -1.32421e-025)
(0.999934 -3.06285e-006 0)
(0.999935 -3.03965e-006 -1.32419e-025)
(0.999936 -2.98344e-006 -1.32418e-025)
(0.999937 -2.95634e-006 -1.32417e-025)
(0.999938 -2.89808e-006 -1.32416e-025)
(0.999939 -2.86865e-006 5.29739e-026)
(0.99994 -2.81058e-006 -1.32414e-025)
(0.999941 -2.7817e-006 -7.94403e-026)
(0.999943 -2.72775e-006 -1.32412e-025)
(0.999944 -2.70456e-006 -1.32411e-025)
(0.999945 -2.66169e-006 1.3241e-025)
(0.999947 -2.65335e-006 -1.3241e-025)
(0.999948 -2.63384e-006 -1.3241e-025)
(0.99995 -2.65659e-006 -1.32411e-025)
(0.999951 -2.68211e-006 -7.94397e-026)
(0.999953 -2.76467e-006 0)
(0.999955 -2.87348e-006 -7.94425e-026)
(0.999956 -3.0666e-006 -1.32423e-025)
(0.999958 -3.32621e-006 -1.3243e-025)
(0.99996 -3.71952e-006 -1.3244e-025)
(0.999962 -4.24902e-006 0)
(0.999964 -5.00064e-006 -1.32475e-025)
(0.999966 -6.00997e-006 -1.32502e-025)
(0.999969 -7.39838e-006 5.30354e-026)
(0.999971 -9.25679e-006 0)
(0.999974 -1.1771e-005 -1.32655e-025)
(0.999976 -1.51254e-005 -1.32744e-025)
(0.99998 -1.96194e-005 -1.32864e-025)
(0.999983 -2.55939e-005 -1.33022e-025)
(0.999987 -3.35415e-005 0)
(0.999992 -4.40574e-005 -7.99905e-026)
(0.999998 -5.79422e-005 -1.33881e-025)
(1.00001 -7.61687e-005 -8.04166e-026)
(1.00002 -9.99542e-005 -1.34995e-025)
(1.00003 -0.000130689 0)
(1.00005 -0.000169864 0)
(1.00008 -0.000218747 -1.38148e-025)
(1.00012 -0.00027778 -1.39716e-025)
(1.00019 -0.000345431 -1.41515e-025)
(1.00027 -0.000416475 5.84656e-026)
(1.00039 -0.000480151 -1.45108e-025)
(1.00023 0.00248242 -4.65722e-026)
(1.00018 0.0036321 0)
(0.999874 -6.55439e-005 1.60531e-025)
(0.999908 -7.07672e-005 0)
(0.999934 -6.22897e-005 0)
(0.99995 -5.01649e-005 0)
(0.99996 -3.88033e-005 -1.59836e-025)
(0.999964 -2.95476e-005 -1.33125e-025)
(0.999966 -2.24612e-005 -1.32937e-025)
(0.999967 -1.71963e-005 -1.32798e-025)
(0.999967 -1.33425e-005 -1.32696e-025)
(0.999967 -1.05431e-005 1.32622e-025)
(0.999967 -8.51759e-006 -1.32568e-025)
(0.999967 -7.05566e-006 2.64677e-026)
(0.999967 -6.00167e-006 2.64677e-026)
(0.999967 -5.24194e-006 0)
(0.999967 -4.69406e-006 1.58935e-025)
(0.999966 -4.30059e-006 2.64677e-026)
(0.999965 -4.02427e-006 0)
(0.999962 -3.84885e-006 2.64676e-026)
(0.999958 -3.77773e-006 1.58909e-025)
(0.999952 -3.75694e-006 0)
(0.999947 -3.77067e-006 2.64672e-026)
(0.999942 -3.74945e-006 2.6467e-026)
(0.999939 -3.70671e-006 0)
(0.999937 -3.68645e-006 1.58903e-025)
(0.999935 -3.68201e-006 2.64669e-026)
(0.999935 -3.72296e-006 -1.32437e-025)
(0.999934 -3.77574e-006 2.64668e-026)
(0.999934 -3.86219e-006 -1.58908e-025)
(0.999934 -3.93926e-006 1.5891e-025)
(0.999933 -4.03008e-006 2.64668e-026)
(0.999933 -4.09366e-006 -1.32447e-025)
(0.999932 -4.1596e-006 2.64668e-026)
(0.999932 -4.19225e-006 2.64668e-026)
(0.999931 -4.22655e-006 -1.58917e-025)
(0.999931 -4.2303e-006 2.64667e-026)
(0.99993 -4.24068e-006 2.64667e-026)
(0.99993 -4.22623e-006 -1.3245e-025)
(0.999929 -4.22403e-006 2.64667e-026)
(0.999929 -4.20176e-006 1.58916e-025)
(0.999929 -4.19543e-006 -1.58916e-025)
(0.999929 -4.17148e-006 -1.32448e-025)
(0.999929 -4.16486e-006 -1.32448e-025)
(0.999929 -4.14114e-006 -1.32447e-025)
(0.999929 -4.13453e-006 0)
(0.999929 -4.11027e-006 -1.32447e-025)
(0.999929 -4.1022e-006 -1.58913e-025)
(0.999929 -4.07566e-006 -1.32446e-025)
(0.999929 -4.06429e-006 0)
(0.999929 -4.03382e-006 -1.32445e-025)
(0.99993 -4.01769e-006 -1.32444e-025)
(0.99993 -3.98214e-006 -1.32443e-025)
(0.999931 -3.96034e-006 -1.32443e-025)
(0.999931 -3.91912e-006 0)
(0.999932 -3.89124e-006 -1.32441e-025)
(0.999932 -3.84418e-006 -1.3244e-025)
(0.999933 -3.81019e-006 0)
(0.999934 -3.75745e-006 -1.32438e-025)
(0.999934 -3.71763e-006 0)
(0.999935 -3.65969e-006 -1.32436e-025)
(0.999936 -3.61468e-006 -1.32434e-025)
(0.999937 -3.55248e-006 -1.32433e-025)
(0.999938 -3.5035e-006 -1.32432e-025)
(0.999939 -3.43871e-006 0)
(0.99994 -3.38797e-006 -1.32429e-025)
(0.999941 -3.32358e-006 -1.32427e-025)
(0.999943 -3.27502e-006 -1.32426e-025)
(0.999944 -3.21632e-006 -1.32425e-025)
(0.999945 -3.17692e-006 1.32424e-025)
(0.999947 -3.13322e-006 -1.32423e-025)
(0.999948 -3.11532e-006 -1.32423e-025)
(0.99995 -3.10306e-006 -1.32423e-025)
(0.999951 -3.12844e-006 -1.32424e-025)
(0.999953 -3.1766e-006 0)
(0.999955 -3.28375e-006 -1.32428e-025)
(0.999956 -3.44352e-006 -1.32433e-025)
(0.999958 -3.70045e-006 -1.3244e-025)
(0.99996 -4.06231e-006 -1.32449e-025)
(0.999962 -4.58934e-006 0)
(0.999963 -5.3134e-006 -1.32483e-025)
(0.999965 -6.32361e-006 -1.3251e-025)
(0.999967 -7.69364e-006 0)
(0.999969 -9.56502e-006 0)
(0.99997 -1.20848e-005 -1.32663e-025)
(0.999972 -1.54892e-005 -1.32754e-025)
(0.999974 -2.00553e-005 -1.32875e-025)
(0.999975 -2.61898e-005 -1.33037e-025)
(0.999976 -3.44017e-005 0)
(0.999978 -4.54034e-005 -1.33546e-025)
(0.999979 -6.01147e-005 -1.33936e-025)
(0.999981 -7.97856e-005 -1.34457e-025)
(0.999983 -0.000106034 -1.35152e-025)
(0.999988 -0.000140969 0)
(0.999997 -0.000187187 0)
(1.00001 -0.00024767 -1.38905e-025)
(1.00004 -0.000325185 -1.4096e-025)
(1.0001 -0.000420789 -1.43498e-025)
(1.00018 -0.000530457 0)
(1.00032 -0.000639309 -1.49312e-025)
(1.0002 0.00295434 -5.4174e-026)
(1.00011 0.0042492 0)
(0.999852 -0.000124048 -2.64642e-026)
(0.999915 -0.000110535 0)
(0.99995 -8.44857e-005 1.87511e-025)
(0.999966 -6.12814e-005 1.869e-025)
(0.999972 -4.39155e-005 2.64674e-026)
(0.999974 -3.16759e-005 1.86117e-025)
(0.999973 -2.32122e-005 1.85893e-025)
(0.999972 -1.7371e-005 1.85739e-025)
(0.999971 -1.33196e-005 1.85631e-025)
(0.99997 -1.04888e-005 1.85556e-025)
(0.999969 -8.4958e-006 1.85503e-025)
(0.999968 -7.08265e-006 3.44464e-025)
(0.999968 -6.07522e-006 3.4441e-025)
(0.999968 -5.35658e-006 0)
(0.999967 -4.85158e-006 3.44345e-025)
(0.999967 -4.51614e-006 3.44327e-025)
(0.999965 -4.32746e-006 0)
(0.999962 -4.27152e-006 3.44313e-025)
(0.999958 -4.33125e-006 3.44314e-025)
(0.999952 -4.45018e-006 0)
(0.999947 -4.56987e-006 3.44323e-025)
(0.999942 -4.61322e-006 1.58929e-025)
(0.999939 -4.52807e-006 0)
(0.999937 -4.49142e-006 3.44316e-025)
(0.999935 -4.4251e-006 3.44312e-025)
(0.999935 -4.4656e-006 1.8539e-025)
(0.999934 -4.47742e-006 3.44314e-025)
(0.999934 -4.58402e-006 -1.58927e-025)
(0.999934 -4.63406e-006 3.44322e-025)
(0.999933 -4.75542e-006 3.44329e-025)
(0.999933 -4.79764e-006 1.85398e-025)
(0.999932 -4.89747e-006 3.44336e-025)
(0.999932 -4.9095e-006 3.44336e-025)
(0.999931 -4.97729e-006 -1.58937e-025)
(0.999931 -4.95876e-006 3.44338e-025)
(0.99993 -5.00061e-006 3.4434e-025)
(0.99993 -4.96144e-006 1.85402e-025)
(0.999929 -4.98833e-006 3.4434e-025)
(0.999929 -4.93898e-006 3.44337e-025)
(0.999929 -4.95956e-006 -1.58936e-025)
(0.999929 -4.90668e-006 1.85401e-025)
(0.999929 -4.92515e-006 1.85401e-025)
(0.999929 -4.87111e-006 1.854e-025)
(0.999929 -4.88806e-006 1.854e-025)
(0.999929 -4.83248e-006 0)
(0.999929 -4.84656e-006 -1.58933e-025)
(0.999929 -4.78792e-006 1.85397e-025)
(0.999929 -4.79731e-006 1.85398e-025)
(0.999929 -4.73406e-006 1.85396e-025)
(0.99993 -4.73722e-006 1.85396e-025)
(0.99993 -4.66825e-006 1.85395e-025)
(0.999931 -4.66416e-006 1.85395e-025)
(0.999931 -4.58889e-006 1.85393e-025)
(0.999932 -4.57705e-006 1.85392e-025)
(0.999932 -4.49533e-006 1.8539e-025)
(0.999933 -4.47558e-006 0)
(0.999934 -4.38759e-006 1.85388e-025)
(0.999934 -4.36011e-006 1.85387e-025)
(0.999935 -4.26635e-006 1.85385e-025)
(0.999936 -4.23168e-006 1.85384e-025)
(0.999937 -4.13308e-006 1.85382e-025)
(0.999938 -4.09229e-006 1.85381e-025)
(0.999939 -3.99049e-006 1.85378e-025)
(0.99994 -3.94557e-006 1.85377e-025)
(0.999941 -3.84341e-006 1.85375e-025)
(0.999943 -3.79794e-006 1.85374e-025)
(0.999944 -3.70035e-006 0)
(0.999945 -3.66068e-006 0)
(0.999947 -3.57625e-006 0)
(0.999948 -3.55362e-006 1.85368e-025)
(0.99995 -3.49743e-006 0)
(0.999951 -3.51166e-006 1.85368e-025)
(0.999953 -3.51017e-006 0)
(0.999954 -3.59626e-006 1.85371e-025)
(0.999956 -3.69614e-006 0)
(0.999958 -3.91603e-006 1.8538e-025)
(0.999959 -4.19981e-006 0)
(0.999961 -4.66327e-006 1.854e-025)
(0.999962 -5.27742e-006 0)
(0.999964 -6.17976e-006 1.85441e-025)
(0.999965 -7.38532e-006 0)
(0.999966 -9.07578e-006 1.85518e-025)
(0.999967 -1.13411e-005 1.85578e-025)
(0.999968 -1.44492e-005 1.8566e-025)
(0.999968 -1.86231e-005 1.85771e-025)
(0.999967 -2.42978e-005 1.85921e-025)
(0.999966 -3.19435e-005 1.86123e-025)
(0.999964 -4.23238e-005 1.86397e-025)
(0.99996 -5.63884e-005 1.86769e-025)
(0.999955 -7.55663e-005 0)
(0.999949 -0.000101775 1.87968e-025)
(0.999941 -0.000137813 1.88921e-025)
(0.999934 -0.00018754 0)
(0.999929 -0.000256348 0)
(0.999934 -0.000351179 1.94567e-025)
(0.999962 -0.000479719 0)
(1.00004 -0.000646151 2.02394e-025)
(1.00019 -0.00083873 0)
(1.00015 0.00333548 9.70236e-026)
(0.999968 0.00474358 0)
(0.999845 -0.000239689 2.64634e-026)
(0.999949 -0.000162489 0)
(0.999984 -0.000103544 1.88022e-025)
(0.999991 -6.63484e-005 1.87038e-025)
(0.999989 -4.37442e-005 1.8644e-025)
(0.999985 -2.99042e-005 1.86073e-025)
(0.999981 -2.12359e-005 3.98152e-025)
(0.999977 -1.56622e-005 3.97855e-025)
(0.999974 -1.19875e-005 1.85596e-025)
(0.999972 -9.51027e-006 3.97528e-025)
(0.999971 -7.80705e-006 1.85485e-025)
(0.999969 -6.61556e-006 1.85453e-025)
(0.999969 -5.77142e-006 1.85431e-025)
(0.999968 -5.17496e-006 0)
(0.999968 -4.77403e-006 1.85404e-025)
(0.999967 -4.5532e-006 1.85398e-025)
(0.999965 -4.51841e-006 0)
(0.999962 -4.66865e-006 1.854e-025)
(0.999957 -4.96401e-006 1.85407e-025)
(0.999952 -5.2952e-006 0)
(0.999946 -5.5641e-006 1.85421e-025)
(0.999942 -5.67745e-006 0)
(0.999939 -5.57926e-006 0)
(0.999937 -5.45471e-006 1.85417e-025)
(0.999936 -5.33449e-006 1.85413e-025)
(0.999935 -5.29252e-006 1.85412e-025)
(0.999934 -5.28237e-006 1.85412e-025)
(0.999934 -5.33374e-006 0)
(0.999934 -5.38958e-006 1.85414e-025)
(0.999933 -5.47466e-006 1.85416e-025)
(0.999933 -5.53943e-006 1.85418e-025)
(0.999932 -5.61328e-006 1.8542e-025)
(0.999932 -5.65597e-006 1.85421e-025)
(0.999931 -5.70139e-006 0)
(0.999931 -5.71578e-006 1.85422e-025)
(0.99993 -5.73451e-006 1.85423e-025)
(0.99993 -5.72725e-006 1.85423e-025)
(0.999929 -5.72816e-006 1.85422e-025)
(0.999929 -5.70852e-006 1.85422e-025)
(0.999929 -5.6998e-006 0)
(0.999929 -5.67438e-006 1.85421e-025)
(0.999929 -5.66065e-006 1.85421e-025)
(0.999929 -5.63229e-006 1.8542e-025)
(0.999929 -5.61481e-006 1.85419e-025)
(0.999929 -5.5836e-006 0)
(0.999929 -5.56157e-006 0)
(0.999929 -5.52626e-006 3.973e-025)
(0.999929 -5.49824e-006 1.85416e-025)
(0.999929 -5.45735e-006 1.85415e-025)
(0.99993 -5.42195e-006 1.85414e-025)
(0.99993 -5.37429e-006 1.85413e-025)
(0.999931 -5.33057e-006 1.85412e-025)
(0.999931 -5.27543e-006 1.85411e-025)
(0.999932 -5.22288e-006 3.97285e-025)
(0.999932 -5.15994e-006 1.85408e-025)
(0.999933 -5.09843e-006 2.11872e-025)
(0.999934 -5.02769e-006 1.85405e-025)
(0.999934 -4.95741e-006 1.85403e-025)
(0.999935 -4.87918e-006 1.85401e-025)
(0.999936 -4.80066e-006 1.85399e-025)
(0.999937 -4.71564e-006 1.85397e-025)
(0.999938 -4.62986e-006 1.85395e-025)
(0.999939 -4.53935e-006 3.97252e-025)
(0.99994 -4.44808e-006 1.85391e-025)
(0.999941 -4.35435e-006 3.97243e-025)
(0.999943 -4.26066e-006 1.85386e-025)
(0.999944 -4.16769e-006 0)
(0.999945 -4.07688e-006 0)
(0.999947 -3.99159e-006 0)
(0.999948 -3.9129e-006 1.85378e-025)
(0.99995 -3.84742e-006 0)
(0.999951 -3.79696e-006 3.97217e-025)
(0.999953 -3.77254e-006 0)
(0.999954 -3.77861e-006 3.97217e-025)
(0.999956 -3.8327e-006 0)
(0.999957 -3.94518e-006 1.8538e-025)
(0.999959 -4.14407e-006 0)
(0.99996 -4.45141e-006 1.85394e-025)
(0.999962 -4.91305e-006 0)
(0.999963 -5.57305e-006 1.85425e-025)
(0.999964 -6.50874e-006 2.11916e-025)
(0.999964 -7.80535e-006 1.85484e-025)
(0.999965 -9.59766e-006 1.85531e-025)
(0.999964 -1.20487e-005 1.85596e-025)
(0.999963 -1.54021e-005 1.85685e-025)
(0.999961 -1.99726e-005 1.85805e-025)
(0.999957 -2.62202e-005 1.8597e-025)
(0.999951 -3.47726e-005 3.98857e-025)
(0.999943 -4.65514e-005 1.86505e-025)
(0.999931 -6.2882e-005 2.13401e-025)
(0.999915 -8.57646e-005 1.87538e-025)
(0.999894 -0.000118238 1.88394e-025)
(0.999867 -0.00016508 0)
(0.999833 -0.000233906 0)
(0.999798 -0.000336997 1.94166e-025)
(0.999772 -0.000493713 0)
(0.999791 -0.000731685 4.35686e-025)
(0.999932 -0.00107627 0)
(1.00002 0.00352194 2.106e-025)
(0.999615 0.00470933 0)
(0.999946 -0.000416984 2.22777e-025)
(1.00005 -0.00019502 0)
(1.00005 -0.000100301 0)
(1.00003 -5.65324e-005 -2.39721e-025)
(1.00001 -3.46325e-005 0)
(0.999996 -2.28387e-005 0)
(0.999988 -1.60688e-005 2.12174e-025)
(0.999981 -1.19708e-005 2.12064e-025)
(0.999977 -9.3798e-006 0)
(0.999974 -7.68087e-006 2.11949e-025)
(0.999972 -6.52934e-006 0)
(0.99997 -5.72404e-006 -2.38363e-025)
(0.999969 -5.14749e-006 0)
(0.999969 -4.74096e-006 0)
(0.999968 -4.49514e-006 0)
(0.999967 -4.44586e-006 0)
(0.999965 -4.6543e-006 0)
(0.999962 -5.15139e-006 0)
(0.999957 -5.84541e-006 0)
(0.999951 -6.4522e-006 0)
(0.999946 -6.78659e-006 0)
(0.999942 -6.90004e-006 0)
(0.999939 -6.76933e-006 0)
(0.999937 -6.55357e-006 0)
(0.999936 -6.35843e-006 -2.38371e-025)
(0.999935 -6.2171e-006 0)
(0.999934 -6.15569e-006 0)
(0.999934 -6.13708e-006 -2.38365e-025)
(0.999934 -6.17614e-006 0)
(0.999933 -6.21936e-006 0)
(0.999933 -6.2924e-006 0)
(0.999932 -6.34199e-006 0)
(0.999932 -6.40646e-006 -2.38372e-025)
(0.999931 -6.43512e-006 -2.38372e-025)
(0.999931 -6.47592e-006 0)
(0.99993 -6.47844e-006 0)
(0.99993 -6.497e-006 0)
(0.999929 -6.47872e-006 0)
(0.999929 -6.48221e-006 0)
(0.999929 -6.4504e-006 -2.38372e-025)
(0.999929 -6.44525e-006 -2.38372e-025)
(0.999929 -6.40496e-006 0)
(0.999929 -6.39465e-006 0)
(0.999929 -6.34799e-006 0)
(0.999929 -6.3333e-006 0)
(0.999929 -6.28023e-006 -2.38368e-025)
(0.999929 -6.26037e-006 2.11902e-025)
(0.999929 -6.19989e-006 0)
(0.99993 -6.17354e-006 -2.38365e-025)
(0.99993 -6.10448e-006 0)
(0.99993 -6.07041e-006 0)
(0.999931 -5.99187e-006 0)
(0.999931 -5.94921e-006 0)
(0.999932 -5.86065e-006 -2.64651e-026)
(0.999932 -5.8089e-006 0)
(0.999933 -5.71016e-006 -2.64651e-026)
(0.999934 -5.64914e-006 0)
(0.999934 -5.54036e-006 0)
(0.999935 -5.47017e-006 0)
(0.999936 -5.35181e-006 0)
(0.999937 -5.27286e-006 0)
(0.999938 -5.14574e-006 -2.3834e-025)
(0.999939 -5.05889e-006 2.11873e-025)
(0.99994 -4.9244e-006 0)
(0.999942 -4.83121e-006 2.11867e-025)
(0.999943 -4.69161e-006 0)
(0.999944 -4.59475e-006 0)
(0.999945 -4.45385e-006 -2.38323e-025)
(0.999947 -4.35796e-006 0)
(0.999948 -4.22211e-006 -2.38318e-025)
(0.99995 -4.13523e-006 0)
(0.999951 -4.0153e-006 2.11847e-025)
(0.999953 -3.95143e-006 0)
(0.999954 -3.86621e-006 2.11844e-025)
(0.999956 -3.8499e-006 0)
(0.999957 -3.83226e-006 0)
(0.999959 -3.9069e-006 0)
(0.99996 -4.01496e-006 -2.38315e-025)
(0.999961 -4.25782e-006 0)
(0.999962 -4.5953e-006 0)
(0.999963 -5.14526e-006 2.1188e-025)
(0.999963 -5.89953e-006 0)
(0.999963 -7.00967e-006 0)
(0.999961 -8.52512e-006 0)
(0.999959 -1.06666e-005 0)
(0.999956 -1.35944e-005 -2.38568e-025)
(0.99995 -1.76769e-005 0)
(0.999941 -2.3307e-005 2.12356e-025)
(0.999929 -3.11939e-005 0)
(0.999912 -4.22833e-005 2.12852e-025)
(0.999888 -5.81732e-005 -2.39731e-025)
(0.999854 -8.13468e-005 0)
(0.999806 -0.000116144 -2.41246e-025)
(0.99974 -0.000170259 0)
(0.999648 -0.000258439 0)
(0.999528 -0.000410484 0)
(0.999396 -0.000690739 2.29907e-025)
(0.99937 -0.00124623 0)