/*--------------------------------*- C++ -*----------------------------------*\
| =========                 |                                                 |
| \\      /  F ield         | OpenFOAM: The Open Source CFD Toolbox           |
|  \\    /   O peration     | Version:  5.x                                   |
|   \\  /    A nd           | Web:      www.OpenFOAM.org                      |
|    \\/     M anipulation  |                                                 |
\*---------------------------------------------------------------------------*/
/*   Windows 32 and 64 bit porting by blueCAPE: http://www.bluecape.com.pt   *\
|  Based on Windows porting (2.0.x v4) by Symscape: http://www.symscape.com   |
\*---------------------------------------------------------------------------*/
FoamFile
{
    version     2.0;
    format      ascii;
    class       volScalarField;
    location    "0.12";
    object      p;
}
// * * * * * * * * * * * * * * * * * * * * * * * * * * * * * * * * * * * * * //

dimensions      [0 2 -2 0 0 0 0];

internalField   nonuniform List<scalar> 
750
(
0.37618346
0.37633581
0.37606048
0.37587409
0.37557266
0.37524718
0.37488416
0.37449871
0.37409551
0.37368209
0.37325683
0.37282341
0.37238497
0.37193025
0.3714618
0.37097385
0.37042892
0.36984306
0.36912851
0.36817053
0.3671865
0.3645629
0.36339959
0.35436078
0.35021559
0.37618994
0.37633776
0.37606698
0.37587666
0.3755758
0.37524911
0.3748856
0.37449972
0.37409625
0.37368259
0.3732572
0.37282397
0.37238545
0.37193109
0.37146321
0.37097531
0.37043279
0.36984792
0.36913578
0.3681932
0.3671872
0.36465445
0.3633642
0.3545752
0.35036345
0.37619955
0.37634711
0.37607629
0.37588311
0.37558137
0.37525308
0.37488855
0.37450184
0.37409782
0.37368375
0.37325819
0.37282516
0.37238677
0.37193309
0.37146636
0.37097993
0.37044102
0.3698605
0.36915669
0.36823053
0.36723744
0.36477847
0.36347243
0.35481373
0.35096146
0.37621359
0.37636202
0.3760898
0.37589299
0.37558959
0.37525903
0.37489298
0.37450502
0.37410017
0.3736855
0.37325976
0.37282683
0.37238879
0.37193613
0.37147098
0.37098732
0.37045296
0.36987975
0.36918979
0.368283
0.36732372
0.36492745
0.36369166
0.35511076
0.3517767
0.37623264
0.37638172
0.37610795
0.37590608
0.37560057
0.37526691
0.37489887
0.37450921
0.37410328
0.37368782
0.37326182
0.37282894
0.37239148
0.37194013
0.37147688
0.37099707
0.37046838
0.36990483
0.36923359
0.36834974
0.36744245
0.36511119
0.36399453
0.35552737
0.35278184
0.37625671
0.37640636
0.37613075
0.3759224
0.3756143
0.37527671
0.37490615
0.3745144
0.37410711
0.37369066
0.37326428
0.37283153
0.37239481
0.37194499
0.37148396
0.37100884
0.3704871
0.36993511
0.36928572
0.36843343
0.36758895
0.36534264
0.36439622
0.35600967
0.35435033
0.37628575
0.37643633
0.37615819
0.37594195
0.37563067
0.3752884
0.37491479
0.37452055
0.37411164
0.37369398
0.37326718
0.3728346
0.3723987
0.37195063
0.37149223
0.37102243
0.37050892
0.3699705
0.36934533
0.36853361
0.36776669
0.36561685
0.36497401
0.3565922
0.35679524
0.37631954
0.37647204
0.37619019
0.37596471
0.37564964
0.37530194
0.37492476
0.37452763
0.37411683
0.37369778
0.37327052
0.37283808
0.37240307
0.37195706
0.3715018
0.37103787
0.37053366
0.37001013
0.36941249
0.36864693
0.3679851
0.36594118
0.36574741
0.35755489
0.36064168
0.37635848
0.37651268
0.37622712
0.37599074
0.37567113
0.37531731
0.37493598
0.37453561
0.37412264
0.37370202
0.37327417
0.37284199
0.37240795
0.37196419
0.37151261
0.37105495
0.37056103
0.37005365
0.36948766
0.36876928
0.3682331
0.36635132
0.3666416
0.35889389
0.36544525
0.37640568
0.37655392
0.37627151
0.37601997
0.37569492
0.37533443
0.3749483
0.37454437
0.37412894
0.37370653
0.37327803
0.37284623
0.37241302
0.37197156
0.37152396
0.37107267
0.37059058
0.37009984
0.36956675
0.36890088
0.36844679
0.36687729
0.36742217
0.36071277
0.37034842
0.32830169
0.31775227
0.30250486
0.28974483
0.27590544
0.26249164
0.24894182
0.23549081
0.22202224
0.2085694
0.19511294
0.18165694
0.1682008
0.1547447
0.1412886
0.12783251
0.11437642
0.10092034
0.087464267
0.074008201
0.060552148
0.047096104
0.033640074
0.02018403
0.0067280163
0.32811476
0.31766351
0.30239146
0.28972057
0.27586665
0.26245551
0.24893757
0.2354881
0.22202322
0.20856926
0.19511298
0.18165692
0.16820079
0.1547447
0.14128861
0.12783251
0.11437642
0.10092034
0.087464266
0.074008201
0.060552149
0.047096104
0.033640072
0.020184032
0.0067280136
0.32758876
0.31774099
0.30201665
0.28957594
0.27585279
0.26243122
0.24893294
0.23548573
0.22202424
0.20856931
0.19511298
0.18165692
0.16820079
0.1547447
0.14128861
0.12783251
0.11437642
0.10092034
0.087464265
0.074008201
0.06055215
0.047096104
0.03364007
0.020184036
0.0067280124
0.3269403
0.31774676
0.30177844
0.28938358
0.27581074
0.26241546
0.24892852
0.23548373
0.22202521
0.20856958
0.19511301
0.18165692
0.16820079
0.1547447
0.14128861
0.12783251
0.11437642
0.10092034
0.087464265
0.074008202
0.06055215
0.047096104
0.033640069
0.02018404
0.006728011
0.32643776
0.31757026
0.30169208
0.28921743
0.27571091
0.26239798
0.24892407
0.23548223
0.22202592
0.20856985
0.19511305
0.18165692
0.16820078
0.1547447
0.14128861
0.12783251
0.11437642
0.10092034
0.087464265
0.074008202
0.06055215
0.047096104
0.033640068
0.020184043
0.0067280101
0.32576092
0.31755873
0.30151475
0.28908255
0.27565047
0.2623816
0.24892015
0.23548193
0.22202633
0.20857005
0.19511308
0.18165692
0.16820079
0.1547447
0.14128861
0.12783251
0.11437642
0.10092034
0.087464265
0.074008202
0.06055215
0.047096104
0.033640067
0.020184044
0.0067280113
0.32465075
0.31764919
0.3012274
0.28898679
0.27560199
0.26236995
0.24891754
0.23548316
0.22202653
0.20857017
0.19511309
0.18165693
0.16820079
0.15474471
0.14128861
0.12783251
0.11437642
0.10092034
0.087464266
0.074008202
0.06055215
0.047096105
0.033640067
0.020184044
0.0067280141
0.32364007
0.31749275
0.30093969
0.28894683
0.27556803
0.26236519
0.24891716
0.23548531
0.22202678
0.20857022
0.19511308
0.18165694
0.16820079
0.15474471
0.14128861
0.12783251
0.11437642
0.10092034
0.087464266
0.074008202
0.06055215
0.047096106
0.033640067
0.020184043
0.0067280172
0.32219095
0.3172649
0.30077255
0.28891672
0.27554828
0.2623668
0.24891914
0.23548745
0.22202713
0.20857024
0.19511306
0.18165694
0.1682008
0.15474471
0.14128861
0.12783251
0.11437642
0.10092034
0.087464266
0.074008203
0.060552151
0.047096106
0.033640068
0.020184044
0.00672802
0.31763955
0.31770227
0.30070745
0.28898448
0.27551653
0.2623707
0.2489177
0.2354887
0.22202701
0.20857031
0.19511302
0.18165695
0.1682008
0.15474471
0.14128861
0.12783251
0.11437642
0.10092034
0.087464266
0.074008203
0.060552151
0.047096106
0.033640069
0.020184047
0.0067280234
0.37652037
0.3766362
0.37637668
0.37608528
0.37574651
0.37537174
0.37497469
0.37456308
0.37414211
0.37371576
0.37328602
0.37285465
0.3724229
0.37198626
0.37154639
0.37110768
0.37065275
0.37019404
0.36972405
0.36918817
0.36877505
0.36801671
0.36862676
0.36571923
0.38310796
0.3767238
0.37684796
0.37655752
0.37621659
0.37584431
0.37544197
0.37502387
0.37459761
0.37416603
0.3737333
0.37330133
0.37286888
0.3724396
0.37201239
0.37158457
0.37116644
0.37075087
0.37033888
0.36995415
0.36955063
0.36925222
0.36887992
0.36902352
0.36723682
0.37296256
0.37698648
0.37713692
0.37677758
0.37637555
0.37595854
0.37552148
0.37507812
0.37463442
0.3741912
0.3737517
0.37331617
0.37288255
0.37245449
0.37203585
0.37162211
0.37122071
0.37083883
0.3704721
0.37015633
0.36986456
0.36970156
0.36959662
0.36981311
0.36956774
0.37213522
0.37733175
0.37750678
0.37703958
0.37655659
0.37608274
0.37560474
0.37513319
0.37467016
0.37421537
0.37376805
0.37332763
0.37289374
0.37246732
0.37205267
0.3716517
0.37126475
0.37090766
0.37057973
0.37031447
0.37010382
0.37001515
0.37004148
0.37030793
0.37074008
0.37156903
0.3778102
0.37795032
0.37733725
0.37674953
0.376207
0.37568476
0.37518427
0.37470134
0.3742349
0.37377988
0.37333539
0.37289999
0.37247506
0.37206278
0.37166853
0.37129386
0.37095239
0.37065168
0.37041933
0.37026379
0.37021877
0.37031082
0.37063195
0.37129768
0.37147444
0.37852294
0.37843209
0.37765386
0.3769399
0.37631868
0.37575288
0.37522548
0.3747244
0.37424731
0.37378584
0.37333712
0.37289973
0.37247456
0.37206397
0.37167115
0.37130261
0.37096871
0.37068089
0.37046139
0.37032885
0.37030399
0.37042233
0.37072744
0.3714463
0.37137844
0.37963538
0.37891424
0.37795643
0.37710599
0.37640721
0.37579953
0.37524987
0.37473648
0.37425085
0.37378399
0.373331
0.37289136
0.37246377
0.37205076
0.37165562
0.37128501
0.37094864
0.37065883
0.37043472
0.37029612
0.37026232
0.37036845
0.37062907
0.37132148
0.37119744
0.38155273
0.37924467
0.37817207
0.37719711
0.37644908
0.37581616
0.37525245
0.37473376
0.37424328
0.37377291
0.37331687
0.3728733
0.37244113
0.37202163
0.37161869
0.37123778
0.37088764
0.37058048
0.37033319
0.37016431
0.37009678
0.37016423
0.37037619
0.37100932
0.37091976
0.38529967
0.37912346
0.37832184
0.37719843
0.37642862
0.3757931
0.37522802
0.37470997
0.37421991
0.3737484
0.3732895
0.37284037
0.37239991
0.37196847
0.37154904
0.37114631
0.37076769
0.37042401
0.37013076
0.36990774
0.36977851
0.36978642
0.36995631
0.37053334
0.37052076
0.3868064
0.37802832
0.37873235
0.37726362
0.37648778
0.37582066
0.37524382
0.37471838
0.37422431
0.37375036
0.37328996
0.37283978
0.37239855
0.37196623
0.37154567
0.37114112
0.37075961
0.37041123
0.3701114
0.36987875
0.36973493
0.36972677
0.36984202
0.37037138
0.3703821
)
;

boundaryField
{
    inlet
    {
        type            zeroGradient;
    }
    walls
    {
        type            zeroGradient;
    }
    outlet
    {
        type            fixedValue;
        value           uniform 0;
    }
    centreline
    {
        type            symmetryPlane;
    }
    frontAndBack
    {
        type            empty;
    }
}


// ************************************************************************* //
