/*--------------------------------*- C++ -*----------------------------------*\
| =========                 |                                                 |
| \\      /  F ield         | OpenFOAM: The Open Source CFD Toolbox           |
|  \\    /   O peration     | Version:  5.x                                   |
|   \\  /    A nd           | Web:      www.OpenFOAM.org                      |
|    \\/     M anipulation  |                                                 |
\*---------------------------------------------------------------------------*/
/*   Windows 32 and 64 bit porting by blueCAPE: http://www.bluecape.com.pt   *\
|  Based on Windows porting (2.0.x v4) by Symscape: http://www.symscape.com   |
\*---------------------------------------------------------------------------*/
FoamFile
{
    version     2.0;
    format      ascii;
    class       surfaceScalarField;
    location    "0.12";
    object      phi;
}
// * * * * * * * * * * * * * * * * * * * * * * * * * * * * * * * * * * * * * //

dimensions      [0 3 -1 0 0 0 0];

internalField   nonuniform List<scalar> 
1430
(
5.106595e-006
-1.053147e-007
5.2369931e-006
-1.3039804e-007
5.3615666e-006
-1.2457351e-007
5.4652796e-006
-1.0371299e-007
5.5512461e-006
-8.5966409e-008
5.620945e-006
-6.9698962e-008
5.678368e-006
-5.7422935e-008
5.7270833e-006
-4.8715292e-008
5.7708954e-006
-4.3812112e-008
5.8138387e-006
-4.2943288e-008
5.8603143e-006
-4.6475581e-008
5.9159914e-006
-5.5677132e-008
5.9876182e-006
-7.1626775e-008
6.0844487e-006
-9.6830529e-008
6.2199286e-006
-1.3547985e-007
6.4130306e-006
-1.9310203e-007
6.6933027e-006
-2.8027216e-007
7.1056942e-006
-4.123915e-007
7.7243778e-006
-6.1868361e-007
8.6947707e-006
-9.7039291e-007
1.0224135e-005
-1.5293642e-006
1.2687799e-005
-2.4636636e-006
1.627918e-005
-3.5913811e-006
2.0955773e-005
-4.676593e-006
-5.1773034e-006
2.6133076e-005
5.1058572e-006
-2.098916e-007
5.2385548e-006
-2.6309559e-007
5.3620741e-006
-2.480928e-007
5.4664014e-006
-2.0804022e-007
5.5521202e-006
-1.7168516e-007
5.6217098e-006
-1.3928859e-007
5.6789024e-006
-1.1461544e-007
5.7273871e-006
-9.7200032e-008
5.770925e-006
-8.7350014e-008
5.8135807e-006
-8.559899e-008
5.8596969e-006
-9.2591783e-008
5.9149058e-006
-1.1088597e-007
5.9859427e-006
-1.4266371e-007
6.0818923e-006
-1.9278018e-007
6.2160282e-006
-2.6961577e-007
6.4072333e-006
-3.8430712e-007
6.684233e-006
-5.5727183e-007
7.0915778e-006
-8.1973631e-007
7.70275e-006
-1.2298558e-006
8.6571958e-006
-1.9248388e-006
1.0170412e-005
-3.0425804e-006
1.2568081e-005
-4.8613326e-006
1.6108023e-005
-7.131323e-006
2.0631046e-005
-9.1996165e-006
-1.0348079e-005
2.5801822e-005
5.1065225e-006
-3.1513378e-007
5.2397773e-006
-3.9635034e-007
5.3638816e-006
-3.7219708e-007
5.4683537e-006
-3.1251228e-007
5.5539399e-006
-2.5727138e-007
5.62322e-006
-2.0856865e-007
5.6799925e-006
-1.7138785e-007
5.7280087e-006
-1.4521623e-007
5.7710338e-006
-1.3037517e-007
5.8130996e-006
-1.2766477e-007
5.8585065e-006
-1.3799863e-007
5.912828e-006
-1.6520748e-007
5.9826416e-006
-2.1247733e-007
6.0768522e-006
-2.869908e-007
6.2084252e-006
-4.0118876e-007
6.3956591e-006
-5.7154106e-007
6.6664672e-006
-8.2807994e-007
7.0638559e-006
-1.2171251e-006
7.658961e-006
-1.8249609e-006
8.5870172e-006
-2.852895e-006
1.0050526e-005
-4.5060894e-006
1.2361134e-005
-7.1719407e-006
1.5738074e-005
-1.0508263e-005
2.0073325e-005
-1.3534867e-005
-1.5320206e-005
2.5045452e-005
5.1075108e-006
-4.2136425e-007
5.2417091e-006
-5.3054855e-007
5.366643e-006
-4.9713095e-007
5.4713243e-006
-4.1719361e-007
5.5566946e-006
-3.4264168e-007
5.6255042e-006
-2.7737824e-007
5.6816472e-006
-2.2753083e-007
5.7289571e-006
-1.9252603e-007
5.7712136e-006
-1.7263174e-007
5.8124038e-006
-1.6885494e-007
5.8567611e-006
-1.8235595e-007
5.9097503e-006
-2.1819671e-007
5.9777526e-006
-2.8047966e-007
6.0693738e-006
-3.7861199e-007
6.1971373e-006
-5.2895226e-007
6.3785289e-006
-7.529327e-007
6.6401489e-006
-1.0897e-006
7.0229069e-006
-1.599883e-006
7.5939724e-006
-2.3960265e-006
8.4813326e-006
-3.7402552e-006
9.8740258e-006
-5.8987825e-006
1.2057795e-005
-9.3557099e-006
1.5207341e-005
-1.3657809e-005
1.9262337e-005
-1.7589863e-005
-1.9969594e-005
2.3911724e-005
5.1089115e-006
-5.2899537e-007
5.2443734e-006
-6.6601048e-007
5.370397e-006
-6.2315455e-007
5.475316e-006
-5.2211256e-007
5.5603782e-006
-4.2770383e-007
5.6285426e-006
-3.4554265e-007
5.6838394e-006
-2.8282759e-007
5.7302035e-006
-2.3889013e-007
5.7714365e-006
-2.1386469e-007
5.8114697e-006
-2.0888809e-007
5.8544467e-006
-2.2533298e-007
5.9056774e-006
-2.6942744e-007
5.9713038e-006
-3.4610606e-007
6.059526e-006
-4.6683421e-007
6.1822945e-006
-6.5172079e-007
6.3560793e-006
-9.2671749e-007
6.6057207e-006
-1.3393414e-006
6.9694299e-006
-1.9635922e-006
7.5088584e-006
-2.935455e-006
8.343473e-006
-4.5748699e-006
9.6405348e-006
-7.1958443e-006
1.1658178e-005
-1.1373353e-005
1.4520131e-005
-1.6519762e-005
1.8212862e-005
-2.1282594e-005
-2.4187643e-005
2.2430911e-005
5.1107888e-006
-6.3850382e-007
5.2478077e-006
-8.0302938e-007
5.3751712e-006
-7.5051805e-007
5.4803401e-006
-6.2728135e-007
5.5649813e-006
-5.1234505e-007
5.6323159e-006
-4.1287726e-007
5.6865435e-006
-3.3705511e-007
5.7317235e-006
-2.8407013e-007
5.7716775e-006
-2.538187e-007
5.8102819e-006
-2.474925e-007
5.8515602e-006
-2.6661122e-007
5.9006179e-006
-3.1848514e-007
5.9633234e-006
-4.0881157e-007
6.0473749e-006
-5.5088579e-007
6.1640241e-006
-7.6836996e-007
6.3285506e-006
-1.091244e-006
6.5636412e-006
-1.574432e-006
6.9042963e-006
-2.3042473e-006
7.4052238e-006
-3.4363825e-006
8.1744496e-006
-5.3440957e-006
9.3512266e-006
-8.3726214e-006
1.1164948e-005
-1.3187074e-005
1.3678674e-005
-1.9033487e-005
1.6938369e-005
-2.454229e-005
-2.7909401e-005
2.0660127e-005
5.1131575e-006
-7.5038102e-007
5.252034e-006
-9.4190585e-007
5.3809892e-006
-8.7947317e-007
5.486409e-006
-7.3270116e-007
5.5704905e-006
-5.9642654e-007
5.6367962e-006
-4.7918289e-007
5.6897232e-006
-3.8998213e-007
5.7334807e-006
-3.2782763e-007
5.7719005e-006
-2.9223842e-007
5.8088127e-006
-2.8440471e-007
5.8480937e-006
-3.0589219e-007
5.894577e-006
-3.649685e-007
5.9538357e-006
-4.6807026e-007
6.0329949e-006
-6.3004503e-007
6.1424899e-006
-8.7786499e-007
6.2962373e-006
-1.2449914e-006
6.5145054e-006
-1.7927002e-006
6.8283778e-006
-2.6181198e-006
7.2845843e-006
-3.8925889e-006
7.9766685e-006
-6.0361799e-006
9.0130173e-006
-9.4089702e-006
1.0586752e-005
-1.4760809e-005
1.2684348e-005
-2.1131083e-005
1.5476958e-005
-2.73349e-005
-3.0976131e-005
1.8543689e-005
5.1160493e-006
-8.6515002e-007
5.2570663e-006
-1.0829228e-006
5.3878761e-006
-1.0102829e-006
5.4935488e-006
-8.3837388e-007
5.5768991e-006
-6.7977685e-007
5.6419598e-006
-5.4424348e-007
5.693345e-006
-4.4136731e-007
5.7354373e-006
-3.6991998e-007
5.7720746e-006
-3.2887571e-007
5.8070302e-006
-3.1936029e-007
5.8440341e-006
-3.4289606e-007
5.8875823e-006
-4.0851673e-007
5.9428981e-006
-5.2338608e-007
6.0165091e-006
-7.0365603e-007
6.1178747e-006
-9.7923057e-007
6.2595036e-006
-1.3866203e-006
6.4590786e-006
-1.9922752e-006
6.7429379e-006
-2.9019791e-006
7.1495885e-006
-4.2992396e-006
7.7543119e-006
-6.6409033e-006
8.63129e-006
-1.0285948e-005
9.9313307e-006
-1.606085e-005
1.1570399e-005
-2.2770151e-005
1.3873906e-005
-2.9638408e-005
-3.306001e-005
1.5957785e-005
5.1195749e-006
-9.834446e-007
5.2628999e-006
-1.2262477e-006
5.3958762e-006
-1.1432592e-006
5.5018142e-006
-9.4431184e-007
5.5842231e-006
-7.6218581e-007
5.6478021e-006
-6.0782242e-007
5.6973942e-006
-4.9095935e-007
5.7375801e-006
-4.101059e-007
5.7721881e-006
-3.6348366e-007
5.8049332e-006
-3.5210546e-007
5.8394041e-006
-3.7736692e-007
5.8796972e-006
-4.4880979e-007
5.9306075e-006
-5.7429646e-007
5.9980877e-006
-7.7113618e-007
6.0904939e-006
-1.0716369e-006
6.2188572e-006
-1.5149835e-006
6.3981122e-006
-2.1715303e-006
6.6493905e-006
-3.1532574e-006
7.0023443e-006
-4.6521935e-006
7.5127891e-006
-7.151348e-006
8.2157969e-006
-1.0988956e-005
9.2165646e-006
-1.7061618e-005
1.0360914e-005
-2.3914501e-005
1.2133721e-005
-3.1411215e-005
-3.3785494e-005
1.2859205e-005
5.1232078e-006
-1.1053721e-006
5.270176e-006
-1.3732158e-006
5.4050108e-006
-1.278094e-006
5.5113713e-006
-1.0506723e-006
5.5925607e-006
-8.4337517e-007
5.6543898e-006
-6.6965155e-007
5.7019253e-006
-5.3849486e-007
5.7399637e-006
-4.4814424e-007
5.7723169e-006
-3.9583691e-007
5.8026218e-006
-3.8241034e-007
5.8342869e-006
-4.0903199e-007
5.8710134e-006
-4.8553626e-007
5.9171375e-006
-6.2042058e-007
5.9779839e-006
-8.3198265e-007
6.0607608e-006
-1.1544137e-006
6.1748151e-006
-1.6290379e-006
6.3321438e-006
-2.328859e-006
6.5494067e-006
-3.3705203e-006
6.8458891e-006
-4.9486759e-006
7.2567286e-006
-7.5621876e-006
7.785893e-006
-1.1518121e-005
8.455286e-006
-1.7731011e-005
9.0590635e-006
-2.4518278e-005
9.956549e-006
-3.2308701e-005
8.7074202e-006
-3.2536365e-005
2.8855443e-005
-2.7223674e-006
2.9656724e-005
-8.0128077e-007
2.9690649e-005
-3.3925109e-008
2.965789e-005
3.2758974e-008
2.9678223e-005
-2.0332997e-008
2.9698334e-005
-2.0111298e-008
2.97036e-005
-5.2656057e-009
2.9699653e-005
3.9469341e-009
2.9696284e-005
3.3688072e-009
2.9695043e-005
1.241381e-009
2.9695084e-005
-4.1188543e-011
2.969527e-005
-1.8563991e-010
2.9695326e-005
-5.6233121e-011
2.9695323e-005
2.8501212e-012
2.9695318e-005
5.4710999e-012
2.9695318e-005
-5.0900697e-014
2.9695319e-005
-1.2940063e-012
2.969532e-005
-6.0416783e-013
2.969532e-005
-3.3478122e-014
2.969532e-005
2.8894308e-014
2.9695319e-005
1.7854292e-013
2.9695319e-005
9.1625577e-013
2.9695318e-005
2.5021112e-013
2.9695328e-005
-9.7242125e-012
-1.0006712e-011
2.8294879e-005
-5.2154246e-006
2.9111994e-005
-1.6183959e-006
2.9171435e-005
-9.3366176e-008
2.9148439e-005
5.5754283e-008
2.9149381e-005
-2.1274212e-008
2.9163033e-005
-3.3763959e-008
2.9165099e-005
-7.3315945e-009
2.9161481e-005
7.5651341e-009
2.9158644e-005
6.205476e-009
2.91578e-005
2.0855581e-009
2.9157886e-005
-1.2675878e-010
2.9158042e-005
-3.416672e-010
2.9158083e-005
-9.6828597e-011
2.9158079e-005
6.7917271e-012
2.9158074e-005
9.7861988e-012
2.9158075e-005
-2.9514765e-013
2.9158076e-005
-2.431746e-012
2.9158076e-005
-1.0760337e-012
2.9158076e-005
-1.3287894e-015
2.9158076e-005
5.8110636e-014
2.9158076e-005
2.0225102e-013
2.9158075e-005
1.4286174e-012
2.9158075e-005
5.7084128e-013
2.9158081e-005
-1.5702664e-011
-1.6631988e-011
2.724538e-005
-7.4153524e-006
2.800086e-005
-2.373876e-006
2.809688e-005
-1.8938649e-007
2.8071767e-005
8.086767e-008
2.8060613e-005
-1.0120338e-008
2.8063445e-005
-3.6595853e-008
2.8060843e-005
-4.7293661e-009
2.8057425e-005
1.0982512e-008
2.8055691e-005
7.9398606e-009
2.8055431e-005
2.3454227e-009
2.8055583e-005
-2.7864442e-010
2.8055682e-005
-4.4032041e-010
2.8055697e-005
-1.1214536e-010
2.8055692e-005
1.1866442e-011
2.805569e-005
1.1996347e-011
2.805569e-005
-7.6430111e-013
2.8055691e-005
-3.1591778e-012
2.8055691e-005
-1.2879564e-012
2.8055691e-005
5.0124677e-014
2.8055691e-005
-1.5462727e-014
2.8055691e-005
9.2102e-014
2.8055691e-005
1.5743577e-012
2.805569e-005
1.2658407e-012
2.805569e-005
-1.5358588e-011
-1.7089309e-011
2.5715985e-005
-9.2196133e-006
2.6314043e-005
-2.9719341e-006
2.6381844e-005
-2.5718701e-007
2.637426e-005
8.8451558e-008
2.6362961e-005
1.1786614e-009
2.635433e-005
-2.7965425e-008
2.634762e-005
1.9806263e-009
2.6345122e-005
1.3481198e-008
2.6344717e-005
8.3449447e-009
2.6345017e-005
2.0449514e-009
2.6345186e-005
-4.4763698e-010
2.6345211e-005
-4.6556329e-010
2.6345202e-005
-1.0230362e-010
2.6345197e-005
1.628394e-011
2.6345197e-005
1.1780841e-011
2.6345198e-005
-1.3834714e-012
2.6345198e-005
-3.3145015e-012
2.6345198e-005
-1.2413027e-012
2.6345198e-005
8.1151006e-014
2.6345198e-005
-1.3103167e-013
2.6345198e-005
-1.1796261e-013
2.6345198e-005
1.3620281e-012
2.6345197e-005
2.4080558e-012
2.6345191e-005
-8.7527558e-012
-1.1552127e-011
2.3689121e-005
-1.0477823e-005
2.3981164e-005
-3.2639779e-006
2.3994065e-005
-2.7008795e-007
2.401906e-005
6.3457049e-008
2.4010162e-005
1.0076651e-008
2.3994584e-005
-1.2387888e-008
2.3987053e-005
9.5120456e-009
2.3986427e-005
1.4107307e-008
2.3987299e-005
7.4726803e-009
2.3987947e-005
1.3969994e-009
2.398806e-005
-5.6077023e-010
2.3988014e-005
-4.1969724e-010
2.3987988e-005
-7.6253364e-011
2.3987986e-005
1.8041832e-011
2.3987989e-005
9.6308312e-012
2.3987989e-005
-1.8603898e-012
2.3987989e-005
-2.9869568e-012
2.3987988e-005
-1.0079106e-012
2.3987988e-005
7.7954366e-014
2.3987988e-005
-2.0595387e-013
2.3987989e-005
-3.2440972e-013
2.3987989e-005
8.4422294e-013
2.3987988e-005
3.6612837e-012
2.3987978e-005
9.9014731e-013
-2.8750997e-012
2.1109467e-005
-1.0927163e-005
2.0968113e-005
-3.122624e-006
2.0953871e-005
-2.5584542e-007
2.0993868e-005
2.3459675e-008
2.0985504e-005
1.8440611e-008
2.097034e-005
2.7760397e-009
2.0965802e-005
1.4049956e-008
2.0967507e-005
1.2403226e-008
2.0969308e-005
5.6716024e-009
2.097002e-005
6.8477093e-010
2.0970023e-005
-5.6400245e-010
2.0969926e-005
-3.2306573e-010
2.0969896e-005
-4.595954e-011
2.0969898e-005
1.6240336e-011
2.0969901e-005
6.5174469e-012
2.0969901e-005
-1.9302196e-012
2.09699e-005
-2.2913326e-012
2.09699e-005
-6.9893506e-013
2.09699e-005
1.2354442e-014
2.09699e-005
-2.6201523e-013
2.09699e-005
-4.1952287e-013
2.0969901e-005
3.688287e-013
2.09699e-005
4.3820671e-012
2.0969891e-005
9.5051553e-012
5.2019226e-012
1.7904038e-005
-1.0287513e-005
1.7335091e-005
-2.5536767e-006
1.729316e-005
-2.1391442e-007
1.7321999e-005
-5.3794475e-009
1.7316329e-005
2.4110777e-008
1.7307838e-005
1.1266761e-008
1.730824e-005
1.3648013e-008
1.7311839e-005
8.8047911e-009
1.7314015e-005
3.4955131e-009
1.7314556e-005
1.4316677e-010
1.7314444e-005
-4.515737e-010
1.7314327e-005
-2.0604238e-010
1.7314302e-005
-2.0996616e-011
1.7314307e-005
1.1556619e-011
1.731431e-005
3.4867381e-012
1.7314309e-005
-1.5708617e-012
1.7314309e-005
-1.4540148e-012
1.7314308e-005
-4.0147929e-013
1.7314308e-005
-2.7813799e-014
1.7314308e-005
-2.5567065e-013
1.7314308e-005
-4.2086858e-013
1.7314308e-005
2.7881805e-014
1.7314309e-005
4.1214153e-012
1.7314305e-005
1.3278749e-011
9.4014169e-012
1.4001009e-005
-8.3307367e-006
1.3139683e-005
-1.6923513e-006
1.3062651e-005
-1.3688224e-007
1.3067365e-005
-1.009363e-008
1.3068753e-005
2.2723319e-008
1.3068944e-005
1.107561e-008
1.3073519e-005
9.0733114e-009
1.3077782e-005
4.5416485e-009
1.3079716e-005
1.5617487e-009
1.3079972e-005
-1.1287535e-010
1.3079789e-005
-2.6860556e-010
1.3079682e-005
-9.9603325e-011
1.3079667e-005
-5.9086548e-012
1.3079673e-005
5.9332782e-012
1.3079675e-005
1.3021776e-012
1.3079674e-005
-9.3882477e-013
1.3079674e-005
-7.0310593e-013
1.3079673e-005
-1.7897796e-013
1.3079673e-005
-9.3341133e-015
1.3079673e-005
-1.742566e-013
1.3079673e-005
-3.4541986e-013
1.3079673e-005
-1.6772524e-013
1.3079674e-005
2.8336275e-012
1.3079677e-005
1.1068299e-011
8.4229317e-012
9.3946868e-006
-4.8662183e-006
8.4076695e-006
-7.0533402e-007
8.3121709e-006
-4.1383638e-008
8.3063068e-006
-4.2296075e-009
8.3162445e-006
1.2785672e-008
8.3224314e-006
4.888651e-009
8.3281609e-006
3.3438132e-009
8.3315382e-006
1.1643571e-009
8.3327552e-006
3.4481544e-010
8.332753e-006
-1.1066702e-010
8.3325727e-006
-8.8268634e-011
8.3325001e-006
-2.7019363e-011
8.3324944e-006
-1.3922932e-013
8.3324988e-006
1.5341035e-012
8.3324999e-006
2.1314671e-013
8.3324992e-006
-3.1676882e-013
8.3324987e-006
-1.9123951e-013
8.3324985e-006
-4.7113026e-014
8.3324985e-006
7.674707e-015
8.3324983e-006
-6.9525022e-014
8.3324981e-006
-1.689673e-013
8.332498e-006
-1.701031e-013
8.3324998e-006
1.0075372e-012
8.3325061e-006
4.7679529e-012
3.7846395e-012
3.8412019e-006
3.1358678e-006
3.0944842e-006
3.0902545e-006
3.1030402e-006
3.1079289e-006
3.1112727e-006
3.1124371e-006
3.1127819e-006
3.1126712e-006
3.112583e-006
3.112556e-006
3.1125558e-006
3.1125574e-006
3.1125576e-006
3.1125572e-006
3.112557e-006
3.112557e-006
3.1125569e-006
3.1125568e-006
3.1125566e-006
3.1125564e-006
3.1125574e-006
3.1125622e-006
1.5382266e-005
-1.4837973e-006
1.5872649e-005
-1.8635986e-006
1.6280428e-005
-1.6858727e-006
1.660085e-005
-1.3710945e-006
1.6836135e-005
-1.0786598e-006
1.7008842e-005
-8.4235839e-007
1.7137401e-005
-6.6705443e-007
1.7237011e-005
-5.4775377e-007
1.7319218e-005
-4.7804375e-007
1.7394167e-005
-4.5736015e-007
1.7470765e-005
-4.8562972e-007
1.7557708e-005
-5.7247964e-007
1.7665456e-005
-7.2816855e-007
1.7805589e-005
-9.7211508e-007
1.7991913e-005
-1.3407382e-006
1.8243964e-005
-1.8810888e-006
1.8578182e-005
-2.6630767e-006
1.9018631e-005
-3.8109693e-006
1.9574189e-005
-5.5042336e-006
2.0205845e-005
-8.1938442e-006
2.0861832e-005
-1.2174107e-005
2.0906856e-005
-1.7776034e-005
1.9560142e-005
-2.3171565e-005
1.454652e-005
-2.7295078e-005
-1.7989845e-005
1.5448461e-005
-1.9284176e-006
1.6002994e-005
-2.418131e-006
1.6442131e-005
-2.1250096e-006
1.6757261e-005
-1.6862251e-006
1.6971011e-005
-1.2924091e-006
1.7115418e-005
-9.8676538e-007
1.7214602e-005
-7.6623862e-007
1.7285731e-005
-6.1888336e-007
1.73399e-005
-5.3221215e-007
1.7385604e-005
-5.030646e-007
1.7429297e-005
-5.2932271e-007
1.7475853e-005
-6.1903531e-007
1.753046e-005
-7.8277577e-007
1.7598249e-005
-1.0399042e-006
1.7682811e-005
-1.4253e-006
1.7788129e-005
-1.9864067e-006
1.7910403e-005
-2.785351e-006
1.8036922e-005
-3.9374886e-006
1.812459e-005
-5.5919017e-006
1.8039425e-005
-8.1086784e-006
1.7560493e-005
-1.1695176e-005
1.6082417e-005
-1.6297958e-005
1.3007355e-005
-2.0096504e-005
6.8268767e-006
-2.11146e-005
-1.1162968e-005
1.5577216e-005
-2.5017927e-006
1.6236587e-005
-3.0775022e-006
1.6711099e-005
-2.5995213e-006
1.7010199e-005
-1.9853251e-006
1.7186348e-005
-1.4685574e-006
1.7288931e-005
-1.0893487e-006
1.7349013e-005
-8.2632058e-007
1.7384707e-005
-6.5457779e-007
1.7405883e-005
-5.5338806e-007
1.7418305e-005
-5.1548668e-007
1.7425451e-005
-5.3646848e-007
1.7428333e-005
-6.2191763e-007
1.7427118e-005
-7.8156057e-007
1.7420021e-005
-1.0328069e-006
1.740119e-005
-1.406469e-006
1.7361621e-005
-1.9468375e-006
1.7282649e-005
-2.7063791e-006
1.7124636e-005
-3.7794754e-006
1.6816095e-005
-5.2833615e-006
1.6172725e-005
-7.4653076e-006
1.4926539e-005
-1.044899e-005
1.2589749e-005
-1.3961168e-005
8.9017008e-006
-1.6408456e-005
3.5378875e-006
-1.5750787e-005
-7.6250809e-006
1.5821874e-005
-3.3198261e-006
1.6621137e-005
-3.8767652e-006
1.7115218e-005
-3.093602e-006
1.7370954e-005
-2.2410606e-006
1.748478e-005
-1.5823833e-006
1.7528109e-005
-1.1326775e-006
1.7538214e-005
-8.3642573e-007
1.7531803e-005
-6.48167e-007
1.7515927e-005
-5.3751247e-007
1.7492831e-005
-4.9239006e-007
1.746251e-005
-5.0614787e-007
1.7421293e-005
-5.8070078e-007
1.7364772e-005
-7.2503947e-007
1.7284907e-005
-9.5294168e-007
1.7168353e-005
-1.2899154e-006
1.6994457e-005
-1.7729408e-006
1.6733912e-005
-2.445835e-006
1.6331772e-005
-3.3773347e-006
1.5704241e-005
-4.6558305e-006
1.467433e-005
-6.435397e-006
1.2993628e-005
-8.7682882e-006
1.0332085e-005
-1.1299625e-005
6.6663508e-006
-1.2742722e-005
2.2986065e-006
-1.1383042e-005
-5.3264745e-006
1.6195982e-005
-4.511967e-006
1.7094244e-005
-4.7750274e-006
1.7537146e-005
-3.536504e-006
1.7695318e-005
-2.3992322e-006
1.7713341e-005
-1.6004066e-006
1.7678372e-005
-1.0977084e-006
1.762847e-005
-7.8652417e-007
1.7575214e-005
-5.9491037e-007
1.7520802e-005
-4.8310111e-007
1.7462623e-005
-4.3421062e-007
1.7396213e-005
-4.3973793e-007
1.7314051e-005
-4.9853911e-007
1.7207074e-005
-6.1806225e-007
1.7061687e-005
-8.075543e-007
1.6859327e-005
-1.0875554e-006
1.6571727e-005
-1.485341e-006
1.6160761e-005
-2.0348687e-006
1.5565904e-005
-2.782478e-006
1.4700346e-005
-3.7902722e-006
1.3411333e-005
-5.1463848e-006
1.1497325e-005
-6.8542802e-006
8.7620134e-006
-8.5643131e-006
5.306929e-006
-9.2876372e-006
1.7512216e-006
-7.8273351e-006
-3.5752529e-006
1.6572254e-005
-6.0803805e-006
1.735359e-005
-5.5563627e-006
1.7581769e-005
-3.7646829e-006
1.7556079e-005
-2.3735426e-006
1.7441268e-005
-1.4855951e-006
1.731315e-005
-9.6959027e-007
1.7198314e-005
-6.7168836e-007
1.7098515e-005
-4.9511193e-007
1.7008398e-005
-3.9298323e-007
1.6919622e-005
-3.4543506e-007
1.6823296e-005
-3.4341156e-007
1.6708908e-005
-3.841519e-007
1.6562611e-005
-4.7176507e-007
1.6368072e-005
-6.1301469e-007
1.6102444e-005
-8.2192795e-007
1.5734066e-005
-1.1169632e-006
1.5220147e-005
-1.5209496e-006
1.4501023e-005
-2.0633534e-006
1.3495076e-005
-2.7843261e-006
1.2077806e-005
-3.7291141e-006
1.0096957e-005
-4.8734313e-006
7.4618156e-006
-5.929172e-006
4.3595386e-006
-6.1853603e-006
1.428076e-006
-4.8958726e-006
-2.147177e-006
1.663726e-005
-7.7137991e-006
1.6850337e-005
-5.7694403e-006
1.6621486e-005
-3.5358322e-006
1.6312937e-005
-2.0649933e-006
1.6037832e-005
-1.2104898e-006
1.5816939e-005
-7.4869664e-007
1.5644575e-005
-4.9932497e-007
1.550731e-005
-3.578468e-007
1.5391366e-005
-2.7703896e-007
1.528326e-005
-2.3732905e-007
1.5170368e-005
-2.3051966e-007
1.5039815e-005
-2.5359889e-007
1.4875693e-005
-3.0764314e-007
1.4660491e-005
-3.9781291e-007
1.4369897e-005
-5.3133402e-007
1.3972332e-005
-7.193977e-007
1.342652e-005
-9.7513825e-007
1.2678213e-005
-1.315046e-006
1.1655552e-005
-1.7616656e-006
1.0262384e-005
-2.3359456e-006
8.3968707e-006
-3.0079182e-006
6.0417479e-006
-3.5740492e-006
3.4264698e-006
-3.5700823e-006
1.1178308e-006
-2.5872336e-006
-1.0293462e-006
1.58852e-005
-8.5951584e-006
1.4937266e-005
-4.8215054e-006
1.4079465e-005
-2.6780319e-006
1.3455503e-005
-1.441031e-006
1.3036236e-005
-7.9122306e-007
1.2750246e-005
-4.6270655e-007
1.2546614e-005
-2.9569257e-007
1.239401e-005
-2.05243e-007
1.2271472e-005
-1.5450082e-007
1.2162597e-005
-1.2845443e-007
1.205332e-005
-1.2124244e-007
1.1930137e-005
-1.3041599e-007
1.1778309e-005
-1.5581481e-007
1.1580785e-005
-2.002886e-007
1.1316153e-005
-2.6670254e-007
1.0957169e-005
-3.6041334e-007
1.0469268e-005
-4.8723718e-007
9.8085923e-006
-6.5437067e-007
8.917795e-006
-8.7086839e-007
7.7273001e-006
-1.1454507e-006
6.1775606e-006
-1.4581787e-006
4.2975383e-006
-1.694027e-006
2.3314306e-006
-1.6039748e-006
7.40206e-007
-9.9600908e-007
-2.8914029e-007
1.3576811e-005
-7.168128e-006
1.1256123e-005
-2.500818e-006
9.8026743e-006
-1.2245829e-006
8.9701316e-006
-6.0848821e-007
8.4964483e-006
-3.1753972e-007
8.2100608e-006
-1.76319e-007
8.0220594e-006
-1.0769118e-007
7.8892326e-006
-7.2416162e-008
7.7875986e-006
-5.2866748e-008
7.7015837e-006
-4.2439571e-008
7.6190452e-006
-3.8703882e-008
7.529087e-006
-4.0457801e-008
7.4206895e-006
-4.7417347e-008
7.2809007e-006
-6.0499772e-008
7.0943721e-006
-8.0173991e-008
6.8419652e-006
-1.0800641e-007
6.5000248e-006
-1.4529687e-007
6.0394157e-006
-1.9376153e-007
5.4235356e-006
-2.5498832e-007
4.6092605e-006
-3.3117574e-007
3.5656877e-006
-4.1460593e-007
2.3357069e-006
-4.6404621e-007
1.136236e-006
-4.0450403e-007
3.0777154e-007
-1.6754467e-007
1.8631195e-008
7.835713e-006
5.334895e-006
4.1103121e-006
3.5018239e-006
3.1842842e-006
3.0079652e-006
2.900274e-006
2.8278579e-006
2.7749912e-006
2.7325516e-006
2.6938477e-006
2.6533899e-006
2.6059725e-006
2.5454728e-006
2.4652988e-006
2.3572923e-006
2.2119955e-006
2.0182339e-006
1.7632456e-006
1.4320698e-006
1.0174639e-006
5.534176e-007
1.4891353e-007
-1.8631194e-008
)
;

boundaryField
{
    inlet
    {
        type            calculated;
        value           nonuniform List<scalar> 
20
(
-5.0012803e-006
-5.0012803e-006
-5.0012803e-006
-5.0012803e-006
-5.0012803e-006
-5.0012803e-006
-5.0012803e-006
-5.0012803e-006
-5.0012803e-006
-5.0012803e-006
-1.5003841e-005
-1.5003841e-005
-1.5003841e-005
-1.5003841e-005
-1.5003841e-005
-1.5003841e-005
-1.5003841e-005
-1.5003841e-005
-1.5003841e-005
-1.5003841e-005
)
;
    }
    walls
    {
        type            calculated;
        value           uniform 0;
    }
    outlet
    {
        type            calculated;
        value           nonuniform List<scalar> 10(2.9695338e-005 2.9158087e-005 2.805569e-005 2.6345185e-005 2.3987969e-005 2.0969883e-005 1.7314301e-005 1.3079678e-005 8.3325107e-006 3.112566e-006);
    }
    centreline
    {
        type            symmetryPlane;
        value           uniform 0;
    }
    frontAndBack
    {
        type            empty;
        value           nonuniform 0();
    }
}


// ************************************************************************* //
