/*--------------------------------*- C++ -*----------------------------------*\
| =========                 |                                                 |
| \\      /  F ield         | OpenFOAM: The Open Source CFD Toolbox           |
|  \\    /   O peration     | Version:  5.x                                   |
|   \\  /    A nd           | Web:      www.OpenFOAM.org                      |
|    \\/     M anipulation  |                                                 |
\*---------------------------------------------------------------------------*/
/*   Windows 32 and 64 bit porting by blueCAPE: http://www.bluecape.com.pt   *\
|  Based on Windows porting (2.0.x v4) by Symscape: http://www.symscape.com   |
\*---------------------------------------------------------------------------*/
FoamFile
{
    version     2.0;
    format      ascii;
    class       surfaceScalarField;
    location    "0.12";
    object      phi_0;
}
// * * * * * * * * * * * * * * * * * * * * * * * * * * * * * * * * * * * * * //

dimensions      [0 3 -1 0 0 0 0];

internalField   nonuniform List<scalar> 
1430
(
5.1064789e-006
-1.051986e-007
5.2367126e-006
-1.3023363e-007
5.3611039e-006
-1.2439129e-007
5.4646512e-006
-1.0354731e-007
5.5504839e-006
-8.5832666e-008
5.620085e-006
-6.9601114e-008
5.6774372e-006
-5.7352208e-008
5.7261031e-006
-4.8665916e-008
5.7698807e-006
-4.3777585e-008
5.8128009e-006
-4.2920159e-008
5.859261e-006
-4.6460164e-008
5.9149273e-006
-5.5666228e-008
5.9865448e-006
-7.1617513e-008
6.0833639e-006
-9.6819124e-008
6.2188257e-006
-1.3546178e-007
6.4118971e-006
-1.9307147e-007
6.6921205e-006
-2.8022341e-007
7.1044208e-006
-4.1230025e-007
7.7229027e-006
-6.1848195e-007
8.6928719e-006
-9.6996918e-007
1.0221611e-005
-1.5287395e-006
1.2684888e-005
-2.4632768e-006
1.627681e-005
-3.5919221e-006
2.0955286e-005
-4.678476e-006
-5.1801455e-006
2.6135432e-005
5.1057409e-006
-2.0965917e-007
5.2382702e-006
-2.6276288e-007
5.3616092e-006
-2.4773025e-007
5.465771e-006
-2.0770915e-007
5.551356e-006
-1.7141763e-007
5.6208478e-006
-1.3909291e-007
5.6779702e-006
-1.1447458e-007
5.7264058e-006
-9.7101493e-008
5.7699095e-006
-8.7281255e-008
5.8125421e-006
-8.5552787e-008
5.8586432e-006
-9.256126e-008
5.9138415e-006
-1.1086447e-007
5.9848692e-006
-1.4264528e-007
6.0808079e-006
-1.9275776e-007
6.214926e-006
-2.6957997e-007
6.4061015e-006
-3.842469e-007
6.683053e-006
-5.5717495e-007
7.0903072e-006
-8.1955449e-007
7.70128e-006
-1.2294548e-006
8.6553111e-006
-1.9240002e-006
1.0167921e-005
-3.0413496e-006
1.2565241e-005
-4.8605964e-006
1.6105706e-005
-7.1323874e-006
2.0630388e-005
-9.2031576e-006
-1.0353345e-005
2.5803587e-005
5.1064025e-006
-3.1478138e-007
5.2394874e-006
-3.9584777e-007
5.3634116e-006
-3.7165441e-007
5.4677193e-006
-3.1201682e-007
5.5531718e-006
-2.5687011e-007
5.6223547e-006
-2.0827582e-007
5.6790576e-006
-1.7117748e-007
5.7270253e-006
-1.4506915e-007
5.7700167e-006
-1.302727e-007
5.8120598e-006
-1.2759582e-007
5.8574519e-006
-1.3795343e-007
5.9117634e-006
-1.6517591e-007
5.9815683e-006
-2.1245017e-007
6.0757684e-006
-2.869579e-007
6.2073247e-006
-4.0113628e-007
6.3945304e-006
-5.7145267e-007
6.665292e-006
-8.2793656e-007
7.062592e-006
-1.2168545e-006
7.6575013e-006
-1.8243641e-006
8.585163e-006
-2.8516619e-006
1.0048127e-005
-4.504314e-006
1.2358457e-005
-7.170926e-006
1.5735836e-005
-1.0509767e-005
2.0072387e-005
-1.3539708e-005
-1.5327202e-005
2.5046244e-005
5.1073861e-006
-4.2088713e-007
5.2414125e-006
-5.2987423e-007
5.3661662e-006
-4.9640808e-007
5.4706837e-006
-4.1653423e-007
5.5559211e-006
-3.4210755e-007
5.6246344e-006
-2.7698908e-007
5.6807087e-006
-2.2725178e-007
5.7279708e-006
-1.9233126e-007
5.7701945e-006
-1.7249636e-007
5.8113626e-006
-1.6876391e-007
5.8557057e-006
-1.822966e-007
5.9086855e-006
-2.1815569e-007
5.9766798e-006
-2.8044446e-007
6.0682914e-006
-3.7856948e-007
6.1960396e-006
-5.288845e-007
6.3774053e-006
-7.528184e-007
6.6389813e-006
-1.0895126e-006
7.021654e-006
-1.5995272e-006
7.5925323e-006
-2.3952424e-006
8.4795394e-006
-3.738669e-006
9.8717923e-006
-5.8965669e-006
1.2055366e-005
-9.3545001e-006
1.5205284e-005
-1.3659684e-005
1.9261191e-005
-1.7595615e-005
-1.9977537e-005
2.3911525e-005
5.1087818e-006
-5.2838857e-007
5.2440693e-006
-6.6516172e-007
5.3699121e-006
-6.2225091e-007
5.4746676e-006
-5.2128964e-007
5.559598e-006
-4.2703797e-007
5.6276672e-006
-3.4505828e-007
5.6828965e-006
-2.8248104e-007
5.729214e-006
-2.386488e-007
5.7704151e-006
-2.1369744e-007
5.8104272e-006
-2.0877598e-007
5.8533908e-006
-2.2526023e-007
5.9046127e-006
-2.6937765e-007
5.970232e-006
-3.460637e-007
6.0584458e-006
-4.6678329e-007
6.1812008e-006
-6.5163953e-007
6.3549626e-006
-9.2658025e-007
6.6045639e-006
-1.3391138e-006
6.9681937e-006
-1.9631571e-006
7.5074517e-006
-2.9345004e-006
8.3417604e-006
-4.5729777e-006
9.6384736e-006
-7.19328e-006
1.1656031e-005
-1.1372057e-005
1.4518361e-005
-1.6522015e-005
1.8211675e-005
-2.1288929e-005
-2.4195767e-005
2.2429905e-005
5.1106544e-006
-6.3776267e-007
5.2474951e-006
-8.020024e-007
5.3746768e-006
-7.4943257e-007
5.4796825e-006
-6.2629533e-007
5.5641932e-006
-5.1154867e-007
5.631434e-006
-4.1229909e-007
5.6855956e-006
-3.3664258e-007
5.7307305e-006
-2.8378368e-007
5.770654e-006
-2.5362098e-007
5.8092384e-006
-2.473604e-007
5.8505041e-006
-2.6652595e-007
5.899554e-006
-3.1842748e-007
5.9622534e-006
-4.0876316e-007
6.0462981e-006
-5.5082803e-007
6.1629359e-006
-7.6827732e-007
6.3274431e-006
-1.0910874e-006
6.5624986e-006
-1.5741694e-006
6.9030824e-006
-2.3037409e-006
7.4038578e-006
-3.4352757e-006
8.1728215e-006
-5.3419414e-006
9.3493248e-006
-8.3697834e-006
1.1163064e-005
-1.3185796e-005
1.3677192e-005
-1.9036142e-005
1.6937267e-005
-2.4549005e-005
-2.7917231e-005
2.0658731e-005
5.1130189e-006
-7.4950122e-007
5.2517129e-006
-9.4069636e-007
5.380484e-006
-8.7820371e-007
5.4857409e-006
-7.315522e-007
5.5696934e-006
-5.9550118e-007
5.635907e-006
-4.7851268e-007
5.6887699e-006
-3.895055e-007
5.732484e-006
-3.2749776e-007
5.7708751e-006
-2.9201202e-007
5.8077686e-006
-2.8425388e-007
5.8470378e-006
-3.0579522e-007
5.8935145e-006
-3.6490413e-007
5.9527684e-006
-4.6801712e-007
6.0319226e-006
-6.2998224e-007
6.1414088e-006
-8.777635e-007
6.2951407e-006
-1.2448194e-006
6.5133796e-006
-1.7924082e-006
6.8271906e-006
-2.617552e-006
7.283265e-006
-3.8913501e-006
7.9751311e-006
-6.0338075e-006
9.0112764e-006
-9.4059287e-006
1.0585098e-005
-1.4759618e-005
1.2683115e-005
-2.113416e-005
1.5476071e-005
-2.734196e-005
-3.0983617e-005
1.8542457e-005
5.1159062e-006
-8.6412705e-007
5.2567374e-006
-1.0815276e-006
5.3873587e-006
-1.0088249e-006
5.492868e-006
-8.3706149e-007
5.5760913e-006
-6.7872447e-007
5.6410621e-006
-5.4348346e-007
5.6923854e-006
-4.4082881e-007
5.7344364e-006
-3.6954873e-007
5.7710467e-006
-3.2862236e-007
5.8059853e-006
-3.1919248e-007
5.8429788e-006
-3.4278873e-007
5.8865214e-006
-4.0844677e-007
5.9418339e-006
-5.2332957e-007
6.0154417e-006
-7.035901e-007
6.1168013e-006
-9.7912307e-007
6.258419e-006
-1.3864371e-006
6.457971e-006
-1.9919603e-006
6.7417805e-006
-2.9013614e-006
7.1483197e-006
-4.2978893e-006
7.752863e-006
-6.6383509e-006
8.6297004e-006
-1.0282766e-005
9.929862e-006
-1.6059779e-005
1.1569348e-005
-2.2773646e-005
1.3873306e-005
-2.9645918e-005
-3.3067287e-005
1.5956977e-005
5.1194261e-006
-9.8227287e-007
5.262563e-006
-1.2246644e-006
5.3953439e-006
-1.1416058e-006
5.5011177e-006
-9.4283528e-007
5.5834015e-006
-7.6100832e-007
5.6468935e-006
-6.0697543e-007
5.6964264e-006
-4.9036164e-007
5.7365733e-006
-4.0969565e-007
5.771156e-006
-3.6320507e-007
5.8038863e-006
-3.519227e-007
5.8383486e-006
-3.7725108e-007
5.8786371e-006
-4.4873525e-007
5.9295455e-006
-5.7423801e-007
5.9970245e-006
-7.7106911e-007
6.0894279e-006
-1.0715265e-006
6.2177846e-006
-1.5147937e-006
6.3970241e-006
-2.1711998e-006
6.6482645e-006
-3.1526018e-006
7.0011287e-006
-4.6507535e-006
7.5114342e-006
-7.1486564e-006
8.2143533e-006
-1.0985685e-005
9.2152483e-006
-1.7060674e-005
1.0360026e-005
-2.3918424e-005
1.213345e-005
-3.1419342e-005
-3.3792724e-005
1.2858887e-005
5.1230528e-006
-1.1040454e-006
5.2698251e-006
-1.3714367e-006
5.4044588e-006
-1.2762394e-006
5.5106544e-006
-1.0490308e-006
5.5917208e-006
-8.4207473e-007
5.6534665e-006
-6.6872107e-007
5.7009461e-006
-5.3784117e-007
5.7389481e-006
-4.4769768e-007
5.7712784e-006
-3.9553538e-007
5.8015702e-006
-3.8221444e-007
5.8332284e-006
-4.0890934e-007
5.8699518e-006
-4.8545863e-007
5.9160757e-006
-6.203619e-007
5.9769232e-006
-8.3191661e-007
6.0597004e-006
-1.1543037e-006
6.1737535e-006
-1.6288468e-006
6.3310742e-006
-2.3285206e-006
6.5483112e-006
-3.3698388e-006
6.8447301e-006
-4.9471725e-006
7.2554731e-006
-7.5593994e-006
7.7845938e-006
-1.1514806e-005
8.4541363e-006
-1.7730217e-005
9.0583691e-006
-2.4522656e-005
9.9564818e-006
-3.2317455e-005
8.7074664e-006
-3.2543709e-005
2.8860707e-005
-2.7252756e-006
2.9664892e-005
-8.0418484e-007
2.9701866e-005
-3.6974302e-008
2.9671676e-005
3.018995e-008
2.9693258e-005
-2.1581882e-008
2.9713536e-005
-2.0278763e-008
2.9718577e-005
-5.0402627e-009
2.9714493e-005
4.0840976e-009
2.9711103e-005
3.3893335e-009
2.9709875e-005
1.2279666e-009
2.9709924e-005
-4.8735095e-011
2.971011e-005
-1.8583457e-010
2.9710165e-005
-5.5154433e-011
2.9710162e-005
3.179244e-012
2.9710156e-005
5.4242333e-012
2.9710157e-005
-1.1104399e-013
2.9710158e-005
-1.3122989e-012
2.9710158e-005
-6.0479413e-013
2.9710158e-005
-2.6213557e-014
2.9710158e-005
2.5834988e-014
2.9710158e-005
1.7850498e-013
2.9710157e-005
9.2348431e-013
2.9710157e-005
2.5925576e-013
2.9710167e-005
-9.633139e-012
-9.9183855e-012
2.8298838e-005
-5.2205268e-006
2.9118176e-005
-1.6235229e-006
2.917993e-005
-9.8728758e-008
2.9158869e-005
5.1250915e-008
2.9160707e-005
-2.3420641e-008
2.9174441e-005
-3.4012611e-008
2.9176324e-005
-6.922993e-009
2.9172606e-005
7.8016707e-009
2.9169759e-005
6.2365737e-009
2.9168927e-005
2.0604603e-009
2.9169018e-005
-1.3968196e-010
2.9169173e-005
-3.415913e-010
2.9169213e-005
-9.4864018e-011
2.9169209e-005
7.3517005e-012
2.9169205e-005
9.696693e-012
2.9169205e-005
-3.9352232e-013
2.9169206e-005
-2.4580193e-012
2.9169206e-005
-1.0722812e-012
2.9169206e-005
9.5492519e-015
2.9169206e-005
5.4395464e-014
2.9169206e-005
2.000745e-013
2.9169206e-005
1.4413935e-012
2.9169205e-005
5.8747656e-013
2.9169211e-005
-1.557338e-011
-1.6506759e-011
2.7247272e-005
-7.4215547e-006
2.800382e-005
-2.3800709e-006
2.8101026e-005
-1.9593449e-007
2.8076789e-005
7.5487983e-008
2.8065949e-005
-1.258143e-008
2.8068739e-005
-3.6801945e-008
2.8066029e-005
-4.2131708e-009
2.8062573e-005
1.1257277e-008
2.8060843e-005
7.966805e-009
2.8060591e-005
2.3123514e-009
2.8060745e-005
-2.9337148e-010
2.8060843e-005
-4.3945507e-010
2.8060858e-005
-1.0964957e-010
2.8060852e-005
1.2493109e-011
2.806085e-005
1.1867156e-011
2.8060851e-005
-8.7573783e-013
2.8060852e-005
-3.1825189e-012
2.8060852e-005
-1.2818046e-012
2.8060852e-005
5.7668714e-014
2.8060852e-005
-1.6384946e-014
2.8060852e-005
9.1946772e-014
2.8060852e-005
1.5884638e-012
2.8060851e-005
1.2874318e-012
2.806085e-005
-1.523724e-011
-1.6974603e-011
2.5715773e-005
-9.225802e-006
2.6313716e-005
-2.9780147e-006
2.6381488e-005
-2.6370585e-007
2.6373738e-005
8.3238042e-008
2.636214e-005
-9.8376496e-010
2.6353382e-005
-2.8044369e-008
2.6346658e-005
2.5115699e-009
2.6344181e-005
1.3733619e-008
2.6343791e-005
8.3568535e-009
2.6344094e-005
2.0092344e-009
2.6344262e-005
-4.6070179e-010
2.6344286e-005
-4.6372099e-010
2.6344276e-005
-9.9722882e-011
2.6344272e-005
1.6821653e-011
2.6344272e-005
1.1622437e-011
2.6344273e-005
-1.4842704e-012
2.6344273e-005
-3.3281902e-012
2.6344273e-005
-1.2354947e-012
2.6344273e-005
8.4536798e-014
2.6344273e-005
-1.2711663e-013
2.6344273e-005
-1.1420502e-013
2.6344273e-005
1.3721696e-012
2.6344272e-005
2.4282107e-012
2.6344265e-005
-8.6565006e-012
-1.1463936e-011
2.3687367e-005
-1.0483264e-005
2.3978528e-005
-3.2691758e-006
2.3990394e-005
-2.7557231e-007
2.4014385e-005
5.9247121e-008
2.4004881e-005
8.5208539e-009
2.3989125e-005
-1.228885e-008
2.3981661e-005
9.9754223e-009
2.3981098e-005
1.4297027e-008
2.3981987e-005
7.4673883e-009
2.3982632e-005
1.3643568e-009
2.3982742e-005
-5.7000165e-010
2.3982695e-005
-4.1716174e-010
2.3982669e-005
-7.4005441e-011
2.3982668e-005
1.8400864e-011
2.398267e-005
9.4660338e-012
2.398267e-005
-1.9363635e-012
2.398267e-005
-2.989779e-012
2.398267e-005
-1.0023596e-012
2.398267e-005
7.9571348e-014
2.398267e-005
-1.9871364e-013
2.398267e-005
-3.1954101e-013
2.398267e-005
8.4916583e-013
2.3982669e-005
3.6748109e-012
2.3982659e-005
1.0605762e-012
-2.8102905e-012
2.1106992e-005
-1.0931525e-005
2.0964389e-005
-3.126573e-006
2.0948584e-005
-2.5976705e-007
2.0987212e-005
2.0618778e-008
2.0978153e-005
1.7580139e-008
2.0962882e-005
2.9817189e-009
2.0958464e-005
1.4393975e-008
2.0960242e-005
1.2518334e-008
2.0962055e-005
5.6551771e-009
2.0962759e-005
6.5965519e-010
2.0962758e-005
-5.6899845e-010
2.0962662e-005
-3.2045304e-010
2.0962632e-005
-4.4314054e-011
2.0962634e-005
1.6413931e-011
2.0962637e-005
6.373972e-012
2.0962637e-005
-1.9769349e-012
2.0962636e-005
-2.2864092e-012
2.0962636e-005
-6.9351956e-013
2.0962636e-005
1.344844e-014
2.0962636e-005
-2.5356847e-013
2.0962636e-005
-4.1511278e-013
2.0962637e-005
3.6845e-013
2.0962636e-005
4.3870102e-012
2.0962627e-005
9.5595555e-012
5.2549385e-012
1.7901536e-005
-1.0290604e-005
1.7331196e-005
-2.5562332e-006
1.7287718e-005
-2.1628956e-007
1.7315279e-005
-6.9424415e-009
1.7309069e-005
2.3790941e-008
1.7300568e-005
1.1482252e-008
1.7301104e-005
1.3858624e-008
1.7304764e-005
8.8576146e-009
1.7306942e-005
3.4775545e-009
1.7307474e-005
1.2744724e-010
1.7307358e-005
-4.533356e-010
1.7307242e-005
-2.0397828e-010
1.7307218e-005
-2.0018483e-011
1.7307223e-005
1.1598592e-011
1.7307226e-005
3.3844363e-012
1.7307225e-005
-1.5924438e-012
1.7307224e-005
-1.4466704e-012
1.7307224e-005
-3.9672334e-013
1.7307224e-005
-2.6587826e-014
1.7307224e-005
-2.466496e-013
1.7307224e-005
-4.1696853e-013
1.7307224e-005
2.3871061e-014
1.7307224e-005
4.1189957e-012
1.7307221e-005
1.3325592e-011
9.4504039e-012
1.3998912e-005
-8.332539e-006
1.3136328e-005
-1.6936499e-006
1.3058041e-005
-1.3800237e-007
1.3061817e-005
-1.071851e-008
1.3062924e-005
2.2683945e-008
1.3063183e-005
1.1223287e-008
1.3067872e-005
9.1701669e-009
1.3072172e-005
4.5567088e-009
1.30741e-005
1.5497365e-009
1.3074348e-005
-1.2014261e-010
1.3074163e-005
-2.6871204e-010
1.3074058e-005
-9.842391e-011
1.3074043e-005
-5.4831372e-012
1.3074049e-005
5.917902e-012
1.3074051e-005
1.2466277e-012
1.307405e-005
-9.4405137e-013
1.307405e-005
-6.9744783e-013
1.3074049e-005
-1.7473908e-013
1.3074049e-005
-7.4243557e-015
1.3074049e-005
-1.6596296e-013
1.3074049e-005
-3.4217833e-013
1.3074049e-005
-1.7160744e-013
1.3074051e-005
2.8275776e-012
1.3074053e-005
1.110351e-011
8.4620683e-012
9.3932232e-006
-4.8668749e-006
8.4052822e-006
-7.0570889e-007
8.3089589e-006
-4.1679018e-008
8.3025987e-006
-4.3583437e-009
8.3124651e-006
1.2817484e-008
8.3187471e-006
4.9413559e-009
8.3245495e-006
3.3677241e-009
8.3279413e-006
1.1649698e-009
8.3291503e-006
3.4075647e-010
8.3291426e-006
-1.1240426e-010
8.3289619e-006
-8.8038856e-011
8.3288901e-006
-2.6661044e-011
8.3288847e-006
-4.864325e-014
8.3288891e-006
1.5184436e-012
8.3288902e-006
1.9524596e-013
8.3288895e-006
-3.1423043e-013
8.328889e-006
-1.8782316e-013
8.3288889e-006
-4.1651851e-014
8.3288888e-006
1.1368886e-014
8.3288887e-006
-6.1726586e-014
8.3288885e-006
-1.6491984e-013
8.3288884e-006
-1.6896102e-013
8.3288902e-006
1.004478e-012
8.3288965e-006
4.7842092e-012
3.8031475e-012
3.8405915e-006
3.1348826e-006
3.0932035e-006
3.0888452e-006
3.1016627e-006
3.106604e-006
3.1099718e-006
3.1111367e-006
3.1114775e-006
3.1113651e-006
3.1112771e-006
3.1112504e-006
3.1112504e-006
3.1112519e-006
3.1112521e-006
3.1112518e-006
3.1112516e-006
3.1112515e-006
3.1112515e-006
3.1112514e-006
3.1112512e-006
3.1112511e-006
3.1112521e-006
3.1112568e-006
1.5381765e-005
-1.4819698e-006
1.5871454e-005
-1.8611249e-006
1.6278611e-005
-1.683397e-006
1.6598534e-005
-1.3689532e-006
1.6833471e-005
-1.0770116e-006
1.7005949e-005
-8.4119964e-007
1.7134365e-005
-6.6625678e-007
1.7233883e-005
-5.4721581e-007
1.7316038e-005
-4.7769019e-007
1.7390959e-005
-4.5713537e-007
1.7467546e-005
-4.8549633e-007
1.7554491e-005
-5.7240436e-007
1.7662249e-005
-7.2811943e-007
1.7802399e-005
-9.7206707e-007
1.7988746e-005
-1.3406502e-006
1.8240821e-005
-1.8809217e-006
1.8575063e-005
-2.6627633e-006
1.9015517e-005
-3.8102919e-006
1.9571064e-005
-5.5027201e-006
2.0202685e-005
-8.19102e-006
2.0858777e-005
-1.2170898e-005
2.0904335e-005
-1.7775775e-005
1.9558936e-005
-2.3177258e-005
1.454672e-005
-2.730524e-005
-1.7996989e-005
1.5447728e-005
-1.9258572e-006
1.6001387e-005
-2.4147832e-006
1.6439817e-005
-2.1218272e-006
1.6754456e-005
-1.6835923e-006
1.6967906e-005
-1.2904616e-006
1.7112142e-005
-9.8543525e-007
1.7211231e-005
-7.6534623e-007
1.7282309e-005
-6.1829385e-007
1.7336456e-005
-5.3183694e-007
1.7382157e-005
-5.0283627e-007
1.7425859e-005
-5.2919818e-007
1.7472434e-005
-6.189797e-007
1.7527071e-005
-7.8275621e-007
1.7594901e-005
-1.0398968e-006
1.7679519e-005
-1.4252684e-006
1.7784908e-005
-1.9863109e-006
1.7907286e-005
-2.785141e-006
1.8033958e-005
-3.9369645e-006
1.8121887e-005
-5.5906491e-006
1.8037121e-005
-8.1062542e-006
1.7558676e-005
-1.1692452e-005
1.6081141e-005
-1.629824e-005
1.3006744e-005
-2.0102862e-005
6.8267029e-006
-2.1125198e-005
-1.1170286e-005
1.5576065e-005
-2.4980807e-006
1.6234334e-005
-3.0730529e-006
1.6708081e-005
-2.5955739e-006
1.700672e-005
-1.982231e-006
1.7182649e-005
-1.4663907e-006
1.7285143e-005
-1.0879299e-006
1.7345199e-005
-8.2540173e-007
1.7380894e-005
-6.5398882e-007
1.7402085e-005
-5.5302813e-007
1.7414534e-005
-5.1528472e-007
1.7421711e-005
-5.3637602e-007
1.7424632e-005
-6.2189984e-007
1.7423467e-005
-7.8159122e-007
1.7416436e-005
-1.0328662e-006
1.7397697e-005
-1.4065299e-006
1.7358249e-005
-1.9468626e-006
1.7279451e-005
-2.7063427e-006
1.7121706e-005
-3.7792203e-006
1.6813617e-005
-5.28256e-006
1.6170987e-005
-7.463624e-006
1.4925708e-005
-1.0447173e-005
1.2589637e-005
-1.3962168e-005
8.9018735e-006
-1.6415099e-005
3.5378342e-006
-1.5761159e-005
-7.6324518e-006
1.5820294e-005
-3.3145337e-006
1.6618437e-005
-3.8711961e-006
1.7111845e-005
-3.088982e-006
1.7367232e-005
-2.2376177e-006
1.7480954e-005
-1.5801123e-006
1.7524301e-005
-1.1312773e-006
1.7534464e-005
-8.3556446e-007
1.7528114e-005
-6.4763945e-007
1.7512296e-005
-5.372093e-007
1.7489253e-005
-4.9224198e-007
1.7458984e-005
-5.0610694e-007
1.7417823e-005
-5.8073924e-007
1.7361372e-005
-7.2513978e-007
1.7281593e-005
-9.5308741e-007
1.7165154e-005
-1.290091e-006
1.6991418e-005
-1.773126e-006
1.6731093e-005
-2.4460177e-006
1.6329294e-005
-3.377422e-006
1.5702324e-005
-4.6555902e-006
1.4673319e-005
-6.4346185e-006
1.299377e-005
-8.7676247e-006
1.0333063e-005
-1.130146e-005
6.6672461e-006
-1.2749282e-005
2.2987095e-006
-1.1392622e-005
-5.3337424e-006
1.6194494e-005
-4.5051866e-006
1.709221e-005
-4.7689122e-006
1.7534866e-005
-3.5316377e-006
1.7692955e-005
-2.3957072e-006
1.7711033e-005
-1.5981895e-006
1.7676201e-005
-1.0964455e-006
1.7626444e-005
-7.8580739e-007
1.7573307e-005
-5.9450258e-007
1.7518987e-005
-4.8288967e-007
1.746088e-005
-4.3413453e-007
1.7394534e-005
-4.3976112e-007
1.7312437e-005
-4.9864162e-007
1.7205528e-005
-6.1823101e-007
1.7060224e-005
-8.0778322e-007
1.6857974e-005
-1.0878419e-006
1.6570532e-005
-1.4856837e-006
1.615978e-005
-2.0352656e-006
1.5565245e-005
-2.7828866e-006
1.4700201e-005
-3.7905465e-006
1.3412025e-005
-5.1464428e-006
1.1499099e-005
-6.8546983e-006
8.7644937e-006
-8.5668554e-006
5.3090105e-006
-9.293799e-006
1.7520194e-006
-7.8356314e-006
-3.581723e-006
1.6571899e-005
-6.0732446e-006
1.7353909e-005
-5.5509225e-006
1.7582618e-005
-3.7603462e-006
1.7557281e-005
-2.3703708e-006
1.7442731e-005
-1.4836394e-006
1.7314862e-005
-9.685763e-007
1.720024e-005
-6.71185e-007
1.7100599e-005
-4.9486219e-007
1.7010589e-005
-3.9287944e-007
1.6921888e-005
-3.4543321e-007
1.6825615e-005
-3.4348866e-007
1.6711269e-005
-3.8429554e-007
1.6565008e-005
-4.7196959e-007
1.6370511e-005
-6.1328583e-007
1.610494e-005
-8.2227174e-007
1.5736641e-005
-1.1173848e-006
1.5222837e-005
-1.5214608e-006
1.4503892e-005
-2.0639416e-006
1.3498248e-005
-2.7849032e-006
1.2081477e-005
-3.7296715e-006
1.0101249e-005
-4.8744701e-006
7.4662866e-006
-5.9318933e-006
4.3630536e-006
-6.190566e-006
1.4296763e-006
-4.9022542e-006
-2.1520467e-006
1.6638684e-005
-7.7080879e-006
1.6853733e-005
-5.7659708e-006
1.6626152e-005
-3.532765e-006
1.6318414e-005
-2.0626337e-006
1.6043816e-005
-1.209041e-006
1.5823254e-005
-7.4801412e-007
1.5651121e-005
-4.9905239e-007
1.5514012e-005
-3.5775327e-007
1.5398163e-005
-2.7703021e-007
1.5290108e-005
-2.3737826e-007
1.5177235e-005
-2.306157e-007
1.5046679e-005
-2.5373896e-007
1.4882538e-005
-3.0782879e-007
1.4667305e-005
-3.9805314e-007
1.437667e-005
-5.3163694e-007
1.3979056e-005
-7.1977061e-007
1.3433191e-005
-9.7559524e-007
1.2684833e-005
-1.3155843e-006
1.1662164e-005
-1.7622335e-006
1.0269051e-005
-2.3365588e-006
8.4035243e-006
-3.0089436e-006
6.0478413e-006
-3.5762104e-006
3.4309358e-006
-3.5736605e-006
1.119873e-006
-2.5911915e-006
-1.0321737e-006
1.588777e-005
-8.5920168e-006
1.4942044e-005
-4.8202451e-006
1.4085771e-005
-2.6764917e-006
1.3462868e-005
-1.4397309e-006
1.3044241e-005
-7.904134e-007
1.2758591e-005
-4.6236498e-007
1.2555142e-005
-2.9560283e-007
1.2402641e-005
-2.0525198e-007
1.2280153e-005
-1.5454263e-007
1.217129e-005
-1.2851557e-007
1.2061995e-005
-1.2132043e-007
1.1938769e-005
-1.3051272e-007
1.1786875e-005
-1.5593525e-007
1.1589261e-005
-2.0043878e-007
1.1324513e-005
-2.6688939e-007
1.0965388e-005
-3.6064506e-007
1.0477313e-005
-4.8752003e-007
9.8164231e-006
-6.5469482e-007
8.9253919e-006
-8.7120233e-007
7.7346558e-006
-1.1458227e-006
6.1844835e-006
-1.4587714e-006
4.3034668e-006
-1.6951938e-006
2.3354986e-006
-1.6056924e-006
7.4196296e-007
-9.9765595e-007
-2.9021082e-007
1.357898e-005
-7.1671557e-006
1.1259432e-005
-2.5006977e-006
9.8070786e-006
-1.2241378e-006
8.9754082e-006
-6.0806049e-007
8.5022585e-006
-3.1726366e-007
8.2161099e-006
-1.7621634e-007
8.0281937e-006
-1.076866e-007
7.8953868e-006
-7.2445103e-008
7.7937462e-006
-5.2901947e-008
7.7077066e-006
-4.2475988e-008
7.6251282e-006
-3.8741992e-008
7.5351153e-006
-4.0499837e-008
7.4266468e-006
-4.7466775e-008
7.2867671e-006
-6.05591e-008
7.1001247e-006
-8.0246949e-008
6.8475769e-006
-1.0809728e-007
6.5054629e-006
-1.4540606e-007
6.044651e-006
-1.9388292e-007
5.4285585e-006
-2.5510992e-007
4.6140478e-006
-3.3131194e-007
3.5700737e-006
-4.1479736e-007
2.3392744e-006
-4.6439453e-007
1.1385022e-006
-4.0492018e-007
3.086633e-007
-1.6781715e-007
1.8452432e-008
7.8366853e-006
5.3359877e-006
4.1118499e-006
3.5037894e-006
3.1865257e-006
3.0103094e-006
2.9026228e-006
2.8301777e-006
2.7772758e-006
2.7347998e-006
2.6960578e-006
2.655558e-006
2.6080912e-006
2.5475321e-006
2.4672851e-006
2.3591878e-006
2.2137818e-006
2.0198988e-006
1.7647889e-006
1.4334769e-006
1.0186795e-006
5.5428499e-007
1.4936476e-007
-1.8452432e-008
)
;

boundaryField
{
    inlet
    {
        type            calculated;
        value           nonuniform List<scalar> 
20
(
-5.0012803e-006
-5.0012803e-006
-5.0012803e-006
-5.0012803e-006
-5.0012803e-006
-5.0012803e-006
-5.0012803e-006
-5.0012803e-006
-5.0012803e-006
-5.0012803e-006
-1.5003841e-005
-1.5003841e-005
-1.5003841e-005
-1.5003841e-005
-1.5003841e-005
-1.5003841e-005
-1.5003841e-005
-1.5003841e-005
-1.5003841e-005
-1.5003841e-005
)
;
    }
    walls
    {
        type            calculated;
        value           uniform 0;
    }
    outlet
    {
        type            calculated;
        value           nonuniform List<scalar> 10(2.9710177e-005 2.9169218e-005 2.8060851e-005 2.634426e-005 2.3982651e-005 2.0962619e-005 1.7307216e-005 1.3074054e-005 8.3289012e-006 3.1112606e-006);
    }
    centreline
    {
        type            symmetryPlane;
        value           uniform 0;
    }
    frontAndBack
    {
        type            empty;
        value           nonuniform 0();
    }
}


// ************************************************************************* //
