/*--------------------------------*- C++ -*----------------------------------*\
| =========                 |                                                 |
| \\      /  F ield         | OpenFOAM: The Open Source CFD Toolbox           |
|  \\    /   O peration     | Version:  5.x                                   |
|   \\  /    A nd           | Web:      www.OpenFOAM.org                      |
|    \\/     M anipulation  |                                                 |
\*---------------------------------------------------------------------------*/
/*   Windows 32 and 64 bit porting by blueCAPE: http://www.bluecape.com.pt   *\
|  Based on Windows porting (2.0.x v4) by Symscape: http://www.symscape.com   |
\*---------------------------------------------------------------------------*/
FoamFile
{
    version     2.0;
    format      ascii;
    class       volSymmTensorField;
    location    "0.12";
    object      sigma_0;
}
// * * * * * * * * * * * * * * * * * * * * * * * * * * * * * * * * * * * * * //

dimensions      [0 2 -2 0 0 0 0];

internalField   nonuniform List<symmTensor> 
750
(
(-0.00023587376 1.6335391e-005 0 0.00023459055 0 0)
(-0.00030331456 1.3585833e-006 0 0.0003021951 0 0)
(-0.00028501129 -3.387566e-006 0 0.000282407 0 0)
(-0.00024075247 -4.7330076e-006 0 0.00023871305 0 0)
(-0.00019907679 -4.4022645e-006 0 0.00019888089 0 0)
(-0.00016728005 -3.7057361e-006 0 0.00016605084 0 0)
(-0.00014003111 -2.8409701e-006 0 0.00013989061 0 0)
(-0.00012291976 -1.7184408e-006 0 0.00012238833 0 0)
(-0.00011395748 -5.5850264e-007 0 0.00011367779 0 0)
(-0.00011518196 8.0686999e-007 0 0.00011485909 0 0)
(-0.0001298605 2.5939418e-006 0 0.00012944732 0 0)
(-0.00015539239 4.4811522e-006 0 0.00015467403 0 0)
(-0.0002043741 7.3665586e-006 0 0.00020333444 0 0)
(-0.00027548365 1.1246973e-005 0 0.00027352283 0 0)
(-0.00038151489 1.6627445e-005 0 0.00037738622 0 0)
(-0.00054717109 2.5323484e-005 0 0.00053978494 0 0)
(-0.00078523814 3.7920887e-005 0 0.00076857437 0 0)
(-0.0011500305 5.7852019e-005 0 0.0011156665 0 0)
(-0.0017256313 9.3759092e-005 0 0.001653854 0 0)
(-0.0026311513 0.00014571769 0 0.0024481331 0 0)
(-0.0042128709 0.00024901967 0 0.0038357502 0 0)
(-0.0068597623 0.00038299001 0 0.005762681 0 0)
(-0.01081973 0.00055051358 0 0.0086038948 0 0)
(-0.015491663 0.00083387361 0 0.010846318 0 0)
(-0.01988813 0.00060542362 0 0.013066988 0 0)
(-0.00023620328 4.920078e-005 0 0.00023384986 0 0)
(-0.0003039264 3.9217064e-006 0 0.00030475403 0 0)
(-0.00028595856 -1.0256681e-005 0 0.00028223997 0 0)
(-0.00024113219 -1.4030759e-005 0 0.00023934793 0 0)
(-0.00019871371 -1.3116456e-005 0 0.00019850808 0 0)
(-0.0001670101 -1.096389e-005 0 0.00016566167 0 0)
(-0.00013953507 -8.3315408e-006 0 0.00013939394 0 0)
(-0.00012236952 -4.9598071e-006 0 0.00012175226 0 0)
(-0.00011330559 -1.4416784e-006 0 0.00011296942 0 0)
(-0.00011442183 2.6196003e-006 0 0.00011403009 0 0)
(-0.00012897547 7.9778754e-006 0 0.00012848452 0 0)
(-0.00015409591 1.3621335e-005 0 0.00015328534 0 0)
(-0.00020271493 2.2265742e-005 0 0.0002015744 0 0)
(-0.00027307249 3.376989e-005 0 0.0002709214 0 0)
(-0.00037788171 4.9872977e-005 0 0.00037344553 0 0)
(-0.00054222166 7.5732561e-005 0 0.00053445622 0 0)
(-0.00077638947 0.00011281137 0 0.00075894698 0 0)
(-0.0011367385 0.00017229661 0 0.0011013884 0 0)
(-0.0017049492 0.00027717356 0 0.0016317915 0 0)
(-0.0025906986 0.00042589936 0 0.0024033226 0 0)
(-0.0041642622 0.00075524998 0 0.0037864431 0 0)
(-0.0067279938 0.0011096936 0 0.0056099889 0 0)
(-0.010660103 0.0016519453 0 0.0084756236 0 0)
(-0.015202041 0.0024878077 0 0.010486308 0 0)
(-0.0193506 0.001810719 0 0.012833174 0 0)
(-0.00023699989 8.2178099e-005 0 0.0002342624 0 0)
(-0.00030531067 6.3470274e-006 0 0.00030660908 0 0)
(-0.00028733622 -1.749099e-005 0 0.00028327604 0 0)
(-0.00024172082 -2.3417815e-005 0 0.00023989181 0 0)
(-0.00019844957 -2.1951988e-005 0 0.00019830178 0 0)
(-0.00016632283 -1.8259687e-005 0 0.00016493949 0 0)
(-0.00013856114 -1.3825859e-005 0 0.00013847356 0 0)
(-0.00012121496 -8.1988517e-006 0 0.00012061668 0 0)
(-0.00011200502 -2.3169677e-006 0 0.00011171088 0 0)
(-0.00011292306 4.4269967e-006 0 0.00011257 0 0)
(-0.00012715512 1.3297383e-005 0 0.00012672354 0 0)
(-0.00015157704 2.26441e-005 0 0.0001508458 0 0)
(-0.00019941063 3.7011499e-005 0 0.0001983625 0 0)
(-0.00026842965 5.5954878e-005 0 0.00026639652 0 0)
(-0.00037084104 8.2622304e-005 0 0.00036658188 0 0)
(-0.00053190168 0.00012519237 0 0.00052445408 0 0)
(-0.00075970974 0.0001861974 0 0.00074271619 0 0)
(-0.0011102292 0.0002842248 0 0.0010757301 0 0)
(-0.0016622788 0.00045520304 0 0.0015906173 0 0)
(-0.0025173577 0.00071254443 0 0.00233126 0 0)
(-0.004051361 0.0012201035 0 0.0036794014 0 0)
(-0.006518932 0.0018279358 0 0.0054065049 0 0)
(-0.010276342 0.0027131533 0 0.0081556552 0 0)
(-0.01479333 0.0041526039 0 0.0099670696 0 0)
(-0.018112799 0.0029744508 0 0.012259566 0 0)
(-0.00023821307 0.00011501176 0 0.00023550465 0 0)
(-0.00030760732 8.3891655e-006 0 0.00030857993 0 0)
(-0.00028928966 -2.5130379e-005 0 0.00028543968 0 0)
(-0.00024247807 -3.3185728e-005 0 0.00024047789 0 0)
(-0.00019817605 -3.1077714e-005 0 0.00019809528 0 0)
(-0.00016527335 -2.5782208e-005 0 0.00016386718 0 0)
(-0.00013708846 -1.9517678e-005 0 0.00013701461 0 0)
(-0.00011947725 -1.163001e-005 0 0.00011888721 0 0)
(-0.0001100609 -3.3961627e-006 0 0.00010977689 0 0)
(-0.00011063982 6.0045811e-006 0 0.00011030665 0 0)
(-0.00012429804 1.827573e-005 0 0.00012388017 0 0)
(-0.00014803114 3.1324342e-005 0 0.00014729901 0 0)
(-0.00019448219 5.1289097e-005 0 0.00019343356 0 0)
(-0.00026143037 7.7474167e-005 0 0.00025942278 0 0)
(-0.00036051715 0.00011447045 0 0.00035628012 0 0)
(-0.00051606094 0.00017319845 0 0.00050866651 0 0)
(-0.00073522625 0.00025744332 0 0.00071835512 0 0)
(-0.001070616 0.00039276891 0 0.0010363279 0 0)
(-0.0015970158 0.00062738772 0 0.0015260259 0 0)
(-0.0024182757 0.00097612388 0 0.0022332094 0 0)
(-0.0038731005 0.0016763082 0 0.0034991101 0 0)
(-0.0061957344 0.0025951834 0 0.0050836572 0 0)
(-0.0096683577 0.0038044163 0 0.0076169825 0 0)
(-0.014327665 0.0056313283 0 0.0093295456 0 0)
(-0.016558078 0.0040404059 0 0.01143797 0 0)
(-0.0002400691 0.00014798014 0 0.00023723295 0 0)
(-0.0003107028 1.0020804e-005 0 0.00031143489 0 0)
(-0.00029183326 -3.3076994e-005 0 0.00028811387 0 0)
(-0.00024344471 -4.3342083e-005 0 0.00024130741 0 0)
(-0.00019769335 -4.0413621e-005 0 0.00019763974 0 0)
(-0.00016383595 -3.3409915e-005 0 0.0001624231 0 0)
(-0.00013511782 -2.5249897e-005 0 0.00013504384 0 0)
(-0.00011715189 -1.5049797e-005 0 0.0001165787 0 0)
(-0.00010747768 -4.4887295e-006 0 0.00010720648 0 0)
(-0.00010765152 7.5543606e-006 0 0.00010733957 0 0)
(-0.00012052303 2.3107742e-005 0 0.00012012168 0 0)
(-0.00014337316 3.9799697e-005 0 0.00014264769 0 0)
(-0.0001879509 6.5138731e-005 0 0.00018691768 0 0)
(-0.00025220026 9.8285485e-005 0 0.0002502442 0 0)
(-0.00034699998 0.00014514581 0 0.00034280565 0 0)
(-0.0004952556 0.00021916498 0 0.00048794775 0 0)
(-0.00070345637 0.00032517485 0 0.00068681138 0 0)
(-0.0010193614 0.00049432587 0 0.00098532364 0 0)
(-0.0015119402 0.00078909357 0 0.0014420818 0 0)
(-0.0022817117 0.0012351736 0 0.0020965375 0 0)
(-0.0036131151 0.0021299113 0 0.00324223 0 0)
(-0.0058504111 0.0031814546 0 0.0047359101 0 0)
(-0.0088746082 0.0048455092 0 0.0068980144 0 0)
(-0.013561953 0.0070786488 0 0.008471913 0 0)
(-0.015345646 0.0049351946 0 0.010833496 0 0)
(-0.00024277576 0.0001810818 0 0.00023963284 0 0)
(-0.00031458655 1.1251159e-005 0 0.00031519222 0 0)
(-0.00029495998 -4.1445196e-005 0 0.00029129141 0 0)
(-0.00024456581 -5.3956611e-005 0 0.0002423108 0 0)
(-0.00019696465 -5.0039903e-005 0 0.00019691574 0 0)
(-0.00016198507 -4.1160852e-005 0 0.0001605738 0 0)
(-0.00013264033 -3.1020229e-005 0 0.00013256084 0 0)
(-0.00011423719 -1.8466199e-005 0 0.00011368747 0 0)
(-0.00010426489 -5.5825207e-006 0 0.00010401036 0 0)
(-0.00010393579 9.0031044e-006 0 0.00010363148 0 0)
(-0.00011596661 2.7863904e-005 0 0.0001155832 0 0)
(-0.00013758441 4.7963309e-005 0 0.00013690084 0 0)
(-0.0001798315 7.8334076e-005 0 0.00017883582 0 0)
(-0.00024086582 0.00011817541 0 0.00023896055 0 0)
(-0.00033074111 0.00017417193 0 0.00032660392 0 0)
(-0.00046995088 0.00026242242 0 0.00046274376 0 0)
(-0.0006648543 0.00038891954 0 0.00064849414 0 0)
(-0.00095720154 0.00058855395 0 0.00092335159 0 0)
(-0.0014068987 0.00094040269 0 0.00133834 0 0)
(-0.0021164742 0.0014638161 0 0.0019335205 0 0)
(-0.0033135377 0.0025121649 0 0.0029487324 0 0)
(-0.0053099264 0.0038662905 0 0.0042065699 0 0)
(-0.0079030977 0.0058199071 0 0.0059971514 0 0)
(-0.012561321 0.00850763 0 0.0073887207 0 0)
(-0.012949068 0.0055635908 0 0.0095188393 0 0)
(-0.00024645691 0.00021415359 0 0.00024304158 0 0)
(-0.00031925096 1.2072413e-005 0 0.00031954503 0 0)
(-0.00029861412 -5.0208645e-005 0 0.00029505718 0 0)
(-0.00024579609 -6.5035056e-005 0 0.00024338795 0 0)
(-0.00019597454 -5.9905554e-005 0 0.0001959307 0 0)
(-0.00015969478 -4.8979244e-005 0 0.0001582858 0 0)
(-0.0001296236 -3.6805958e-005 0 0.00012953615 0 0)
(-0.00011073715 -2.1828921e-005 0 0.00011021222 0 0)
(-0.00010042571 -6.6559143e-006 0 0.00010018494 0 0)
(-9.9530272e-005 1.0479713e-005 0 9.9240541e-005 0 0)
(-0.00011056784 3.2449473e-005 0 0.00011021102 0 0)
(-0.00013077111 5.5742743e-005 0 0.00013012407 0 0)
(-0.00017028404 9.0905039e-005 0 0.00016930688 0 0)
(-0.00022762133 0.00013709577 0 0.00022573099 0 0)
(-0.00031153074 0.00020159843 0 0.00030739125 0 0)
(-0.00044052519 0.00030314725 0 0.00043336618 0 0)
(-0.0006202152 0.00044745441 0 0.00060409354 0 0)
(-0.00088532522 0.00067394136 0 0.0008520094 0 0)
(-0.0012895927 0.0010726689 0 0.001222474 0 0)
(-0.001913396 0.0016744665 0 0.0017332369 0 0)
(-0.0029289096 0.0028759637 0 0.0025665037 0 0)
(-0.0047551109 0.0043602474 0 0.0036645921 0 0)
(-0.006669079 0.0067621766 0 0.0048382641 0 0)
(-0.011713011 0.0093405997 0 0.0064673274 0 0)
(-0.0093201481 0.0067471931 0 0.006752831 0 0)
(-0.0002513447 0.00024763981 0 0.0002479222 0 0)
(-0.00032461377 1.2750811e-005 0 0.00032414735 0 0)
(-0.00030263298 -5.9338834e-005 0 0.00029947167 0 0)
(-0.00024715832 -7.6632975e-005 0 0.00024446393 0 0)
(-0.00019466193 -7.0082482e-005 0 0.00019466387 0 0)
(-0.00015692319 -5.6857112e-005 0 0.00015549232 0 0)
(-0.00012606786 -4.2499521e-005 0 0.00012596884 0 0)
(-0.00010664683 -2.5088741e-005 0 0.00010613603 0 0)
(-9.5954083e-005 -7.707224e-006 0 9.5713261e-005 0 0)
(-9.4515165e-005 1.215893e-005 0 9.4256577e-005 0 0)
(-0.00010427122 3.6658267e-005 0 0.00010393434 0 0)
(-0.00012298315 6.3228187e-005 0 0.00012231772 0 0)
(-0.00015951067 0.0001028214 0 0.00015849677 0 0)
(-0.00021256599 0.00015501143 0 0.00021068174 0 0)
(-0.00028977468 0.00022708894 0 0.00028560486 0 0)
(-0.00040760948 0.00033962182 0 0.00040035123 0 0)
(-0.00057003609 0.00050131048 0 0.00055415998 0 0)
(-0.00080384507 0.00075100356 0 0.0007710619 0 0)
(-0.0011524992 0.0011914696 0 0.0010862305 0 0)
(-0.0016942923 0.0018464682 0 0.001518216 0 0)
(-0.002486374 0.0031678919 0 0.0021307711 0 0)
(-0.004022403 0.0048106305 0 0.0029424674 0 0)
(-0.0052216784 0.0075485194 0 0.00348186 0 0)
(-0.009982173 0.010472383 0 0.0048136266 0 0)
(-0.0067118985 0.0075500922 0 0.0045751533 0 0)
(-0.00025764023 0.00028086538 0 0.00025374463 0 0)
(-0.00033056426 1.3420779e-005 0 0.00033022945 0 0)
(-0.00030722183 -6.8862248e-005 0 0.00030401725 0 0)
(-0.00024856103 -8.9008373e-005 0 0.00024552884 0 0)
(-0.00019287695 -8.0646906e-005 0 0.00019299619 0 0)
(-0.00015363461 -6.4883868e-005 0 0.00015216141 0 0)
(-0.00012189334 -4.8249992e-005 0 0.00012181248 0 0)
(-0.00010195873 -2.8301531e-005 0 0.00010146402 0 0)
(-9.0852876e-005 -8.6667093e-006 0 9.065458e-005 0 0)
(-8.8762693e-005 1.3398346e-005 0 8.85178e-005 0 0)
(-9.7352748e-005 4.0892264e-005 0 9.701584e-005 0 0)
(-0.00011422503 7.0354712e-005 0 0.0001135993 0 0)
(-0.00014740593 0.00011400895 0 0.00014647602 0 0)
(-0.00019548849 0.00017138063 0 0.00019371582 0 0)
(-0.0002654305 0.00025054243 0 0.00026144555 0 0)
(-0.00037047601 0.00037361085 0 0.00036348244 0 0)
(-0.00051382262 0.00054918922 0 0.00049827388 0 0)
(-0.00071925261 0.00081439644 0 0.00068709413 0 0)
(-0.0010074089 0.0012886965 0 0.00094399045 0 0)
(-0.0014469659 0.0019689535 0 0.0012736741 0 0)
(-0.0019742852 0.0034077678 0 0.0016573839 0 0)
(-0.0032559464 0.0050152753 0 0.002199788 0 0)
(-0.0033292569 0.0081226323 0 0.0018351133 0 0)
(-0.007266933 0.011027896 0 0.0025701937 0 0)
(-0.00030034228 0.01033344 0 -0.0020192631 0 0)
(-0.00026567375 0.00031453128 0 0.00025874403 0 0)
(-0.00033697132 1.4507769e-005 0 0.00034072041 0 0)
(-0.00031276199 -7.9448491e-005 0 0.00030781321 0 0)
(-0.00024971894 -0.00010257717 0 0.00024609254 0 0)
(-0.00019050927 -9.1973936e-005 0 0.00019114199 0 0)
(-0.00014979099 -7.3456468e-005 0 0.00014820812 0 0)
(-0.00011708026 -5.4260988e-005 0 0.0001171848 0 0)
(-9.6651169e-005 -3.1783429e-005 0 9.6251157e-005 0 0)
(-8.5122968e-005 -9.8833731e-006 0 8.505475e-005 0 0)
(-8.2552452e-005 1.4849619e-005 0 8.2430568e-005 0 0)
(-8.9751813e-005 4.4620198e-005 0 8.961767e-005 0 0)
(-0.00010429831 7.6305458e-005 0 0.000103921 0 0)
(-0.00013397101 0.00012383842 0 0.00013330295 0 0)
(-0.00017721068 0.0001863841 0 0.00017575394 0 0)
(-0.00023849042 0.00027110689 0 0.00023487966 0 0)
(-0.00033060164 0.00040362113 0 0.00032431622 0 0)
(-0.0004554041 0.00058909323 0 0.0004401692 0 0)
(-0.00062434072 0.00086629087 0 0.00059186663 0 0)
(-0.00084605632 0.0013717437 0 0.00078696782 0 0)
(-0.0012047456 0.0020314041 0 0.0010252265 0 0)
(-0.0014253126 0.0035351939 0 0.0011543307 0 0)
(-0.0022469579 0.0050842032 0 0.0012255014 0 0)
(-0.0012215487 0.0079080295 0 0.00010158238 0 0)
(-0.0031803298 0.0099645037 0 -0.00070562957 0 0)
(0.0038120625 0.010629676 0 -0.0076047503 0 0)
(-0.015499181 0.00063431885 0 0.010259031 0 0)
(-0.0090287656 0.0012062679 0 0.0067152386 0 0)
(-0.0036940428 0.0017991361 0 0.0028937711 0 0)
(-0.0012932006 0.0022259321 0 0.0010568606 0 0)
(-0.00054314803 0.0024195097 0 0.00035855868 0 0)
(-0.0001926962 0.002484068 0 3.1128705e-005 0 0)
(-0.0001322126 0.0024913864 0 -3.3464761e-005 0 0)
(-0.00012792963 0.0024884212 0 -3.5577058e-005 0 0)
(-0.00015220864 0.0024832953 0 -1.1106151e-005 0 0)
(-0.00016062942 0.002481524 0 -2.0929759e-006 0 0)
(-0.00016299495 0.0024811288 0 2.564971e-007 0 0)
(-0.00016292732 0.0024811207 0 2.0976282e-007 0 0)
(-0.0001627231 0.0024811324 0 3.2459534e-009 0 0)
(-0.00016268554 0.0024811334 0 -3.2369967e-008 0 0)
(-0.00016271048 0.0024811293 0 -7.4585708e-009 0 0)
(-0.0001627194 0.0024811294 0 1.7529686e-009 0 0)
(-0.00016272128 0.0024811286 0 3.5393204e-009 0 0)
(-0.00016271918 0.0024811299 0 1.2354032e-009 0 0)
(-0.00016271704 0.0024811299 0 -9.1550502e-010 0 0)
(-0.00016271802 0.0024811289 0 1.8550956e-010 0 0)
(-0.00016271848 0.0024811287 0 7.5890881e-010 0 0)
(-0.00016271493 0.0024811289 0 -2.2960967e-009 0 0)
(-0.0001627141 0.002481128 0 -6.4746024e-009 0 0)
(-0.00016269518 0.0024811292 0 -2.015969e-008 0 0)
(-0.00016268085 0.0024811187 0 -2.3443037e-008 0 0)
(-0.014820422 0.0019222308 0 0.0097611694 0 0)
(-0.0085631587 0.003595681 0 0.0062131966 0 0)
(-0.00407558 0.0053437227 0 0.0026326063 0 0)
(-0.0020873841 0.0066161493 0 0.00083584983 0 0)
(-0.0017081378 0.0070220433 0 0.00033945933 0 0)
(-0.0014285596 0.0072264798 0 3.8076877e-005 0 0)
(-0.0013685973 0.0072516066 0 -2.7855441e-005 0 0)
(-0.0013636111 0.0072442041 0 -2.7943312e-005 0 0)
(-0.0013792947 0.0072321507 0 -9.0159388e-006 0 0)
(-0.0013855094 0.0072277234 0 -1.218013e-006 0 0)
(-0.0013868837 0.0072270056 0 2.4089075e-007 0 0)
(-0.0013867885 0.0072270136 0 1.6795561e-007 0 0)
(-0.0013866104 0.0072270507 0 -6.0024989e-009 0 0)
(-0.0013865868 0.0072270462 0 -2.3238628e-008 0 0)
(-0.0013866026 0.00722704 0 -5.4500466e-009 0 0)
(-0.0013866086 0.0072270368 0 2.0044038e-009 0 0)
(-0.0013866095 0.0072270383 0 2.3967856e-009 0 0)
(-0.001386607 0.007227039 0 1.0877524e-009 0 0)
(-0.0013866059 0.0072270376 0 1.5860756e-012 0 0)
(-0.0013866074 0.0072270397 0 2.2847734e-010 0 0)
(-0.0013866068 0.0072270384 0 2.1301083e-010 0 0)
(-0.0013866042 0.007227038 0 -2.0020089e-009 0 0)
(-0.0013866031 0.0072270362 0 -5.1697602e-009 0 0)
(-0.0013865869 0.0072270374 0 -1.5274812e-008 0 0)
(-0.0013865658 0.0072270041 0 -1.6957532e-008 0 0)
(-0.013662012 0.0031666635 0 0.0090192891 0 0)
(-0.0075310304 0.0060938413 0 0.0051594293 0 0)
(-0.0048862068 0.0086944988 0 0.0022251605 0 0)
(-0.0037424104 0.010455692 0 0.00073206898 0 0)
(-0.0035983659 0.011196353 0 0.00019163973 0 0)
(-0.0035132788 0.011420765 0 1.8028593e-005 0 0)
(-0.003489554 0.011448381 0 -1.9560957e-005 0 0)
(-0.0034836159 0.011438594 0 -1.783992e-005 0 0)
(-0.0034878111 0.011423016 0 -5.9686969e-006 0 0)
(-0.0034898197 0.011417097 0 -7.6829279e-007 0 0)
(-0.0034903654 0.011416083 0 1.6499342e-007 0 0)
(-0.0034902385 0.01141609 0 9.1133138e-008 0 0)
(-0.0034901432 0.011416133 0 -4.9448316e-009 0 0)
(-0.0034901265 0.011416133 0 -1.3551909e-008 0 0)
(-0.0034901312 0.011416122 0 -3.0518725e-009 0 0)
(-0.0034901345 0.011416121 0 8.9514554e-010 0 0)
(-0.0034901326 0.01141612 0 1.2348291e-009 0 0)
(-0.0034901329 0.011416121 0 9.0877155e-010 0 0)
(-0.0034901352 0.011416123 0 1.1327612e-009 0 0)
(-0.0034901342 0.011416123 0 -4.1009776e-010 0 0)
(-0.0034901313 0.011416123 0 -7.5267908e-010 0 0)
(-0.0034901307 0.011416121 0 -8.2837953e-010 0 0)
(-0.0034901288 0.011416114 0 -2.5619297e-009 0 0)
(-0.0034901214 0.011416116 0 -6.082625e-009 0 0)
(-0.0034900934 0.011416071 0 -5.8393823e-009 0 0)
(-0.011964222 0.0043095954 0 0.0078269746 0 0)
(-0.0064849622 0.0092464725 0 0.0034769255 0 0)
(-0.0057930093 0.011616515 0 0.0017082229 0 0)
(-0.0056829638 0.013913489 0 0.000437369 0 0)
(-0.0059873094 0.014735553 0 7.2569244e-005 0 0)
(-0.0060495509 0.014933045 0 3.4844994e-006 0 0)
(-0.0060555609 0.014952416 0 -8.531417e-006 0 0)
(-0.0060484579 0.014942337 0 -6.4062844e-006 0 0)
(-0.0060423712 0.014927697 0 -2.381346e-006 0 0)
(-0.006040366 0.014921987 0 -2.9684877e-007 0 0)
(-0.006040078 0.014920951 0 3.9474513e-008 0 0)
(-0.0060399896 0.014920932 0 2.7448321e-008 0 0)
(-0.0060399693 0.014920975 0 1.5895695e-010 0 0)
(-0.006039959 0.01492098 0 -2.4891702e-009 0 0)
(-0.0060399544 0.014920972 0 -7.345146e-010 0 0)
(-0.0060399526 0.01492097 0 -4.7592672e-010 0 0)
(-0.0060399529 0.01492097 0 -2.8076624e-010 0 0)
(-0.0060399543 0.014920971 0 7.5587961e-010 0 0)
(-0.0060399549 0.014920972 0 9.3307799e-010 0 0)
(-0.0060399506 0.014920971 0 -2.8337606e-010 0 0)
(-0.0060399503 0.014920969 0 -9.1204181e-010 0 0)
(-0.0060399535 0.01492097 0 4.789374e-010 0 0)
(-0.0060399487 0.014920967 0 -8.7309118e-010 0 0)
(-0.0060399528 0.01492096 0 4.2481341e-009 0 0)
(-0.0060399301 0.014920929 0 5.1512417e-009 0 0)
(-0.0091921257 0.0061073989 0 0.0056925489 0 0)
(-0.0065101933 0.011489173 0 0.0023813964 0 0)
(-0.0069741179 0.014884754 0 0.0007839181 0 0)
(-0.0080077536 0.017064068 0 0.00012794795 0 0)
(-0.008639543 0.017719832 0 -4.2236242e-006 0 0)
(-0.0087827345 0.017862132 0 -1.4864293e-006 0 0)
(-0.0088049965 0.017868906 0 3.1785975e-006 0 0)
(-0.0087963868 0.017860174 0 3.6177126e-006 0 0)
(-0.0087830089 0.01784925 0 6.1294176e-007 0 0)
(-0.0087781583 0.01784489 0 -3.9170776e-010 0 0)
(-0.0087773242 0.017844013 0 -8.5981168e-008 0 0)
(-0.0087773001 0.017843966 0 -2.2779642e-008 0 0)
(-0.0087773443 0.017844 0 6.3367629e-009 0 0)
(-0.0087773424 0.017844011 0 6.631874e-009 0 0)
(-0.0087773309 0.017844008 0 8.6612114e-010 0 0)
(-0.0087773268 0.017844007 0 -1.4603891e-009 0 0)
(-0.0087773251 0.017844006 0 -1.2941143e-009 0 0)
(-0.0087773274 0.017844007 0 2.565474e-010 0 0)
(-0.0087773261 0.017844007 0 5.8985108e-010 0 0)
(-0.0087773263 0.017844008 0 -4.4637897e-010 0 0)
(-0.0087773276 0.017844007 0 -3.9647603e-010 0 0)
(-0.0087773303 0.017844006 0 1.9788663e-009 0 0)
(-0.008777324 0.017844001 0 2.5785341e-009 0 0)
(-0.0087773343 0.017843997 0 9.8848184e-009 0 0)
(-0.0087773278 0.017843982 0 1.1347081e-008 0 0)
(-0.0066384875 0.0088485691 0 0.00303196 0 0)
(-0.006323714 0.014565297 0 0.00068724524 0 0)
(-0.0090267748 0.018205845 0 -3.9230124e-005 0 0)
(-0.010864157 0.019994361 0 -8.1033324e-005 0 0)
(-0.011569197 0.020386501 0 -3.7112262e-005 0 0)
(-0.011716637 0.02045606 0 5.4142419e-006 0 0)
(-0.01174062 0.020453422 0 1.4534943e-005 0 0)
(-0.011729006 0.020448611 0 1.0456833e-005 0 0)
(-0.011712586 0.020442927 0 2.4503387e-006 0 0)
(-0.011706605 0.020440497 0 7.3973878e-008 0 0)
(-0.011705637 0.020439856 0 -1.8916867e-007 0 0)
(-0.011705696 0.020439787 0 -4.8611962e-008 0 0)
(-0.011705784 0.020439811 0 1.228336e-008 0 0)
(-0.01170579 0.020439829 0 1.1420599e-008 0 0)
(-0.011705778 0.020439832 0 1.5338713e-009 0 0)
(-0.011705773 0.020439831 0 -1.8397623e-009 0 0)
(-0.011705772 0.02043983 0 -1.6836354e-009 0 0)
(-0.011705773 0.02043983 0 -2.9741296e-010 0 0)
(-0.011705773 0.020439831 0 -1.1820327e-011 0 0)
(-0.011705774 0.020439831 0 -6.2486717e-012 0 0)
(-0.011705773 0.02043983 0 5.3565172e-010 0 0)
(-0.011705776 0.020439829 0 2.4509507e-009 0 0)
(-0.011705773 0.020439826 0 4.3449077e-009 0 0)
(-0.011705786 0.020439823 0 1.1982053e-008 0 0)
(-0.0117058 0.020439823 0 1.2954665e-008 0 0)
(-0.0054703103 0.011090982 0 0.00082063541 0 0)
(-0.0078465286 0.018877505 0 -0.0010332804 0 0)
(-0.012638079 0.021813254 0 -0.00054483513 0 0)
(-0.014335929 0.022851128 0 -0.00018036657 0 0)
(-0.014936305 0.022977355 0 -3.0582703e-005 0 0)
(-0.015034829 0.022989505 0 1.9761261e-005 0 0)
(-0.015053965 0.022986866 0 2.322419e-005 0 0)
(-0.015039139 0.022989436 0 1.2748324e-005 0 0)
(-0.015024494 0.022988789 0 2.8902295e-006 0 0)
(-0.015019062 0.022988123 0 -3.5920274e-008 0 0)
(-0.01501832 0.022987686 0 -2.5216011e-007 0 0)
(-0.015018465 0.022987599 0 -5.2649308e-008 0 0)
(-0.015018573 0.022987616 0 1.6532521e-008 0 0)
(-0.015018586 0.022987643 0 1.1693518e-008 0 0)
(-0.015018575 0.022987647 0 7.5759482e-010 0 0)
(-0.015018571 0.022987647 0 -1.8675588e-009 0 0)
(-0.01501857 0.022987646 0 -1.486301e-009 0 0)
(-0.015018571 0.022987646 0 -8.3314803e-010 0 0)
(-0.015018572 0.022987646 0 -8.3766266e-011 0 0)
(-0.015018571 0.022987645 0 3.1274883e-010 0 0)
(-0.015018572 0.022987645 0 6.3162119e-010 0 0)
(-0.015018574 0.022987645 0 1.8889875e-009 0 0)
(-0.015018576 0.022987645 0 4.8099187e-009 0 0)
(-0.015018588 0.022987642 0 1.1411099e-008 0 0)
(-0.015018614 0.022987654 0 1.0471623e-008 0 0)
(-0.0052704977 0.015500726 0 -0.0023583398 0 0)
(-0.011686873 0.023711706 0 -0.0023784556 0 0)
(-0.017531567 0.025385595 0 -0.00067177383 0 0)
(-0.018506184 0.025733745 0 -0.00017190701 0 0)
(-0.018940221 0.025689182 0 -4.192414e-007 0 0)
(-0.01897971 0.02568212 0 3.2695368e-005 0 0)
(-0.018999665 0.025691504 0 2.6030087e-005 0 0)
(-0.018986837 0.025703625 0 1.0789296e-005 0 0)
(-0.018978138 0.025706384 0 2.5121624e-006 0 0)
(-0.018973988 0.025706823 0 -1.7932782e-007 0 0)
(-0.018973553 0.025706474 0 -2.5787982e-007 0 0)
(-0.018973727 0.025706377 0 -4.7181463e-008 0 0)
(-0.018973848 0.025706394 0 1.5863707e-008 0 0)
(-0.018973863 0.025706421 0 8.6196543e-009 0 0)
(-0.018973855 0.025706426 0 -3.2505181e-010 0 0)
(-0.018973852 0.025706425 0 -1.5867824e-009 0 0)
(-0.018973852 0.025706424 0 -1.1444325e-009 0 0)
(-0.018973852 0.025706424 0 -8.8228478e-010 0 0)
(-0.018973852 0.025706423 0 -1.1816634e-010 0 0)
(-0.018973853 0.025706423 0 3.4528056e-010 0 0)
(-0.018973853 0.025706423 0 3.4042413e-010 0 0)
(-0.018973855 0.025706423 0 1.1309599e-009 0 0)
(-0.018973859 0.025706425 0 4.2840446e-009 0 0)
(-0.018973869 0.025706425 0 8.7191701e-009 0 0)
(-0.018973896 0.025706441 0 6.2732463e-009 0 0)
(-0.010061159 0.02408879 0 -0.0056487337 0 0)
(-0.018612882 0.029093471 0 -0.0032391675 0 0)
(-0.023389166 0.028910075 0 -0.00055207973 0 0)
(-0.023349574 0.028686128 0 -0.00013382345 0 0)
(-0.02360982 0.028580952 0 3.6642489e-005 0 0)
(-0.023633462 0.028602255 0 3.4596572e-005 0 0)
(-0.023673205 0.028631207 0 2.2929071e-005 0 0)
(-0.023669256 0.028650288 0 7.1378842e-006 0 0)
(-0.023667069 0.028654955 0 1.3255225e-006 0 0)
(-0.023664705 0.028655468 0 -3.2026925e-007 0 0)
(-0.023664493 0.028655045 0 -1.9901557e-007 0 0)
(-0.023664615 0.028654937 0 -3.4963527e-008 0 0)
(-0.023664729 0.028654953 0 1.2352831e-008 0 0)
(-0.023664739 0.028654976 0 4.0004406e-009 0 0)
(-0.023664736 0.028654978 0 -8.8273957e-010 0 0)
(-0.023664733 0.028654977 0 -1.1902181e-009 0 0)
(-0.023664733 0.028654976 0 -6.8602162e-010 0 0)
(-0.023664732 0.028654975 0 -6.7871673e-010 0 0)
(-0.023664732 0.028654974 0 -1.5087383e-010 0 0)
(-0.023664732 0.028654974 0 2.5714077e-010 0 0)
(-0.023664733 0.028654975 0 1.1703068e-010 0 0)
(-0.023664734 0.028654975 0 3.4769679e-010 0 0)
(-0.023664738 0.028654977 0 2.5664601e-009 0 0)
(-0.023664745 0.028654981 0 3.6665081e-009 0 0)
(-0.023664766 0.028654998 0 1.4512519e-009 0 0)
(-0.031452727 0.040606922 0 -0.009928936 0 0)
(-0.028184705 0.033480575 0 -0.0020204673 0 0)
(-0.033842697 0.034181541 0 -0.00026238467 0 0)
(-0.03180696 0.033093786 0 -3.047042e-005 0 0)
(-0.032582438 0.033347624 0 3.5369521e-005 0 0)
(-0.032496702 0.033347462 0 1.9559524e-005 0 0)
(-0.032628722 0.033423175 0 9.521879e-006 0 0)
(-0.032624946 0.033434706 0 2.1288191e-006 0 0)
(-0.032634702 0.033441731 0 3.4322733e-007 0 0)
(-0.032631253 0.033440658 0 -2.4292113e-007 0 0)
(-0.032631455 0.033440341 0 -9.4571487e-008 0 0)
(-0.032631267 0.03344013 0 -1.6438561e-008 0 0)
(-0.03263139 0.033440168 0 3.8287257e-009 0 0)
(-0.032631383 0.033440172 0 4.3096154e-010 0 0)
(-0.032631384 0.033440174 0 -6.3136823e-010 0 0)
(-0.03263138 0.033440171 0 -4.6547129e-010 0 0)
(-0.032631379 0.03344017 0 -2.3433436e-010 0 0)
(-0.032631377 0.033440169 0 -3.2802789e-010 0 0)
(-0.032631376 0.033440168 0 -4.3548413e-011 0 0)
(-0.032631377 0.033440168 0 1.4718481e-010 0 0)
(-0.032631378 0.033440169 0 -4.7872653e-011 0 0)
(-0.032631378 0.033440169 0 -1.0927439e-010 0 0)
(-0.032631377 0.033440169 0 1.3757293e-009 0 0)
(-0.032631369 0.033440171 0 -2.3048755e-010 0 0)
(-0.032631366 0.033440184 0 -1.6641466e-009 0 0)
(-0.00028479996 0.00038414533 0 0.00027175385 0 0)
(-0.00035118625 1.4819997e-005 0 0.00036661319 0 0)
(-0.00032487117 -0.00010774887 0 0.00031758592 0 0)
(-0.00025203616 -0.00013302323 0 0.00024558215 0 0)
(-0.00018474362 -0.00011810148 0 0.00018588533 0 0)
(-0.00014098647 -9.2929287e-005 0 0.00013808431 0 0)
(-0.00010638936 -6.8071797e-005 0 0.00010585413 0 0)
(-8.4898814e-005 -4.0307227e-005 0 8.3864374e-005 0 0)
(-7.2820036e-005 -1.4117822e-005 0 7.2218767e-005 0 0)
(-6.877806e-005 1.4700165e-005 0 6.8106904e-005 0 0)
(-7.3207218e-005 4.9231952e-005 0 7.2526126e-005 0 0)
(-8.3725004e-005 8.5116395e-005 0 8.2667665e-005 0 0)
(-0.00010637406 0.00013959388 0 0.00010499392 0 0)
(-0.00013843488 0.00020871284 0 0.00013605095 0 0)
(-0.00018390869 0.0003020172 0 0.00017864568 0 0)
(-0.00024977409 0.00044716098 0 0.00024213105 0 0)
(-0.0003320524 0.00064909925 0 0.00031622612 0 0)
(-0.00043779811 0.00093221711 0 0.00040401689 0 0)
(-0.00055763692 0.001457561 0 0.00050635435 0 0)
(-0.00069896153 0.0021111094 0 0.00053936332 0 0)
(-0.00066678963 0.0035118191 0 0.00043975089 0 0)
(-0.00069183426 0.0048923422 0 -0.00015324388 0 0)
(0.0009986141 0.0070930728 0 -0.0016559711 0 0)
(0.00167835 0.0074872768 0 -0.004000272 0 0)
(0.0098552151 0.0059848033 0 -0.012387709 0 0)
(-0.00032684664 0.00049865892 0 0.00030655049 0 0)
(-0.00039122571 -7.7781185e-008 0 0.00041282108 0 0)
(-0.00034933767 -0.0001711082 0 0.00033869958 0 0)
(-0.00025203885 -0.00019421839 0 0.00024267851 0 0)
(-0.00017012808 -0.00016908603 0 0.00017198424 0 0)
(-0.00012020199 -0.00013141165 0 0.00011728614 0 0)
(-8.4112193e-005 -9.6174144e-005 0 8.3840193e-005 0 0)
(-6.1693814e-005 -5.9936902e-005 0 6.1282646e-005 0 0)
(-4.9390504e-005 -2.7247998e-005 0 4.9203041e-005 0 0)
(-4.3744897e-005 7.9266823e-006 0 4.3422572e-005 0 0)
(-4.3271409e-005 4.5046351e-005 0 4.3383006e-005 0 0)
(-4.7406729e-005 8.6551421e-005 0 4.6915428e-005 0 0)
(-5.7528506e-005 0.00014623246 0 5.6837153e-005 0 0)
(-7.2598923e-005 0.0002260994 0 7.1799953e-005 0 0)
(-9.1172298e-005 0.00032353438 0 8.7518763e-005 0 0)
(-0.00011588155 0.00047339378 0 0.00010961135 0 0)
(-0.00013845425 0.00068578229 0 0.00012707127 0 0)
(-0.00015936238 0.00096243666 0 0.00012978748 0 0)
(-0.00012802269 0.0014445901 0 8.1832547e-005 0 0)
(-5.3665386e-005 0.0020368403 0 -8.0318375e-005 0 0)
(0.00033865061 0.0030666729 0 -0.00055887521 0 0)
(0.00091057416 0.0038569628 0 -0.0015832626 0 0)
(0.0029041691 0.0044660807 0 -0.0035975156 0 0)
(0.0050980743 0.00188219 0 -0.0071736557 0 0)
(0.006367201 -0.0022070579 0 -0.009482729 0 0)
(-0.0004064847 0.00061563962 0 0.00038066404 0 0)
(-0.00045763592 -4.7493231e-005 0 0.00048201711 0 0)
(-0.00038090476 -0.00027284646 0 0.00036601173 0 0)
(-0.00024368003 -0.00028709921 0 0.00023195942 0 0)
(-0.00014450219 -0.00024265759 0 0.00014566027 0 0)
(-8.9595627e-005 -0.00018629388 0 8.6488182e-005 0 0)
(-5.4556389e-005 -0.00013876592 0 5.3815887e-005 0 0)
(-3.3363266e-005 -9.3735635e-005 0 3.3086655e-005 0 0)
(-2.1669861e-005 -5.3611271e-005 0 2.1309637e-005 0 0)
(-1.4965539e-005 -1.7251135e-005 0 1.4772183e-005 0 0)
(-1.0616042e-005 2.3893373e-005 0 1.0913435e-005 0 0)
(-8.1348855e-006 7.0220238e-005 0 8.0290675e-006 0 0)
(-6.4008458e-006 0.00012742154 0 5.5214298e-006 0 0)
(-2.7386261e-006 0.00021015155 0 1.9803765e-006 0 0)
(4.2071576e-006 0.00031026085 0 -6.4000726e-006 0 0)
(1.6929009e-005 0.00044802131 0 -2.2932461e-005 0 0)
(4.9908852e-005 0.00065634838 0 -5.9359111e-005 0 0)
(9.9778768e-005 0.00090716895 0 -0.00012506233 0 0)
(0.00023035913 0.0013219357 0 -0.00026924367 0 0)
(0.00044002126 0.0018136181 0 -0.00054171793 0 0)
(0.00097619824 0.0025558593 0 -0.0011395156 0 0)
(0.0017838008 0.0030234453 0 -0.0021826451 0 0)
(0.0033184648 0.0029755458 0 -0.0036826587 0 0)
(0.0046812383 0.00065640177 0 -0.0054174867 0 0)
(0.0036670665 -0.0039813205 0 -0.0041505658 0 0)
(-0.00057009949 0.00074139138 0 0.00053426012 0 0)
(-0.00055871874 -0.00014103467 0 0.00058893289 0 0)
(-0.00041367937 -0.00041294024 0 0.00038959532 0 0)