/*--------------------------------*- C++ -*----------------------------------*\
| =========                 |                                                 |
| \\      /  F ield         | OpenFOAM: The Open Source CFD Toolbox           |
|  \\    /   O peration     | Version:  5.x                                   |
|   \\  /    A nd           | Web:      www.OpenFOAM.org                      |
|    \\/     M anipulation  |                                                 |
\*---------------------------------------------------------------------------*/
/*   Windows 32 and 64 bit porting by blueCAPE: http://www.bluecape.com.pt   *\
|  Based on Windows porting (2.0.x v4) by Symscape: http://www.symscape.com   |
\*---------------------------------------------------------------------------*/
FoamFile
{
    version     2.0;
    format      ascii;
    class       volSymmTensorField;
    location    "0.12";
    object      sigma;
}
// * * * * * * * * * * * * * * * * * * * * * * * * * * * * * * * * * * * * * //

dimensions      [0 2 -2 0 0 0 0];

internalField   nonuniform List<symmTensor> 
750
(
(-0.00023627437 1.6364649e-005 0 0.00023495098 0 0)
(-0.00030386568 1.3586725e-006 0 0.00030279509 0 0)
(-0.0002857156 -3.39293e-006 0 0.00028306561 0 0)
(-0.0002412771 -4.7462653e-006 0 0.00023925302 0 0)
(-0.0001995392 -4.4145622e-006 0 0.00019932706 0 0)
(-0.00016760456 -3.717636e-006 0 0.00016637896 0 0)
(-0.0001402947 -2.8502699e-006 0 0.00014014906 0 0)
(-0.00012310331 -1.7258901e-006 0 0.0001225723 0 0)
(-0.00011409648 -5.6430173e-007 0 0.00011381509 0 0)
(-0.00011528374 8.0299012e-007 0 0.00011496057 0 0)
(-0.00012992834 2.5909791e-006 0 0.00012951462 0 0)
(-0.00015545175 4.4800868e-006 0 0.00015473258 0 0)
(-0.00020443563 7.3674147e-006 0 0.0002033955 0 0)
(-0.00027554839 1.1249267e-005 0 0.0002735856 0 0)
(-0.00038161062 1.6632672e-005 0 0.00037747944 0 0)
(-0.00054733349 2.5333753e-005 0 0.00053994125 0 0)
(-0.00078547504 3.7936766e-005 0 0.00076879712 0 0)
(-0.0011504617 5.7883321e-005 0 0.0011160672 0 0)
(-0.0017263513 9.3813356e-005 0 0.0016544947 0 0)
(-0.0026326522 0.00014582118 0 0.0024494277 0 0)
(-0.0042155267 0.00024915099 0 0.0038378273 0 0)
(-0.0068636448 0.0003832617 0 0.0057653176 0 0)
(-0.010823125 0.00055073456 0 0.0086053001 0 0)
(-0.015492235 0.00083416929 0 0.010845631 0 0)
(-0.01988364 0.00060571697 0 0.013062457 0 0)
(-0.00023662768 4.9278043e-005 0 0.00023422789 0 0)
(-0.00030445893 3.9351319e-006 0 0.00030534589 0 0)
(-0.00028666163 -1.0274498e-005 0 0.0002828898 0 0)
(-0.00024167114 -1.4069941e-005 0 0.00023990568 0 0)
(-0.00019916266 -1.3153527e-005 0 0.00019893918 0 0)
(-0.0001673354 -1.0999427e-005 0 0.0001659917 0 0)
(-0.00013979758 -8.359694e-006 0 0.00013965054 0 0)
(-0.00012255259 -4.9822697e-006 0 0.00012193606 0 0)
(-0.00011344366 -1.4592003e-006 0 0.00011310552 0 0)
(-0.0001145221 2.6077321e-006 0 0.00011413025 0 0)
(-0.00012904252 7.9688036e-006 0 0.00012855086 0 0)
(-0.00015415527 1.3618069e-005 0 0.0001533437 0 0)
(-0.00020277643 2.2268215e-005 0 0.00020163551 0 0)
(-0.00027313461 3.3776355e-005 0 0.00027098157 0 0)
(-0.0003779761 4.9888497e-005 0 0.0003735373 0 0)
(-0.00054238058 7.5762551e-005 0 0.00053460877 0 0)
(-0.00077662222 0.00011285858 0 0.00075916552 0 0)
(-0.0011371628 0.00017238803 0 0.001101781 0 0)
(-0.0017056579 0.00027733139 0 0.0016324216 0 0)
(-0.0025921894 0.00042618469 0 0.0024046095 0 0)
(-0.0041668088 0.00075564989 0 0.003788413 0 0)
(-0.0067316365 0.001110424 0 0.0056124377 0 0)
(-0.010663095 0.0016526492 0 0.0084767692 0 0)
(-0.015202557 0.0024887601 0 0.010485601 0 0)
(-0.019346552 0.0018116702 0 0.012829195 0 0)
(-0.00023743319 8.2307797e-005 0 0.00023464461 0 0)
(-0.0003058441 6.3709595e-006 0 0.0003072082 0 0)
(-0.0002880416 -1.7522235e-005 0 0.00028392426 0 0)
(-0.00024226083 -2.3483107e-005 0 0.00024045253 0 0)
(-0.00019889696 -2.201439e-005 0 0.00019873027 0 0)
(-0.00016664703 -1.8318624e-005 0 0.00016526905 0 0)
(-0.0001388218 -1.387291e-005 0 0.00013872808 0 0)
(-0.0001213963 -8.2360351e-006 0 0.00012079896 0 0)
(-0.00011214147 -2.3461048e-006 0 0.00011184534 0 0)
(-0.00011302037 4.4068289e-006 0 0.00011266736 0 0)
(-0.00012722198 1.3283093e-005 0 0.00012678956 0 0)
(-0.00015163545 2.2638727e-005 0 0.00015090333 0 0)
(-0.00019946982 3.7015305e-005 0 0.00019842154 0 0)
(-0.00026848871 5.5965505e-005 0 0.00026645366 0 0)
(-0.00037093216 8.2648212e-005 0 0.00036667052 0 0)
(-0.0005320543 0.0001252412 0 0.00052460053 0 0)
(-0.00075993309 0.00018627511 0 0.00074292571 0 0)
(-0.0011106408 0.00028437552 0 0.0010761105 0 0)
(-0.0016629672 0.00045546178 0 0.0015912261 0 0)
(-0.0025187838 0.00071306828 0 0.0023324763 0 0)
(-0.0040537275 0.0012207747 0 0.0036812089 0 0)
(-0.0065222406 0.001828814 0 0.0054087049 0 0)
(-0.010278723 0.0027142402 0 0.0081564103 0 0)
(-0.014793881 0.0041541408 0 0.0099661159 0 0)
(-0.018109361 0.0029759726 0 0.012256431 0 0)
(-0.00023865632 0.00011519896 0 0.00023589446 0 0)
(-0.00030814521 8.4207387e-006 0 0.00030918585 0 0)
(-0.00029000008 -2.5175329e-005 0 0.00028609189 0 0)
(-0.00024301589 -3.3277131e-005 0 0.00024103673 0 0)
(-0.00019862415 -3.1165426e-005 0 0.00019852415 0 0)
(-0.00016559549 -2.5864189e-005 0 0.00016419462 0 0)
(-0.00013734632 -1.9582949e-005 0 0.00013726639 0 0)
(-0.00011965594 -1.1681242e-005 0 0.00011906679 0 0)
(-0.00011019482 -3.4363119e-006 0 0.0001099089 0 0)
(-0.00011073581 5.9782778e-006 0 0.0001104026 0 0)
(-0.00012436183 1.8255759e-005 0 0.0001239433 0 0)
(-0.00014808666 3.1317063e-005 0 0.00014735378 0 0)
(-0.00019453851 5.1294635e-005 0 0.0001934897 0 0)
(-0.00026148638 7.7489562e-005 0 0.00025947681 0 0)
(-0.00036060228 0.00011450666 0 0.00035636293 0 0)
(-0.00051620454 0.00017326663 0 0.00050880421 0 0)
(-0.00073543521 0.00025755137 0 0.00071855017 0 0)
(-0.0010710049 0.00039297989 0 0.001036686 0 0)
(-0.0015976656 0.00062775494 0 0.0015265946 0 0)
(-0.0024196376 0.00097677658 0 0.0022343668 0 0)
(-0.0038753004 0.0016770627 0 0.003500769 0 0)
(-0.0061987053 0.0025960053 0 0.0050856012 0 0)
(-0.0096700751 0.0038056256 0 0.0076173304 0 0)
(-0.014328415 0.0056318534 0 0.0093288747 0 0)
(-0.016556846 0.0040422265 0 0.011436388 0 0)
(-0.00024052598 0.00014822505 0 0.0002376351 0 0)
(-0.00031124639 1.0060046e-005 0 0.00031204684 0 0)
(-0.00029254971 -3.3135715e-005 0 0.00028877191 0 0)
(-0.00024398036 -4.3459531e-005 0 0.00024186356 0 0)
(-0.00019814171 -4.0526e-005 0 0.00019806914 0 0)
(-0.00016415528 -3.3513935e-005 0 0.00016274744 0 0)
(-0.00013537201 -2.5332767e-005 0 0.00013529215 0 0)
(-0.00011732692 -1.5114157e-005 0 0.00011675453 0 0)
(-0.00010760826 -4.5390678e-006 0 0.00010733523 0 0)
(-0.00010774515 7.5231567e-006 0 0.00010743311 0 0)
(-0.00012058348 2.3082624e-005 0 0.00012018172 0 0)
(-0.00014342482 3.9790775e-005 0 0.00014269859 0 0)
(-0.00018800393 6.5147012e-005 0 0.00018697044 0 0)
(-0.0002522521 9.8306158e-005 0 0.00025029412 0 0)
(-0.00034707651 0.00014519246 0 0.00034287982 0 0)
(-0.00049538812 0.00021925214 0 0.00048807472 0 0)
(-0.00070364694 0.00032531072 0 0.00068698777 0 0)
(-0.001019724 0.00049458328 0 0.00098565626 0 0)
(-0.001512545 0.00078955089 0 0.0014426085 0 0)
(-0.0022829602 0.0012359767 0 0.00209758 0 0)
(-0.0036149675 0.0021310255 0 0.003243577 0 0)
(-0.0058525568 0.0031829323 0 0.0047371304 0 0)
(-0.0088758878 0.0048464774 0 0.0068981481 0 0)
(-0.013561535 0.0070796174 0 0.008470763 0 0)
(-0.015346309 0.0049373315 0 0.01083302 0 0)
(-0.0002432502 0.00018138533 0 0.00024005116 0 0)
(-0.00031513673 1.1300158e-005 0 0.00031581056 0 0)
(-0.00029568373 -4.151856e-005 0 0.00029195663 0 0)
(-0.00024509979 -5.4100234e-005 0 0.00024286456 0 0)
(-0.00019741216 -5.0176838e-005 0 0.00019734482 0 0)
(-0.00016230057 -4.1286804e-005 0 0.00016089393 0 0)
(-0.00013288991 -3.1119771e-005 0 0.00013280478 0 0)
(-0.00011440755 -1.8542579e-005 0 0.00011385855 0 0)
(-0.00010439116 -5.6418069e-006 0 0.0001041349 0 0)
(-0.00010402451 8.965873e-006 0 0.00010372028 0 0)
(-0.00011602455 2.7836279e-005 0 0.0001156406 0 0)
(-0.00013763284 4.7954482e-005 0 0.00013694844 0 0)
(-0.00017987949 7.834543e-005 0 0.00017888367 0 0)
(-0.00024091221 0.00011820155 0 0.00023900522 0 0)
(-0.00033080936 0.00017422615 0 0.00032666961 0 0)
(-0.00047007043 0.00026252783 0 0.00046285801 0 0)
(-0.00066502518 0.00038907925 0 0.00064865059 0 0)
(-0.00095752237 0.00058886505 0 0.00092364246 0 0)
(-0.0014074471 0.00094094902 0 0.0013388084 0 0)
(-0.0021175694 0.0014647893 0 0.0019344079 0 0)
(-0.0033152262 0.0025132688 0 0.0029499205 0 0)
(-0.0053117119 0.0038675538 0 0.0042075358 0 0)
(-0.0079034374 0.0058209576 0 0.0059965367 0 0)
(-0.012560409 0.0085082373 0 0.0073875203 0 0)
(-0.012948521 0.0055667857 0 0.0095173055 0 0)
(-0.0002469507 0.00021451711 0 0.00024347779 0 0)
(-0.0003198099 1.2130914e-005 0 0.00032017186 0 0)
(-0.0002993475 -5.0297382e-005 0 0.00029573204 0 0)
(-0.00024632669 -6.5205744e-005 0 0.00024393765 0 0)
(-0.00019642176 -6.0067199e-005 0 0.00019635988 0 0)
(-0.00016000551 -4.9126411e-005 0 0.00015860071 0 0)
(-0.00012986746 -3.6921473e-005 0 0.00012977461 0 0)
(-0.00011090199 -2.1916335e-005 0 0.00011037762 0 0)
(-0.00010054687 -6.7232172e-006 0 0.00010030457 0 0)
(-9.9614001e-005 1.0437565e-005 0 9.9324271e-005 0 0)
(-0.00011062243 3.2420648e-005 0 0.00011026494 0 0)
(-0.00013081543 5.5734325e-005 0 0.00013016772 0 0)
(-0.00017032595 9.0919502e-005 0 0.00016934884 0 0)
(-0.00022766104 0.00013712781 0 0.00022576904 0 0)
(-0.00031158711 0.00020166377 0 0.00030744493 0 0)
(-0.00044063029 0.00030326901 0 0.00043346591 0 0)
(-0.00062035991 0.00044763872 0 0.0006042237 0 0)
(-0.00088560892 0.00067429224 0 0.00085226551 0 0)
(-0.001290077 0.0010732835 0 0.0012228759 0 0)
(-0.0019143642 0.00167553 0 0.0017340035 0 0)
(-0.0029301536 0.0028773122 0 0.0025672837 0 0)
(-0.0047565106 0.0043614248 0 0.0036652221 0 0)
(-0.0066688074 0.0067627516 0 0.0048374263 0 0)
(-0.011711591 0.0093409841 0 0.0064659096 0 0)
(-0.0093211591 0.0067506101 0 0.0067521343 0 0)
(-0.00025185832 0.00024807383 0 0.00024837557 0 0)
(-0.0003251834 1.2811322e-005 0 0.00032478714 0 0)
(-0.00030338104 -5.9440467e-005 0 0.00030016035 0 0)
(-0.00024767708 -7.6832643e-005 0 0.0002450016 0 0)
(-0.00019511304 -7.0270482e-005 0 0.00019509679 0 0)
(-0.00015722809 -5.7026149e-005 0 0.00015580094 0 0)
(-0.00012630481 -4.26309e-005 0 0.00012620059 0 0)
(-0.00010680514 -2.5187194e-005 0 0.00010629478 0 0)
(-9.6069143e-005 -7.7831283e-006 0 9.5826864e-005 0 0)
(-9.4595697e-005 1.2118583e-005 0 9.4336917e-005 0 0)
(-0.00010431989 3.6623071e-005 0 0.00010398282 0 0)
(-0.00012302143 6.3218537e-005 0 0.00012235548 0 0)
(-0.00015954609 0.0001028383 0 0.00015853211 0 0)
(-0.00021259932 0.00015505012 0 0.00021071347 0 0)
(-0.00028981945 0.00022716027 0 0.00028564688 0 0)
(-0.00040769544 0.00033976111 0 0.00040043258 0 0)
(-0.00057015673 0.00050151227 0 0.00055426616 0 0)
(-0.00080406935 0.00075140097 0 0.00077125808 0 0)
(-0.0011529041 0.0011921472 0 0.0010865541 0 0)
(-0.0016950773 0.0018476131 0 0.0015187977 0 0)
(-0.0024873293 0.0031692904 0 0.00213133 0 0)
(-0.0040234107 0.0048116703 0 0.0029427906 0 0)
(-0.0052205693 0.0075488427 0 0.0034805596 0 0)
(-0.0099788647 0.010473357 0 0.0048109845 0 0)
(-0.0067126905 0.0075536666 0 0.0045741762 0 0)
(-0.00025818075 0.00028135838 0 0.00025421688 0 0)
(-0.00033114179 1.3492486e-005 0 0.00033088617 0 0)
(-0.00030798766 -6.8980882e-005 0 0.00030471918 0 0)
(-0.00024907371 -8.9240685e-005 0 0.00024606093 0 0)
(-0.00019332605 -8.0864131e-005 0 0.00019342691 0 0)
(-0.00015393277 -6.5076688e-005 0 0.00015246309 0 0)
(-0.00012212182 -4.8399016e-005 0 0.00012203594 0 0)
(-0.00010210935 -2.8412271e-005 0 0.00010161509 0 0)
(-9.0961044e-005 -8.7516767e-006 0 9.0761441e-005 0 0)
(-8.8835625e-005 1.3348831e-005 0 8.8590847e-005 0 0)
(-9.7397199e-005 4.0855063e-005 0 9.706016e-005 0 0)
(-0.00011425833 7.0344015e-005 0 0.00011363188 0 0)
(-0.00014743509 0.00011402788 0 0.00014650516 0 0)
(-0.00019551324 0.00017142215 0 0.00019373935 0 0)
(-0.00026546281 0.00025061786 0 0.0002614753 0 0)
(-0.00037054185 0.00037376182 0 0.00036354431 0 0)
(-0.00051391439 0.00054940623 0 0.00049835156 0 0)
(-0.00071945763 0.00081480053 0 0.00068727088 0 0)
(-0.0010077266 0.0012894246 0 0.00094423107 0 0)
(-0.0014476206 0.001970119 0 0.0012741334 0 0)
(-0.0019750272 0.0034091926 0 0.0016577526 0 0)
(-0.003256596 0.0050161792 0 0.0021998545 0 0)
(-0.0033285121 0.0081222697 0 0.0018341741 0 0)
(-0.0072659363 0.01102766 0 0.0025692241 0 0)
(-0.00030104899 0.010336743 0 -0.0020204782 0 0)
(-0.0002662524 0.00031505599 0 0.00025923225 0 0)
(-0.0003375501 1.4607423e-005 0 0.00034140344 0 0)
(-0.00031353944 -7.9588637e-005 0 0.00030851211 0 0)
(-0.00025024554 -0.00010284786 0 0.0002466416 0 0)
(-0.00019094424 -9.2223674e-005 0 0.00019155718 0 0)
(-0.00015008145 -7.3679243e-005 0 0.00014850362 0 0)
(-0.00011729825 -5.4432247e-005 0 0.00011739784 0 0)
(-9.6793544e-005 -3.1911605e-005 0 9.6394505e-005 0 0)
(-8.5223148e-005 -9.9816426e-006 0 8.5154087e-005 0 0)
(-8.2615418e-005 1.4779437e-005 0 8.2494297e-005 0 0)
(-8.9794442e-005 4.4585518e-005 0 8.9660069e-005 0 0)
(-0.00010432637 7.6289089e-005 0 0.0001039487 0 0)
(-0.00013399223 0.0001238524 0 0.0001333248 0 0)
(-0.00017722633 0.0001864221 0 0.00017576866 0 0)
(-0.0002385093 0.00027118062 0 0.00023489652 0 0)
(-0.00033064993 0.00040377764 0 0.00032436168 0 0)
(-0.00045547027 0.0005893104 0 0.00044021965 0 0)
(-0.00062444446 0.00086674117 0 0.00059194978 0 0)
(-0.00084629967 0.0013724949 0 0.00078713691 0 0)
(-0.0012052333 0.0020326005 0 0.0010255318 0 0)
(-0.0014259585 0.0035366195 0 0.0011545886 0 0)
(-0.0022472874 0.0050851122 0 0.001225371 0 0)
(-0.0012207121 0.0079076164 0 0.00010047524 0 0)
(-0.0031791128 0.0099643416 0 -0.00070729292 0 0)
(0.0038110744 0.010633793 0 -0.0076063722 0 0)
(-0.015492298 0.00063379538 0 0.010252583 0 0)
(-0.0090199174 0.0012041122 0 0.0067063725 0 0)
(-0.0036876266 0.001794475 0 0.0028870921 0 0)
(-0.0012905058 0.0022200172 0 0.001054153 0 0)
(-0.00054336246 0.0024135178 0 0.00035897166 0 0)
(-0.00019333204 0.00247827 0 3.2068269e-005 0 0)
(-0.00013244735 0.0024857786 0 -3.2955765e-005 0 0)
(-0.00012776753 0.0024828865 0 -3.5470418e-005 0 0)
(-0.00015189154 0.0024777773 0 -1.1160641e-005 0 0)
(-0.0001603164 0.0024759989 0 -2.1418467e-006 0 0)
(-0.0001627236 0.0024755958 0 2.5008443e-007 0 0)
(-0.00016266529 0.0024755866 0 2.127739e-007 0 0)
(-0.00016245968 0.0024755986 0 4.89656e-009 0 0)
(-0.00016242075 0.0024755997 0 -3.2107223e-008 0 0)
(-0.00016244532 0.0024755957 0 -7.5746736e-009 0 0)
(-0.0001624543 0.0024755958 0 1.6970905e-009 0 0)
(-0.00016245623 0.002475595 0 3.5394208e-009 0 0)
(-0.00016245415 0.0024755962 0 1.2524167e-009 0 0)
(-0.000162452 0.0024755962 0 -9.0405154e-010 0 0)
(-0.00016245297 0.0024755953 0 1.7666596e-010 0 0)
(-0.00016245342 0.002475595 0 7.4846268e-010 0 0)
(-0.00016244988 0.0024755952 0 -2.2991392e-009 0 0)
(-0.00016244905 0.0024755943 0 -6.464609e-009 0 0)
(-0.00016243035 0.0024755955 0 -1.9966752e-008 0 0)
(-0.00016241604 0.0024755852 0 -2.324499e-008 0 0)
(-0.014815264 0.0019210387 0 0.0097562428 0 0)
(-0.0085564246 0.0035894553 0 0.0062067098 0 0)
(-0.0040691742 0.005331306 0 0.0026278392 0 0)
(-0.0020828167 0.0066010371 0 0.00083363772 0 0)
(-0.0017060858 0.0070059874 0 0.00033978196 0 0)
(-0.0014271626 0.0072111093 0 3.8813217e-005 0 0)
(-0.001366961 0.0072367846 0 -2.7503284e-005 0 0)
(-0.0013617189 0.0072295661 0 -2.7878663e-005 0 0)
(-0.0013772836 0.0072175455 0 -9.0700825e-006 0 0)
(-0.0013835138 0.0072130886 0 -1.2457748e-006 0 0)
(-0.0013849099 0.0072123579 0 2.3772745e-007 0 0)
(-0.0013848202 0.0072123639 0 1.7052056e-007 0 0)
(-0.0013846411 0.0072124018 0 -4.723325e-009 0 0)
(-0.0013846163 0.0072123979 0 -2.3147573e-008 0 0)
(-0.0013846319 0.0072123917 0 -5.5522539e-009 0 0)
(-0.001384638 0.0072123885 0 1.9777484e-009 0 0)
(-0.0013846389 0.0072123899 0 2.4014692e-009 0 0)
(-0.0013846365 0.0072123907 0 1.0991559e-009 0 0)
(-0.0013846353 0.0072123893 0 3.5850353e-012 0 0)
(-0.0013846368 0.0072123914 0 2.2507393e-010 0 0)
(-0.0013846363 0.0072123901 0 2.1380433e-010 0 0)
(-0.0013846336 0.0072123897 0 -2.0057879e-009 0 0)
(-0.0013846326 0.0072123879 0 -5.1693049e-009 0 0)
(-0.0013846165 0.0072123892 0 -1.5175059e-008 0 0)
(-0.0013845955 0.0072123562 0 -1.6849141e-008 0 0)
(-0.013659338 0.0031657165 0 0.0090162854 0 0)
(-0.0075274891 0.0060850014 0 0.005156771 0 0)
(-0.0048807049 0.0086793629 0 0.0022227251 0 0)
(-0.0037370324 0.010435993 0 0.00073136396 0 0)
(-0.0035939309 0.011176121 0 0.00019179839 0 0)
(-0.0035096744 0.011401305 0 1.8361702e-005 0 0)
(-0.0034860655 0.011429494 0 -1.9396755e-005 0 0)
(-0.0034800631 0.011419913 0 -1.7816038e-005 0 0)
(-0.0034842076 0.011404386 0 -6.0062492e-006 0 0)
(-0.0034862172 0.011398428 0 -7.8302119e-007 0 0)
(-0.00348677 0.011397398 0 1.6407654e-007 0 0)
(-0.003486645 0.011397403 0 9.2913532e-008 0 0)
(-0.003486549 0.011397447 0 -4.2088635e-009 0 0)
(-0.0034865319 0.011397447 0 -1.3497711e-008 0 0)
(-0.0034865365 0.011397437 0 -3.1097581e-009 0 0)
(-0.0034865398 0.011397436 0 8.8464912e-010 0 0)
(-0.003486538 0.011397435 0 1.239976e-009 0 0)
(-0.0034865382 0.011397436 0 9.0955331e-010 0 0)
(-0.0034865406 0.011397437 0 1.1270384e-009 0 0)
(-0.0034865395 0.011397438 0 -4.043669e-010 0 0)
(-0.0034865367 0.011397438 0 -7.4429321e-010 0 0)
(-0.003486536 0.011397435 0 -8.2543182e-010 0 0)
(-0.0034865342 0.011397429 0 -2.5787673e-009 0 0)
(-0.0034865268 0.011397431 0 -6.1084927e-009 0 0)
(-0.0034864989 0.011397386 0 -5.8470132e-009 0 0)
(-0.011964688 0.0043087758 0 0.0078267256 0 0)
(-0.0064852142 0.0092391527 0 0.0034774446 0 0)
(-0.00578985 0.011603821 0 0.0017086061 0 0)
(-0.0056783364 0.013895844 0 0.00043788223 0 0)
(-0.005983078 0.01471794 0 7.2564713e-005 0 0)
(-0.0060459892 0.014915942 0 3.4469973e-006 0 0)
(-0.0060523282 0.014935728 0 -8.5631751e-006 0 0)
(-0.0060453241 0.01492579 0 -6.4219907e-006 0 0)
(-0.0060392517 0.01491119 0 -2.3926812e-006 0 0)
(-0.0060372313 0.014905448 0 -2.977082e-007 0 0)
(-0.0060369372 0.014904399 0 4.047633e-008 0 0)
(-0.0060368474 0.014904378 0 2.7999334e-008 0 0)
(-0.006036827 0.014904422 0 2.9269877e-010 0 0)
(-0.0060368169 0.014904428 0 -2.4811629e-009 0 0)
(-0.0060368123 0.01490442 0 -7.3755368e-010 0 0)
(-0.0060368105 0.014904418 0 -4.6966744e-010 0 0)
(-0.0060368108 0.014904418 0 -2.769635e-010 0 0)
(-0.0060368122 0.014904419 0 7.4814867e-010 0 0)
(-0.0060368128 0.01490442 0 9.2604225e-010 0 0)
(-0.0060368086 0.014904419 0 -2.734007e-010 0 0)
(-0.0060368082 0.014904417 0 -9.000886e-010 0 0)
(-0.0060368114 0.014904418 0 4.760462e-010 0 0)
(-0.0060368066 0.014904415 0 -8.9804182e-010 0 0)
(-0.0060368106 0.014904408 0 4.1022811e-009 0 0)
(-0.006036788 0.014904378 0 5.0285011e-009 0 0)
(-0.0091948139 0.006109184 0 0.0056940215 0 0)
(-0.0065145431 0.011483651 0 0.0023857001 0 0)
(-0.0069757596 0.014876631 0 0.00078709055 0 0)
(-0.0080073428 0.017054227 0 0.00012916134 0 0)
(-0.0086388063 0.017709972 0 -4.2826246e-006 0 0)
(-0.0087822534 0.017852446 0 -1.804658e-006 0 0)
(-0.0088048856 0.017859353 0 3.0222375e-006 0 0)
(-0.0087964503 0.017850663 0 3.5860161e-006 0 0)
(-0.0087831223 0.017839759 0 6.2555145e-007 0 0)
(-0.0087782464 0.017835384 0 7.9194981e-009 0 0)
(-0.0087773982 0.0178345 0 -8.4626098e-008 0 0)
(-0.0087773708 0.017834452 0 -2.3416288e-008 0 0)
(-0.0087774157 0.017834487 0 6.0233369e-009 0 0)
(-0.0087774144 0.017834498 0 6.6265437e-009 0 0)
(-0.0087774031 0.017834495 0 9.1218164e-010 0 0)
(-0.0087773989 0.017834494 0 -1.4475624e-009 0 0)
(-0.0087773971 0.017834493 0 -1.293752e-009 0 0)
(-0.0087773995 0.017834494 0 2.4787978e-010 0 0)
(-0.0087773982 0.017834494 0 5.8625646e-010 0 0)
(-0.0087773983 0.017834495 0 -4.3807589e-010 0 0)
(-0.0087773997 0.017834494 0 -3.9366554e-010 0 0)
(-0.0087774023 0.017834493 0 1.9761844e-009 0 0)
(-0.008777396 0.017834488 0 2.5450353e-009 0 0)
(-0.0087774062 0.017834484 0 9.6974666e-009 0 0)
(-0.0087773997 0.017834469 0 1.1168614e-008 0 0)
(-0.0066457529 0.0088496306 0 0.0030371942 0 0)
(-0.0063315559 0.014566558 0 0.00069248478 0 0)
(-0.0090332876 0.018205288 0 -3.5254145e-005 0 0)
(-0.010870015 0.019993945 0 -7.9502191e-005 0 0)
(-0.011574143 0.020386332 0 -3.7206055e-005 0 0)
(-0.011721393 0.02045573 0 4.9912984e-006 0 0)
(-0.011745633 0.020452954 0 1.4351332e-005 0 0)
(-0.011734198 0.020448109 0 1.043868e-005 0 0)
(-0.01171783 0.020442434 0 2.4789728e-006 0 0)
(-0.011711823 0.020440006 0 8.5674921e-008 0 0)
(-0.011710838 0.020439366 0 -1.8885778e-007 0 0)
(-0.011710894 0.020439295 0 -5.009933e-008 0 0)
(-0.011710983 0.020439319 0 1.1767017e-008 0 0)
(-0.01171099 0.020439337 0 1.1446873e-008 0 0)
(-0.011710978 0.02043934 0 1.5979307e-009 0 0)
(-0.011710973 0.02043934 0 -1.8299513e-009 0 0)
(-0.011710972 0.020439339 0 -1.6881929e-009 0 0)
(-0.011710973 0.020439338 0 -3.0159764e-010 0 0)
(-0.011710973 0.020439339 0 -1.0864465e-011 0 0)
(-0.011710974 0.020439339 0 -5.1324468e-012 0 0)
(-0.011710973 0.020439338 0 5.3287545e-010 0 0)
(-0.011710976 0.020439337 0 2.4501321e-009 0 0)
(-0.011710973 0.020439334 0 4.3259835e-009 0 0)
(-0.011710986 0.020439331 0 1.1827816e-008 0 0)
(-0.011710999 0.020439331 0 1.2800489e-008 0 0)
(-0.0054774575 0.011094274 0 0.00082498923 0 0)
(-0.0078570829 0.018881019 0 -0.0010274822 0 0)
(-0.012650227 0.021818969 0 -0.00054089028 0 0)
(-0.014348089 0.022858725 0 -0.00017901625 0 0)
(-0.014947025 0.022985242 0 -3.0726817e-005 0 0)
(-0.015045053 0.022997017 0 1.9383321e-005 0 0)
(-0.015064306 0.022994096 0 2.308543e-005 0 0)
(-0.015049627 0.022996605 0 1.2758028e-005 0 0)
(-0.015035024 0.022995975 0 2.9237194e-006 0 0)
(-0.015029571 0.022995325 0 -2.5768355e-008 0 0)
(-0.015028814 0.022994891 0 -2.5335527e-007 0 0)
(-0.015028957 0.022994803 0 -5.4479215e-008 0 0)
(-0.015029066 0.022994819 0 1.6008975e-008 0 0)
(-0.01502908 0.022994846 0 1.1762767e-008 0 0)
(-0.015029069 0.022994851 0 8.1367337e-010 0 0)
(-0.015029065 0.02299485 0 -1.8625238e-009 0 0)
(-0.015029064 0.022994849 0 -1.4933298e-009 0 0)
(-0.015029065 0.022994849 0 -8.3329109e-010 0 0)
(-0.015029066 0.022994849 0 -8.3136971e-011 0 0)
(-0.015029065 0.022994848 0 3.0922927e-010 0 0)
(-0.015029066 0.022994848 0 6.2821767e-010 0 0)
(-0.015029068 0.022994848 0 1.8936836e-009 0 0)
(-0.01502907 0.022994848 0 4.8161971e-009 0 0)
(-0.015029082 0.022994845 0 1.1354646e-008 0 0)
(-0.015029108 0.022994857 0 1.0404928e-008 0 0)
(-0.0052775004 0.015505125 0 -0.0023549831 0 0)
(-0.011699516 0.023717403 0 -0.0023740507 0 0)
(-0.017547489 0.025394921 0 -0.00066892165 0 0)
(-0.01852228 0.025745452 0 -0.00017104704 0 0)
(-0.018954926 0.025701114 0 -5.6150278e-007 0 0)
(-0.018993849 0.025693635 0 3.243496e-005 0 0)
(-0.019013812 0.025702729 0 2.5965394e-005 0 0)
(-0.019001118 0.025714821 0 1.0815366e-005 0 0)
(-0.018992454 0.025717611 0 2.538095e-006 0 0)
(-0.018988296 0.02571807 0 -1.7121226e-007 0 0)
(-0.018987848 0.025717724 0 -2.6011714e-007 0 0)
(-0.018988021 0.025717624 0 -4.8827203e-008 0 0)
(-0.018988143 0.025717641 0 1.5479884e-008 0 0)
(-0.018988158 0.025717668 0 8.7044457e-009 0 0)
(-0.018988151 0.025717673 0 -2.8027426e-010 0 0)
(-0.018988148 0.025717672 0 -1.5900642e-009 0 0)
(-0.018988147 0.025717671 0 -1.1516492e-009 0 0)
(-0.018988147 0.02571767 0 -8.8065798e-010 0 0)
(-0.018988148 0.02571767 0 -1.1817067e-010 0 0)
(-0.018988148 0.02571767 0 3.4121451e-010 0 0)
(-0.018988149 0.02571767 0 3.389803e-010 0 0)
(-0.018988151 0.02571767 0 1.1353822e-009 0 0)
(-0.018988155 0.025717672 0 4.3171624e-009 0 0)
(-0.018988165 0.025717672 0 8.7796624e-009 0 0)
(-0.018988192 0.025717687 0 6.3109804e-009 0 0)
(-0.010067767 0.024093272 0 -0.0056475155 0 0)
(-0.018627742 0.029100281 0 -0.0032364735 0 0)
(-0.023406707 0.028920218 0 -0.00055057302 0 0)
(-0.023367281 0.028698193 0 -0.00013344459 0 0)
(-0.023626489 0.028593062 0 3.6545143e-005 0 0)
(-0.023649681 0.028613988 0 3.448149e-005 0 0)
(-0.023689442 0.028642753 0 2.2918689e-005 0 0)
(-0.023685621 0.028661852 0 7.1662447e-006 0 0)
(-0.023683473 0.028666563 0 1.3433057e-006 0 0)
(-0.023681103 0.028667093 0 -3.1825573e-007 0 0)
(-0.023680884 0.02866667 0 -2.0137583e-007 0 0)
(-0.023681004 0.028666559 0 -3.6124481e-008 0 0)
(-0.023681119 0.028666574 0 1.2161745e-008 0 0)
(-0.02368113 0.028666597 0 4.0699681e-009 0 0)
(-0.023681127 0.0286666 0 -8.5642595e-010 0 0)
(-0.023681124 0.028666598 0 -1.1962761e-009 0 0)
(-0.023681123 0.028666597 0 -6.9180456e-010 0 0)
(-0.023681122 0.028666597 0 -6.7715267e-010 0 0)
(-0.023681122 0.028666596 0 -1.5051371e-010 0 0)
(-0.023681123 0.028666596 0 2.5416096e-010 0 0)
(-0.023681123 0.028666596 0 1.1634849e-010 0 0)
(-0.023681125 0.028666596 0 3.552385e-010 0 0)
(-0.023681128 0.028666598 0 2.6106008e-009 0 0)
(-0.023681136 0.028666603 0 3.7925255e-009 0 0)
(-0.023681157 0.02866662 0 1.5454303e-009 0 0)
(-0.03146177 0.040612067 0 -0.009929385 0 0)
(-0.028199755 0.033487853 0 -0.0020197425 0 0)
(-0.033858001 0.03419017 0 -0.00026197698 0 0)
(-0.031823392 0.033103984 0 -3.0417855e-005 0 0)
(-0.032598049 0.033357536 0 3.5339772e-005 0 0)
(-0.032512342 0.033357224 0 1.9536723e-005 0 0)
(-0.032644405 0.033432851 0 9.5281245e-006 0 0)
(-0.032640771 0.03344444 0 2.1407147e-006 0 0)
(-0.032650574 0.033451506 0 3.4834482e-007 0 0)
(-0.032647125 0.033450443 0 -2.4317054e-007 0 0)
(-0.032647318 0.033450122 0 -9.574495e-008 0 0)
(-0.032647127 0.033449907 0 -1.6884713e-008 0 0)
(-0.032647251 0.033449945 0 3.793798e-009 0 0)
(-0.032647244 0.033449949 0 4.607935e-010 0 0)
(-0.032647245 0.033449951 0 -6.2298788e-010 0 0)
(-0.03264724 0.033449948 0 -4.6864353e-010 0 0)
(-0.032647239 0.033449947 0 -2.3657034e-010 0 0)
(-0.032647238 0.033449946 0 -3.2655246e-010 0 0)
(-0.032647237 0.033449945 0 -4.2949822e-011 0 0)
(-0.032647238 0.033449945 0 1.4564243e-010 0 0)
(-0.032647239 0.033449946 0 -4.8129236e-011 0 0)
(-0.032647239 0.033449946 0 -1.0265172e-010 0 0)
(-0.032647237 0.033449946 0 1.4080521e-009 0 0)
(-0.03264723 0.033449948 0 -1.3121405e-010 0 0)
(-0.032647227 0.033449961 0 -1.590829e-009 0 0)
(-0.00028545465 0.00038480067 0 0.00027227446 0 0)
(-0.00035178709 1.4909316e-005 0 0.00036738045 0 0)
(-0.00032568762 -0.00010796941 0 0.0003183014 0 0)
(-0.00025255968 -0.00013339566 0 0.00024613214 0 0)
(-0.00018516728 -0.00011845069 0 0.00018628238 0 0)
(-0.00014125918 -9.3232864e-005 0 0.00013836265 0 0)
(-0.00010658495 -6.8310177e-005 0 0.00010604285 0 0)
(-8.5021307e-005 -4.0488143e-005 0 8.3986985e-005 0 0)
(-7.2903851e-005 -1.4265403e-005 0 7.2301461e-005 0 0)
(-6.8827957e-005 1.4588698e-005 0 6.8156956e-005 0 0)
(-7.3236788e-005 4.916005e-005 0 7.2555107e-005 0 0)
(-8.3739616e-005 8.5064558e-005 0 8.2682097e-005 0 0)
(-0.00010637963 0.0001395789 0 0.00010500102 0 0)
(-0.00013843171 0.00020872393 0 0.00013604708 0 0)
(-0.00018390141 0.00030205875 0 0.00017863412 0 0)
(-0.00024978147 0.00044731022 0 0.00024213848 0 0)
(-0.00033205125 0.00064930175 0 0.00031620835 0 0)
(-0.00043783986 0.00093262667 0 0.00040403199 0 0)
(-0.00055767696 0.0014583443 0 0.00050632321 0 0)
(-0.00069907001 0.0021122759 0 0.00053929477 0 0)
(-0.00066697614 0.0035132398 0 0.00043956223 0 0)
(-0.00069168218 0.0048929803 0 -0.00015375966 0 0)
(0.00099950213 0.007092521 0 -0.0016570186 0 0)
(0.0016792455 0.0074869574 0 -0.0040014774 0 0)
(0.0098547048 0.0059894312 0 -0.012389472 0 0)
(-0.00032767866 0.00049953618 0 0.00030719913 0 0)
(-0.00039193531 -5.3588327e-008 0 0.00041373959 0 0)
(-0.00035024115 -0.00017152835 0 0.00033948161 0 0)
(-0.00025256399 -0.00019480057 0 0.00024322515 0 0)
(-0.00017051407 -0.00016962705 0 0.00017234224 0 0)
(-0.0001204261 -0.00013187019 0 0.00011751636 0 0)
(-8.426182e-005 -9.6547365e-005 0 8.3983495e-005 0 0)
(-6.1773902e-005 -6.0223972e-005 0 6.1363732e-005 0 0)
(-4.9441523e-005 -2.7495627e-005 0 4.9253562e-005 0 0)
(-4.3768751e-005 7.7272669e-006 0 4.3446363e-005 0 0)
(-4.3276622e-005 4.4882264e-005 0 4.3389438e-005 0 0)
(-4.739887e-005 8.6413624e-005 0 4.6907395e-005 0 0)
(-5.7505715e-005 0.00014612539 0 5.6815808e-005 0 0)
(-7.2565514e-005 0.00022605047 0 7.1769837e-005 0 0)
(-9.1122235e-005 0.00032349277 0 8.7463561e-005 0 0)
(-0.00011582082 0.00047346185 0 0.00010955137 0 0)
(-0.00013835654 0.00068592163 0 0.00012696885 0 0)
(-0.00015924389 0.0009627326 0 0.00012964177 0 0)
(-0.00012776652 0.0014452726 0 8.1532938e-005 0 0)
(-5.3295522e-005 0.0020378539 0 -8.0831108e-005 0 0)
(0.00033942277 0.0030676897 0 -0.00055988548 0 0)
(0.00091152414 0.0038572168 0 -0.0015844656 0 0)
(0.0029051808 0.0044647644 0 -0.0035986316 0 0)
(0.0050983704 0.0018813994 0 -0.0071743308 0 0)
(0.0063673346 -0.0022038555 0 -0.0094824144 0 0)
(-0.000407651 0.00061675861 0 0.00038160965 0 0)
(-0.00045855418 -4.7593481e-005 0 0.00048316513 0 0)
(-0.00038192879 -0.00027351292 0 0.00036689253 0 0)
(-0.00024419603 -0.00028790926 0 0.00023248576 0 0)
(-0.00014481311 -0.00024337957 0 0.0001459447 0 0)
(-8.9742907e-005 -0.00018687798 0 8.6638052e-005 0 0)
(-5.4639839e-005 -0.00013923689 0 5.3893311e-005 0 0)
(-3.3395078e-005 -9.4103361e-005 0 3.3117911e-005 0 0)
(-2.1677006e-005 -5.3909415e-005 0 2.1315144e-005 0 0)
(-1.4957347e-005 -1.7511729e-005 0 1.4764047e-005 0 0)
(-1.0593212e-005 2.3684724e-005 0 1.0892995e-005 0 0)
(-8.1019206e-006 7.0032865e-005 0 7.9963666e-006 0 0)
(-6.3544436e-006 0.00012728066 0 5.4729361e-006 0 0)
(-2.6691324e-006 0.00021004365 0 1.9157692e-006 0 0)
(4.298291e-006 0.00031017251 0 -6.4908299e-006 0 0)
(1.7055008e-005 0.00044799166 0 -2.3061716e-005 0 0)
(5.0096921e-005 0.00065644344 0 -5.9548089e-005 0 0)
(0.00010003156 0.00090735243 0 -0.00012534057 0 0)
(0.00023082666 0.0013224483 0 -0.00026975563 0 0)
(0.00044073841 0.0018143624 0 -0.00054255598 0 0)
(0.00097733781 0.0025565605 0 -0.001140874 0 0)
(0.0017852136 0.003023255 0 -0.0021842453 0 0)
(0.0033193502 0.0029741725 0 -0.0036836342 0 0)
(0.0046810912 0.00065527405 0 -0.0054175242 0 0)
(0.0036669883 -0.0039769125 0 -0.004149539 0 0)
(-0.00057180509 0.00074290318 0 0.00053567882 0 0)
(-0.00055986904 -0.00014117795 0 0.00059033563 0 0)
(-0.00041477072 -0.00041365735 0 0.00039051674 0 0)