/*--------------------------------*- C++ -*----------------------------------*\
| =========                 |                                                 |
| \\      /  F ield         | OpenFOAM: The Open Source CFD Toolbox           |
|  \\    /   O peration     | Version:  5.x                                   |
|   \\  /    A nd           | Web:      www.OpenFOAM.org                      |
|    \\/     M anipulation  |                                                 |
\*---------------------------------------------------------------------------*/
/*   Windows 32 and 64 bit porting by blueCAPE: http://www.bluecape.com.pt   *\
|  Based on Windows porting (2.0.x v4) by Symscape: http://www.symscape.com   |
\*---------------------------------------------------------------------------*/
FoamFile
{
    version     2.0;
    format      ascii;
    class       volVectorField;
    location    "0.12";
    object      U;
}
// * * * * * * * * * * * * * * * * * * * * * * * * * * * * * * * * * * * * * //

dimensions      [0 1 -1 0 0 0 0];

internalField   nonuniform List<vector> 
750
(
(0.039153947 -0.00010213146 0)
(0.040022157 -0.00012579472 0)
(0.041130097 -0.00012094023 0)
(0.041982755 -0.00010031065 0)
(0.042725509 -8.3351223e-005 0)
(0.043319511 -6.7577758e-005 0)
(0.043804696 -5.5728772e-005 0)
(0.044209982 -4.728723e-005 0)
(0.044559677 -4.2553121e-005 0)
(0.044889445 -4.1716471e-005 0)
(0.045225084 -4.5171694e-005 0)
(0.045609836 -5.4114988e-005 0)
(0.04608868 -6.96276e-005 0)
(0.04671949 -9.4141732e-005 0)
(0.047589882 -0.00013175965 0)
(0.048820766 -0.00018789043 0)
(0.050580733 -0.00027272714 0)
(0.053169317 -0.00040159423 0)
(0.056973904 -0.0006026577 0)
(0.062745196 -0.00094492709 0)
(0.072090637 -0.0014910954 0)
(0.086256087 -0.0024071591 0)
(0.11078626 -0.0035102737 0)
(0.14102211 -0.0045762441 0)
(0.18470721 -0.0050430686 0)
(0.03915592 -0.00030531592 0)
(0.040025634 -0.00038071754 0)
(0.041135798 -0.00036106961 0)
(0.041990447 -0.0003018769 0)
(0.042732768 -0.00024967696 0)
(0.043326022 -0.00020255577 0)
(0.043809616 -0.00016681864 0)
(0.044213171 -0.00014151639 0)
(0.044560969 -0.0001272448 0)
(0.044888648 -0.00012473029 0)
(0.045221753 -0.00013497926 0)
(0.045603536 -0.00016165128 0)
(0.046078455 -0.00020801241 0)
(0.046703694 -0.00028116302 0)
(0.047566275 -0.00039331697 0)
(0.048784932 -0.00056077276 0)
(0.050526457 -0.00081348694 0)
(0.053085645 -0.0011971212 0)
(0.056841574 -0.0017962428 0)
(0.062539047 -0.0028138683 0)
(0.071754321 -0.0044457595 0)
(0.085687101 -0.007127952 0)
(0.10973501 -0.010444488 0)
(0.13909514 -0.013507849 0)
(0.18223368 -0.015085491 0)
(0.039159125 -0.00050839014 0)
(0.040032695 -0.0006382345 0)
(0.04114791 -0.00060070216 0)
(0.042006009 -0.00050414624 0)
(0.042747649 -0.00041566179 0)
(0.043339262 -0.00033716577 0)
(0.043819806 -0.00027731473 0)
(0.044219875 -0.00023512017 0)
(0.044563908 -0.00021122757 0)
(0.044887388 -0.00020694979 0)
(0.045215547 -0.00022380459 0)
(0.045591321 -0.0002679921 0)
(0.046058419 -0.00034476984 0)
(0.046672568 -0.00046582258 0)
(0.047519291 -0.00065136612 0)
(0.04871393 -0.00092830892 0)
(0.050418165 -0.0013457577 0)
(0.052918319 -0.0019790537 0)
(0.056578911 -0.0029690164 0)
(0.062123845 -0.004645007 0)
(0.071076916 -0.0073402861 0)
(0.084517495 -0.011707327 0)
(0.1076788 -0.017179853 0)
(0.13541535 -0.022150434 0)
(0.17737082 -0.024947868 0)
(0.039163564 -0.00071293145 0)
(0.040043793 -0.00089738915 0)
(0.041166758 -0.00084169869 0)
(0.042029648 -0.00070679521 0)
(0.042770252 -0.00058129284 0)
(0.043359252 -0.00047103016 0)
(0.04383526 -0.00038680147 0)
(0.044230057 -0.00032758524 0)
(0.044568442 -0.00029396767 0)
(0.044885626 -0.00028774196 0)
(0.045206534 -0.00031091329 0)
(0.045573282 -0.0003721798 0)
(0.046028725 -0.00047857055 0)
(0.046626491 -0.00064624501 0)
(0.047449407 -0.00090318762 0)
(0.048608805 -0.0012862956 0)
(0.050257705 -0.0018629852 0)
(0.052670559 -0.002737064 0)
(0.056192045 -0.0041022786 0)
(0.061502742 -0.0064097515 0)
(0.070058677 -0.010119978 0)
(0.082801911 -0.01608675 0)
(0.10469068 -0.023531369 0)
(0.13015183 -0.030314485 0)
(0.17020873 -0.034408927 0)
(0.039169876 -0.00091986405 0)
(0.040059376 -0.0011585352 0)
(0.041192587 -0.0010846837 0)
(0.04206152 -0.00090983797 0)
(0.042800551 -0.0007464356 0)
(0.043385889 -0.00060380768 0)
(0.043855779 -0.00049486731 0)
(0.044243495 -0.00041844566 0)
(0.044574346 -0.00037497339 0)
(0.04488316 -0.00036656023 0)
(0.045194536 -0.00039569279 0)
(0.045549392 -0.00047334354 0)
(0.045989468 -0.00060828376 0)
(0.046565801 -0.00082085034 0)
(0.047357355 -0.0011464781 0)
(0.048470802 -0.0016312209 0)
(0.050047581 -0.0023595602 0)
(0.052346664 -0.0034623086 0)
(0.055687411 -0.0051816681 0)
(0.060686264 -0.0080845677 0)
(0.068739437 -0.012736405 0)
(0.080499375 -0.02017088 0)
(0.10080122 -0.029397091 0)
(0.1233617 -0.037831197 0)
(0.16088074 -0.043077425 0)
(0.039178811 -0.0011299712 0)
(0.040079726 -0.0014223801 0)
(0.04122566 -0.0013300393 0)
(0.042101808 -0.0011133472 0)
(0.042838527 -0.00091089929 0)
(0.043419056 -0.00073516429 0)
(0.043881173 -0.0006010795 0)
(0.04425999 -0.00050724507 0)
(0.044581438 -0.00045374591 0)
(0.044879786 -0.0004428697 0)
(0.045179507 -0.00047748311 0)
(0.045519674 -0.00057068666 0)
(0.045940748 -0.00073285337 0)
(0.046490832 -0.00098811263 0)
(0.047243852 -0.0013789469 0)
(0.048301124 -0.0019597616 0)
(0.049790397 -0.0028303404 0)
(0.051951183 -0.0041466048 0)
(0.055073386 -0.0061929833 0)
(0.059692332 -0.00964297 0)
(0.067114089 -0.015148374 0)
(0.077636433 -0.02389948 0)
(0.096028517 -0.034639654 0)
(0.11502498 -0.044648484 0)
(0.14971113 -0.050739137 0)
(0.03919064 -0.0013441813 0)
(0.040104899 -0.0016894833 0)
(0.041266162 -0.0015782084 0)
(0.042150726 -0.0013173709 0)
(0.042884149 -0.001074425 0)
(0.043458587 -0.00086472869 0)
(0.043911169 -0.0007050004 0)
(0.044279255 -0.00059352228 0)
(0.044589446 -0.00052979255 0)
(0.044875208 -0.00051616473 0)
(0.045161325 -0.0005556391 0)
(0.045484122 -0.00066343163 0)
(0.045882644 -0.0008512762 0)
(0.046401882 -0.001146578 0)
(0.047109779 -0.0015985251 0)
(0.048101398 -0.0022688203 0)
(0.049489093 -0.0032705455 0)
(0.051490476 -0.0047821241 0)
(0.05435696 -0.0071230354 0)
(0.058537342 -0.011064493 0)
(0.065204536 -0.017298551 0)
(0.074291153 -0.02720238 0)
(0.090443015 -0.039121464 0)
(0.10506532 -0.050532745 0)
(0.13742394 -0.057556074 0)
(0.039205951 -0.0015636679 0)
(0.040134917 -0.0019601736 0)
(0.041314175 -0.0018298569 0)
(0.042208628 -0.0015218799 0)
(0.042937452 -0.001236698 0)
(0.04350435 -0.00099210333 0)
(0.04394553 -0.00080616395 0)
(0.044301008 -0.00067680117 0)
(0.044598056 -0.00060262433 0)
(0.044869265 -0.00058589127 0)
(0.045139661 -0.00062965572 0)
(0.045442855 -0.00075082841 0)
(0.04581546 -0.0009625039 0)
(0.046299542 -0.0012948183 0)
(0.046956468 -0.0018031912 0)
(0.047873114 -0.002555477 0)
(0.049147855 -0.0036760895 0)
(0.050972069 -0.0053629916 0)
(0.053550607 -0.0079609246 0)
(0.057248355 -0.012324529 0)
(0.063050957 -0.019158224 0)
(0.070504387 -0.030006236 0)
(0.084108231 -0.042739996 0)
(0.093956418 -0.055389757 0)
(0.12423017 -0.062351669 0)
(0.039226028 -0.001789657 0)
(0.040169956 -0.0022349228 0)
(0.041369725 -0.0020857087 0)
(0.04227607 -0.0017268081 0)
(0.042998709 -0.0013973782 0)
(0.043556356 -0.001116823 0)
(0.043984158 -0.00090408964 0)
(0.04432513 -0.00075660832 0)
(0.044607186 -0.00067172527 0)
(0.044861862 -0.00065158548 0)
(0.04511457 -0.00069904949 0)
(0.045396198 -0.00083214201 0)
(0.04573985 -0.0010655301 0)
(0.046184634 -0.0014317269 0)
(0.04678576 -0.0019911286 0)
(0.047619309 -0.0028173886 0)
(0.04877151 -0.0040438638 0)
(0.050402711 -0.0058818361 0)
(0.052669978 -0.0086974471 0)
(0.055842104 -0.013409057 0)
(0.06071656 -0.020681237 0)
(0.066378927 -0.032238372 0)
(0.077175855 -0.045427055 0)
(0.081968417 -0.059487218 0)
(0.10984124 -0.0655195 0)
(0.039252032 -0.0020218541 0)
(0.040211123 -0.0025165655 0)
(0.041433438 -0.0023447396 0)
(0.042354135 -0.0019324867 0)
(0.043068758 -0.001556027 0)
(0.043615065 -0.0012384318 0)
(0.044027438 -0.00099831782 0)
(0.044351943 -0.0008324962 0)
(0.044617253 -0.00073671657 0)
(0.044853723 -0.00071278056 0)
(0.045086834 -0.0007632153 0)
(0.045344615 -0.00090688101 0)
(0.0456569 -0.0011597619 0)
(0.046058751 -0.0015563383 0)
(0.046599917 -0.0021612538 0)
(0.047344661 -0.0030529021 0)
(0.048363091 -0.0043706209 0)
(0.049788468 -0.0063365304 0)
(0.051736275 -0.0093283903 0)
(0.054342443 -0.014303441 0)
(0.058260942 -0.02189556 0)
(0.062126913 -0.033852606 0)
(0.069733996 -0.04722023 0)
(0.068845821 -0.062299801 0)
(0.090449085 -0.065827752 0)
(0.21918419 -0.0027050027 0)
(0.22872715 -0.0007949719 0)
(0.23066052 -5.3910769e-006 0)
(0.22969108 5.5037242e-005 0)
(0.22994519 -4.0528995e-005 0)
(0.23009167 -2.6114161e-005 0)
(0.23022385 -6.5607189e-006 0)
(0.2301876 3.737936e-006 0)
(0.23015657 3.5359987e-006 0)
(0.23013754 1.31832e-006 0)
(0.23013638 -1.3178809e-008 0)
(0.23013837 -1.9418682e-007 0)
(0.23013923 -6.0759898e-008 0)
(0.23013925 1.5297805e-009 0)
(0.23013918 5.7147996e-009 0)
(0.23013917 -7.2160524e-011 0)
(0.23013918 -1.2764661e-009 0)
(0.23013919 -7.0682254e-010 0)
(0.23013919 -2.2249345e-011 0)
(0.23013919 3.6177685e-011 0)
(0.23013919 2.1156701e-010 0)
(0.23013918 1.0863697e-009 0)
(0.23013917 2.4063187e-010 0)
(0.23013918 -1.113009e-008 0)
(0.23013933 -1.1400107e-008 0)
(0.21566478 -0.0078100544 0)
(0.22406774 -0.0023585526 0)
(0.22664083 -0.00010880492 0)
(0.22578996 8.2986927e-005 0)
(0.22589319 -4.6053388e-005 0)
(0.22596394 -5.7956936e-005 0)
(0.22605141 -1.4435769e-005 0)
(0.2260145 1.1062362e-005 0)
(0.22598744 9.6916954e-006 0)
(0.2259734 3.4377844e-006 0)
(0.22597321 -1.3694487e-007 0)
(0.22597495 -5.3081128e-007 0)
(0.2259756 -1.5794329e-007 0)
(0.22597559 8.6026473e-009 0)
(0.22597553 1.5548701e-008 0)
(0.22597552 -2.3007362e-010 0)
(0.22597553 -3.7636912e-009 0)
(0.22597554 -1.6496633e-009 0)
(0.22597554 -9.3289198e-011 0)
(0.22597554 1.0609974e-010 0)
(0.22597554 4.8604091e-010 0)
(0.22597554 2.4287616e-009 0)
(0.22597553 5.5881552e-010 0)
(0.22597553 -2.6999287e-008 0)
(0.22597563 -2.8275278e-008 0)
(0.20860707 -0.012460189 0)
(0.21504396 -0.0038510431 0)
(0.21832171 -0.00030195653 0)
(0.21750793 0.00012176847 0)
(0.21748949 -2.8245124e-005 0)
(0.21748023 -7.1945686e-005 0)
(0.21749451 -1.4123118e-005 0)
(0.21745408 1.822539e-005 0)
(0.21743536 1.436862e-005 0)
(0.2174293 4.6343022e-006 0)
(0.21743062 -3.6692477e-007 0)
(0.21743182 -7.8928695e-007 0)
(0.21743211 -2.1623248e-007 0)
(0.21743207 1.8227955e-008 0)
(0.21743203 2.2360374e-008 0)
(0.21743203 -8.0583909e-010 0)
(0.21743204 -5.6023025e-009 0)
(0.21743204 -2.4891443e-009 0)
(0.21743204 4.3018896e-011 0)
(0.21743204 6.5990464e-011 0)
(0.21743204 4.1886747e-010 0)
(0.21743204 3.2475757e-009 0)
(0.21743204 1.5788754e-009 0)
(0.21743203 -3.3310922e-008 0)
(0.21743203 -3.5850802e-008 0)
(0.19794883 -0.016350463 0)
(0.20219583 -0.0053168033 0)
(0.20494048 -0.00043859211 0)
(0.20432032 0.00017886522 0)
(0.20438125 -9.418051e-006 0)
(0.20426758 -6.7443353e-005 0)
(0.20421507 -4.1433337e-006 0)
(0.20417786 2.4305952e-005 0)
(0.20417113 1.6469818e-005 0)
(0.20417307 4.5043804e-006 0)
(0.20417541 -7.0813581e-007 0)
(0.20417583 -9.1618128e-007 0)
(0.20417576 -2.1930517e-007 0)
(0.20417569 2.8094685e-008 0)
(0.20417569 2.4286795e-008 0)
(0.20417569 -2.0387889e-009 0)
(0.20417569 -6.5344686e-009 0)
(0.20417569 -2.5994178e-009 0)
(0.20417569 2.0906708e-010 0)
(0.20417569 -9.9380539e-011 0)
(0.20417569 -4.265914e-011 0)
(0.2041757 2.819768e-009 0)
(0.2041757 3.4369397e-009 0)
(0.20417568 -2.5832644e-008 0)
(0.20417559 -3.0515146e-008 0)
(0.18409682 -0.019286386 0)
(0.18476348 -0.0062914204 0)
(0.18620808 -0.00051030555 0)
(0.186019 0.00016309306 0)
(0.18619063 1.1647572e-005 0)
(0.18599131 -4.143218e-005 0)
(0.18591233 1.1684179e-005 0)
(0.18589111 2.7739935e-005 0)
(0.18589819 1.5886792e-005 0)
(0.18590575 3.4365923e-006 0)
(0.18590808 -1.021327e-006 0)
(0.18590765 -8.8948133e-007 0)
(0.18590731 -1.7786286e-007 0)
(0.18590725 3.4946192e-008 0)
(0.18590728 2.1476474e-008 0)
(0.18590729 -3.2934126e-009 0)
(0.18590729 -6.3278149e-009 0)
(0.18590728 -2.2184927e-009 0)
(0.18590728 1.7318725e-010 0)
(0.18590728 -3.6067694e-010 0)
(0.18590728 -4.9694528e-010 0)
(0.18590728 2.18732e-009 0)
(0.18590729 5.7935457e-009 0)
(0.18590727 -7.9669923e-009 0)
(0.18590713 -1.4689624e-008 0)
(0.16746643 -0.021239643 0)
(0.16164268 -0.0063390195 0)
(0.16255535 -0.00053023091 0)
(0.16256198 8.0899077e-005 0)
(0.16276049 2.7988591e-005 0)
(0.1625403 -7.5128385e-006 0)
(0.16248538 2.4970609e-005 0)
(0.16248816 2.6836942e-005 0)
(0.16250764 1.3046127e-005 0)
(0.16251727 1.9816993e-006 0)
(0.16251859 -1.1507462e-006 0)
(0.16251747 -7.3735704e-007 0)
(0.16251703 -1.172709e-007 0)
(0.16251701 3.5069315e-008 0)
(0.16251705 1.5771894e-008 0)
(0.16251706 -3.941422e-009 0)
(0.16251706 -5.2376853e-009 0)
(0.16251705 -1.6170092e-009 0)
(0.16251705 8.4645011e-011 0)
(0.16251705 -5.1460212e-010 0)
(0.16251705 -7.8302762e-010 0)
(0.16251705 1.218159e-009 0)
(0.16251706 8.1963554e-009 0)
(0.16251704 1.1701437e-008 0)
(0.16251692 3.6729248e-009 0)
(0.14639718 -0.021249789 0)
(0.13340728 -0.0056671717 0)
(0.13433378 -0.0004868414 0)
(0.13409404 7.5038335e-006 0)
(0.13430391 4.3230512e-005 0)
(0.13412632 1.7814647e-005 0)
(0.13412857 2.9222086e-005 0)
(0.13415264 2.1397254e-005 0)
(0.13417977 8.8548922e-006 0)
(0.13418807 6.7165343e-007 0)
(0.13418798 -1.0332024e-006 0)
(0.1341865 -5.1326564e-007 0)
(0.1341861 -6.0276171e-008 0)
(0.13418612 2.7947241e-008 0)
(0.13418617 9.4294659e-009 0)
(0.13418617 -3.6013082e-009 0)
(0.13418616 -3.6606198e-009 0)
(0.13418616 -1.0268208e-009 0)
(0.13418616 -3.2104879e-011 0)
(0.13418616 -5.2202162e-010 0)
(0.13418616 -8.3927641e-010 0)
(0.13418616 3.2971313e-010 0)
(0.13418616 8.8933962e-009 0)
(0.13418616 2.4866831e-008 0)
(0.1341861 1.6834328e-008 0)
(0.11884846 -0.01846666 0)
(0.1008115 -0.0042766264 0)
(0.10181681 -0.0003683462 0)
(0.10108088 -2.355109e-005 0)
(0.10135105 5.0418631e-005 0)
(0.10124521 2.5961578e-005 0)
(0.10130482 2.3627243e-005 0)
(0.10133828 1.2972029e-005 0)
(0.10136566 4.6686846e-006 0)
(0.10137053 -1.2625555e-007 0)
(0.10136933 -7.171587e-007 0)
(0.10136787 -2.8400806e-007 0)
(0.1013676 -2.0840022e-008 0)
(0.10136765 1.6800395e-008 0)
(0.10136769 4.1038559e-009 0)
(0.10136768 -2.5119311e-009 0)
(0.10136767 -2.0148745e-009 0)
(0.10136767 -5.4378318e-010 0)
(0.10136767 -5.7024485e-011 0)
(0.10136767 -4.2461571e-010 0)
(0.10136767 -7.5375449e-010 0)
(0.10136767 -2.3812234e-010 0)
(0.10136767 7.2020913e-009 0)
(0.10136769 2.62428e-008 0)
(0.1013677 1.976286e-008 0)
(0.084507472 -0.013179909 0)
(0.064086023 -0.0024495199 0)
(0.065141681 -0.00015729982 0)
(0.064134759 -2.3711933e-005 0)
(0.064489667 4.240859e-005 0)
(0.064445363 1.7898348e-005 0)
(0.064531877 1.2762498e-005 0)
(0.064558183 4.8474476e-006 0)
(0.064578569 1.5154231e-006 0)
(0.06457968 -3.2618209e-007 0)
(0.064578155 -3.2633008e-007 0)
(0.06457706 -1.0402072e-007 0)
(0.064576944 -1.6854351e-009 0)
(0.064576982 6.1350293e-009 0)
(0.064577005 9.0344415e-010 0)
(0.064577001 -1.172711e-009 0)
(0.064576995 -7.5139506e-010 0)
(0.064576993 -2.0971701e-010 0)
(0.064576993 9.8331031e-012 0)
(0.064576992 -2.0691126e-010 0)
(0.06457699 -5.1344799e-010 0)
(0.064576988 -4.2641358e-010 0)
(0.064576989 3.5960696e-009 0)
(0.064577017 1.6005526e-008 0)
(0.064577086 1.2552298e-008 0)
(0.039122613 -0.0068426564 0)
(0.023042059 -0.00011433372 0)
(0.024588055 3.7242452e-006 0)
(0.023712804 1.5025713e-005 0)
(0.024083911 1.8582775e-006 0)
(0.024044664 2.0777768e-006 0)
(0.024111659 -5.7304982e-007 0)
(0.024116047 -2.6685105e-007 0)
(0.024124933 -2.6664628e-007 0)
(0.024123571 -8.4428434e-008 0)
(0.024122843 -2.3164857e-008 0)
(0.024122354 2.1930327e-009 0)
(0.024122353 1.1322018e-009 0)
(0.024122363 1.3737761e-010 0)
(0.024122371 -1.2631504e-010 0)
(0.024122368 -1.708911e-011 0)
(0.024122366 2.8762214e-011 0)
(0.024122365 5.5331135e-011 0)
(0.024122365 2.7042979e-011 0)
(0.024122364 -9.0628828e-011 0)
(0.024122363 -1.9793921e-010 0)
(0.024122361 -2.0093686e-010 0)
(0.02412236 6.1223268e-010 0)
(0.024122378 3.5664612e-009 0)
(0.024122434 2.8072827e-009 0)
(0.039313366 -0.0024928312 0)
(0.040311011 -0.0031067347 0)
(0.04158354 -0.0028636477 0)
(0.042536609 -0.0023458935 0)
(0.043231029 -0.0018686316 0)
(0.043749697 -0.0014746571 0)
(0.044126853 -0.0011787313 0)
(0.044414258 -0.00097585211 0)
(0.044642348 -0.00085787149 0)
(0.044839483 -0.00082574824 0)
(0.045029925 -0.00088070466 0)
(0.045235332 -0.0010425925 0)
(0.045481009 -0.0013294937 0)
(0.045790403 -0.0017795793 0)
(0.046203622 -0.0024638566 0)
(0.04676081 -0.0034676723 0)
(0.047496027 -0.0049354721 0)
(0.048493203 -0.0071110982 0)
(0.049790534 -0.010366909 0)
(0.051274914 -0.015669021 0)
(0.053281813 -0.023644972 0)
(0.054005809 -0.035666551 0)
(0.055140844 -0.04837801 0)
(0.042763519 -0.061828045 0)
(0.036037326 -0.049783695 0)
(0.039425388 -0.0032680406 0)
(0.040570834 -0.0041097305 0)
(0.041976043 -0.0036767913 0)
(0.042966132 -0.0029646148 0)
(0.043613451 -0.002308963 0)
(0.044062603 -0.0017871508 0)
(0.044364234 -0.0014037727 0)
(0.04457633 -0.0011446781 0)
(0.044731673 -0.00099304368 0)
(0.044857018 -0.00094507974 0)
(0.044969135 -0.00099927874 0)
(0.045080842 -0.0011745967 0)
(0.045211462 -0.0014902209 0)
(0.045363813 -0.0019839022 0)
(0.045556758 -0.0027286482 0)
(0.045806829 -0.0038161934 0)
(0.046098562 -0.0053765886 0)
(0.046428844 -0.0076485536 0)
(0.046780385 -0.010951509 0)
(0.046812593 -0.01609407 0)
(0.046463577 -0.023526866 0)
(0.044048988 -0.033506189 0)
(0.039723894 -0.042061359 0)
(0.025897681 -0.045708214 0)
(0.010856217 -0.024162473 0)
(0.03963798 -0.0042145549 0)
(0.041057605 -0.0052643505 0)
(0.042662984 -0.0045594015 0)
(0.043664452 -0.0035667616 0)
(0.044224942 -0.0026955699 0)
(0.044563693 -0.0020335613 0)
(0.044760234 -0.0015630106 0)
(0.044875748 -0.0012516072 0)
(0.044943901 -0.0010680047 0)
(0.04498654 -0.0010027205 0)
(0.045008849 -0.0010503102 0)
(0.045021227 -0.0012229856 0)
(0.045023835 -0.0015425573 0)
(0.045017765 -0.0020436888 0)
(0.044983167 -0.0027905179 0)
(0.044919816 -0.0038776699 0)
(0.044783382 -0.0054116605 0)
(0.044495871 -0.0076014854 0)
(0.043991997 -0.01070708 0)
(0.042847424 -0.015311985 0)
(0.040742389 -0.021734984 0)
(0.036273344 -0.029585027 0)
(0.029041801 -0.035506773 0)
(0.016247745 -0.035397505 0)
(0.0026986928 -0.017581024 0)
(0.040086411 -0.0055006596 0)
(0.041917769 -0.0066591391 0)
(0.04373828 -0.005510352 0)
(0.044677511 -0.0041209223 0)
(0.045079188 -0.0029899157 0)
(0.045252776 -0.0021837518 0)
(0.045308262 -0.0016362239 0)
(0.045306008 -0.0012828252 0)
(0.045275113 -0.0010744297 0)
(0.045224359 -0.00099334614 0)
(0.045155586 -0.0010279965 0)
(0.045066819 -0.0011856706 0)
(0.044941704 -0.0014844981 0)
(0.044775437 -0.0019582027 0)
(0.04452974 -0.0026569853 0)
(0.044167093 -0.0036634657 0)
(0.043637271 -0.0050723924 0)
(0.042807702 -0.0070381566 0)
(0.041575761 -0.0097607369 0)
(0.039533217 -0.01361342 0)
(0.036289485 -0.018767688 0)
(0.030791529 -0.024563502 0)
(0.022620292 -0.028138296 0)
(0.011751548 -0.025879276 0)
(0.00034976126 -0.012052002 0)
(0.040859232 -0.007404737 0)
(0.043102635 -0.0083454815 0)
(0.044946735 -0.0064679139 0)
(0.045651943 -0.0045551771 0)
(0.045785478 -0.0031350067 0)
(0.045731107 -0.0022005529 0)
(0.045608721 -0.001601584 0)
(0.045472509 -0.0012267009 0)
(0.04533481 -0.00100685 0)
(0.045189924 -0.00091378019 0)
(0.045034349 -0.00093213427 0)
(0.044845508 -0.0010637366 0)
(0.044609613 -0.0013234578 0)
(0.04429172 -0.0017330754 0)
(0.043859277 -0.002340699 0)
(0.0432417 -0.0032041296 0)
(0.042375324 -0.0044030631 0)
(0.041110514 -0.0060453579 0)
(0.039309116 -0.0082757238 0)
(0.036626527 -0.011315603 0)
(0.03265595 -0.015205516 0)
(0.026708233 -0.01923206 0)
(0.018508807 -0.021207974 0)
(0.0091512752 -0.018335759 0)
(-0.00019246871 -0.0084231693 0)
(0.041773617 -0.010146244 0)
(0.04405475 -0.010134604 0)
(0.045333899 -0.0072202418 0)
(0.045495257 -0.0047303555 0)
(0.045228178 -0.0030596541 0)
(0.044889786 -0.002047659 0)
(0.044566384 -0.0014425646 0)
(0.044293248 -0.0010768643 0)
(0.044052753 -0.0008639218 0)
(0.043825172 -0.0007677132 0)
(0.043593545 -0.00077095333 0)
(0.043326796 -0.00086701947 0)
(0.043001622 -0.0010702463 0)
(0.042570665 -0.0013935097 0)
(0.041994778 -0.0018715577 0)
(0.0411968 -0.0025485333 0)
(0.040090796 -0.0034780317 0)
(0.038536996 -0.0047325507 0)
(0.036376841 -0.0064082188 0)
(0.033337114 -0.0086247536 0)
(0.029050997 -0.011350208 0)
(0.023097154 -0.013951356 0)
(0.015363213 -0.014799931 0)
(0.0074538042 -0.01206477 0)
(-0.00023196459 -0.0053933722 0)
(0.042194994 -0.013562357 0)
(0.043605444 -0.011325489 0)
(0.043308972 -0.0073309776 0)
(0.042552026 -0.0044421498 0)
(0.041757179 -0.0026853486 0)
(0.041117528 -0.0017046576 0)
(0.040612571 -0.0011570959 0)
(0.040221822 -0.00083942858 0)
(0.039903309 -0.00065759723 0)
(0.039620888 -0.00056988905 0)
(0.039343083 -0.00055932796 0)
(0.039037944 -0.00062058426 0)
(0.038666822 -0.00075681695 0)
(0.038189522 -0.00098086684 0)
(0.037553503 -0.0013112769 0)
(0.036686768 -0.0017773471 0)
(0.035498107 -0.0024125065 0)
(0.033863908 -0.0032592721 0)
(0.031631362 -0.0043769274 0)
(0.028579369 -0.00582403 0)
(0.024428625 -0.0075346813 0)
(0.018948249 -0.0090305118 0)
(0.012161148 -0.0091873314 0)
(0.0058206035 -0.0069510317 0)
(-0.00019671628 -0.0029204341 0)
(0.040935459 -0.016647193 0)
(0.040284971 -0.010910434 0)
(0.037252822 -0.0063833941 0)
(0.035439387 -0.0035531268 0)
(0.034125674 -0.0019985868 0)
(0.033247592 -0.0011919739 0)
(0.032639513 -0.00077488985 0)
(0.032191914 -0.00054408944 0)
(0.031847591 -0.00041359882 0)
(0.031557702 -0.00034756309 0)
(0.031283468 -0.00033123684 0)
(0.030992633 -0.00035932193 0)
(0.03064599 -0.00043165709 0)
(0.030206968 -0.00055606579 0)
(0.029624731 -0.00074132266 0)
(0.028838221 -0.0010021075 0)
(0.027768314 -0.0013558766 0)
(0.026315496 -0.0018237995 0)
(0.024353654 -0.0024341612 0)
(0.021711244 -0.0032111295 0)
(0.018198832 -0.0041020379 0)
(0.013714579 -0.0048014488 0)
(0.0083876025 -0.0046337826 0)
(0.0038886833 -0.0030788292 0)
(-0.00018252179 -0.0010541306 0)
(0.035506107 -0.015824665 0)
(0.032841471 -0.007577646 0)
(0.026415555 -0.0040978459 0)
(0.024006736 -0.0020807979 0)
(0.022422928 -0.001108508 0)
(0.021502464 -0.00062682423 0)
(0.02092707 -0.00038946632 0)
(0.020528868 -0.00026535825 0)
(0.020236675 -0.00019636809 0)
(0.02000207 -0.00016023988 0)
(0.019790956 -0.00014865091 0)
(0.019574761 -0.0001573679 0)
(0.01932546 -0.00018599073 0)
(0.019013517 -0.00023786508 0)
(0.018602391 -0.0003157545 0)
(0.018048575 -0.00042589955 0)
(0.017296734 -0.00057375752 0)
(0.016279695 -0.0007665974 0)
(0.014915234 -0.0010114817 0)
(0.013095732 -0.0013176437 0)
(0.010701008 -0.0016599126 0)
(0.007711992 -0.0018922441 0)
(0.0042731656 -0.0017062874 0)
(0.0017584261 -0.00088549932 0)
(-0.00023735543 -0.00011980791 0)
(0.020944861 -0.01219363 0)
(0.01771784 -0.0024587898 0)
(0.011055984 -0.00051817401 0)
(0.0097208752 -0.00024395957 0)
(0.0085119299 -9.3069857e-005 0)
(0.0079472017 -4.0120034e-005 0)
(0.0076064587 -1.6742057e-005 0)
(0.007385168 -7.3939574e-006 0)
(0.0072293503 -2.4292459e-006 0)
(0.0071104368 9.7297631e-007 0)
(0.0070090015 3.6834959e-006 0)
(0.0069097161 6.0728606e-006 0)
(0.0067995062 8.8140235e-006 0)
(0.0066637479 1.176652e-005 0)
(0.0064863902 1.5967863e-005 0)
(0.0062485342 2.1662876e-005 0)
(0.0059272971 2.9391051e-005 0)
(0.0054960898 3.9854752e-005 0)
(0.0049254172 5.415156e-005 0)
(0.0041771152 7.2678082e-005 0)
(0.0032077548 9.9334939e-005 0)
(0.0020544249 0.00014574972 0)
(0.00075173898 0.00018022289 0)
(7.991217e-005 0.0002617381 0)
(-0.00019302724 0.00020009221 0)
)
;

boundaryField
{
    inlet
    {
        type            fixedValue;
        value           uniform (0.03876 0 0);
    }
    walls
    {
        type            fixedValue;
        value           uniform (0 0 0);
    }
    outlet
    {
        type            zeroGradient;
    }
    centreline
    {
        type            symmetryPlane;
    }
    frontAndBack
    {
        type            empty;
    }
}


// ************************************************************************* //
