/*--------------------------------*- C++ -*----------------------------------*\
| =========                 |                                                 |
| \\      /  F ield         | OpenFOAM: The Open Source CFD Toolbox           |
|  \\    /   O peration     | Version:  5.x                                   |
|   \\  /    A nd           | Web:      www.OpenFOAM.org                      |
|    \\/     M anipulation  |                                                 |
\*---------------------------------------------------------------------------*/
/*   Windows 32 and 64 bit porting by blueCAPE: http://www.bluecape.com.pt   *\
|  Based on Windows porting (2.0.x v4) by Symscape: http://www.symscape.com   |
\*---------------------------------------------------------------------------*/
FoamFile
{
    version     2.0;
    format      ascii;
    class       volVectorField;
    location    "0.12";
    object      U_0;
}
// * * * * * * * * * * * * * * * * * * * * * * * * * * * * * * * * * * * * * //

dimensions      [0 1 -1 0 0 0 0];

internalField   nonuniform List<vector> 
750
(
(0.039153494 -0.00010201703 0)
(0.040020779 -0.00012563976 0)
(0.041127154 -0.00012076296 0)
(0.041978512 -0.00010014735 0)
(0.042720021 -8.3224149e-005 0)
(0.043313178 -6.7482613e-005 0)
(0.0437977 -5.5660152e-005 0)
(0.044202549 -4.7239209e-005 0)
(0.044551918 -4.2519609e-005 0)
(0.044881475 -4.1694095e-005 0)
(0.045216968 -4.515674e-005 0)
(0.045601625 -5.4104211e-005 0)
(0.046080395 -6.9618371e-005 0)
(0.046711139 -9.4130741e-005 0)
(0.047581416 -0.00013174193 0)
(0.04881214 -0.00018786055 0)
(0.050571789 -0.00027267955 0)
(0.053159939 -0.0004015058 0)
(0.05696354 -0.00060246149 0)
(0.062732698 -0.00094451039 0)
(0.072073709 -0.0014904861 0)
(0.086233866 -0.0024067875 0)
(0.11076347 -0.0035108232 0)
(0.14100806 -0.0045781723 0)
(0.18471383 -0.0050460355 0)
(0.039155454 -0.00030497835 0)
(0.040024239 -0.0003802379 0)
(0.041132828 -0.00036054206 0)
(0.041986189 -0.00030139384 0)
(0.042727265 -0.0002492895 0)
(0.043319673 -0.00020227106 0)
(0.043802608 -0.00016661349 0)
(0.044205728 -0.00014137285 0)
(0.044553204 -0.00012714459 0)
(0.044880671 -0.00012466329 0)
(0.045213632 -0.00013493442 0)
(0.045595323 -0.00016161955 0)
(0.04607017 -0.00020798543 0)
(0.046695343 -0.00028113023 0)
(0.047557812 -0.00039326433 0)
(0.048776314 -0.00056068431 0)
(0.050517529 -0.0008133453 0)
(0.053076287 -0.0011968561 0)
(0.056831232 -0.001795658 0)
(0.062526609 -0.0028126389 0)
(0.071737555 -0.0044439394 0)
(0.085665209 -0.0071268338 0)
(0.10971304 -0.010446088 0)
(0.13908102 -0.013513275 0)
(0.18223774 -0.015093686 0)
(0.03915864 -0.0005078269 0)
(0.040031262 -0.00063742448 0)
(0.041144898 -0.00059982536 0)
(0.042001718 -0.00050334641 0)
(0.042742116 -0.0004150125 0)
(0.043332884 -0.0003366923 0)
(0.043812775 -0.00027697409 0)
(0.044212413 -0.00023488191 0)
(0.044556128 -0.00021106138 0)
(0.044879401 -0.00020683796 0)
(0.045207418 -0.00022373089 0)
(0.045583104 -0.00026794047 0)
(0.046050134 -0.00034472556 0)
(0.04666422 -0.00046576858 0)
(0.047510836 -0.00065127998 0)
(0.04870533 -0.00092816407 0)
(0.050409269 -0.0013455241 0)
(0.052909003 -0.0019786142 0)
(0.056568632 -0.0029680457 0)
(0.062111506 -0.0046429826 0)
(0.071060517 -0.0073373326 0)
(0.084496675 -0.011705562 0)
(0.10765828 -0.017182357 0)
(0.13540101 -0.022158704 0)
(0.17737082 -0.024960087 0)
(0.039163054 -0.00071213072 0)
(0.04004231 -0.00089624974 0)
(0.041163692 -0.00084047264 0)
(0.042025306 -0.00070567698 0)
(0.042764673 -0.00058038553 0)
(0.043352836 -0.00047036907 0)
(0.043828197 -0.00038632683 0)
(0.04422257 -0.00032725361 0)
(0.044560644 -0.00029373679 0)
(0.044877626 -0.00028758623 0)
(0.045198396 -0.00031081196 0)
(0.045565061 -0.00037210938 0)
(0.04602044 -0.00047850968 0)
(0.046618149 -0.00064617129 0)
(0.047440967 -0.00090307053 0)
(0.048600233 -0.001286098 0)
(0.050248859 -0.0018626632 0)
(0.052661309 -0.0027364544 0)
(0.056181872 -0.0041009359 0)
(0.061490598 -0.0064070003 0)
(0.07004302 -0.010116076 0)
(0.082782915 -0.01608457 0)
(0.1046722 -0.023534629 0)
(0.13013822 -0.030324937 0)
(0.17020489 -0.034423636 0)
(0.039169339 -0.00091881594 0)
(0.040057843 -0.001157062 0)
(0.041189456 -0.001083108 0)
(0.042057115 -0.00090840164 0)
(0.042794914 -0.00074527279 0)
(0.043379425 -0.00060296087 0)
(0.043848677 -0.00049426061 0)
(0.044235978 -0.00041802257 0)
(0.044566526 -0.00037467956 0)
(0.044875147 -0.00036636308 0)
(0.045186392 -0.00039556445 0)
(0.045541169 -0.00047325513 0)
(0.045981187 -0.00060820805 0)
(0.046557472 -0.00082075911 0)
(0.047348937 -0.0011463327 0)
(0.04846227 -0.0016309756 0)
(0.050038804 -0.002359156 0)
(0.052337511 -0.0034615394 0)
(0.055677402 -0.0051799754 0)
(0.060674469 -0.0080811751 0)
(0.068724692 -0.01273171 0)
(0.080482122 -0.02016843 0)
(0.10078538 -0.029401095 0)
(0.12334989 -0.037843063 0)
(0.16087448 -0.043093426 0)
(0.03917825 -0.0011286671 0)
(0.04007814 -0.0014205653 0)
(0.041222453 -0.0013281132 0)
(0.042097329 -0.0011115941 0)
(0.042832823 -0.00090948254 0)
(0.043412536 -0.0007341342 0)
(0.043874027 -0.00060034331 0)
(0.04425244 -0.000506733 0)
(0.044573596 -0.00045339162 0)
(0.044871762 -0.00044263286 0)
(0.045171358 -0.00047732928 0)
(0.045511454 -0.00057058189 0)
(0.045932476 -0.00073276496 0)
(0.046482523 -0.00098800668 0)
(0.047235467 -0.0013787773 0)
(0.048292645 -0.0019594749 0)
(0.04978171 -0.002829863 0)
(0.051942159 -0.0041456883 0)
(0.055063597 -0.0061909755 0)
(0.059680942 -0.0096390321 0)
(0.067100256 -0.015143107 0)
(0.077620755 -0.023896904 0)
(0.096015136 -0.034644435 0)
(0.11501522 -0.044661116 0)
(0.14970399 -0.050754835 0)
(0.039190056 -0.0013426137 0)
(0.040103266 -0.0016873177 0)
(0.041262872 -0.0015759289 0)
(0.042146162 -0.0013153032 0)
(0.042878368 -0.0010727557 0)
(0.043452004 -0.00086351841 0)
(0.043903974 -0.00070413799 0)
(0.04427167 -0.0005929243 0)
(0.044581582 -0.00052938093 0)
(0.044867176 -0.00051588947 0)
(0.045153173 -0.0005554621 0)
(0.045475908 -0.0006633131 0)
(0.045874387 -0.00085117731 0)
(0.0463936 -0.0011464602 0)
(0.047101436 -0.0015983359 0)
(0.048092984 -0.0022685001 0)
(0.049480511 -0.0032700052 0)
(0.051481605 -0.0047810794 0)
(0.054347434 -0.0071207536 0)
(0.058526413 -0.011060088 0)
(0.06519163 -0.017292849 0)
(0.07427709 -0.027199965 0)
(0.09043153 -0.039127056 0)
(0.10505755 -0.050546238 0)
(0.13741814 -0.057570704 0)
(0.039205317 -0.0015618269 0)
(0.04013326 -0.0019576525 0)
(0.041310794 -0.0018272158 0)
(0.042203962 -0.0015194972 0)
(0.042931579 -0.0012347801 0)
(0.043497692 -0.0009907167 0)
(0.043938278 -0.00080517928 0)
(0.044293383 -0.00067612097 0)
(0.044590167 -0.00060215851 0)
(0.04486122 -0.00058558155 0)
(0.04513151 -0.00062945762 0)
(0.045434649 -0.00075069775 0)
(0.04580722 -0.00096239685 0)
(0.046291289 -0.0012946925 0)
(0.046948172 -0.0018029872 0)
(0.047864773 -0.0025551313 0)
(0.049139386 -0.0036754977 0)
(0.050963366 -0.005361834 0)
(0.053541375 -0.0079584073 0)
(0.057237916 -0.012319739 0)
(0.06303892 -0.019152164 0)
(0.070491812 -0.030004043 0)
(0.08409815 -0.042746289 0)
(0.093950033 -0.055403713 0)
(0.12422751 -0.062365905 0)
(0.039225315 -0.0017875308 0)
(0.040168286 -0.0022320428 0)
(0.041366238 -0.0020826962 0)
(0.042271279 -0.0017241056 0)
(0.042992718 -0.0013952179 0)
(0.043549602 -0.0011152648 0)
(0.043976834 -0.00090298763 0)
(0.044317451 -0.00075585001 0)
(0.044599261 -0.0006712089 0)
(0.044853788 -0.0006512457 0)
(0.045106415 -0.0006988322 0)
(0.045387992 -0.00083200101 0)
(0.045731622 -0.0010654179 0)
(0.046176405 -0.0014315971 0)
(0.046777507 -0.0019909161 0)
(0.047611039 -0.0028170246 0)
(0.048763158 -0.0040432353 0)
(0.050394193 -0.0058805996 0)
(0.05266105 -0.0086947301 0)
(0.055832188 -0.013403952 0)
(0.060705464 -0.020674945 0)
(0.066367649 -0.03223642 0)
(0.077166871 -0.045434182 0)
(0.081963509 -0.059502171 0)
(0.10984219 -0.065533561 0)
(0.039251259 -0.0020194377 0)
(0.040209396 -0.0025133104 0)
(0.041429806 -0.0023413459 0)
(0.042349181 -0.0019294656 0)
(0.043062613 -0.0015536262 0)
(0.043608182 -0.001236708 0)
(0.044020013 -0.00099710405 0)
(0.044344185 -0.00083166476 0)
(0.04460927 -0.00073615358 0)
(0.044845606 -0.00071241268 0)
(0.045078651 -0.00076298305 0)
(0.045336392 -0.00090673301 0)
(0.045648665 -0.0011596477 0)
(0.046050531 -0.0015562082 0)
(0.046591691 -0.0021610388 0)
(0.047336449 -0.0030525303 0)
(0.048354852 -0.0043699684 0)
(0.049780118 -0.006335232 0)
(0.051727655 -0.0093255254 0)
(0.054333092 -0.014298114 0)
(0.058250832 -0.021889151 0)
(0.062116865 -0.033850904 0)
(0.069726392 -0.047228323 0)
(0.068842581 -0.062316311 0)
(0.090451546 -0.065841841 0)
(0.21921391 -0.0027081176 0)
(0.22877907 -0.00079810321 0)
(0.23073522 -8.3488089e-006 0)
(0.22979027 5.1925849e-005 0)
(0.23005959 -4.1949811e-005 0)
(0.23021039 -2.6316123e-005 0)
(0.23034076 -6.3242661e-006 0)
(0.23030282 3.8853009e-006 0)
(0.23027137 3.559985e-006 0)
(0.23025244 1.3064968e-006 0)
(0.23025138 -2.1293196e-008 0)
(0.23025339 -1.9466814e-007 0)
(0.23025423 -5.964304e-008 0)
(0.23025425 1.8728031e-009 0)
(0.23025418 5.6674251e-009 0)
(0.23025417 -1.3992483e-010 0)
(0.23025418 -1.2997257e-009 0)
(0.23025419 -7.074668e-010 0)
(0.23025419 -1.0272825e-011 0)
(0.23025419 3.2526985e-011 0)
(0.23025419 2.11813e-010 0)
(0.23025418 1.0934944e-009 0)
(0.23025418 2.4759564e-010 0)
(0.23025418 -1.1029126e-008 0)
(0.23025433 -1.1300444e-008 0)
(0.21568779 -0.0078182751 0)
(0.22410627 -0.0023667756 0)
(0.22669791 -0.0001175777 0)
(0.22586487 7.5722554e-005 0)
(0.2259797 -4.9548758e-005 0)
(0.22605314 -5.8413981e-005 0)
(0.22613903 -1.3789502e-005 0)
(0.22610085 1.1447919e-005 0)
(0.22607353 9.7470586e-006 0)
(0.22605959 3.3997593e-006 0)
(0.22605948 -1.5807111e-007 0)
(0.22606122 -5.3117174e-007 0)
(0.22606186 -1.5486254e-007 0)
(0.22606185 9.5216481e-009 0)
(0.22606179 1.5416188e-008 0)
(0.22606178 -3.959185e-010 0)
(0.2260618 -3.8091796e-009 0)
(0.2260618 -1.6455345e-009 0)
(0.2260618 -7.8289101e-011 0)
(0.2260618 9.8226867e-011 0)
(0.2260618 4.8105496e-010 0)
(0.2260618 2.4505619e-009 0)
(0.22606179 5.8417364e-010 0)
(0.22606179 -2.6772558e-008 0)
(0.22606189 -2.8053031e-008 0)
(0.20861895 -0.012471775 0)
(0.2150616 -0.0038626987 0)
(0.21834992 -0.00031458331 0)
(0.21754411 0.00011200976 0)
(0.2175309 -3.2932236e-005 0)
(0.21752177 -7.244497e-005 0)
(0.21753498 -1.3183853e-005 0)
(0.21749399 1.8753985e-005 0)
(0.21747524 1.4432488e-005 0)
(0.21746927 4.5745996e-006 0)
(0.21747063 -3.9573051e-007 0)
(0.21747182 -7.8855045e-007 0)
(0.21747211 -2.1169923e-007 0)
(0.21747206 1.9475054e-008 0)
(0.21747203 2.2145611e-008 0)
(0.21747202 -1.0201885e-009 0)
(0.21747203 -5.6547974e-009 0)
(0.21747204 -2.4801366e-009 0)
(0.21747204 5.970263e-011 0)
(0.21747203 6.258812e-011 0)
(0.21747204 4.1554744e-010 0)
(0.21747204 3.2727355e-009 0)
(0.21747203 1.6176065e-009 0)
(0.21747202 -3.3053618e-008 0)
(0.21747203 -3.5602368e-008 0)
(0.19794901 -0.016363106 0)
(0.20219272 -0.0053291142 0)
(0.20493836 -0.0004517389 0)
(0.20431715 0.00016819419 0)
(0.20437603 -1.4951588e-005 0)
(0.20426037 -6.7751985e-005 0)
(0.20420753 -3.0839945e-006 0)
(0.20417048 2.4843437e-005 0)
(0.20416393 1.651199e-005 0)
(0.20416592 4.434657e-006 0)
(0.20416825 -7.365958e-007 0)
(0.20416866 -9.1356346e-007 0)
(0.20416859 -2.1415992e-007 0)
(0.20416852 2.9290988e-008 0)
(0.20416851 2.3999582e-008 0)
(0.20416852 -2.2549141e-009 0)
(0.20416852 -6.5732695e-009 0)
(0.20416852 -2.5873648e-009 0)
(0.20416852 2.2159995e-010 0)
(0.20416852 -9.6707914e-011 0)
(0.20416852 -4.0218602e-011 0)
(0.20416852 2.8447966e-009 0)
(0.20416853 3.4791502e-009 0)
(0.20416851 -2.561828e-008 0)
(0.20416842 -3.031515e-008 0)
(0.1840869 -0.019297736 0)
(0.18474661 -0.0063026645 0)
(0.18618389 -0.00052210301 0)
(0.18598639 0.00015364992 0)
(0.18615097 7.1426134e-006 0)
(0.18594892 -4.140093e-005 0)
(0.18587019 1.2682979e-005 0)
(0.18584968 2.8180954e-005 0)
(0.18585702 1.5891954e-005 0)
(0.18586458 3.367708e-006 0)
(0.18586686 -1.0435538e-006 0)
(0.18586642 -8.849962e-007 0)
(0.18586609 -1.7300602e-007 0)
(0.18586603 3.5834616e-008 0)
(0.18586606 2.115217e-008 0)
(0.18586607 -3.4700456e-009 0)
(0.18586607 -6.3433466e-009 0)
(0.18586606 -2.2061906e-009 0)
(0.18586606 1.7613443e-010 0)
(0.18586606 -3.5016091e-010 0)
(0.18586606 -4.8724429e-010 0)
(0.18586606 2.2028351e-009 0)
(0.18586607 5.8275763e-009 0)
(0.18586605 -7.8094827e-009 0)
(0.18586592 -1.4547616e-008 0)
(0.16745156 -0.021248979 0)
(0.16161941 -0.006347976 0)
(0.16252076 -0.00053956033 0)
(0.16251473 7.4065366e-005 0)
(0.16270466 2.5717912e-005 0)
(0.16248209 -7.1715196e-006 0)
(0.16242804 2.5768771e-005 0)
(0.16243175 2.7131364e-005 0)
(0.16245146 1.3020378e-005 0)
(0.16246103 1.9240774e-006 0)
(0.16246229 -1.1643013e-006 0)
(0.16246117 -7.3201635e-007 0)
(0.16246073 -1.1341786e-007 0)
(0.16246072 3.5568176e-008 0)
(0.16246076 1.5459413e-008 0)
(0.16246077 -4.0597312e-009 0)
(0.16246076 -5.2331963e-009 0)
(0.16246075 -1.6064508e-009 0)
(0.16246075 8.6712787e-011 0)
(0.16246075 -4.9813418e-010 0)
(0.16246075 -7.726576e-010 0)
(0.16246076 1.2222932e-009 0)
(0.16246076 8.2149539e-009 0)
(0.16246075 1.1816333e-008 0)
(0.16246062 3.780688e-009 0)
(0.14638352 -0.021257222 0)
(0.13338241 -0.005673392 0)
(0.13429805 -0.00049285813 0)
(0.1340456 3.5402785e-006 0)
(0.13424825 4.2229071e-005 0)
(0.13406939 1.8267585e-005 0)
(0.13407283 2.9756923e-005 0)
(0.13409776 2.1549165e-005 0)
(0.134125 8.8165756e-006 0)
(0.13413321 6.3228515e-007 0)
(0.13413307 -1.0390012e-006 0)
(0.13413159 -5.0846624e-007 0)
(0.1341312 -5.7758873e-008 0)
(0.13413122 2.8120921e-008 0)
(0.13413126 9.1833345e-009 0)
(0.13413127 -3.6637169e-009 0)
(0.13413126 -3.6462597e-009 0)
(0.13413125 -1.0171889e-009 0)
(0.13413125 -3.0243053e-011 0)
(0.13413125 -5.0438597e-010 0)
(0.13413125 -8.3097186e-010 0)
(0.13413125 3.2515696e-010 0)
(0.13413126 8.8949927e-009 0)
(0.13413126 2.4966364e-008 0)
(0.1341312 1.6935203e-008 0)
(0.11883803 -0.018471406 0)
(0.10078987 -0.0042802831 0)
(0.10178617 -0.00037154609 0)
(0.10104018 -2.5444308e-005 0)
(0.10130588 5.0194573e-005 0)
(0.10119998 2.634018e-005 0)
(0.10126076 2.3909572e-005 0)
(0.1012948 1.302462e-005 0)
(0.10132219 4.6368235e-006 0)
(0.10132696 -1.4732721e-007 0)
(0.10132573 -7.1813516e-007 0)
(0.10132428 -2.8078648e-007 0)
(0.10132402 -1.957479e-008 0)
(0.10132406 1.6790897e-008 0)
(0.1013241 3.9529059e-009 0)
(0.1013241 -2.5332035e-009 0)
(0.10132409 -2.0007782e-009 0)
(0.10132409 -5.3563479e-010 0)
(0.10132409 -5.4321434e-011 0)
(0.10132408 -4.074533e-010 0)
(0.10132408 -7.470833e-010 0)
(0.10132408 -2.4666198e-010 0)
(0.10132409 7.1904377e-009 0)
(0.1013241 2.6322476e-008 0)
(0.10132412 1.9850149e-008 0)
(0.084500915 -0.013182203 0)
(0.064070454 -0.0024509784 0)
(0.065119937 -0.0001584652 0)
(0.064106919 -2.4293642e-005 0)
(0.064460045 4.2477557e-005 0)
(0.064416382 1.8088619e-005 0)
(0.064503753 1.2855855e-005 0)
(0.064530332 4.8524478e-006 0)
(0.064550667 1.5002513e-006 0)
(0.064551707 -3.3336104e-007 0)
(0.064550167 -3.2562894e-007 0)
(0.06454908 -1.0264515e-007 0)
(0.064548969 -1.3025751e-009 0)
(0.064549008 6.0843898e-009 0)
(0.06454903 8.4088263e-010 0)
(0.064549026 -1.1711373e-009 0)
(0.06454902 -7.4261477e-010 0)
(0.064549018 -2.0078139e-010 0)
(0.064549018 1.4991564e-011 0)
(0.064549017 -1.9106403e-010 0)
(0.064549016 -5.0663932e-010 0)
(0.064549014 -4.3021031e-010 0)
(0.064549014 3.5813517e-009 0)
(0.064549043 1.6046974e-008 0)
(0.064549112 1.260305e-008 0)
(0.039120158 -0.0068431973 0)
(0.023035464 -0.00011440858 0)
(0.024579188 3.7054716e-006 0)
(0.023701934 1.5174226e-005 0)
(0.024072966 1.9143135e-006 0)
(0.024034227 2.1034026e-006 0)
(0.024101557 -5.7377807e-007 0)
(0.024105988 -2.6977175e-007 0)
(0.024114837 -2.6710447e-007 0)
(0.024113449 -8.411712e-008 0)
(0.02411272 -2.2958064e-008 0)
(0.024112235 2.2001004e-009 0)
(0.024112236 1.0967174e-009 0)
(0.024112246 1.2243507e-010 0)
(0.024112254 -1.3069421e-010 0)
(0.02411225 -1.239237e-011 0)
(0.024112248 3.0703005e-011 0)
(0.024112247 6.0952736e-011 0)
(0.024112248 3.1040106e-011 0)
(0.024112247 -8.3326573e-011 0)
(0.024112246 -1.9421142e-010 0)
(0.024112245 -1.9861054e-010 0)
(0.024112243 6.1196641e-010 0)
(0.024112261 3.5978265e-009 0)
(0.024112317 2.838867e-009 0)
(0.039312492 -0.0024898309 0)
(0.04030904 -0.0031026788 0)
(0.041579506 -0.0028594812 0)
(0.042531221 -0.0023422329 0)
(0.043224468 -0.0018657563 0)
(0.043742468 -0.0014726145 0)
(0.044119145 -0.0011773063 0)
(0.044406269 -0.0009748846 0)
(0.044634178 -0.00085722394 0)
(0.044831219 -0.00082532966 0)
(0.045021612 -0.0008804492 0)
(0.04522701 -0.0010424362 0)
(0.0454727 -0.0013293821 0)
(0.045782148 -0.0017794578 0)
(0.046195397 -0.0024636464 0)
(0.046752656 -0.0034673058 0)
(0.047487961 -0.0049348068 0)
(0.048485129 -0.0071096953 0)
(0.049782528 -0.010363862 0)
(0.051266766 -0.015663395 0)
(0.053273643 -0.02363856 0)
(0.053998178 -0.035665492 0)
(0.055135701 -0.048387949 0)
(0.042762385 -0.061846722 0)
(0.036039396 -0.049797856 0)
(0.039424104 -0.0032639381 0)
(0.040568005 -0.0041042183 0)
(0.041970767 -0.0036713512 0)
(0.042959438 -0.0029599892 0)
(0.043605669 -0.0023054477 0)
(0.044054311 -0.0017847087 0)
(0.044355607 -0.0014021064 0)
(0.044567531 -0.0011435642 0)
(0.044722791 -0.00099232078 0)
(0.044848104 -0.00094462755 0)
(0.044960234 -0.0009990199 0)
(0.045071978 -0.0011744602 0)
(0.045202657 -0.0014901416 0)
(0.045355105 -0.0019838371 0)
(0.045548178 -0.0027285129 0)
(0.045798379 -0.0038159166 0)
(0.046090378 -0.0053760483 0)
(0.046420929 -0.0076473314 0)
(0.046772954 -0.010948715 0)
(0.046806069 -0.016088793 0)
(0.046458191 -0.023520933 0)
(0.044044971 -0.033506238 0)
(0.03972153 -0.042073375 0)
(0.025896793 -0.045728926 0)
(0.010856144 -0.02417657 0)
(0.039635849 -0.0042087122 0)
(0.04105335 -0.0052569293 0)
(0.042655879 -0.0045525147 0)
(0.04365593 -0.0035611942 0)
(0.044215509 -0.0026915393 0)
(0.044553977 -0.0020308505 0)
(0.044750387 -0.0015612175 0)
(0.044865881 -0.0012504354 0)
(0.044934063 -0.0010672732 0)
(0.044976753 -0.0010022886 0)
(0.044999143 -0.0010500881 0)
(0.045011612 -0.0012229041 0)
(0.045014328 -0.0015425532 0)
(0.045008391 -0.0020437297 0)
(0.044974031 -0.002790535 0)
(0.044910903 -0.0038775698 0)
(0.044774862 -0.0054113881 0)
(0.044487885 -0.0076006779 0)
(0.043984822 -0.010704996 0)
(0.042841792 -0.015307855 0)
(0.040739067 -0.021730356 0)
(0.036272334 -0.029586145 0)
(0.029042371 -0.035519488 0)
(0.016248037 -0.035417908 0)
(0.0026980459 -0.017595011 0)
(0.040083174 -0.0054920697 0)
(0.041912329 -0.0066493719 0)
(0.043730111 -0.0055019461 0)
(0.044668202 -0.0041145043 0)
(0.045069288 -0.0029855561 0)
(0.045242871 -0.002180962 0)
(0.045298491 -0.0016344537 0)
(0.0452964 -0.0012817117 0)
(0.045265655 -0.0010737676 0)
(0.045215055 -0.00099299356 0)
(0.045146403 -0.0010278529 0)
(0.045057774 -0.0011856858 0)
(0.044932824 -0.0014846256 0)
(0.044766743 -0.0019583868 0)
(0.044521307 -0.0026572073 0)
(0.044159005 -0.0036636578 0)
(0.04362964 -0.0050725151 0)
(0.04280078 -0.0070379719 0)
(0.04156986 -0.0097597157 0)
(0.039529187 -0.013611025 0)
(0.036288341 -0.018765236 0)
(0.030793369 -0.024566186 0)
(0.022623463 -0.028151212 0)
(0.01175345 -0.025898879 0)
(0.0003481793 -0.012066418 0)
(0.040855595 -0.0073927755 0)
(0.043098161 -0.0083336965 0)
(0.044940966 -0.0064584114 0)
(0.045645895 -0.0045482508 0)
(0.045779337 -0.0031305661 0)
(0.045725278 -0.0021979134 0)
(0.045603323 -0.0016000132 0)
(0.04546744 -0.0012257662 0)
(0.04533002 -0.0010063323 0)
(0.045185337 -0.00091355629 0)
(0.045029928 -0.00093212162 0)
(0.044841251 -0.0010638722 0)
(0.044605526 -0.0013237239 0)
(0.044287823 -0.001733453 0)
(0.0438556 -0.0023411598 0)
(0.043238394 -0.0032046669 0)
(0.042372446 -0.004403655 0)
(0.041108333 -0.0060458886 0)
(0.039307875 -0.0082758255 0)
(0.036626978 -0.011314997 0)
(0.032659116 -0.015205418 0)
(0.026714217 -0.019236473 0)
(0.018515471 -0.021220484 0)
(0.0091557464 -0.018353329 0)
(-0.00019321029 -0.0084368823 0)
(0.04177167 -0.010131929 0)
(0.04405477 -0.010122618 0)
(0.045335514 -0.0072109341 0)
(0.045498076 -0.0047236252 0)
(0.045231588 -0.0030554742 0)
(0.044893874 -0.0020453979 0)
(0.044571132 -0.0014413604 0)
(0.044298462 -0.0010762156 0)
(0.044058303 -0.00086361382 0)
(0.04383094 -0.00076764214 0)
(0.04359948 -0.00077105887 0)
(0.043332851 -0.00086727668 0)
(0.043007763 -0.0010706305 0)
(0.042576906 -0.0013940272 0)
(0.042001132 -0.0018722114 0)
(0.041203342 -0.0025493316 0)
(0.040097553 -0.0034789882 0)
(0.03854413 -0.0047336179 0)
(0.036384526 -0.0064091799 0)
(0.033345777 -0.0086255787 0)
(0.029061333 -0.011351932 0)
(0.023108972 -0.013956818 0)
(0.015374327 -0.014811267 0)
(0.0074612518 -0.012079353 0)
(-0.00023146263 -0.0054047067 0)
(0.042196271 -0.013549 0)
(0.043611915 -0.011316427 0)
(0.043319749 -0.0073234577 0)
(0.042565401 -0.0044365877 0)
(0.041772095 -0.0026819592 0)
(0.041133486 -0.0017029827 0)
(0.040629235 -0.0011563387 0)
(0.040238985 -0.00083910468 0)
(0.039920773 -0.00065750167 0)
(0.03963854 -0.00056994917 0)
(0.039360817 -0.00055951301 0)
(0.039055693 -0.00062088131 0)
(0.038684536 -0.00075722204 0)
(0.038207171 -0.00098139535 0)
(0.037571058 -0.0013119479 0)
(0.036704206 -0.0017781708 0)
(0.035515406 -0.0024135169 0)
(0.033881068 -0.0032604649 0)
(0.031648401 -0.0043781881 0)
(0.028596458 -0.0058253466 0)
(0.024446 -0.0075369505 0)
(0.018965236 -0.0090355415 0)
(0.012175469 -0.0091960952 0)
(0.0058297714 -0.0069611772 0)
(-0.00019565124 -0.002927948 0)
(0.04093972 -0.016638578 0)
(0.040294476 -0.01090627 0)
(0.037267525 -0.0063790646 0)
(0.035457315 -0.0035495834 0)
(0.034145746 -0.0019964025 0)
(0.033268861 -0.0011910179 0)
(0.032661364 -0.0007745876 0)
(0.03221412 -0.00054405238 0)
(0.031869978 -0.00041366211 0)
(0.031580167 -0.00034769156 0)
(0.03130592 -0.00033142019 0)
(0.031015003 -0.00035956126 0)
(0.030668218 -0.00043196139 0)
(0.030229 -0.00055645121 0)
(0.029646493 -0.00074180364 0)
(0.028859651 -0.0010027005 0)
(0.027789343 -0.0013566021 0)
(0.02633603 -0.0018246471 0)
(0.024373567 -0.0024350479 0)
(0.021730572 -0.0032121094 0)
(0.018217513 -0.0041036524 0)
(0.01373167 -0.0048046778 0)
(0.0084009254 -0.0046387433 0)
(0.0038967882 -0.0030838079 0)
(-0.00018184156 -0.0010574574 0)
(0.035511033 -0.015820855 0)
(0.032848044 -0.0075762931 0)
(0.026425821 -0.0040957952 0)
(0.024019379 -0.0020790637 0)
(0.022437473 -0.0011074285 0)
(0.021517932 -0.00062639979 0)
(0.020942869 -0.00038939923 0)
(0.020544767 -0.00026542015 0)
(0.020252578 -0.00019646328 0)
(0.020017931 -0.00016035097 0)
(0.019806733 -0.00014877766 0)
(0.019590415 -0.00015751582 0)
(0.019340953 -0.00018617116 0)
(0.019028803 -0.00023808635 0)
(0.018617414 -0.00031603056 0)
(0.018063273 -0.00042624704 0)
(0.017311027 -0.00057418153 0)
(0.016293492 -0.00076707679 0)
(0.014928484 -0.0010119755 0)
(0.013108425 -0.0013182186 0)
(0.010713066 -0.001660744 0)
(0.0077226193 -0.0018937505 0)
(0.0042807281 -0.0017082657 0)
(0.0017628968 -0.00088719148 0)
(-0.00023742845 -0.00012083418 0)
(0.020948002 -0.012194349 0)
(0.017719877 -0.0024599399 0)
(0.011059518 -0.00051873796 0)
(0.0097253254 -0.00024419313 0)
(0.0085175324 -9.3153073e-005 0)
(0.0079532036 -4.0178262e-005 0)
(0.0076125592 -1.6803946e-005 0)
(0.0073912069 -7.4485623e-006 0)
(0.0072352996 -2.4706581e-006 0)
(0.0071162936 9.4607229e-007 0)
(0.0070147628 3.6686465e-006 0)
(0.006915375 6.0669145e-006 0)
(0.0068050489 8.8154927e-006 0)
(0.0066691515 1.1774787e-005 0)
(0.0064916252 1.5983508e-005 0)
(0.0062535594 2.1687227e-005 0)
(0.0059320615 2.9429128e-005 0)
(0.0055005515 3.9913165e-005 0)
(0.004929562 5.4237847e-005 0)
(0.0041809304 7.2804716e-005 0)
(0.0032112241 9.9528886e-005 0)
(0.0020572752 0.0001460436 0)
(0.00075322327 0.00018075695 0)
(8.0927786e-005 0.00026251626 0)
(-0.00019307737 0.00020042273 0)
)
;

boundaryField
{
    inlet
    {
        type            fixedValue;
        value           uniform (0.03876 0 0);
    }
    walls
    {
        type            fixedValue;
        value           uniform (0 0 0);
    }
    outlet
    {
        type            zeroGradient;
    }
    centreline
    {
        type            symmetryPlane;
    }
    frontAndBack
    {
        type            empty;
    }
}


// ************************************************************************* //
