/*--------------------------------*- C++ -*----------------------------------*\
| =========                 |                                                 |
| \\      /  F ield         | OpenFOAM: The Open Source CFD Toolbox           |
|  \\    /   O peration     | Version:  5.x                                   |
|   \\  /    A nd           | Web:      www.OpenFOAM.org                      |
|    \\/     M anipulation  |                                                 |
\*---------------------------------------------------------------------------*/
/*   Windows 32 and 64 bit porting by blueCAPE: http://www.bluecape.com.pt   *\
|  Based on Windows porting (2.0.x v4) by Symscape: http://www.symscape.com   |
\*---------------------------------------------------------------------------*/
FoamFile
{
    version     2.0;
    format      ascii;
    class       volVectorField;
    location    "2700";
    object      U;
}
// * * * * * * * * * * * * * * * * * * * * * * * * * * * * * * * * * * * * * //

dimensions      [0 1 -1 0 0 0 0];

internalField   nonuniform List<vector> 
4000
(
(0.999143 0.000750794 2.14105e-023)
(0.997621 0.00243083 0)
(0.994318 0.00350691 0)
(0.99041 0.00388457 0)
(0.986349 0.00403877 0)
(0.982166 0.00409484 0)
(0.9779 0.00410156 -3.10355e-023)
(0.973595 0.00407398 0)
(0.969275 0.00403005 0)
(0.96496 0.0039824 -2.76039e-023)
(0.960657 0.00393563 0)
(0.956366 0.00389175 0)
(0.952087 0.00384957 -2.51432e-023)
(0.947822 0.00380883 0)
(0.943574 0.003769 -2.39026e-023)
(0.939345 0.00372978 -2.33669e-023)
(0.935137 0.00369171 -2.287e-023)
(0.930951 0.00365468 -2.24083e-023)
(0.926787 0.00361842 -2.19794e-023)
(0.922645 0.00358298 -2.15777e-023)
(0.918525 0.00354846 -2.11989e-023)
(0.914428 0.00351469 -2.08417e-023)
(0.910353 0.00348186 0)
(0.9063 0.00345014 -2.01772e-023)
(0.902271 0.00341954 -1.98646e-023)
(0.898265 0.00338992 -1.95626e-023)
(0.894283 0.00336103 -1.92697e-023)
(0.890324 0.0033327 -1.89839e-023)
(0.886389 0.00330505 -1.87035e-023)
(0.882478 0.00327814 -1.84277e-023)
(0.87859 0.00325195 0)
(0.874726 0.00322627 -1.78872e-023)
(0.870886 0.00320087 -1.76207e-023)
(0.86707 0.00317567 -1.73557e-023)
(0.863277 0.00315067 -1.70918e-023)
(0.859508 0.00312593 -1.68289e-023)
(0.855762 0.00310142 -1.65665e-023)
(0.85204 0.00307706 -1.63045e-023)
(0.848341 0.0030528 -1.60427e-023)
(0.844665 0.00302861 0)
(0.841013 0.00300449 -1.55186e-023)
(0.837385 0.00298045 -1.52557e-023)
(0.83378 0.00295654 -1.49918e-023)
(0.830199 0.00293291 -1.47266e-023)
(0.826641 0.00290954 -1.44598e-023)
(0.823107 0.00288507 -1.41915e-023)
(0.819596 0.00285984 -1.3922e-023)
(0.816108 0.00283542 0)
(0.812643 0.00281169 -1.33784e-023)
(0.809201 0.00278836 -1.31047e-023)
(0.805783 0.00276517 -1.283e-023)
(0.802388 0.00274197 -1.25545e-023)
(0.799016 0.00271875 -1.2278e-023)
(0.795668 0.00269551 -1.20006e-023)
(0.792343 0.0026722 -1.17223e-023)
(0.789042 0.00264869 -1.1443e-023)
(0.785766 0.00262495 0)
(0.782513 0.00260102 -1.0882e-023)
(0.779285 0.00257698 -1.06005e-023)
(0.776081 0.00255282 -1.03187e-023)
(0.772902 0.00252848 -1.00368e-023)
(0.769747 0.00250392 -9.75476e-024)
(0.766617 0.00247912 -9.47278e-024)
(0.763512 0.00245412 -9.19096e-024)
(0.760432 0.00242896 0)
(0.757377 0.00240367 -8.62835e-024)
(0.754348 0.00237822 -8.34796e-024)
(0.751344 0.00235251 -8.06841e-024)
(0.748365 0.00232663 -7.78987e-024)
(0.745412 0.00230062 -7.51249e-024)
(0.742485 0.00227447 -7.23648e-024)
(0.739584 0.00224812 -6.96211e-024)
(0.736709 0.00222166 -6.68969e-024)
(0.73386 0.00219527 -6.41966e-024)
(0.731036 0.00216913 -6.1525e-024)
(0.728238 0.00214346 -5.88889e-024)
(0.725464 0.00211872 -5.62944e-024)
(0.722712 0.00209631 -5.37495e-024)
(0.719981 0.00207967 -5.12561e-024)
(0.717263 0.00206958 -4.87564e-024)
(0.714559 0.00206286 -4.62017e-024)
(0.711866 0.00205721 0)
(0.709185 0.00205169 -4.10106e-024)
(0.706515 0.00204585 -3.8395e-024)
(0.703856 0.00203944 -3.57716e-024)
(0.701209 0.00203231 -3.31448e-024)
(0.698575 0.00202447 -3.05177e-024)
(0.695952 0.00201599 -2.78918e-024)
(0.693343 0.00200689 -2.52688e-024)
(0.690747 0.00199714 -2.26505e-024)
(0.688165 0.00198676 0)
(0.685596 0.00197585 -1.74363e-024)
(0.683042 0.00196448 -1.48436e-024)
(0.680503 0.00195264 -1.22623e-024)
(0.677978 0.00194029 -9.69424e-025)
(0.675469 0.00192744 -7.14169e-025)
(0.672975 0.00191418 -4.60568e-025)
(0.670496 0.00190055 -2.08724e-025)
(0.668033 0.00188657 4.12106e-026)
(0.665587 0.00187211 2.88629e-025)
(0.663157 0.00185709 5.33867e-025)
(0.660743 0.00184166 7.77719e-025)
(0.658346 0.0018259 1.01969e-024)
(0.655967 0.00180984 1.2594e-024)
(0.653604 0.00179354 1.49674e-024)
(0.651259 0.00177706 1.73159e-024)
(0.648932 0.00176045 1.96377e-024)
(0.646622 0.00174369 2.19311e-024)
(0.64433 0.00172676 2.41945e-024)
(0.642055 0.00170964 2.64266e-024)
(0.639799 0.00169239 2.86269e-024)
(0.637561 0.00167504 3.07949e-024)
(0.635341 0.00165758 3.29297e-024)
(0.633139 0.00163995 3.50307e-024)
(0.630956 0.00162215 3.70959e-024)
(0.628791 0.00160423 3.91239e-024)
(0.626645 0.00158623 4.11134e-024)
(0.624518 0.00156814 4.30636e-024)
(0.62241 0.00154999 4.49735e-024)
(0.62032 0.00153178 4.68423e-024)
(0.61825 0.00151348 4.86689e-024)
(0.616198 0.00149503 5.04517e-024)
(0.614166 0.00147646 5.21894e-024)
(0.612153 0.00145787 5.38814e-024)
(0.610159 0.00143933 5.55273e-024)
(0.608184 0.00142077 5.71262e-024)
(0.606229 0.00140211 5.86769e-024)
(0.604292 0.00138337 6.01786e-024)
(0.602376 0.00136458 6.16298e-024)
(0.600478 0.00134576 6.30293e-024)
(0.598601 0.00132691 6.43763e-024)
(0.596742 0.00130805 6.56703e-024)
(0.594904 0.00128918 6.69108e-024)
(0.593084 0.00127028 6.80969e-024)
(0.591285 0.00125137 6.92276e-024)
(0.589505 0.0012325 7.03019e-024)
(0.587744 0.00121369 7.13191e-024)
(0.586003 0.00119488 7.22778e-024)
(0.584282 0.00117603 7.31769e-024)
(0.58258 0.00115719 7.40153e-024)
(0.580898 0.00113842 7.47932e-024)
(0.579235 0.00111973 7.55109e-024)
(0.577592 0.00110101 7.61683e-024)
(0.575969 0.00108223 7.67642e-024)
(0.574365 0.00106349 7.72984e-024)
(0.57278 0.0010449 7.77705e-024)
(0.571215 0.0010264 7.81795e-024)
(0.569669 0.00100787 7.85238e-024)
(0.568143 0.000989305 7.8803e-024)
(0.566636 0.0009708 7.90169e-024)
(0.565148 0.000952432 7.91657e-024)
(0.56368 0.000934213 7.9249e-024)
(0.56223 0.000916103 7.92661e-024)
(0.5608 0.000898037 7.92166e-024)
(0.559389 0.000879961 7.91003e-024)
(0.557997 0.000861918 7.89173e-024)
(0.556624 0.000844032 7.86671e-024)
(0.55527 0.000826355 7.83492e-024)
(0.553934 0.000808779 7.79632e-024)
(0.552618 0.000791163 7.75089e-024)
(0.55132 0.000773509 7.69864e-024)
(0.55004 0.000755961 7.63956e-024)
(0.548779 0.000738669 7.57362e-024)
(0.547537 0.000721631 7.50072e-024)
(0.546313 0.000704706 7.42089e-024)
(0.545107 0.000687771 7.3342e-024)
(0.543919 0.000670807 7.24068e-024)
(0.542749 0.000653995 7.14034e-024)
(0.541598 0.000637376 7.03316e-024)
(0.540463 0.000620885 6.91909e-024)
(0.539347 0.00060448 6.79808e-024)
(0.538249 0.000588203 6.67013e-024)
(0.537168 0.000572104 6.53529e-024)
(0.536104 0.000556171 6.39363e-024)
(0.535058 0.000540369 6.24522e-024)
(0.534028 0.000524684 6.09007e-024)
(0.533016 0.000509141 5.9282e-024)
(0.532021 0.000493757 5.75958e-024)
(0.531042 0.000478532 5.58419e-024)
(0.53008 0.000463467 5.40207e-024)
(0.529135 0.000448584 5.21324e-024)
(0.528206 0.000433891 5.01768e-024)
(0.527293 0.000419355 4.81542e-024)
(0.526396 0.000404963 4.60641e-024)
(0.525515 0.00039077 4.39054e-024)
(0.524649 0.000376832 4.16767e-024)
(0.523799 0.000363145 3.93774e-024)
(0.522964 0.000349675 3.70067e-024)
(0.522144 0.000336427 3.45629e-024)
(0.521338 0.000323481 3.20464e-024)
(0.520546 0.0003109 2.94489e-024)
(0.519768 0.000298831 2.67773e-024)
(0.519004 0.000287066 2.39954e-024)
(0.518249 0.000276263 2.11729e-024)
(0.517514 0.000264784 1.8112e-024)
(0.516773 0.000257239 1.52795e-024)
(0.516082 0.000241581 1.14702e-024)
(0.515303 0.00024575 9.63242e-025)
(0.51477 0.000224912 3.04823e-025)
(0.513644 0.000284417 7.75994e-025)
(1.00018 0.00115673 6.81358e-024)
(1.00081 0.00276744 0)
(1.00147 0.00347815 0)
(1.00184 0.00394633 0)
(1.00201 0.00424019 0)
(1.002 0.00444128 0)
(1.00185 0.00456281 -2.35776e-023)
(1.00158 0.00466913 0)
(1.00123 0.004728 0)
(1.0008 0.00476021 -2.207e-023)
(1.0003 0.00478507 0)
(0.99974 0.00480617 0)
(0.999124 0.00482396 -2.05249e-023)
(0.99846 0.0048365 0)
(0.997755 0.00484232 -1.96877e-023)
(0.997019 0.00484362 -1.92986e-023)
(0.996256 0.00484267 -1.89198e-023)
(0.995467 0.00484041 -1.85623e-023)
(0.994657 0.00483619 -1.82287e-023)
(0.993826 0.00483052 -1.79077e-023)
(0.992979 0.00482475 -1.75967e-023)
(0.992115 0.00481748 -1.73064e-023)
(0.991237 0.00480845 0)
(0.990347 0.00479792 -1.67535e-023)
(0.989447 0.00478595 -1.64875e-023)
(0.988536 0.00477258 -1.62273e-023)
(0.987616 0.00475781 -1.59735e-023)
(0.986688 0.00474216 -1.57238e-023)
(0.985754 0.00472629 -1.54763e-023)
(0.984813 0.00471014 -1.52315e-023)
(0.983866 0.00469321 0)
(0.982913 0.00467529 -1.47467e-023)
(0.981956 0.00465692 -1.45061e-023)
(0.980994 0.00463875 -1.42665e-023)
(0.980028 0.00462083 -1.40278e-023)
(0.979058 0.00460286 -1.37896e-023)
(0.978084 0.00458461 -1.3552e-023)
(0.977106 0.00456608 -1.33152e-023)
(0.976125 0.00454739 -1.30792e-023)
(0.97514 0.00452853 0)
(0.974153 0.00450944 -1.2608e-023)
(0.973162 0.00449011 -1.23729e-023)
(0.972169 0.00447049 -1.21383e-023)
(0.971174 0.00445073 -1.19024e-023)
(0.970176 0.00443103 -1.16641e-023)
(0.969177 0.00441164 -1.14238e-023)
(0.968175 0.00439261 -1.11836e-023)
(0.967172 0.00437367 0)
(0.966167 0.00435457 -1.07071e-023)
(0.96516 0.00433518 -1.04691e-023)
(0.964151 0.00431541 -1.02316e-023)
(0.96314 0.00429539 -9.99477e-024)
(0.962126 0.00427523 -9.75849e-024)
(0.961111 0.00425485 -9.52238e-024)
(0.960094 0.00423409 -9.28624e-024)
(0.959074 0.00421295 -9.05012e-024)
(0.958053 0.00419158 0)
(0.95703 0.00417013 -8.57896e-024)
(0.956004 0.00414862 -8.34434e-024)
(0.954977 0.004127 -8.11072e-024)
(0.953947 0.00410524 -7.87814e-024)
(0.952915 0.00408336 -7.64656e-024)
(0.95188 0.00406132 -7.41604e-024)
(0.950843 0.00403903 -7.18667e-024)
(0.949804 0.00401651 0)
(0.948763 0.00399387 -6.73237e-024)
(0.947719 0.00397119 -6.50779e-024)
(0.946672 0.00394841 -6.28496e-024)
(0.945623 0.00392539 -6.06386e-024)
(0.944572 0.00390213 -5.84453e-024)
(0.943518 0.00387868 -5.62715e-024)
(0.942462 0.00385521 -5.41186e-024)
(0.941403 0.00383183 -5.19878e-024)
(0.940342 0.00380863 -4.98789e-024)
(0.939278 0.00378574 -4.77895e-024)
(0.938211 0.00376341 -4.57135e-024)
(0.937141 0.00374247 -4.3639e-024)
(0.93607 0.00372338 -4.15295e-024)
(0.934999 0.00370454 -3.93452e-024)
(0.933933 0.00368647 -3.72005e-024)
(0.932874 0.00367042 -3.51756e-024)
(0.931821 0.0036554 0)
(0.930774 0.00364096 -3.12317e-024)
(0.929732 0.0036268 -2.92771e-024)
(0.928694 0.00361272 -2.73328e-024)
(0.927662 0.00359859 -2.53974e-024)
(0.926633 0.00358432 -2.34705e-024)
(0.925608 0.00356986 -2.1553e-024)
(0.924586 0.00355518 -1.96459e-024)
(0.923567 0.00354035 -1.77498e-024)
(0.922551 0.0035254 0)
(0.921538 0.00351029 -1.3997e-024)
(0.920526 0.00349495 -1.21438e-024)
(0.919517 0.00347946 -1.03073e-024)
(0.91851 0.00346391 -8.48856e-025)
(0.917505 0.00344831 -6.68827e-025)
(0.916501 0.00343252 -4.9063e-025)
(0.915498 0.00341645 -3.14353e-025)
(0.914496 0.00340021 -1.40133e-025)
(0.913496 0.00338395 3.14069e-026)
(0.912497 0.00336767 2.00823e-025)
(0.911499 0.00335127 3.68719e-025)
(0.910502 0.00333462 5.34377e-025)
(0.909506 0.00331778 6.97578e-025)
(0.908511 0.0033008 8.58359e-025)
(0.907517 0.00328369 1.01672e-024)
(0.906523 0.00326637 1.17256e-024)
(0.905529 0.00324883 1.32574e-024)
(0.904537 0.00323115 1.47615e-024)
(0.903545 0.00321334 1.62379e-024)
(0.902553 0.00319538 1.76869e-024)
(0.901562 0.00317725 1.91089e-024)
(0.900571 0.00315895 2.05028e-024)
(0.899581 0.00314052 2.18673e-024)
(0.898591 0.00312199 2.32021e-024)
(0.897602 0.00310336 2.4506e-024)
(0.896613 0.00308457 2.57787e-024)
(0.895624 0.00306559 2.70197e-024)
(0.894636 0.00304645 2.82289e-024)
(0.893649 0.00302721 2.94063e-024)
(0.892661 0.0030079 3.05518e-024)
(0.891675 0.00298845 3.16644e-024)
(0.890688 0.00296884 3.27427e-024)
(0.889702 0.00294912 3.37868e-024)
(0.888717 0.00292936 3.47964e-024)
(0.887732 0.00290956 3.57711e-024)
(0.886748 0.00288965 3.67107e-024)
(0.885764 0.00286957 3.76153e-024)
(0.884781 0.00284933 3.84841e-024)
(0.883798 0.002829 3.93161e-024)
(0.882816 0.00280864 4.01111e-024)
(0.881835 0.00278823 4.08693e-024)
(0.880854 0.00276772 4.15908e-024)
(0.879874 0.0027471 4.22752e-024)
(0.878895 0.00272638 4.29218e-024)
(0.877916 0.00270561 4.35307e-024)
(0.876939 0.00268476 4.41018e-024)
(0.875962 0.00266383 4.46339e-024)
(0.874986 0.00264285 4.51256e-024)
(0.874011 0.00262187 4.55769e-024)
(0.873036 0.0026009 4.5989e-024)
(0.872063 0.00257986 4.63629e-024)
(0.871091 0.00255868 4.66984e-024)
(0.87012 0.0025374 4.69947e-024)
(0.86915 0.00251611 4.7251e-024)
(0.868181 0.00249483 4.74671e-024)
(0.867213 0.00247354 4.76432e-024)
(0.866247 0.00245224 4.77794e-024)
(0.865281 0.0024309 4.78756e-024)
(0.864317 0.00240952 4.79317e-024)
(0.863354 0.00238811 4.79473e-024)
(0.862393 0.00236671 4.79224e-024)
(0.861433 0.00234534 4.78569e-024)
(0.860474 0.00232396 4.77506e-024)
(0.859517 0.0023026 4.76033e-024)
(0.858562 0.00228128 4.74154e-024)
(0.857607 0.00225995 4.71871e-024)
(0.856655 0.00223854 4.69183e-024)
(0.855704 0.00221707 4.66088e-024)
(0.854755 0.00219562 4.62588e-024)
(0.853808 0.00217431 4.58681e-024)
(0.852862 0.0021531 4.54368e-024)
(0.851918 0.00213189 4.49648e-024)
(0.850976 0.00211067 4.4452e-024)
(0.850036 0.00208943 4.38987e-024)
(0.849097 0.00206823 4.33049e-024)
(0.848161 0.00204712 4.2671e-024)
(0.847227 0.00202612 4.19966e-024)
(0.846295 0.00200521 4.1282e-024)
(0.845364 0.00198432 4.05279e-024)
(0.844436 0.00196342 3.97341e-024)
(0.84351 0.00194253 3.89001e-024)
(0.842587 0.00192175 3.80264e-024)
(0.841665 0.00190111 3.71134e-024)
(0.840746 0.0018806 3.61611e-024)
(0.839829 0.00186018 3.51699e-024)
(0.838915 0.00183984 3.41405e-024)
(0.838003 0.00181956 3.30725e-024)
(0.837093 0.00179932 3.19655e-024)
(0.836185 0.00177917 3.08196e-024)
(0.83528 0.00175916 2.96353e-024)
(0.834378 0.00173935 2.84129e-024)
(0.833478 0.00171972 2.7153e-024)
(0.832581 0.00170023 2.58554e-024)
(0.831686 0.00168087 2.45194e-024)
(0.830793 0.0016617 2.31444e-024)
(0.829903 0.00164281 2.17303e-024)
(0.829016 0.00162427 2.02773e-024)
(0.828131 0.00160613 1.87844e-024)
(0.827248 0.00158845 1.72523e-024)
(0.826367 0.00157125 1.5675e-024)
(0.825488 0.0015548 1.4064e-024)
(0.824612 0.00153863 1.23807e-024)
(0.823734 0.00152422 1.0716e-024)
(0.822866 0.00150801 8.79867e-025)
(0.821978 0.00149855 7.35718e-025)
(0.821139 0.00148421 4.86889e-025)
(0.820169 0.00148684 4.61362e-025)
(0.8195 0.00148543 6.05193e-026)
(0.818137 0.00152907 5.15901e-025)
(1.00008 0.000603567 -1.03742e-023)
(1.00044 0.00177495 0)
(1.00106 0.00269998 0)
(1.00162 0.0033713 0)
(1.00209 0.00384522 0)
(1.00247 0.004188 0)
(1.00276 0.00443212 3.06567e-023)
(1.00298 0.00459531 0)
(1.00313 0.00472295 0)
(1.00322 0.00483103 3.06085e-023)
(1.00325 0.00492149 0)
(1.00324 0.00500715 0)
(1.00319 0.00507687 2.97647e-023)
(1.0031 0.00513607 0)
(1.00299 0.00517819 2.91696e-023)
(1.00286 0.00520447 2.88627e-023)
(1.0027 0.00522555 2.85439e-023)
(1.00252 0.00524287 2.82259e-023)
(1.00231 0.00525485 2.79146e-023)
(1.0021 0.00526203 2.76028e-023)
(1.00186 0.00526662 2.72891e-023)
(1.00161 0.00526867 2.69844e-023)
(1.00135 0.00526864 0)
(1.00109 0.00526668 2.63758e-023)
(1.00081 0.00526302 2.60699e-023)
(1.00052 0.00525809 2.57626e-023)
(1.00022 0.00525126 2.54549e-023)
(0.999922 0.00524323 2.51447e-023)
(0.999614 0.00523479 7.46595e-023)
(0.9993 0.00522548 2.45133e-023)
(0.998981 0.00521515 0)
(0.998656 0.00520374 2.38679e-023)
(0.998327 0.00519159 2.35395e-023)
(0.997994 0.00517895 2.32072e-023)
(0.997656 0.00516586 6.88239e-023)
(0.997315 0.00515256 2.25318e-023)
(0.996969 0.0051391 2.21888e-023)
(0.99662 0.00512533 2.1843e-023)
(0.996267 0.00511114 2.14943e-023)
(0.99591 0.0050964 0)
(0.99555 0.00508128 6.26001e-023)
(0.995186 0.00506613 2.04308e-023)
(0.994819 0.00505096 2.00709e-023)
(0.994449 0.00503564 1.97069e-023)
(0.994078 0.00502004 1.93378e-023)
(0.993703 0.00500397 1.8964e-023)
(0.993325 0.00498759 5.60087e-023)
(0.992945 0.00497123 0)
(0.992562 0.00495491 1.78315e-023)
(0.992176 0.0049385 1.74506e-023)
(0.991788 0.00492207 1.70685e-023)
(0.991396 0.00490582 1.66856e-023)
(0.991002 0.00488968 1.63018e-023)
(0.990605 0.00487336 1.5917e-023)
(0.990206 0.00485661 1.55309e-023)
(0.989803 0.00483955 1.51439e-023)
(0.989398 0.00482245 0)
(0.98899 0.00480543 1.43681e-023)
(0.98858 0.00478841 1.39801e-023)
(0.988166 0.00477128 1.35926e-023)
(0.987749 0.00475407 1.32057e-023)
(0.98733 0.00473674 1.28197e-023)
(0.986907 0.00471917 1.24347e-023)
(0.986481 0.00470134 1.20508e-023)
(0.986052 0.00468338 0)
(0.985621 0.00466548 1.1288e-023)
(0.985185 0.00464765 1.09097e-023)
(0.984747 0.0046297 1.05337e-023)
(0.984305 0.00461143 1.016e-023)
(0.98386 0.00459284 9.78899e-024)
(0.983411 0.00457408 9.42083e-024)
(0.982959 0.00455534 9.05586e-024)
(0.982504 0.00453677 8.6944e-024)
(0.982045 0.00451847 8.33673e-024)
(0.981583 0.00450047 7.98298e-024)
(0.981118 0.00448288 7.63302e-024)
(0.980649 0.00446594 7.28624e-024)
(0.980177 0.00444972 6.93993e-024)
(0.979704 0.0044338 6.59046e-024)
(0.979229 0.00441792 6.24386e-024)
(0.978753 0.00440232 5.90451e-024)
(0.978276 0.00438718 0)
(0.977799 0.00437253 5.23158e-024)
(0.977321 0.00435828 -5.13252e-024)
(0.976844 0.00434433 -4.7968e-024)
(0.976366 0.00433054 4.2289e-024)
(0.975887 0.00431681 3.89718e-024)
(0.975408 0.00430307 3.56698e-024)
(0.974929 0.00428931 3.23853e-024)
(0.974449 0.00427555 2.91198e-024)
(0.973968 0.00426177 -5.40841e-024)
(0.973486 0.00424791 2.26566e-024)
(0.973003 0.00423399 1.94638e-024)
(0.972519 0.00422003 1.62992e-024)
(0.972035 0.00420603 1.31646e-024)
(0.971549 0.00419198 1.00621e-024)
(0.971062 0.00417782 -9.35445e-025)
(0.970574 0.00416356 3.95586e-025)
(0.970084 0.00414948 9.55479e-026)
(0.969594 0.00413463 -2.00015e-025)
(0.969102 0.00411874 -4.91795e-025)
(0.968608 0.00410286 -7.80792e-025)
(0.968113 0.00408706 8.41627e-025)
(0.967617 0.00407137 -1.34733e-024)
(0.967119 0.00405578 -1.62444e-024)
(0.96662 0.00404018 -1.89739e-024)
(0.966119 0.00402448 -2.16599e-024)
(0.965617 0.00400867 -2.43003e-024)
(0.965113 0.00399279 -2.68935e-024)
(0.964608 0.00397679 2.71349e-024)
(0.964101 0.00396067 -3.19363e-024)
(0.963592 0.00394441 -3.43863e-024)
(0.963082 0.00392805 -3.67875e-024)
(0.96257 0.00391161 -3.91385e-024)
(0.962056 0.0038951 -4.14382e-024)
(0.96154 0.00387851 4.13135e-024)
(0.961023 0.00386182 -4.58777e-024)
(0.960504 0.00384497 -4.8016e-024)
(0.959983 0.00382798 -5.00993e-024)
(0.95946 0.00381087 -5.21274e-024)
(0.958936 0.00379365 -5.40998e-024)
(0.958409 0.00377636 5.35657e-024)
(0.957881 0.00375898 -5.78707e-024)
(0.957351 0.0037415 -5.96675e-024)
(0.956819 0.00372389 -6.14051e-024)
(0.956284 0.00370617 -6.30826e-024)
(0.955748 0.00368837 -6.46996e-024)
(0.955211 0.0036705 6.37309e-024)
(0.954671 0.00365251 -6.77499e-024)
(0.954129 0.00363441 -6.91808e-024)
(0.953585 0.0036162 -7.05478e-024)
(0.953039 0.00359792 -7.18512e-024)
(0.952491 0.00357959 -7.30911e-024)
(0.951941 0.00356118 7.16656e-024)
(0.951389 0.00354267 -7.53771e-024)
(0.950836 0.00352406 -7.64222e-024)
(0.95028 0.00350536 -7.74017e-024)
(0.949722 0.00348659 -7.8314e-024)
(0.949162 0.00346779 -7.91575e-024)
(0.9486 0.00344894 7.72623e-024)
(0.948036 0.00343 -8.06384e-024)
(0.94747 0.00341096 -8.12783e-024)
(0.946902 0.00339184 -8.18517e-024)
(0.946332 0.0033727 -8.23575e-024)
(0.94576 0.00335352 -8.27949e-024)
(0.945186 0.00333429 -8.31639e-024)
(0.94461 0.00331501 8.07216e-024)
(0.944032 0.00329572 -8.36955e-024)
(0.943452 0.00327639 -8.38573e-024)
(0.942871 0.00325697 -8.39498e-024)
(0.942287 0.00323748 -8.3973e-024)
(0.941701 0.00321798 -8.39269e-024)
(0.941113 0.00319849 8.10153e-024)
(0.940523 0.00317901 -8.36253e-024)
(0.939932 0.00315949 -8.33696e-024)
(0.939338 0.00313995 -8.30444e-024)
(0.938743 0.00312036 -8.265e-024)
(0.938145 0.00310075 -8.21859e-024)
(0.937546 0.00308113 7.88095e-024)
(0.936945 0.00306153 -8.10489e-024)
(0.936342 0.00304194 -8.0376e-024)
(0.935737 0.00302234 -7.96338e-024)
(0.93513 0.00300272 -7.88221e-024)
(0.934522 0.00298309 -7.79405e-024)
(0.933912 0.00296345 7.41091e-024)
(0.9333 0.00294385 -7.59695e-024)
(0.932686 0.00292428 -7.48812e-024)
(0.932071 0.00290475 -7.37244e-024)
(0.931453 0.00288524 -7.24994e-024)
(0.930834 0.00286575 -7.12065e-024)
(0.930214 0.00284623 6.69297e-024)
(0.929592 0.0028267 -6.84158e-024)
(0.928968 0.0028072 -6.69185e-024)
(0.928342 0.00278778 -6.53541e-024)
(0.927715 0.00276845 -6.37233e-024)
(0.927087 0.00274919 -6.20264e-024)
(0.926456 0.00273 -6.0264e-024)
(0.925825 0.00271089 5.55094e-024)
(0.925192 0.00269188 -5.65417e-024)
(0.924557 0.00267294 -5.45816e-024)
(0.923921 0.00265405 -5.25561e-024)
(0.923283 0.00263521 -5.04656e-024)
(0.922644 0.00261649 -4.83106e-024)
(0.922003 0.00259793 4.31875e-024)
(0.921361 0.00257956 -4.38048e-024)
(0.920718 0.00256146 -4.14517e-024)
(0.920073 0.0025437 -3.9031e-024)
(0.919427 0.00252631 -3.65423e-024)
(0.918779 0.00250929 -3.39841e-024)
(0.91813 0.00249274 2.86067e-024)
(0.917479 0.0024768 -2.86517e-024)
(0.916827 0.00246176 -2.58816e-024)
(0.916174 0.00244749 -2.29949e-024)
(0.915514 0.00243493 -2.01052e-024)
(0.914864 0.00242312 -1.68791e-024)
(0.914179 0.00241485 1.22906e-024)
(0.913564 0.00241181 -1.00835e-024)
(0.912796 0.00240987 -8.91136e-025)
(0.912322 0.00243013 -2.09193e-025)
(0.911286 0.00243035 -8.56662e-025)
(1.00003 0.000497726 1.32981e-023)
(1.00025 0.00146678 0)
(1.00065 0.00226729 0)
(1.0011 0.00290647 0)
(1.00153 0.00340606 0)
(1.00193 0.00379569 0)
(1.00229 0.0040986 -3.6224e-023)
(1.00258 0.00433553 0)
(1.00283 0.00452583 0)
(1.00302 0.00468211 -3.89619e-023)
(1.00318 0.00480917 0)
(1.0033 0.00491616 0)
(1.00339 0.00500837 -4.01671e-023)
(1.00345 0.00508215 0)
(1.0035 0.00513605 -4.04729e-023)
(1.00352 0.00518446 -4.05371e-023)
(1.00352 0.00523181 -4.05465e-023)
(1.0035 0.00527388 -4.05178e-023)
(1.00347 0.00530497 -4.04779e-023)
(1.00342 0.00533186 -4.04143e-023)
(1.00336 0.00535843 -4.03149e-023)
(1.0033 0.00537486 -4.01806e-023)
(1.00322 0.00538642 0)
(1.00314 0.00539458 -3.98241e-023)
(1.00305 0.00540007 -3.9608e-023)
(1.00295 0.00540309 -3.93695e-023)
(1.00285 0.00540258 -3.91299e-023)
(1.00274 0.00539898 -3.88683e-023)
(1.00263 0.00539447 -7.70673e-023)
(1.00251 0.0053894 -3.82634e-023)
(1.00239 0.00538333 0)
(1.00227 0.00537592 -3.7595e-023)
(1.00214 0.00536774 -3.72299e-023)
(1.00201 0.00535922 -3.68476e-023)
(1.00188 0.00535043 -7.27843e-023)
(1.00174 0.00534172 -3.6036e-023)
(1.0016 0.00533293 -3.56084e-023)
(1.00146 0.00532376 -3.51714e-023)
(1.00132 0.00531408 -3.47236e-023)
(1.00117 0.00530382 0)
(1.00102 0.00529312 -6.74558e-023)
(1.00087 0.00528178 -3.33045e-023)
(1.00071 0.00526884 -3.28042e-023)
(1.00056 0.0052549 -3.22897e-023)
(1.0004 0.00524112 -3.17643e-023)
(1.00024 0.00522759 -3.12304e-023)
(1.00008 0.00521445 -6.12586e-023)
(0.999917 0.00520154 0)
(0.999751 0.00518858 -2.95756e-023)
(0.999583 0.00517552 -2.90085e-023)
(0.999412 0.00516253 -2.84373e-023)
(0.999239 0.00514967 -2.78628e-023)
(0.999064 0.0051367 -2.72838e-023)
(0.998887 0.00512329 -2.66989e-023)
(0.998707 0.00510935 -2.61079e-023)
(0.998526 0.00509515 -2.55105e-023)
(0.998342 0.00508095 0)
(0.998156 0.00506685 -2.43009e-023)
(0.997968 0.00505282 -2.36917e-023)
(0.997778 0.00503879 -2.30822e-023)
(0.997586 0.00502472 -2.24719e-023)
(0.997391 0.00501049 -2.18596e-023)
(0.997193 0.00499598 -2.12448e-023)
(0.996993 0.00498126 -2.06286e-023)
(0.996791 0.00496657 0)
(0.996586 0.00495209 -1.94003e-023)
(0.996379 0.00493778 -1.87897e-023)
(0.996169 0.00492339 -1.81808e-023)
(0.995957 0.00490864 -1.75737e-023)
(0.995742 0.00489355 -1.6968e-023)
(0.995524 0.0048783 -1.63644e-023)
(0.995303 0.00486316 -1.57638e-023)
(0.99508 0.00484824 -1.51666e-023)
(0.994854 0.00483358 -1.45725e-023)
(0.994626 0.00481917 -1.3981e-023)
(0.994395 0.00480505 -1.33927e-023)
(0.994162 0.00479129 -1.28071e-023)
(0.993926 0.00477785 -1.22232e-023)
(0.993688 0.00476419 -1.16397e-023)
(0.993448 0.00475029 -1.1058e-023)
(0.993206 0.00473674 -1.04798e-023)
(0.992961 0.00472376 0)
(0.992715 0.00471127 -9.32998e-024)
(0.992467 0.00469915 -1.34653e-025)
(0.992218 0.00468724 -1.3406e-025)
(0.991967 0.0046754 -7.62087e-024)
(0.991714 0.00466354 -7.05505e-024)
(0.99146 0.00465166 -6.49114e-024)
(0.991205 0.00463975 -5.92939e-024)
(0.990948 0.00462783 -5.36996e-024)
(0.990689 0.0046159 4.67788e-024)
(0.990429 0.00460398 -4.26041e-024)
(0.990167 0.00459206 -3.711e-024)
(0.989904 0.00458012 -3.16598e-024)
(0.98964 0.00456813 -2.62602e-024)
(0.989373 0.00455611 -2.09093e-024)
(0.989105 0.00454403 -1.39837e-025)
(0.988836 0.00453185 -1.0336e-024)
(0.988565 0.00451958 -5.11989e-025)
(0.988293 0.00450733 5.67952e-027)
(0.988019 0.00449511 5.18809e-025)
(0.987743 0.00448274 1.02465e-024)
(0.987466 0.00447017 -1.41526e-025)
(0.987186 0.00445748 2.01421e-024)
(0.986905 0.00444473 2.49875e-024)
(0.986622 0.00443188 2.97633e-024)
(0.986338 0.0044189 3.44638e-024)
(0.986051 0.00440581 3.90855e-024)
(0.985763 0.00439262 4.36271e-024)
(0.985473 0.0043793 -1.48373e-025)
(0.985181 0.00436581 5.24808e-024)
(0.984888 0.00435221 5.67956e-024)
(0.984592 0.00433855 6.10304e-024)
(0.984295 0.00432487 6.51789e-024)
(0.983996 0.00431116 6.92373e-024)
(0.983696 0.00429738 -1.53186e-025)
(0.983393 0.0042835 7.7079e-024)
(0.983088 0.00426951 8.08641e-024)
(0.982782 0.00425542 8.45566e-024)
(0.982474 0.00424121 8.81552e-024)
(0.982163 0.00422692 9.1657e-024)
(0.981851 0.00421258 -1.58867e-025)
(0.981537 0.00419818 9.83594e-024)
(0.98122 0.00418369 1.01562e-023)
(0.980902 0.00416907 1.04663e-023)
(0.980582 0.00415436 1.07657e-023)
(0.98026 0.0041396 1.10545e-023)
(0.979935 0.00412478 -1.64072e-025)
(0.979609 0.00410985 1.16005e-023)
(0.979281 0.00409486 1.1857e-023)
(0.97895 0.00407981 1.21023e-023)
(0.978618 0.00406469 1.23366e-023)
(0.978283 0.00404949 1.25598e-023)
(0.977946 0.00403424 -1.69169e-025)
(0.977608 0.00401894 1.2972e-023)
(0.977267 0.00400358 1.3161e-023)
(0.976924 0.00398811 1.33386e-023)
(0.976579 0.00397256 1.35042e-023)
(0.976231 0.00395698 1.36577e-023)
(0.975882 0.00394137 -1.7363e-025)
(0.97553 0.00392571 1.39283e-023)
(0.975177 0.00390999 1.40458e-023)
(0.974821 0.00389421 1.41514e-023)
(0.974463 0.00387839 1.42451e-023)
(0.974102 0.00386251 1.43268e-023)
(0.97374 0.00384657 1.43963e-023)
(0.973375 0.00383061 -1.77719e-025)
(0.973009 0.00381462 1.4498e-023)
(0.97264 0.0037986 1.45304e-023)
(0.972268 0.00378256 1.45504e-023)
(0.971895 0.00376648 1.45581e-023)
(0.971519 0.00375038 1.45533e-023)
(0.971142 0.00373422 -1.80989e-025)
(0.970762 0.00371801 1.45062e-023)
(0.97038 0.00370176 1.44639e-023)
(0.969995 0.0036855 1.44092e-023)
(0.969609 0.00366926 1.43419e-023)
(0.96922 0.00365305 1.42622e-023)
(0.968829 0.00363682 -1.83177e-025)
(0.968436 0.00362057 1.40651e-023)
(0.968041 0.00360428 1.39476e-023)
(0.967643 0.00358798 1.38176e-023)
(0.967244 0.00357169 1.36753e-023)
(0.966842 0.0035554 1.35203e-023)
(0.966438 0.00353911 -1.84969e-025)
(0.966032 0.00352281 1.31731e-023)
(0.965623 0.00350652 1.29808e-023)
(0.965213 0.00349026 1.27758e-023)
(0.9648 0.00347403 1.25584e-023)
(0.964385 0.00345781 1.23289e-023)
(0.963968 0.00344159 -1.85878e-025)
(0.963549 0.00342536 1.18333e-023)
(0.963128 0.00340915 1.15672e-023)
(0.962705 0.00339298 1.12889e-023)
(0.962279 0.00337687 1.09987e-023)
(0.961851 0.00336082 1.06965e-023)
(0.961422 0.0033448 1.03824e-023)
(0.96099 0.00332883 -1.84502e-025)
(0.960556 0.00331296 9.71816e-024)
(0.96012 0.00329716 9.3683e-024)
(0.959682 0.00328143 9.00676e-024)
(0.959242 0.00326576 8.63374e-024)
(0.9588 0.00325019 8.24945e-024)
(0.958356 0.00323477 -1.79761e-025)
(0.95791 0.00321955 7.44664e-024)
(0.957462 0.0032046 7.02768e-024)
(0.957011 0.00318998 6.59727e-024)
(0.956559 0.00317571 6.15583e-024)
(0.956105 0.00316182 5.70327e-024)
(0.955648 0.00314841 -1.61706e-025)
(0.95519 0.00313569 4.76474e-024)
(0.954729 0.0031239 4.28117e-024)
(0.954267 0.00311337 3.77905e-024)
(0.953798 0.00310414 3.28739e-024)
(0.953338 0.00309823 2.73948e-024)
(0.952851 0.0030923 -8.62104e-026)
(0.952414 0.00309459 1.65361e-024)
(0.951871 0.00309156 1.44911e-024)
(0.951532 0.00310766 5.04493e-025)
(0.950797 0.00309887 1.25516e-024)
(1.00001 0.000386706 -1.23377e-023)
(1.00016 0.00118386 0)
(1.00044 0.00190011 0)
(1.00078 0.002511 0)
(1.00114 0.00301886 0)
(1.00149 0.00343598 0)
(1.00181 0.00377619 2.55977e-023)
(1.0021 0.00405341 0)
(1.00235 0.00428319 -5.24227e-023)
(1.00257 0.00447671 2.76498e-023)
(1.00276 0.00464045 -5.49051e-023)
(1.00292 0.00478104 -5.58679e-023)
(1.00305 0.0049016 2.88885e-023)
(1.00317 0.00500387 0)
(1.00326 0.0050882 2.94056e-023)
(1.00333 0.00515915 2.96039e-023)
(1.00338 0.00522304 2.97623e-023)
(1.00342 0.00528224 2.98912e-023)
(1.00345 0.00532355 3.00097e-023)
(1.00347 0.00534964 3.01078e-023)
(1.00348 0.00537566 3.01758e-023)
(1.00349 0.00539782 3.02138e-023)
(1.00348 0.00541598 0)
(1.00347 0.00542994 3.02109e-023)
(1.00346 0.00544148 3.01739e-023)
(1.00344 0.00545157 3.01153e-023)
(1.00341 0.00545593 3.00512e-023)
(1.00338 0.00545998 2.99654e-023)
(1.00335 0.00546441 2.98506e-023)
(1.00332 0.00546515 2.9717e-023)
(1.00328 0.00546352 0)
(1.00325 0.00545913 2.94005e-023)
(1.0032 0.00545365 2.92113e-023)
(1.00316 0.00544735 2.90041e-023)
(1.00312 0.00543985 2.87813e-023)
(1.00307 0.00543224 2.85397e-023)
(1.00302 0.00542505 2.82838e-023)
(1.00297 0.00541799 2.80162e-023)
(1.00292 0.00541039 2.77361e-023)
(1.00286 0.00540095 0)
(1.0028 0.00539019 2.71346e-023)
(1.00275 0.00537952 2.68117e-023)
(1.00269 0.0053688 2.64742e-023)
(1.00263 0.00535798 2.61215e-023)
(1.00256 0.00534728 2.57564e-023)
(1.0025 0.00533695 2.53811e-023)
(1.00243 0.00532682 2.49951e-023)
(1.00237 0.00531647 0)
(1.0023 0.0053058 2.41919e-023)
(1.00223 0.00529499 2.37766e-023)