# vtk DataFile Version 2.0
track0
ASCII
DATASET POLYDATA
POINTS 11930 float
-0.0205 0.001 1e-005
-0.0203851 0.00100536 1.50242e-005
-0.0202701 0.00101047 1.96638e-005
-0.0201551 0.00101535 2.39716e-005
-0.0200401 0.00102 2.79429e-005
-0.0198624 0.00102682 3.35491e-005
-0.0196934 0.00103276 3.80965e-005
-0.0195243 0.00103809 4.16121e-005
-0.0193551 0.00104282 4.41049e-005
-0.019186 0.00104693 4.55841e-005
-0.0190172 0.00105043 4.60584e-005
-0.0187132 0.00105595 4.60584e-005
-0.0184093 0.00106082 4.60584e-005
-0.0181054 0.00106516 4.60584e-005
-0.0178014 0.00106899 4.60584e-005
-0.0174976 0.00107228 4.60584e-005
-0.0172058 0.00107515 4.60584e-005
-0.016914 0.00107794 4.60584e-005
-0.0166222 0.00108067 4.60584e-005
-0.0163305 0.00108332 4.60584e-005
-0.0160387 0.00108591 4.60584e-005
-0.0157586 0.0010883 4.60584e-005
-0.0154784 0.00109062 4.60584e-005
-0.0151983 0.00109286 4.60584e-005
-0.0149182 0.00109502 4.60584e-005
-0.0146381 0.0010971 4.60584e-005
-0.0143692 0.00109897 4.60584e-005
-0.0141002 0.00110074 4.60584e-005
-0.0138313 0.00110244 4.60584e-005
-0.0135624 0.00110407 4.60584e-005
-0.0132934 0.00110561 4.60584e-005
-0.0130353 0.00110703 4.60584e-005
-0.0127771 0.00110838 4.60584e-005
-0.0125189 0.00110969 4.60584e-005
-0.0122607 0.00111097 4.60584e-005
-0.0120025 0.00111221 4.60584e-005
-0.0117547 0.00111336 4.60584e-005
-0.0115068 0.00111449 4.60584e-005
-0.0112589 0.00111561 4.60584e-005
-0.0110111 0.0011167 4.60584e-005
-0.0107632 0.00111778 4.60584e-005
-0.0105252 0.00111879 4.60584e-005
-0.0102873 0.00111979 4.60584e-005
-0.0100493 0.00112078 4.60584e-005
-0.00981133 0.00112175 4.60584e-005
-0.00957337 0.00112271 4.60584e-005
-0.00934491 0.00112362 4.60584e-005
-0.00911645 0.00112452 4.60584e-005
-0.00888799 0.00112541 4.60584e-005
-0.00865954 0.00112629 4.60584e-005
-0.00843108 0.00112717 4.60584e-005
-0.00821175 0.001128 4.60584e-005
-0.00799242 0.00112882 4.60584e-005
-0.00777309 0.00112963 4.60584e-005
-0.00755376 0.00113044 4.60584e-005
-0.00733443 0.00113125 4.60584e-005
-0.00712387 0.00113202 4.60584e-005
-0.0069133 0.00113278 4.60584e-005
-0.00670273 0.00113354 4.60584e-005
-0.00649216 0.0011343 4.60584e-005
-0.0062816 0.00113505 4.60584e-005
-0.00607944 0.00113578 4.60584e-005
-0.00587729 0.0011365 4.60584e-005
-0.00567514 0.00113721 4.60584e-005
-0.00547298 0.00113793 4.60584e-005
-0.00527083 0.00113864 4.60584e-005
-0.00507675 0.00113933 4.60584e-005
-0.00488267 0.00114001 4.60584e-005
-0.0046886 0.00114069 4.60584e-005
-0.00449452 0.00114137 4.60584e-005
-0.00430044 0.00114206 4.60584e-005
-0.00411412 0.00114271 4.60584e-005
-0.0039278 0.00114337 4.60584e-005
-0.00374147 0.00114402 4.60584e-005
-0.00355515 0.00114467 4.60584e-005
-0.00336883 0.00114532 4.60584e-005
-0.00318995 0.00114596 4.60584e-005
-0.00301107 0.00114659 4.60584e-005
-0.00283219 0.00114721 4.60584e-005
-0.00265331 0.00114784 4.60584e-005
-0.00247443 0.00114847 4.60584e-005
-0.0023027 0.00114909 4.60584e-005
-0.00213097 0.0011497 4.60584e-005
-0.00195924 0.0011503 4.60584e-005
-0.0017875 0.00115091 4.60584e-005
-0.00161577 0.00115153 4.60584e-005
-0.0014509 0.00115212 4.60584e-005
-0.00128603 0.00115272 4.60584e-005
-0.00112116 0.00115331 4.60584e-005
-0.000956289 0.0011539 4.60584e-005
-0.000791418 0.0011545 4.60584e-005
-0.000633135 0.0011551 4.60584e-005
-0.000474851 0.00115568 4.60584e-005
-0.000316567 0.00115627 4.60584e-005
-0.000158284 0.00115686 4.60584e-005
0 0.00115746 4.60584e-005
0.000105677 0.00115787 4.60584e-005
0.000211355 0.00115828 4.60584e-005
0.000317032 0.00115868 4.60584e-005
0.00042271 0.00115909 4.60584e-005
0.000528387 0.00115951 4.60584e-005
0.000634886 0.00115994 4.60584e-005
0.000741385 0.00116037 4.60584e-005
0.000847885 0.00116079 4.60584e-005
0.000954384 0.00116123 4.60584e-005
0.00106088 0.00116167 4.60584e-005
0.00116821 0.00116212 4.60584e-005
0.00127554 0.00116257 4.60584e-005
0.00138286 0.00116303 4.60584e-005
0.00149019 0.00116348 4.60584e-005
0.00159752 0.00116394 4.60584e-005
0.00170568 0.00116442 4.60584e-005
0.00181384 0.00116489 4.60584e-005
0.001922 0.00116537 4.60584e-005
0.00203016 0.00116584 4.60584e-005
0.00213833 0.00116632 4.60584e-005
0.00224733 0.00116681 4.60584e-005
0.00235633 0.0011673 4.60584e-005
0.00246533 0.00116779 4.60584e-005
0.00257434 0.00116828 4.60584e-005
0.00268334 0.00116878 4.60584e-005
0.00279319 0.00116927 4.60584e-005
0.00290304 0.00116978 4.60584e-005
0.00301289 0.00117028 4.60584e-005
0.00312274 0.00117079 4.60584e-005
0.00323259 0.00117129 4.60584e-005
0.00334329 0.0011718 4.60584e-005
0.003454 0.00117231 4.60584e-005
0.0035647 0.00117283 4.60584e-005
0.0036754 0.00117335 4.60584e-005
0.00378611 0.00117387 4.60584e-005
0.00389767 0.00117437 4.60584e-005
0.00400924 0.0011749 4.60584e-005
0.0041208 0.00117543 4.60584e-005
0.00423237 0.00117596 4.60584e-005
0.00434393 0.00117648 4.60584e-005
0.00445636 0.00117699 4.60584e-005
0.00456879 0.00117752 4.60584e-005
0.00468123 0.00117806 4.60584e-005
0.00479366 0.0011786 4.60584e-005
0.00490609 0.00117913 4.60584e-005
0.0050194 0.00117964 4.60584e-005
0.0051327 0.00118018 4.60584e-005
0.00524601 0.00118072 4.60584e-005
0.00535931 0.00118126 4.60584e-005
0.00547262 0.00118179 4.60584e-005
0.00558681 0.00118231 4.60584e-005
0.005701 0.00118285 4.60584e-005
0.00581518 0.00118339 4.60584e-005
0.00592937 0.00118393 4.60584e-005
0.00604356 0.00118447 4.60584e-005
0.00615863 0.00118499 4.60584e-005
0.00627371 0.00118553 4.60584e-005
0.00638878 0.00118607 4.60584e-005
0.00650386 0.00118661 4.60584e-005
0.00661893 0.00118716 4.60584e-005
0.0067349 0.00118768 4.60584e-005
0.00685087 0.00118822 4.60584e-005
0.00696684 0.00118876 4.60584e-005
0.00708281 0.00118929 4.60584e-005
0.00719878 0.00118983 4.60584e-005
0.00731565 0.00119035 4.60584e-005
0.00743252 0.00119089 4.60584e-005
0.00754939 0.00119142 4.60584e-005
0.00766626 0.00119196 4.60584e-005
0.00778313 0.00119249 4.60584e-005
0.00790091 0.00119301 4.60584e-005
0.00801869 0.00119354 4.60584e-005
0.00813647 0.00119407 4.60584e-005
0.00825425 0.0011946 4.60584e-005
0.00837203 0.00119513 4.60584e-005
0.00849073 0.00119565 4.60584e-005
0.00860942 0.00119618 4.60584e-005
0.00872812 0.0011967 4.60584e-005
0.00884682 0.00119722 4.60584e-005
0.00896551 0.00119775 4.60584e-005
0.00908513 0.00119826 4.60584e-005
0.00920475 0.00119878 4.60584e-005
0.00932437 0.0011993 4.60584e-005
0.00944398 0.00119981 4.60584e-005
0.0095636 0.00120033 4.60584e-005
0.00968415 0.00120084 4.60584e-005
0.0098047 0.00120135 4.60584e-005
0.00992525 0.00120186 4.60584e-005
0.0100458 0.00120237 4.60584e-005
0.0101663 0.00120288 4.60584e-005
0.0102878 0.00120338 4.60584e-005
0.0104093 0.00120388 4.60584e-005
0.0105308 0.00120439 4.60584e-005
0.0106523 0.00120489 4.60584e-005
0.0107738 0.00120539 4.60584e-005
0.0108962 0.00120588 4.60584e-005
0.0110186 0.00120638 4.60584e-005
0.0111411 0.00120687 4.60584e-005
0.0112635 0.00120736 4.60584e-005
0.0113859 0.00120785 4.60584e-005
0.0115093 0.00120833 4.60584e-005
0.0116327 0.00120882 4.60584e-005
0.0117561 0.00120931 4.60584e-005
0.0118795 0.00120979 4.60584e-005
0.0120028 0.00121026 4.60584e-005
0.0121272 0.00121074 4.60584e-005
0.0122515 0.00121121 4.60584e-005
0.0123759 0.00121169 4.60584e-005
0.0125002 0.00121216 4.60584e-005
0.0126245 0.00121262 4.60584e-005
0.0127498 0.00121309 4.60584e-005
0.0128752 0.00121355 4.60584e-005
0.0130005 0.00121401 4.60584e-005
0.0131258 0.00121447 4.60584e-005
0.0132511 0.00121492 4.60584e-005
0.0133774 0.00121537 4.60584e-005
0.0135036 0.00121582 4.60584e-005
0.0136299 0.00121627 4.60584e-005
0.0137562 0.00121671 4.60584e-005
0.0138825 0.00121715 4.60584e-005
0.0140098 0.00121758 4.60584e-005
0.014137 0.00121802 4.60584e-005
0.0142643 0.00121845 4.60584e-005
0.0143915 0.00121888 4.60584e-005
0.0145188 0.0012193 4.60584e-005
0.0146471 0.00121971 4.60584e-005
0.0147753 0.00122013 4.60584e-005
0.0149036 0.00122054 4.60584e-005
0.0150318 0.00122095 4.60584e-005
0.0151601 0.00122136 4.60584e-005
0.0152893 0.00122175 4.60584e-005
0.0154186 0.00122215 4.60584e-005
0.0155478 0.00122254 4.60584e-005
0.0156771 0.00122293 4.60584e-005
0.0158063 0.00122331 4.60584e-005
0.0159366 0.00122368 4.60584e-005
0.0160668 0.00122406 4.60584e-005
0.0161971 0.00122443 4.60584e-005
0.0163274 0.00122479 4.60584e-005
0.0164576 0.00122515 4.60584e-005
0.0165889 0.0012255 4.60584e-005
0.0167201 0.00122585 4.60584e-005
0.0168514 0.00122619 4.60584e-005
0.0169827 0.00122653 4.60584e-005
0.0171139 0.00122686 4.60584e-005
0.0172028 0.00122708 4.60584e-005
0.0172916 0.0012273 4.60584e-005
0.0173804 0.00122751 4.60584e-005
0.0174693 0.00122772 4.60584e-005
0.0175554 0.00122793 4.60584e-005
0.0175994 0.00122803 4.60584e-005
0.0176434 0.00122813 4.60584e-005
0.0176874 0.00122823 4.60584e-005
0.0177314 0.00122833 4.60584e-005
0.0177754 0.00122843 4.60584e-005
0.0179087 0.00122872 4.60584e-005
0.018042 0.00122901 4.60584e-005
0.0181753 0.00122929 4.60584e-005
0.0183087 0.00122957 4.60584e-005
0.018442 0.00122983 4.60584e-005
0.0185763 0.00123009 4.60584e-005
0.0187107 0.00123035 4.60584e-005
0.018845 0.00123059 4.60584e-005
0.0189794 0.00123083 4.60584e-005
0.0191137 0.00123106 4.60584e-005
0.0192491 0.00123128 4.60584e-005
0.0193845 0.0012315 4.60584e-005
0.0195199 0.00123171 4.60584e-005
0.0196553 0.0012319 4.60584e-005
0.0197907 0.00123209 4.60584e-005
0.0199272 0.00123227 4.60584e-005
0.0200636 0.00123245 4.60584e-005
0.0202001 0.00123261 4.60584e-005
0.0203365 0.00123277 4.60584e-005
0.020473 0.00123292 4.60584e-005
0.0206105 0.00123305 4.60584e-005
0.020748 0.00123318 4.60584e-005
0.0208855 0.0012333 4.60584e-005
0.021023 0.00123341 4.60584e-005
0.0211606 0.00123351 4.60584e-005
0.0212991 0.0012336 4.60584e-005
0.0214377 0.00123368 4.60584e-005
0.0215763 0.00123375 4.60584e-005
0.0217149 0.00123381 4.60584e-005
0.0218535 0.00123386 4.60584e-005
0.0219931 0.0012339 4.60584e-005
0.0221328 0.00123393 4.60584e-005
0.0222724 0.00123394 4.60584e-005
0.0224121 0.00123395 4.60584e-005
0.0225517 0.00123395 4.60584e-005
0.0226925 0.00123394 4.60584e-005
[...]
POINT_DATA 11930
 FIELD attributes 2
p 1 11930 float
-1546.79 -1534.21 -1520.41 -1506.77 -1493.27 -1472.66 -1458.01 -1443.28 -1428.48 -1413.6 -1392.84 -1344.74 -1296.71 -1248.75 -1200.86 -1158.42 -1126.8 -1101.36 -1075.93 -1050.51 -1033.71 -1021.96 -1012.48 -1003.01 -993.548 -985.932 -979.165 -971.251 -963.337 -955.422 -946.371 -937.897 -929.236 -920.572 -911.926 -903.511 -895.526 -888.325 -881.216 -874.259 -868.22 -862.436 -857.229 -852.142 -847.211 -842.871 -838.703 -834.757 -830.88 -827.092 -823.548 -820.136 -816.852 -813.622 -810.464 -807.463 -804.561 -801.784 -799.072 -796.443 -793.957 -791.539 -789.232 -786.998 -784.848 -782.819 -780.832 -778.926 -777.085 -775.318 -773.641 -771.979 -770.379 -768.836 -767.361 -765.954 -764.537 -763.167 -761.849 -760.594 -759.395 -758.161 -756.969 -755.832 -754.764 -753.746 -752.668 -751.617 -750.608 -749.672 -748.782 -747.808 -746.884 -746.049 -745.332 -744.679 -743.952 -743.289 -742.741 -742.329 -741.999 -741.497 -741.037 -740.638 -740.332 -740.098 -739.675 -739.353 -739.146 -739.054 -739.074 -738.906 -738.817 -738.8 -738.847 -738.972 -739.058 -739.133 -739.2 -739.262 -739.314 -739.579 -739.748 -739.859 -739.914 -739.859 -740.254 -740.478 -740.624 -740.684 -740.538 -741.011 -741.255 -741.417 -741.492 -741.284 -741.776 -741.999 -742.15 -742.226 -741.974 -742.426 -742.596 -742.714 -742.78 -742.511 -742.891 -743.016 -743.11 -743.178 -742.943 -743.248 -743.347 -743.434 -743.514 -743.345 -743.576 -743.653 -743.729 -743.805 -743.705 -743.859 -743.918 -743.977 -744.036 -743.997 -744.089 -744.14 -744.19 -744.24 -744.253 -744.313 -744.367 -744.42 -744.473 -744.528 -744.576 -744.634 -744.692 -744.75 -744.831 -744.879 -744.942 -745.004 -745.067 -745.159 -745.219 -745.288 -745.358 -745.427 -745.521 -745.602 -745.68 -745.759 -745.837 -745.928 -746.036 -746.127 -746.218 -746.31 -746.399 -746.534 -746.639 -746.745 -746.851 -746.939 -747.098 -747.217 -747.336 -747.455 -747.546 -747.723 -747.854 -747.986 -748.117 -748.213 -748.404 -748.548 -748.692 -748.835 -748.941 -749.143 -749.299 -749.456 -749.613 -749.735 -749.941 -750.11 -750.279 -750.448 -750.589 -750.801 -750.984 -751.168 -751.351 -751.517 -751.734 -751.934 -752.134 -752.334 -752.527 -752.677 -752.82 -752.964 -753.108 -753.247 -753.318 -753.389 -753.46 -753.531 -753.614 -753.829 -754.055 -754.281 -754.506 -754.778 -754.976 -755.214 -755.453 -755.691 -756.006 -756.192 -756.443 -756.695 -756.946 -757.298 -757.477 -757.741 -758.004 -758.268 -758.65 -758.828 -759.104 -759.379 -759.654 -760.057 -760.244 -760.531 -760.818 -761.104 -761.519 -761.721 -762.019 -762.317 -762.615 -763.032 -763.257 -763.565 -763.873 -764.182 -764.593 -764.847 -765.165 -765.483 -765.801 -766.198 -766.486 -766.813 -767.141 -767.468 -767.845 -768.17 -768.506 -768.842 -769.178 -769.529 -769.893 -770.237 -770.581 -770.924 -771.249 -771.649 -772.003 -772.354 -772.699 -773.001 -773.429 -773.799 -774.157 -774.499 -774.784 -775.234 -775.622 -775.987 -776.323 -776.596 -777.062 -777.47 -777.841 -778.169 -778.437 -778.915 -779.342 -779.721 -780.042 -780.311 -780.799 -781.247 -781.633 -781.945 -782.216 -782.712 -783.179 -783.571 -783.873 -784.146 -784.644 -785.127 -785.522 -785.812 -786.087 -786.581 -787.073 -787.467 -787.75 -788.031 -788.516 -789.002 -789.393 -789.684 -789.975 -790.449 -790.922 -791.312 -791.615 -791.918 -792.378 -792.838 -793.226 -793.542 -793.857 -794.302 -794.747 -795.133 -795.461 -795.788 -796.217 -796.647 -797.031 -797.369 -797.708 -798.121 -798.535 -798.916 -799.263 -799.611 -800.009 -800.408 -800.784 -801.139 -801.493 -801.877 -802.26 -802.631 -802.991 -803.35 -803.719 -804.087 -804.453 -804.815 -805.176 -805.531 -805.887 -806.245 -806.605 -806.965 -807.306 -807.651 -808.001 -808.354 -808.711 -809.038 -809.373 -809.714 -810.057 -810.407 -810.72 -811.045 -811.374 -811.706 -812.045 -812.345 -812.659 -812.975 -813.291 -813.618 -813.903 -814.203 -814.504 -814.804 -815.115 -815.383 -815.666 -815.949 -816.233 -816.526 -816.777 -817.041 -817.306 -817.571 -817.845 -818.078 -818.322 -818.567 -818.812 -819.063 -819.278 -819.501 -819.724 -819.947 -820.173 -820.369 -820.568 -820.768 -820.968 -821.168 -821.173 -821.178 -821.184 -821.189 -821.195 -821.364 -821.533 -821.702 -821.871 -822.039 -822.186 -822.331 -822.475 -822.62 -822.761 -822.879 -822.992 -823.104 -823.217 -823.322 -823.411 -823.489 -823.567 -823.646 -823.714 -823.771 -823.813 -823.854 -823.896 -823.923 -823.948 -823.951 -823.953 -823.954 -823.94 -823.925 -823.891 -823.853 -823.808 -823.751 -823.693 -823.621 -823.539 -823.446 -823.342 -823.24 -823.128 -822.999 -822.854 -822.702 -822.552 -822.399 -822.221 -822.02 -821.818 -821.618 -821.417 -821.187 -820.932 -820.676 -820.423 -820.17 -819.887 -819.576 -819.265 -818.956 -818.647 -818.309 -817.94 -817.57 -817.203 -816.837 -816.44 -816.01 -815.58 -815.152 -814.721 -814.262 -813.774 -813.28 -812.789 -812.287 -811.762 -811.218 -810.659 -810.101 -809.524 -808.932 -808.33 -807.703 -807.077 -806.421 -805.759 -805.098 -804.4 -803.699 -802.965 -802.231 -801.498 -800.739 -799.954 -799.145 -798.337 -797.529 -796.706 -795.835 -794.949 -794.064 -793.179 -792.292 -792.061 -791.827 -791.594 -791.36 -791.13 -790.403 -789.677 -788.951 -788.224 -787.487 -786.46 -785.422 -784.383 -783.346 -782.28 -781.188 -780.068 -778.948 -777.829 -776.663 -775.505 -774.302 -773.099 -771.887 -770.628 -769.388 -768.115 -766.827 -765.512 -764.166 -762.84 -761.499 -760.125 -758.704 -757.271 -755.857 -754.444 -752.979 -751.457 -749.935 -748.433 -746.932 -745.377 -743.765 -742.154 -740.563 -738.973 -737.325 -735.624 -733.923 -732.241 -730.548 -728.805 -727.028 -725.236 -723.463 -721.656 -719.82 -717.973 -716.089 -714.225 -712.301 -710.373 -708.445 -706.478 -704.501 -702.48 -700.458 -698.438 -696.401 -694.864 -693.309 -691.754 -690.199 -688.717 -688.147 -687.576 -687.006 -686.436 -685.858 -683.669 -681.474 -679.279 -677.085 -674.857 -672.597 -670.309 -668.021 -665.733 -663.383 -661.044 -658.673 -656.292 -653.881 -651.437 -649.004 -646.565 -644.09 -641.556 -639.018 -636.492 -633.967 -631.39 -628.759 -626.128 -623.508 -620.89 -618.213 -615.49 -612.766 -610.054 -607.316 -604.54 -601.752 -598.935 -596.132 -593.267 -590.4 -587.533 -584.638 -581.713 -578.753 -575.794 -572.836 -569.975 -569.956 -569.936 -569.917 -569.897 -569.878 -566.835 -563.792 -560.75 -557.709 -554.643 -551.527 -548.395 -545.264 -542.131 -538.955 -535.758 -532.547 -529.329 -526.083 -522.82 -519.536 -516.252 -512.942 -509.593 -506.244 -502.874 -499.505 -496.1 -492.667 -489.235 -485.781 -482.312 -478.817 -475.315 -471.8 -468.265 -464.69 -461.114 -457.538 -453.951 -451.368 -448.768 -446.168 -443.568 -441.07 -439.996 -438.923 -437.849 -436.776 -435.694 -431.972 -428.246 -424.521 -420.796 -417.036 -413.253 -409.453 -405.654 -401.837 -397.995 -394.139 -390.281 -386.408 -382.497 -378.584 -374.658 -370.732 -366.776 -362.798 -358.819 -354.825 -350.818 -346.788 -342.755 -338.712 -334.653 -330.561 -326.469 -322.378 -318.282 -316.694 -315.097 -313.501 -311.904 -310.339 -307.781 -305.223 -302.665 -300.107 -297.534 -293.337 -289.134 -284.932 -280.727 -276.491 -272.244 -267.994 -263.74 -259.461 -255.175 -250.878 -246.581 -242.267 -237.937 -233.605 -229.262 -224.912 -220.544 -216.175 -211.801 -207.415 -203.007 -198.598 -194.191 -189.781 -188.373 -186.961 -185.549 -184.136 -182.745 -179.709 -176.673 -173.637 -170.601 -167.553 -163.077 -158.599 -154.123 -149.641 -145.142 -140.635 -136.129 -131.623 -127.099 -122.573 -118.039 -113.505 -108.958 -104.409 -99.8589 -95.2992 -90.7322 -86.161 -81.5903 -77.0208 -73.8303 -70.6359 -67.4418 -64.2478 -61.1503 -59.738 -58.3258 -56.9137 -55.5016 -54.0866 -49.4828 -44.8809 -40.2795 -35.6779 -31.0639 -26.4446 -21.8282 -17.2154 -12.5952 -7.97201 -3.34286 1.28571 5.91661 10.5424 15.1702 19.8046 24.4401 29.0764 33.7122 38.3426 41.2846 44.2267 47.1687 50.1104 52.9775 54.6893 56.4011 58.1128 59.8245 61.5373 66.1827 70.8231 75.463 80.1027 84.7448 89.3906 94.0341 98.6683 103.301 107.935 112.573 117.211 121.845 126.469 131.093 135.722 140.344 144.965 149.586 154.206 155.199 156.19 157.181 158.172 159.156 162.781 166.406 170.031 173.656 177.278 181.891 186.493 191.093 195.687 200.281 204.876 209.471 214.054 218.624 223.197 227.771 232.338 236.9 241.461 246.013 248.279 250.539 252.798 255.058 257.278 259.57 261.861 264.153 266.444 268.73 273.264 277.787 282.31 286.826 291.337 295.846 300.354 304.847 309.326 313.807 318.285 322.756 327.217 331.677 336.128 338.427 340.717 343.007 345.297 347.549 349.702 351.855 354.008 356.16 358.305 362.725 367.133 371.54 375.938 380.33 384.715 389.1 393.468 397.819 402.173 406.52 410.853 415.179 419.504 423.824 425.121 426.413 427.704 428.995 430.275 433.283 436.291 439.299 442.305 445.3 449.573 453.836 458.095 462.336 466.575 470.804 475.032 479.239 483.433 487.627 491.296 494.947 498.595 502.243 505.814 506.342 506.869 507.397 507.924 508.449 512.582 516.711 520.839 524.962 529.069 533.16 537.252 541.323 545.376 549.431 553.47 557.494 561.506 565.518 569.524 570.524 571.517 572.51 573.503 574.491 577.472 580.454 583.436 586.413 589.375 593.311 597.243 601.161 605.051 608.943 612.819 616.684 620.528 624.372 628.2 629.728 631.246 632.761 634.276 635.785 638.065 640.345 642.625 644.9 647.161 650.916 654.66 658.395 662.096 665.797 669.479 673.152 676.793 680.432 684.048 685.584 687.11 688.633 690.155 691.684 693.743 695.801 697.86 699.914 701.954 705.5 709.014 712.505 715.907 719.304 722.681 726.089 729.608 733.13 736.707 738.234 739.478 740.629 741.781 742.957 744.739 746.52 748.302 749.972 751.274 753.528 756.322 759.443 764.123 768.922 773.605 777.585 780.051 782.52 784.75 784.861 784.996 785.17 785.344 785.519 787.421 789.325 791.23 793.645 796.386 799.357 802.311 805.133 807.955 810.723 811.171 811.611 812.033 812.455 812.883 815.197 817.51 819.822 822.057 824.243 826.865 829.483 831.999 834.512 836.962 837.489 838.004 838.495 838.987 839.492 841.415 843.335 845.253 847.095 848.889 851.163 853.433 855.526 857.564 859.535 860.136 860.709 861.236 861.763 862.32 863.635 864.947 866.256 867.476 868.628 870.25 871.866 873.283 874.485 875.677 876.285 876.811 877.239 877.667 878.146 878.603 879.059 879.512 879.902 880.219 880.828 881.345 881.707 881.739 881.76 881.645 881.304 880.75 880.188 879.555 879.46 879.333 879.189 879.045 878.896 877.881 876.852 875.81 874.629 873.15 871.287 869.412 867.098 864.366 861.622 858.618 855.196 851.542 847.881 844.068 843.267 842.361 841.439 840.517 839.54 835.741 831.93 828.107 824.233 819.899 814.167 808.164 801.859 794.786 787.634 780.01 772.373 764.144 755.473 746.721 737.444 726.961 716.221 705.478 694.267 689.823 685.371 680.918 676.463 671.443 663.632 655.817 647.997 640.172 632.305 618.47 602.693 586.884 570.066 550.673 530.306 510.48 492.862 478.874 464.904 450.184 435.466 407.96 368.129 328.265 286.605 253.891 237.425 228.522 231.382 234.05 177.096 119.747 62.1025 0