# vtk DataFile Version 2.0
track0
ASCII
DATASET POLYDATA
POINTS 11935 float
-0.0205 0.001 1e-005
-0.0203851 0.00100536 1.50221e-005
-0.0202702 0.00101048 1.96598e-005
-0.0201552 0.00101536 2.39658e-005
-0.0200403 0.00102001 2.79356e-005
-0.0198629 0.00102682 3.35313e-005
-0.0196938 0.00103277 3.80831e-005
-0.0195246 0.00103812 4.16016e-005
-0.0193553 0.00104286 4.40961e-005
-0.0191861 0.00104699 4.55759e-005
-0.0190172 0.0010505 4.60496e-005
-0.0187132 0.00105605 4.60496e-005
-0.0184093 0.00106095 4.60496e-005
-0.0181054 0.00106535 4.60496e-005
-0.0178014 0.00106923 4.60496e-005
-0.0174976 0.00107259 4.60496e-005
-0.0172058 0.00107554 4.60496e-005
-0.016914 0.00107839 4.60496e-005
-0.0166222 0.00108118 4.60496e-005
-0.0163305 0.00108388 4.60496e-005
-0.0160387 0.00108652 4.60496e-005
-0.0157586 0.00108896 4.60496e-005
-0.0154784 0.00109132 4.60496e-005
-0.0151983 0.00109359 4.60496e-005
-0.0149182 0.00109577 4.60496e-005
-0.0146381 0.00109786 4.60496e-005
-0.0143692 0.00109975 4.60496e-005
-0.0141002 0.00110154 4.60496e-005
-0.0138313 0.00110325 4.60496e-005
-0.0135624 0.00110489 4.60496e-005
-0.0132934 0.00110644 4.60496e-005
-0.0130353 0.00110787 4.60496e-005
-0.0127771 0.00110924 4.60496e-005
-0.0125189 0.00111057 4.60496e-005
-0.0122607 0.00111187 4.60496e-005
-0.0120025 0.00111313 4.60496e-005
-0.0117547 0.00111431 4.60496e-005
-0.0115068 0.00111546 4.60496e-005
-0.0112589 0.0011166 4.60496e-005
-0.0110111 0.00111772 4.60496e-005
-0.0107632 0.00111882 4.60496e-005
-0.0105252 0.00111987 4.60496e-005
-0.0102873 0.00112089 4.60496e-005
-0.0100493 0.00112191 4.60496e-005
-0.00981133 0.00112292 4.60496e-005
-0.00957337 0.00112391 4.60496e-005
-0.00934491 0.00112485 4.60496e-005
-0.00911645 0.00112578 4.60496e-005
-0.00888799 0.00112671 4.60496e-005
-0.00865954 0.00112762 4.60496e-005
-0.00843108 0.00112853 4.60496e-005
-0.00821175 0.0011294 4.60496e-005
-0.00799242 0.00113025 4.60496e-005
-0.00777309 0.0011311 4.60496e-005
-0.00755376 0.00113195 4.60496e-005
-0.00733443 0.00113279 4.60496e-005
-0.00712387 0.0011336 4.60496e-005
-0.0069133 0.0011344 4.60496e-005
-0.00670273 0.0011352 4.60496e-005
-0.00649216 0.00113599 4.60496e-005
-0.0062816 0.00113678 4.60496e-005
-0.00607944 0.00113755 4.60496e-005
-0.00587729 0.0011383 4.60496e-005
-0.00567514 0.00113905 4.60496e-005
-0.00547298 0.0011398 4.60496e-005
-0.00527083 0.00114056 4.60496e-005
-0.00507675 0.00114128 4.60496e-005
-0.00488267 0.001142 4.60496e-005
-0.0046886 0.00114271 4.60496e-005
-0.00449452 0.00114343 4.60496e-005
-0.00430044 0.00114414 4.60496e-005
-0.00411412 0.00114484 4.60496e-005
-0.0039278 0.00114552 4.60496e-005
-0.00374147 0.00114621 4.60496e-005
-0.00355515 0.00114689 4.60496e-005
-0.00336883 0.00114758 4.60496e-005
-0.00318995 0.00114824 4.60496e-005
-0.00301107 0.0011489 4.60496e-005
-0.00283219 0.00114955 4.60496e-005
-0.00265331 0.00115021 4.60496e-005
-0.00247443 0.00115087 4.60496e-005
-0.0023027 0.00115152 4.60496e-005
-0.00213097 0.00115216 4.60496e-005
-0.00195924 0.00115279 4.60496e-005
-0.0017875 0.00115342 4.60496e-005
-0.00161577 0.00115407 4.60496e-005
-0.0014509 0.0011547 4.60496e-005
-0.00128603 0.00115532 4.60496e-005
-0.00112116 0.00115593 4.60496e-005
-0.000956289 0.00115655 4.60496e-005
-0.000791418 0.00115718 4.60496e-005
-0.000633135 0.00115781 4.60496e-005
-0.000474851 0.00115842 4.60496e-005
-0.000316567 0.00115904 4.60496e-005
-0.000158284 0.00115965 4.60496e-005
0 0.00116028 4.60496e-005
0.000105677 0.00116071 4.60496e-005
0.000211355 0.00116114 4.60496e-005
0.000317032 0.00116156 4.60496e-005
0.00042271 0.00116198 4.60496e-005
0.000528387 0.00116242 4.60496e-005
0.000634886 0.00116287 4.60496e-005
0.000741385 0.00116332 4.60496e-005
0.000847885 0.00116376 4.60496e-005
0.000954384 0.00116421 4.60496e-005
0.00106088 0.00116467 4.60496e-005
0.00116821 0.00116515 4.60496e-005
0.00127554 0.00116562 4.60496e-005
0.00138286 0.00116609 4.60496e-005
0.00149019 0.00116656 4.60496e-005
0.00159752 0.00116704 4.60496e-005
0.00170568 0.00116754 4.60496e-005
0.00181384 0.00116804 4.60496e-005
0.001922 0.00116853 4.60496e-005
0.00203016 0.00116902 4.60496e-005
0.00213833 0.00116952 4.60496e-005
0.00224733 0.00117003 4.60496e-005
0.00235633 0.00117054 4.60496e-005
0.00246533 0.00117105 4.60496e-005
0.00257434 0.00117156 4.60496e-005
0.00268334 0.00117206 4.60496e-005
0.00279319 0.00117258 4.60496e-005
0.00290304 0.0011731 4.60496e-005
0.00301289 0.00117362 4.60496e-005
0.00312274 0.00117415 4.60496e-005
0.00323259 0.00117467 4.60496e-005
0.00334329 0.00117519 4.60496e-005
0.003454 0.00117572 4.60496e-005
0.0035647 0.00117626 4.60496e-005
0.0036754 0.00117679 4.60496e-005
0.00378611 0.00117732 4.60496e-005
0.00389767 0.00117785 4.60496e-005
0.00400924 0.00117839 4.60496e-005
0.0041208 0.00117893 4.60496e-005
0.00423237 0.00117948 4.60496e-005
0.00434393 0.00118002 4.60496e-005
0.00445636 0.00118055 4.60496e-005
0.00456879 0.00118109 4.60496e-005
0.00468123 0.00118165 4.60496e-005
0.00479366 0.0011822 4.60496e-005
0.00490609 0.00118274 4.60496e-005
0.0050194 0.00118327 4.60496e-005
0.0051327 0.00118383 4.60496e-005
0.00524601 0.00118438 4.60496e-005
0.00535931 0.00118493 4.60496e-005
0.00547262 0.00118549 4.60496e-005
0.00558681 0.00118602 4.60496e-005
0.005701 0.00118657 4.60496e-005
0.00581518 0.00118713 4.60496e-005
0.00592937 0.00118768 4.60496e-005
0.00604356 0.00118824 4.60496e-005
0.00615863 0.00118877 4.60496e-005
0.00627371 0.00118933 4.60496e-005
0.00638878 0.00118988 4.60496e-005
0.00650386 0.00119044 4.60496e-005
0.00661893 0.00119099 4.60496e-005
0.0067349 0.00119153 4.60496e-005
0.00685087 0.00119208 4.60496e-005
0.00696684 0.00119263 4.60496e-005
0.00708281 0.00119318 4.60496e-005
0.00719878 0.00119373 4.60496e-005
0.00731565 0.00119427 4.60496e-005
0.00743252 0.00119482 4.60496e-005
0.00754939 0.00119536 4.60496e-005
0.00766626 0.00119591 4.60496e-005
0.00778313 0.00119645 4.60496e-005
0.00790091 0.00119699 4.60496e-005
0.00801869 0.00119753 4.60496e-005
0.00813647 0.00119807 4.60496e-005
0.00825425 0.00119861 4.60496e-005
0.00837203 0.00119915 4.60496e-005
0.00849073 0.00119968 4.60496e-005
0.00860942 0.00120022 4.60496e-005
0.00872812 0.00120075 4.60496e-005
0.00884682 0.00120129 4.60496e-005
0.00896551 0.00120182 4.60496e-005
0.00908513 0.00120234 4.60496e-005
0.00920475 0.00120287 4.60496e-005
0.00932437 0.0012034 4.60496e-005
0.00944398 0.00120393 4.60496e-005
0.0095636 0.00120445 4.60496e-005
0.00968415 0.00120497 4.60496e-005
0.0098047 0.00120549 4.60496e-005
0.00992525 0.00120601 4.60496e-005
0.0100458 0.00120653 4.60496e-005
0.0101663 0.00120705 4.60496e-005
0.0102878 0.00120756 4.60496e-005
0.0104093 0.00120807 4.60496e-005
0.0105308 0.00120858 4.60496e-005
0.0106523 0.00120909 4.60496e-005
0.0107738 0.0012096 4.60496e-005
0.0108962 0.0012101 4.60496e-005
0.0110186 0.00121061 4.60496e-005
0.0111411 0.00121111 4.60496e-005
0.0112635 0.00121161 4.60496e-005
0.0113859 0.0012121 4.60496e-005
0.0115093 0.00121259 4.60496e-005
0.0116327 0.00121309 4.60496e-005
0.0117561 0.00121358 4.60496e-005
0.0118795 0.00121407 4.60496e-005
0.0120028 0.00121455 4.60496e-005
0.0121272 0.00121504 4.60496e-005
0.0122515 0.00121552 4.60496e-005
0.0123759 0.001216 4.60496e-005
0.0125002 0.00121648 4.60496e-005
0.0126245 0.00121695 4.60496e-005
0.0127498 0.00121742 4.60496e-005
0.0128752 0.00121789 4.60496e-005
0.0130005 0.00121836 4.60496e-005
0.0131258 0.00121882 4.60496e-005
0.0132511 0.00121928 4.60496e-005
0.0133774 0.00121974 4.60496e-005
0.0135036 0.00122019 4.60496e-005
0.0136299 0.00122065 4.60496e-005
0.0137562 0.0012211 4.60496e-005
0.0138825 0.00122154 4.60496e-005
0.0140098 0.00122198 4.60496e-005
0.014137 0.00122242 4.60496e-005
0.0142643 0.00122286 4.60496e-005
0.0143915 0.0012233 4.60496e-005
0.0145188 0.00122372 4.60496e-005
0.0146471 0.00122414 4.60496e-005
0.0147753 0.00122457 4.60496e-005
0.0149036 0.00122499 4.60496e-005
0.0150318 0.0012254 4.60496e-005
0.0151601 0.00122581 4.60496e-005
0.0152893 0.00122621 4.60496e-005
0.0154186 0.00122662 4.60496e-005
0.0155478 0.00122701 4.60496e-005
0.0156771 0.00122741 4.60496e-005
0.0158063 0.0012278 4.60496e-005
0.0159366 0.00122817 4.60496e-005
0.0160668 0.00122855 4.60496e-005
0.0161971 0.00122893 4.60496e-005
0.0163274 0.0012293 4.60496e-005
0.0164576 0.00122966 4.60496e-005
0.0165889 0.00123001 4.60496e-005
0.0167201 0.00123037 4.60496e-005
0.0168514 0.00123072 4.60496e-005
0.0169827 0.00123106 4.60496e-005
0.0171139 0.00123139 4.60496e-005
0.0172462 0.00123172 4.60496e-005
0.0173785 0.00123204 4.60496e-005
0.0175108 0.00123236 4.60496e-005
0.0176431 0.00123267 4.60496e-005
0.0177754 0.00123298 4.60496e-005
0.0178303 0.0012331 4.60496e-005
0.0178853 0.00123322 4.60496e-005
0.0179402 0.00123334 4.60496e-005
0.0179951 0.00123346 4.60496e-005
0.018049 0.00123358 4.60496e-005
0.0181276 0.00123375 4.60496e-005
0.0182062 0.00123391 4.60496e-005
0.0182848 0.00123407 4.60496e-005
0.0183634 0.00123423 4.60496e-005
0.018442 0.00123439 4.60496e-005
0.0185763 0.00123465 4.60496e-005
0.0187107 0.00123491 4.60496e-005
0.018845 0.00123515 4.60496e-005
0.0189794 0.00123539 4.60496e-005
0.0191137 0.00123562 4.60496e-005
0.0192491 0.00123584 4.60496e-005
0.0193845 0.00123606 4.60496e-005
0.0195199 0.00123626 4.60496e-005
0.0196553 0.00123646 4.60496e-005
0.0197907 0.00123665 4.60496e-005
0.0199272 0.00123683 4.60496e-005
0.0200636 0.001237 4.60496e-005
0.0202001 0.00123716 4.60496e-005
0.0203365 0.00123732 4.60496e-005
0.020473 0.00123746 4.60496e-005
0.0206105 0.0012376 4.60496e-005
0.020748 0.00123772 4.60496e-005
0.0208855 0.00123784 4.60496e-005
0.021023 0.00123795 4.60496e-005
0.0211606 0.00123805 4.60496e-005
0.0212991 0.00123814 4.60496e-005
0.0214377 0.00123821 4.60496e-005
0.0215763 0.00123828 4.60496e-005
0.0217149 0.00123834 4.60496e-005
0.0218535 0.00123839 4.60496e-005
0.0219931 0.00123843 4.60496e-005
0.0221328 0.00123846 4.60496e-005
0.0222724 0.00123848 4.60496e-005
0.0224121 0.00123848 4.60496e-005
0.0225517 0.00123848 4.60496e-005
[...]
POINT_DATA 11935
 FIELD attributes 2
p 1 11935 float
-1553.41 -1540.69 -1526.76 -1512.98 -1499.35 -1478.57 -1463.77 -1448.88 -1433.92 -1418.87 -1397.85 -1349.46 -1301.35 -1253.3 -1205.33 -1163.15 -1131.85 -1106.77 -1081.71 -1056.66 -1040.21 -1028.5 -1018.95 -1009.41 -999.871 -992.068 -984.94 -976.818 -968.696 -960.573 -951.555 -942.968 -934.417 -925.868 -917.359 -909.295 -901.556 -894.581 -887.706 -880.997 -875.177 -869.579 -864.479 -859.493 -854.655 -850.341 -846.207 -842.275 -838.41 -834.632 -831.078 -827.679 -824.411 -821.201 -818.063 -815.07 -812.2 -809.458 -806.789 -804.203 -801.745 -799.368 -797.102 -794.916 -792.813 -790.82 -788.858 -786.982 -785.18 -783.456 -781.818 -780.164 -778.578 -777.061 -775.622 -774.254 -772.826 -771.454 -770.148 -768.926 -767.766 -766.51 -765.305 -764.172 -763.134 -762.157 -761.049 -759.977 -758.967 -758.061 -757.211 -756.198 -755.242 -754.403 -753.722 -753.114 -752.339 -751.638 -751.093 -750.733 -750.468 -749.932 -749.454 -749.075 -748.829 -748.67 -748.235 -747.914 -747.743 -747.721 -747.824 -747.666 -747.599 -747.628 -747.742 -747.943 -748.052 -748.158 -748.262 -748.364 -748.464 -748.744 -748.935 -749.066 -749.134 -749.102 -749.5 -749.743 -749.901 -749.964 -749.838 -750.307 -750.572 -750.748 -750.822 -750.636 -751.12 -751.364 -751.525 -751.598 -751.37 -751.806 -751.994 -752.118 -752.177 -751.936 -752.291 -752.429 -752.528 -752.59 -752.387 -752.662 -752.771 -752.86 -752.933 -752.798 -752.996 -753.077 -753.152 -753.224 -753.154 -753.278 -753.335 -753.392 -753.449 -753.438 -753.503 -753.553 -753.602 -753.652 -753.693 -753.731 -753.784 -753.837 -753.891 -753.971 -754.001 -754.061 -754.12 -754.179 -754.282 -754.319 -754.383 -754.447 -754.511 -754.619 -754.675 -754.745 -754.815 -754.885 -754.989 -755.071 -755.151 -755.231 -755.312 -755.407 -755.52 -755.614 -755.707 -755.8 -755.889 -756.032 -756.138 -756.245 -756.352 -756.435 -756.603 -756.721 -756.84 -756.958 -757.04 -757.227 -757.356 -757.486 -757.616 -757.7 -757.901 -758.043 -758.185 -758.327 -758.42 -758.631 -758.786 -758.941 -759.096 -759.205 -759.421 -759.589 -759.757 -759.924 -760.053 -760.273 -760.455 -760.638 -760.82 -760.974 -761.196 -761.393 -761.59 -761.786 -761.967 -762.188 -762.396 -762.604 -762.812 -763.016 -763.109 -763.2 -763.291 -763.382 -763.471 -763.6 -763.73 -763.86 -763.989 -764.14 -764.356 -764.59 -764.824 -765.058 -765.346 -765.548 -765.795 -766.042 -766.289 -766.616 -766.807 -767.064 -767.322 -767.579 -767.934 -768.119 -768.386 -768.653 -768.921 -769.299 -769.486 -769.766 -770.046 -770.326 -770.724 -770.925 -771.219 -771.512 -771.805 -772.213 -772.437 -772.743 -773.049 -773.356 -773.763 -774.016 -774.335 -774.653 -774.971 -775.369 -775.657 -775.985 -776.314 -776.643 -777.024 -777.349 -777.688 -778.027 -778.366 -778.723 -779.088 -779.437 -779.785 -780.134 -780.466 -780.871 -781.229 -781.587 -781.942 -782.252 -782.688 -783.063 -783.431 -783.786 -784.083 -784.543 -784.938 -785.315 -785.668 -785.956 -786.434 -786.85 -787.236 -787.584 -787.869 -788.36 -788.797 -789.192 -789.535 -789.822 -790.324 -790.783 -791.187 -791.522 -791.811 -792.322 -792.799 -793.208 -793.534 -793.825 -794.337 -794.829 -795.24 -795.555 -795.849 -796.357 -796.858 -797.268 -797.576 -797.878 -798.377 -798.877 -799.285 -799.597 -799.909 -800.397 -800.885 -801.292 -801.617 -801.941 -802.415 -802.89 -803.296 -803.632 -803.969 -804.428 -804.887 -805.291 -805.639 -805.986 -806.43 -806.873 -807.274 -807.631 -807.988 -808.416 -808.843 -809.24 -809.604 -809.969 -810.381 -810.792 -811.184 -811.553 -811.923 -812.319 -812.715 -813.1 -813.471 -813.843 -814.223 -814.603 -814.979 -815.35 -815.72 -816.084 -816.448 -816.814 -817.179 -817.545 -817.892 -818.241 -818.595 -818.951 -819.308 -819.638 -819.973 -820.313 -820.655 -821 -821.312 -821.632 -821.955 -822.281 -822.611 -822.904 -823.208 -823.513 -823.819 -824.131 -824.403 -824.687 -824.97 -825.254 -825.545 -825.794 -826.054 -826.315 -826.576 -826.844 -827.069 -827.306 -827.542 -827.778 -828.023 -828.224 -828.435 -828.646 -828.857 -829.074 -829.251 -829.435 -829.619 -829.804 -829.992 -830.144 -830.3 -830.457 -830.613 -830.77 -830.787 -830.805 -830.823 -830.841 -830.859 -830.968 -831.077 -831.186 -831.295 -831.403 -831.5 -831.594 -831.688 -831.783 -831.873 -831.939 -831.999 -832.06 -832.12 -832.174 -832.208 -832.233 -832.258 -832.283 -832.298 -832.3 -832.287 -832.275 -832.262 -832.236 -832.204 -832.152 -832.1 -832.046 -831.978 -831.906 -831.818 -831.725 -831.627 -831.516 -831.403 -831.278 -831.143 -830.997 -830.842 -830.686 -830.522 -830.342 -830.146 -829.945 -829.743 -829.54 -829.313 -829.064 -828.814 -828.565 -828.315 -828.039 -827.738 -827.438 -827.138 -826.839 -826.512 -826.158 -825.804 -825.452 -825.099 -824.72 -824.31 -823.9 -823.492 -823.084 -822.649 -822.181 -821.712 -821.246 -820.775 -820.279 -819.756 -819.227 -818.699 -818.158 -817.599 -817.022 -816.428 -815.836 -815.222 -814.596 -813.963 -813.302 -812.642 -811.95 -811.255 -810.561 -809.832 -809.095 -808.328 -807.561 -806.794 -806.004 -805.182 -804.339 -803.496 -802.654 -801.8 -800.984 -800.158 -799.332 -798.506 -797.729 -797.625 -797.52 -797.416 -797.312 -797.206 -796.211 -795.214 -794.217 -793.22 -792.206 -791.145 -790.063 -788.983 -787.903 -786.786 -785.657 -784.489 -783.322 -782.155 -780.932 -779.73 -778.478 -777.222 -775.949 -774.632 -773.339 -772.017 -770.669 -769.284 -767.873 -766.487 -765.093 -763.653 -762.15 -760.645 -759.163 -757.683 -756.142 -754.54 -752.937 -751.359 -749.782 -748.143 -746.442 -744.741 -743.065 -741.389 -739.644 -737.849 -736.049 -734.273 -732.471 -730.625 -728.754 -726.853 -724.977 -723.048 -721.101 -719.153 -717.152 -715.165 -713.117 -711.069 -709.021 -706.943 -704.828 -702.678 -700.529 -698.381 -696.228 -695.833 -695.432 -695.032 -694.631 -694.236 -692.398 -690.56 -688.722 -686.885 -685.024 -682.71 -680.376 -678.044 -675.711 -673.325 -670.938 -668.508 -666.078 -663.63 -661.135 -658.651 -656.151 -653.627 -651.053 -648.464 -645.886 -643.309 -640.684 -638.003 -635.323 -632.653 -629.984 -627.261 -624.491 -621.721 -618.962 -616.187 -613.367 -610.527 -607.67 -604.824 -601.93 -599.024 -596.118 -593.181 -590.231 -587.241 -584.251 -581.262 -578.267 -577.505 -576.734 -575.964 -575.194 -574.435 -572.136 -569.838 -567.54 -565.243 -562.929 -559.793 -556.65 -553.507 -550.365 -547.187 -543.982 -540.766 -537.547 -534.31 -531.055 -527.775 -524.495 -521.2 -517.873 -514.545 -511.192 -507.84 -504.463 -501.066 -497.669 -494.247 -490.818 -487.364 -483.906 -480.443 -476.954 -473.44 -469.921 -466.403 -462.878 -459.757 -456.619 -453.482 -450.345 -447.346 -446.875 -446.403 -445.932 -445.46 -444.986 -441.348 -437.709 -434.071 -430.433 -426.772 -423.082 -419.385 -415.689 -411.982 -408.253 -404.506 -400.758 -397.005 -393.223 -389.438 -385.636 -381.834 -378.012 -374.175 -370.337 -366.481 -362.618 -358.734 -354.848 -350.958 -347.05 -343.116 -339.181 -335.247 -331.309 -328.982 -326.645 -324.308 -321.971 -319.697 -318.038 -316.379 -314.719 -313.06 -311.393 -307.363 -303.332 -299.302 -295.272 -291.212 -287.14 -283.063 -278.985 -274.889 -270.782 -266.662 -262.543 -258.411 -254.259 -250.106 -245.941 -241.774 -237.582 -233.388 -229.19 -224.98 -220.749 -216.513 -212.278 -208.038 -205.307 -202.564 -199.821 -197.078 -194.415 -192.863 -191.312 -189.76 -188.209 -186.649 -182.331 -178.012 -173.692 -169.373 -165.024 -160.668 -156.31 -151.949 -147.568 -143.179 -138.783 -134.387 -129.975 -125.548 -121.118 -116.682 -112.238 -107.778 -103.316 -98.8501 -94.374 -89.8789 -85.3844 -80.8904 -76.3941 -75.7904 -75.1843 -74.5782 -73.9721 -73.3699 -69.4475 -65.5256 -61.604 -57.6828 -53.7427 -49.1867 -44.6265 -40.0667 -35.4951 -30.9092 -26.3201 -21.7316 -17.1344 -12.5226 -7.90859 -3.29086 1.32936 5.96477 10.6006 15.2397 19.8832 24.5424 29.2011 33.8593 38.52 39.1467 39.7752 40.4036 41.032 41.6565 45.7106 49.7643 53.8177 57.8707 61.9376 66.6376 71.3367 76.0353 80.7419 85.4563 90.1716 94.8864 99.6054 104.328 109.054 113.781 118.511 123.245 127.978 132.712 136.074 139.439 142.804 146.169 149.429 150.827 152.224 153.621 155.018 156.417 161.167 165.914 170.661 175.408 180.16 184.912 189.663 194.407 199.152 203.9 208.646 213.392 218.135 222.874 227.612 232.006 236.394 240.782 245.169 249.396 249.772 250.149 250.525 250.901 251.277 256.004 260.73 265.455 270.179 274.898 279.615 284.328 289.032 293.726 298.423 303.116 307.807 312.486 317.158 321.827 325.782 329.723 333.663 337.603 341.429 342.163 342.896 343.63 344.363 345.095 349.729 354.359 358.989 363.615 368.229 372.836 377.443 382.031 386.603 391.177 395.744 400.303 404.846 409.388 413.918 416.303 418.676 421.047 423.418 425.753 427.896 430.038 432.18 434.322 436.453 440.936 445.403 449.871 454.322 458.765 463.198 467.63 472.039 476.426 480.815 485.192 489.544 493.89 498.236 502.584 502.635 502.686 502.737 502.789 502.84 507.1 511.36 515.619 519.875 524.106 528.373 532.64 536.882 541.098 545.317 549.52 553.708 557.877 562.045 566.202 567.559 568.906 570.251 571.595 572.934 575.709 578.485 581.26 584.031 586.783 590.86 594.929 598.987 603.007 607.028 611.033 615.029 618.995 622.959 626.905 628.641 630.364 632.082 633.801 635.515 637.704 639.893 642.082 644.265 646.432 650.297 654.146 657.987 661.789 665.588 669.37 673.144 676.882 680.617 684.33 686 687.653 689.3 690.947 692.603 694.621 696.639 698.658 700.67 702.662 706.281 709.883 713.476 717.033 720.586 724.12 727.635 731.071 734.501 737.875 739.363 740.896 742.444 743.992 745.571 747.478 749.385 751.292 753.217 755.196 758.744 761.996 765.088 767.408 769.652 771.862 774.282 778.16 782.296 787.034 788.846 790.284 791.227 792.17 793.133 795.425 797.715 800.003 801.582 802.594 804.259 805.924 808.189 811.042 813.888 815.475 817.029 818.532 820.034 821.607 822.869 824.131 825.393 826.617 827.813 830.531 833.245 835.842 838.335 840.82 842.479 844.111 845.696 847.281 848.997 849.804 850.61 851.416 852.204 852.978 855.363 857.7 859.982 862.127 864.263 865.981 867.637 869.195 870.751 872.521 872.864 873.207 873.549 873.877 874.19 876.014 877.757 879.492 881.048 882.552 883.994 885.344 886.506 887.664 888.747 888.873 888.977 889.06 889.143 889.229 889.974 890.71 891.439 892.046 892.505 892.92 893.326 893.459 893.3 893.131 892.912 892.507 891.989 891.467 890.841 890.712 890.583 890.453 890.293 890.059 888.924 887.587 886.234 884.587 882.757 880.7 878.631 876.113 873.248 870.321 867.654 864.557 861.362 858.162 854.091 853.671 853.249 852.828 852.402 851.914 847.166 842.313 837.443 832.443 826.951 821.046 815.129 808.486 801.19 793.877 786.089 778.19 769.751 761.102 752.2 742.695 731.82 720.942 710.063 699.026 697.523 696.018 694.513 693.008 691.441 680.468 669.485 658.493 647.493 636.433 623.126 607.213 591.248 573.67 554.135 533.627 513.104 495.878 481.795 467.704 452.864 438.026 410.41 370.401 330.361 288.523 258.773 242.155 230.025 232.813 229.024 172.015 114.683 57.0429 3.52688 2.99795 2.46915 1.94047 1.41193 0