/*--------------------------------*- C++ -*----------------------------------*\
| =========                 |                                                 |
| \\      /  F ield         | OpenFOAM: The Open Source CFD Toolbox           |
|  \\    /   O peration     | Version:  5.x                                   |
|   \\  /    A nd           | Web:      www.OpenFOAM.org                      |
|    \\/     M anipulation  |                                                 |
\*---------------------------------------------------------------------------*/
/*   Windows 32 and 64 bit porting by blueCAPE: http://www.bluecape.com.pt   *\
|  Based on Windows porting (2.0.x v4) by Symscape: http://www.symscape.com   |
\*---------------------------------------------------------------------------*/
FoamFile
{
    version     2.0;
    format      ascii;
    class       volScalarField;
    location    "0.19";
    object      p;
}
// * * * * * * * * * * * * * * * * * * * * * * * * * * * * * * * * * * * * * //

dimensions      [0 2 -2 0 0 0 0];

internalField   nonuniform List<scalar> 
750
(
0.40288298
0.40316022
0.40285548
0.40273696
0.40247026
0.40221099
0.40191357
0.40160362
0.40128248
0.40095326
0.40061811
0.40028009
0.39993253
0.39957083
0.39920164
0.39880383
0.39835555
0.39785994
0.39724183
0.39636302
0.39545726
0.39292885
0.39177415
0.38304767
0.37906179
0.40288915
0.4031595
0.40286308
0.40273813
0.40247274
0.40221238
0.40191483
0.40160392
0.4012828
0.40095355
0.40061848
0.40028036
0.39993288
0.39957176
0.3992028
0.39880554
0.39835906
0.39786486
0.39724799
0.39638457
0.39545878
0.3930175
0.39174202
0.38328123
0.37924354
0.40289642
0.40316687
0.40287166
0.40274289
0.40247707
0.40221514
0.40191696
0.40160521
0.40128365
0.40095432
0.40061929
0.40028116
0.39993409
0.39957379
0.39920586
0.39881038
0.39836719
0.39787772
0.39726873
0.39642294
0.39551007
0.39313763
0.39184948
0.38353904
0.37982311
0.40290637
0.40317995
0.40288312
0.40275051
0.40248358
0.40221909
0.40191991
0.40160741
0.40128496
0.40095551
0.40062043
0.40028243
0.399936
0.39957673
0.39921055
0.39881789
0.39837918
0.39789722
0.39730132
0.39647682
0.39559823
0.39329136
0.39208423
0.38388378
0.38062043
0.40291968
0.4031976
0.40289844
0.4027607
0.40249227
0.40222428
0.40192377
0.40161028
0.40128667
0.4009571
0.40062189
0.40028409
0.39993854
0.39958053
0.39921666
0.39882774
0.39839461
0.3979225
0.39734397
0.39654661
0.39571735
0.39348423
0.39241567
0.38433879
0.38175183
0.40293644
0.40321979
0.40291774
0.40277338
0.40250308
0.40223075
0.40192857
0.40161369
0.40128876
0.40095906
0.4006237
0.40028609
0.39994164
0.39958509
0.39922405
0.39883979
0.39841331
0.39795307
0.39739502
0.39663317
0.3958667
0.39371294
0.39284869
0.38485471
0.38350129
0.40295651
0.40324691
0.40294097
0.40278849
0.40251601
0.40223842
0.40193425
0.40161764
0.4012912
0.40096134
0.40062585
0.40028843
0.3999452
0.39959045
0.39923275
0.39885384
0.3984351
0.39798893
0.39745349
0.39673431
0.3960491
0.39397774
0.39343211
0.38551081
0.38605016
0.40297976
0.40327918
0.40296815
0.40280593
0.40253116
0.40224721
0.40194073
0.40162216
0.40129403
0.40096387
0.40062835
0.40029108
0.39994917
0.39959672
0.39924274
0.39886979
0.39845978
0.39803005
0.39751939
0.39684181
0.39626487
0.39428853
0.39417201
0.38648256
0.38996326
0.4030075
0.40331467
0.40300031
0.40282558
0.40254854
0.40225717
0.40194792
0.40162718
0.4012973
0.40096654
0.40063107
0.400294
0.39995346
0.39960373
0.39925376
0.39888732
0.39848709
0.39807548
0.39759392
0.39695624
0.39650142
0.39469017
0.39504163
0.38774226
0.39480492
0.40304503
0.40334653
0.40304124
0.40284705
0.40256733
0.40226871
0.4019555
0.40163233
0.40130091
0.40096919
0.4006338
0.40029697
0.39995784
0.39961115
0.39926515
0.39890556
0.39851645
0.39812265
0.39767402
0.39708867
0.39670663
0.39521959
0.39584079
0.38951706
0.39976025
0.35749811
0.34666177
0.33049645
0.3166031
0.30171024
0.28707828
0.27230278
0.2575895
0.24286225
0.22814182
0.21342212
0.19870313
0.18398427
0.16926557
0.15454682
0.13982808
0.12510933
0.11039058
0.095671837
0.080953092
0.066234347
0.0515156
0.036796854
0.022078111
0.0073593684
0.35736813
0.34651503
0.33045431
0.31655461
0.30167764
0.28705771
0.27230276
0.25758699
0.24286238
0.22814212
0.21342202
0.19870299
0.18398425
0.16926555
0.15454682
0.13982808
0.12510933
0.11039058
0.095671837
0.080953092
0.066234347
0.051515601
0.036796855
0.022078111
0.0073593686
0.35699129
0.34657064
0.33026183
0.31649479
0.30163208
0.28703364
0.2722966
0.25758544
0.24286174
0.22814198
0.21342194
0.19870295
0.18398424
0.16926555
0.15454682
0.13982808
0.12510933
0.11039058
0.095671837
0.080953092
0.066234346
0.051515601
0.036796855
0.02207811
0.0073593683
0.35646011
0.34671961
0.32999946
0.31642659
0.30161621
0.28701995
0.27229238
0.25758505
0.24286121
0.22814164
0.21342185
0.19870295
0.18398425
0.16926556
0.15454683
0.13982808
0.12510933
0.11039058
0.095671837
0.080953092
0.066234346
0.051515601
0.036796856
0.022078109
0.0073593679
0.35593957
0.34671504
0.32987285
0.31633087
0.30159347
0.28701571
0.27229159
0.25758486
0.2428609
0.22814134
0.21342171
0.19870293
0.18398426
0.16926558
0.15454683
0.13982808
0.12510933
0.11039058
0.095671837
0.080953092
0.066234347
0.051515601
0.036796856
0.022078108
0.0073593674
0.35530478
0.34669047
0.32979636
0.31624735
0.30155767
0.28701304
0.27229137
0.25758448
0.2428605
0.22814099
0.21342155
0.19870292
0.18398428
0.16926558
0.15454683
0.13982807
0.12510933
0.11039058
0.095671837
0.080953092
0.066234347
0.051515601
0.036796855
0.022078107
0.0073593668
0.35443428
0.34675341
0.32961691
0.31620413
0.30153528
0.28701436
0.27229145
0.25758431
0.2428599
0.2281406
0.21342142
0.19870294
0.1839843
0.16926559
0.15454683
0.13982807
0.12510933
0.11039058
0.095671837
0.080953092
0.066234347
0.0515156
0.036796855
0.022078106
0.0073593659
0.35375576
0.34670963
0.32941631
0.31620239
0.30152788
0.28702039
0.27229171
0.25758449
0.24285905
0.22814023
0.21342134
0.19870297
0.18398432
0.16926559
0.15454682
0.13982807
0.12510933
0.11039058
0.095671837
0.080953092
0.066234347
0.0515156
0.036796855
0.022078105
0.0073593644
0.35267462
0.34666312
0.32934861
0.31623739
0.30153454
0.28702999
0.27229226
0.25758458
0.24285805
0.22813991
0.21342129
0.19870302
0.18398435
0.16926559
0.15454682
0.13982807
0.12510933
0.11039058
0.095671838
0.080953092
0.066234347
0.0515156
0.036796855
0.022078103
0.0073593625
0.34844485
0.34720609
0.32934263
0.31631861
0.30151832
0.28703783
0.27229121
0.25758527
0.24285744
0.22813982
0.21342123
0.19870306
0.18398437
0.1692656
0.15454682
0.13982807
0.12510933
0.11039058
0.095671838
0.080953092
0.066234347
0.0515156
0.036796854
0.022078103
0.0073593626
0.40314412
0.40340278
0.40314111
0.40289458
0.40260604
0.40229403
0.401971
0.40164235
0.40130811
0.40097413
0.40063868
0.40030276
0.39996692
0.39962613
0.39928712
0.39894218
0.39857791
0.39821696
0.39783542
0.39738048
0.39704061
0.39637083
0.39711088
0.39454497
0.41271846
0.4032949
0.40358778
0.40329469
0.40299629
0.4026766
0.4023405
0.40200079
0.40166144
0.40132118
0.4009834
0.40064743
0.40031444
0.39998451
0.39965284
0.3993235
0.39900514
0.39868007
0.39836121
0.39806874
0.39774232
0.39750866
0.3972043
0.39745228
0.39593509
0.40185548
0.40350133
0.40384239
0.40347399
0.40311664
0.40275571
0.40239001
0.40203147
0.40167938
0.40133282
0.4009918
0.40065605
0.40032469
0.39999923
0.39967979
0.39936102
0.39906116
0.39877462
0.39849517
0.39826873
0.39805306
0.39794151
0.39789151
0.39820399
0.3981543
0.40083304
0.4038042
0.40415217
0.40368017
0.4032477
0.40283599
0.40243826
0.40205983
0.40169351
0.40134108
0.40099762
0.40066186
0.40033197
0.40001029
0.3996994
0.39939537
0.39910623
0.39884815
0.39860742
0.39842523
0.39828551
0.39823873
0.39830398
0.39863456
0.39910297
0.40006233
0.40426695
0.4045025
0.40391039
0.40338133
0.40290949
0.40247746
0.4020816
0.40170296
0.40134454
0.40099871
0.40066248
0.40033443
0.40001615
0.39970821
0.39941606
0.39913815
0.39889404
0.39868209
0.39852546
0.39843453
0.39842632
0.39854231
0.39888473
0.39948424
0.39983313
0.40499228
0.40486952
0.40415397
0.40350515
0.40296914
0.40250389
0.40209113
0.40170521
0.40134168
0.40099423
0.40065741
0.40033032
0.40001362
0.39970757
0.39941819
0.39914798
0.39890783
0.39870793
0.39856079
0.39848668
0.39849439
0.39862763
0.39892768
0.39951356
0.39965468
0.4061084
0.40522533
0.40437013
0.40359781
0.40300185
0.40251257
0.40208533
0.40169678
0.40133178
0.40098364
0.40064639
0.40031901
0.40000106
0.3996943
0.3994021
0.39913036
0.39888641
0.39868254
0.39852963
0.39844821
0.39845355
0.39857488
0.3988306
0.39936484
0.39944836
0.40799761
0.40541369
0.40449394
0.4036142
0.40298428
0.40248977
0.40206188
0.40167603
0.40131359
0.40096634
0.40062904
0.40030008
0.39997904
0.39966733
0.39936799
0.39908618
0.39882913
0.39860782
0.39843445
0.39832748
0.39831044
0.3984069
0.39863531
0.3991157
0.39921084
0.41154994
0.40513425
0.40449769
0.40350224
0.40288569
0.40241457
0.40200907
0.40163675
0.40128256
0.40093923
0.40060261
0.4002713
0.39994495
0.39962415
0.39931169
0.39901139
0.39872965
0.39847602
0.39826369
0.39811299
0.39805255
0.3981211
0.39834336
0.39879771
0.39894506
0.41314396
0.40412673
0.40493854
0.40357087
0.402947
0.40243706
0.40201673
0.40163759
0.40128073
0.40093591
0.4005982
0.40026575
0.3999378
0.39961483
0.39929939
0.39899486
0.39870729
0.39844549
0.398222
0.39805773
0.39798117
0.39803582
0.3982277
0.39864475
0.39882325
)
;

boundaryField
{
    inlet
    {
        type            zeroGradient;
    }
    walls
    {
        type            zeroGradient;
    }
    outlet
    {
        type            fixedValue;
        value           uniform 0;
    }
    centreline
    {
        type            symmetryPlane;
    }
    frontAndBack
    {
        type            empty;
    }
}


// ************************************************************************* //
