/*--------------------------------*- C++ -*----------------------------------*\
| =========                 |                                                 |
| \\      /  F ield         | OpenFOAM: The Open Source CFD Toolbox           |
|  \\    /   O peration     | Version:  5.x                                   |
|   \\  /    A nd           | Web:      www.OpenFOAM.org                      |
|    \\/     M anipulation  |                                                 |
\*---------------------------------------------------------------------------*/
/*   Windows 32 and 64 bit porting by blueCAPE: http://www.bluecape.com.pt   *\
|  Based on Windows porting (2.0.x v4) by Symscape: http://www.symscape.com   |
\*---------------------------------------------------------------------------*/
FoamFile
{
    version     2.0;
    format      ascii;
    class       surfaceScalarField;
    location    "0.19";
    object      phi;
}
// * * * * * * * * * * * * * * * * * * * * * * * * * * * * * * * * * * * * * //

dimensions      [0 3 -1 0 0 0 0];

internalField   nonuniform List<scalar> 
1430
(
5.1431146e-006
-1.4183426e-007
5.3215339e-006
-1.7841937e-007
5.4977775e-006
-1.7624359e-007
5.6500672e-006
-1.5228963e-007
5.7776478e-006
-1.2758066e-007
5.8786842e-006
-1.0103638e-007
5.9586964e-006
-8.001223e-008
6.0228841e-006
-6.4187654e-008
6.0768615e-006
-5.3977398e-008
6.1263645e-006
-4.9502974e-008
6.1772596e-006
-5.089507e-008
6.2359735e-006
-5.8713923e-008
6.3101184e-006
-7.4144927e-008
6.4100881e-006
-9.9969665e-008
6.550698e-006
-1.4060991e-007
6.752661e-006
-2.0196299e-007
7.0494763e-006
-2.9681525e-007
7.4970493e-006
-4.4757299e-007
8.1833975e-006
-6.8634821e-007
9.2553696e-006
-1.0719721e-006
1.08712e-005
-1.61583e-006
1.3296946e-005
-2.4257467e-006
1.6642775e-005
-3.3458289e-006
2.0929176e-005
-4.2864006e-006
-4.8371076e-006
2.5766283e-005
5.1420886e-006
-2.8264255e-007
5.3239594e-006
-3.6029017e-007
5.4986657e-006
-3.5094985e-007
5.6519105e-006
-3.0553449e-007
5.7789745e-006
-2.5464462e-007
5.8798932e-006
-2.0195504e-007
5.9595602e-006
-1.5967926e-007
6.0233787e-006
-1.2800609e-007
6.0770079e-006
-1.0760663e-007
6.1261582e-006
-9.8653237e-008
6.1766288e-006
-1.0136568e-007
6.2348265e-006
-1.1691163e-007
6.3083036e-006
-1.4762199e-007
6.4072756e-006
-1.9894164e-007
6.5464609e-006
-2.797952e-007
6.7463107e-006
-4.0181275e-007
7.0396002e-006
-5.9010474e-007
7.4814068e-006
-8.8937959e-007
8.1585597e-006
-1.3635011e-006
9.2107866e-006
-2.1241991e-006
1.0806868e-005
-3.2119111e-006
1.3169475e-005
-4.7883539e-006
1.6482843e-005
-6.6591974e-006
2.0645895e-005
-8.4494526e-006
-9.6904134e-006
2.5499201e-005
5.1432169e-006
-4.2457915e-007
5.3260233e-006
-5.430966e-007
5.5017065e-006
-5.2663303e-007
5.655095e-006
-4.5892301e-007
5.7818983e-006
-3.8144786e-007
5.8822896e-006
-3.0234637e-007
5.9613082e-006
-2.3869778e-007
6.0244349e-006
-1.9113282e-007
6.0773767e-006
-1.6054846e-007
6.1258055e-006
-1.47082e-007
6.1754657e-006
-1.5102584e-007
6.2326338e-006
-1.7407974e-007
6.3047344e-006
-2.1972261e-007
6.4018071e-006
-2.9601429e-007
6.5381609e-006
-4.1614897e-007
6.7336843e-006
-5.973362e-007
7.0201554e-006
-8.7657584e-007
7.4505755e-006
-1.3197997e-006
8.1082743e-006
-2.0211999e-006
9.1275229e-006
-3.1434478e-006
1.0667653e-005
-4.7520413e-006
1.2946402e-005
-7.0671029e-006
1.6129167e-005
-9.8419621e-006
2.0154115e-005
-1.2474401e-005
-1.4393512e-005
2.4857213e-005
5.1448944e-006
-5.681932e-007
5.3293078e-006
-7.2751004e-007
5.506366e-006
-7.0369118e-007
5.6600213e-006
-6.1257839e-007
5.7864411e-006
-5.0786764e-007
5.8860063e-006
-4.019115e-007
5.9640171e-006
-3.167086e-007
6.0261412e-006
-2.5325689e-007
6.0780533e-006
-2.124606e-007
6.1253929e-006
-1.9442154e-007
6.1738406e-006
-1.9947351e-007
6.2294879e-006
-2.2972703e-007
6.2995431e-006
-2.8977783e-007
6.3937756e-006
-3.9024676e-007
6.5259443e-006
-5.4831766e-007
6.7150753e-006
-7.8646719e-007
6.9914469e-006
-1.1529475e-006
7.4052094e-006
-1.7335622e-006
8.0343609e-006
-2.6503514e-006
9.0045939e-006
-4.1136808e-006
1.0463272e-005
-6.2107198e-006
1.2616078e-005
-9.2199085e-006
1.5600657e-005
-1.2826542e-005
1.9407799e-005
-1.6281543e-005
-1.8850193e-005
2.386448e-005
5.1472576e-006
-7.1417044e-007
5.3339075e-006
-9.1416003e-007
5.5128279e-006
-8.8261155e-007
5.6668388e-006
-7.6658929e-007
5.7927393e-006
-6.3376811e-007
5.8911653e-006
-5.0033751e-007
5.9678132e-006
-3.9335654e-007
6.0286029e-006
-3.1404655e-007
6.0791429e-006
-2.6300061e-007
6.1250358e-006
-2.4031442e-007
6.1718747e-006
-2.4631235e-007
6.2255245e-006
-2.833768e-007
6.2928919e-006
-3.5714527e-007
6.3833924e-006
-4.807472e-007
6.5100906e-006
-6.7501582e-007
6.6908712e-006
-9.6724785e-007
6.9540736e-006
-1.4161498e-006
7.3462256e-006
-2.1257143e-006
7.9382166e-006
-3.2423424e-006
8.845252e-006
-5.0207162e-006
1.0196806e-005
-7.5622737e-006
1.2181387e-005
-1.120449e-005
1.4904119e-005
-1.5549274e-005
1.841559e-005
-1.9793013e-005
-2.2946676e-005
2.2512074e-005
5.1504555e-006
-8.6334561e-007
5.340014e-006
-1.1037185e-006
5.5213306e-006
-1.0639281e-006
5.6757748e-006
-9.2103353e-007
5.8009887e-006
-7.5898206e-007
5.8979481e-006
-5.972969e-007
5.9728711e-006
-4.682795e-007
6.0319714e-006
-3.7314686e-007
6.0808028e-006
-3.1183195e-007
6.1249032e-006
-2.8441481e-007
6.1697415e-006
-2.9115071e-007
6.2209318e-006
-3.3456709e-007
6.2850084e-006
-4.2122176e-007
6.3709327e-006
-5.6667153e-007
6.4909137e-006
-7.9499681e-007
6.6614918e-006
-1.137826e-006
6.9086498e-006
-1.6633079e-006
7.2746704e-006
-2.4917349e-006
7.8219732e-006
-3.7896451e-006
8.6526116e-006
-5.8513546e-006
9.872322e-006
-8.7819841e-006
1.1649817e-005
-1.2981985e-005
1.4043165e-005
-1.7942622e-005
1.7172709e-005
-2.2922558e-005
-2.6597161e-005
2.0823194e-005
5.1546783e-006
-1.0167436e-006
5.3478627e-006
-1.2969029e-006
5.5321393e-006
-1.2482047e-006
5.6870945e-006
-1.0759887e-006
5.8114169e-006
-8.8330445e-007
5.9065666e-006
-6.9244657e-007
5.9793918e-006
-5.4110473e-007
6.0364256e-006
-4.3018068e-007
6.0832209e-006
-3.5862723e-007
6.1251865e-006
-3.2638039e-007
6.1676373e-006
-3.3360152e-007
6.2159379e-006
-3.828677e-007
6.276153e-006
-4.8143681e-007
6.3567006e-006
-6.4721907e-007
6.468798e-006
-9.0709423e-007
6.6275029e-006
-1.2965309e-006
6.8560567e-006
-1.8918616e-006
7.1919147e-006
-2.8275929e-006
7.6879899e-006
-4.2857203e-006
8.4303136e-006
-6.5936783e-006
9.4961551e-006
-9.8478256e-006
1.102847e-005
-1.4514299e-005
1.3017564e-005
-1.9931716e-005
1.5710663e-005
-2.5615657e-005
-2.9633744e-005
1.8747246e-005
5.1601885e-006
-1.1756518e-006
5.3577184e-006
-1.4944328e-006
5.545557e-006
-1.4360433e-006
5.7010822e-006
-1.231514e-006
5.8242488e-006
-1.006471e-006
5.9172233e-006
-7.8542106e-007
5.987568e-006
-6.114494e-007
6.0421467e-006
-4.8475941e-007
6.0865855e-006
-4.0306598e-007
6.1260774e-006
-3.6587226e-007
6.1657551e-006
-3.7327924e-007
6.2107692e-006
-4.278818e-007
6.2666063e-006
-5.3727391e-007
6.3410405e-006
-7.216532e-007
6.444199e-006
-1.0102527e-006
6.5895441e-006
-1.441876e-006
6.7972553e-006
-2.0995728e-006
7.0994541e-006
-3.1297918e-006
7.5390598e-006
-4.725326e-006
8.1828226e-006
-7.2374412e-006
9.0754815e-006
-1.0740485e-005
1.0329069e-005
-1.5767887e-005
1.1874192e-005
-2.1476839e-005
1.4082616e-005
-2.7824081e-005
-3.1709025e-005
1.6157898e-005
5.1673597e-006
-1.3417312e-006
5.3698195e-006
-1.6968926e-006
5.5618992e-006
-1.628123e-006
5.7179814e-006
-1.3875962e-006
5.8396427e-006
-1.1281324e-006
5.9300672e-006
-8.7584552e-007
5.9975423e-006
-6.789245e-007
6.0492783e-006
-5.3649545e-007
6.0910204e-006
-4.4480806e-007
6.1277082e-006
-4.0255999e-007
6.1642669e-006
-4.0983792e-007
6.2056065e-006
-4.6922142e-007
6.2566146e-006
-5.8828204e-007
6.3243104e-006
-7.8934893e-007
6.4175883e-006
-1.1035306e-006
6.5482142e-006
-1.5725019e-006
6.7332671e-006
-2.2846257e-006
6.9990053e-006
-3.39553e-006
7.377271e-006
-5.1035917e-006
7.9151503e-006
-7.7753204e-006
8.6205033e-006
-1.1445838e-005
9.5717945e-006
-1.6719178e-005
1.0628135e-005
-2.2533179e-005
1.2295967e-005
-2.9491913e-005
-3.2429068e-005
1.3016009e-005
5.1754369e-006
-1.5158878e-006
5.3852734e-006
-1.9067292e-006
5.5811889e-006
-1.8240385e-006
5.7380092e-006
-1.5444165e-006
5.8575874e-006
-1.2477105e-006
5.9451174e-006
-9.6337544e-007
6.0093461e-006
-7.4315322e-007
6.0578502e-006
-5.8499955e-007
6.0965109e-006
-4.8346875e-007
6.1300947e-006
-4.3614375e-007
6.1632173e-006
-4.429605e-007
6.2005128e-006
-5.0651688e-007
6.2463174e-006
-6.3408666e-007
6.3067272e-006
-8.4975869e-007
6.3892977e-006
-1.1861011e-006
6.5039701e-006
-1.6871744e-006
6.6648149e-006
-2.4454705e-006
6.8917602e-006
-3.6224753e-006
7.205345e-006
-5.4171765e-006
7.6326074e-006
-8.2025827e-006
8.152587e-006
-1.1965817e-005
8.7667444e-006
-1.7333336e-005
9.2797188e-006
-2.3046154e-005
1.0083535e-005
-3.0295729e-005
8.8076158e-006
-3.1153149e-005
2.8418305e-005
-2.652021e-006
2.9375372e-005
-9.5706781e-007
2.9595099e-005
-2.1972649e-007
2.9640056e-005
-4.4956766e-008
2.9639699e-005
3.5713007e-010
2.9621356e-005
1.834259e-008
2.9606759e-005
1.4597123e-008
2.9599962e-005
6.7963743e-009
2.9598801e-005
1.1616268e-009
2.9599659e-005
-8.5788596e-010
2.9600477e-005
-8.1802511e-010
2.960074e-005
-2.627938e-010
2.9600698e-005
4.156994e-011
2.960063e-005
6.7991636e-011
2.9600609e-005
2.1321453e-011
2.9600611e-005
-2.3160019e-012
2.9600615e-005
-3.9189317e-012
2.9600616e-005
-6.969821e-013
2.9600615e-005
4.8503303e-013
2.9600615e-005
3.1461758e-013
2.9600615e-005
1.0288759e-014
2.9600615e-005
-2.8439831e-013
2.9600616e-005
-5.6213692e-013
2.9600615e-005
2.518693e-013
6.5437601e-013
2.7931647e-005
-5.0844666e-006
2.8842443e-005
-1.8678641e-006
2.9024163e-005
-4.0144649e-007
2.9063073e-005
-8.3866773e-008
2.9052556e-005
1.0874021e-008
2.9034607e-005
3.6292201e-008
2.9021387e-005
2.7816706e-008
2.9015696e-005
1.2487815e-008
2.9014943e-005
1.9143733e-009
2.9015909e-005
-1.823383e-009
2.901664e-005
-1.5495412e-009
2.9016833e-005
-4.5524003e-010
2.9016779e-005
9.4811964e-011
2.9016718e-005
1.2927842e-010
2.9016701e-005
3.7935097e-011
2.9016705e-005
-5.7667871e-012
2.9016708e-005
-7.4344226e-012
2.9016709e-005
-1.1750752e-012
2.9016708e-005
1.0014737e-012
2.9016708e-005
6.1290657e-013
2.9016708e-005
3.8862196e-014
2.9016708e-005
-5.4665236e-013
2.9016709e-005
-1.0988401e-012
2.9016709e-005
3.2141085e-013
1.116512e-012
2.6999424e-005
-7.226677e-006
2.7756153e-005
-2.6245935e-006
2.7895229e-005
-5.4052212e-007
2.7898807e-005
-8.7444668e-008
2.7879495e-005
3.018544e-008
2.7866154e-005
4.9633475e-008
2.7856877e-005
3.7093584e-008
2.7853304e-005
1.6060321e-008
2.7853397e-005
1.8219031e-009
2.7854402e-005
-2.8284159e-009
2.7854947e-005
-2.0943647e-009
2.7855028e-005
-5.3688384e-010
2.7854961e-005
1.6232988e-010
2.7854914e-005
1.7623869e-010
2.7854906e-005
4.5616626e-011
2.7854911e-005
-1.0309838e-011
2.7854913e-005
-1.0059199e-011
2.7854914e-005
-1.2599982e-012
2.7854913e-005
1.4857445e-012
2.7854913e-005
8.2797927e-013
2.7854913e-005
5.8479676e-014
2.7854913e-005
-7.3828894e-013
2.7854914e-005
-1.5847644e-012
2.7854914e-005
-2.0397941e-014
1.1076179e-012
2.5597448e-005
-8.9596446e-006
2.6128581e-005
-3.1557265e-006
2.6176693e-005
-5.8863459e-007
2.6151022e-005
-6.177314e-008
2.6132802e-005
4.8405016e-008
2.6125537e-005
5.6898343e-008
2.6120863e-005
4.1767632e-008
2.6120105e-005
1.6818637e-008
2.6121001e-005
9.2552626e-010
2.6121818e-005
-3.6453521e-009
2.6122064e-005
-2.3399952e-009
2.6122022e-005
-4.9461826e-010
2.6121952e-005
2.319964e-010
2.6121929e-005
1.9933389e-010
2.6121932e-005
4.3043143e-011
2.6121936e-005
-1.4863606e-011
2.6121937e-005
-1.1252293e-011
2.6121937e-005
-9.2361299e-013
2.6121937e-005
1.8461342e-012
2.6121936e-005
9.5366308e-013
2.6121937e-005
6.7700511e-014
2.6121937e-005
-8.7323215e-013
2.6121937e-005
-2.01766e-012
2.6121938e-005
-7.6837773e-013
6.3618199e-013
2.3704402e-005
-1.0151973e-005
2.3908906e-005
-3.3602306e-006
2.3850071e-005
-5.2979947e-007
2.3826471e-005
-3.8173237e-008
2.3815944e-005
5.8931444e-008
2.3814198e-005
5.864442e-008
2.3814943e-005
4.1023224e-008
2.381695e-005
1.4811725e-008
2.3818232e-005
-3.5712649e-010
2.3818573e-005
-3.9858347e-009
2.3818449e-005
-2.2163432e-009
2.3818306e-005
-3.5160351e-010
2.381826e-005
2.7788657e-010
2.3818268e-005
1.9181974e-010
2.3818279e-005
3.2094053e-011
2.3818281e-005
-1.7751143e-011
2.3818281e-005
-1.0649674e-011
2.381828e-005
-3.1048197e-013
2.381828e-005
1.9500689e-012
2.381828e-005
9.5210001e-013
2.381828e-005
7.9240228e-014
2.381828e-005
-9.3149506e-013
2.3818281e-005
-2.3550511e-012
2.3818282e-005
-1.6642729e-012
-3.2609093e-014
2.12609e-005
-1.0589678e-005
2.1049898e-005
-3.1492292e-006
2.0931331e-005
-4.1123188e-007
2.0918451e-005
-2.5293524e-008
2.0917178e-005
6.0204951e-008
2.0923351e-005
5.2470908e-008
2.0930001e-005
3.4373538e-008
2.0934012e-005
1.0800984e-008
2.0935055e-005
-1.4006951e-009
2.0934737e-005
-3.667834e-009
2.0934278e-005
-1.7574962e-009
2.0934096e-005
-1.6918615e-010
2.0934099e-005
2.7509997e-010
2.0934135e-005
1.5547862e-010
2.0934149e-005
1.7651088e-011
2.0934149e-005
-1.7489603e-011
2.0934147e-005
-8.4176746e-012
2.0934146e-005
3.1039043e-013
2.0934147e-005
1.7278917e-012
2.0934147e-005
7.8708109e-013
2.0934147e-005
7.009823e-014
2.0934147e-005
-8.6558674e-013
2.0934147e-005
-2.4605464e-012
2.0934148e-005
-2.3336973e-012
-5.9106979e-013
1.8162647e-005
-1.0005079e-005
1.7556211e-005
-2.5427926e-006
1.7423555e-005
-2.7857599e-007
1.7414754e-005
-1.6492365e-008
1.7422919e-005
5.2039208e-008
1.7436894e-005
3.8496215e-008
1.744779e-005
2.3477385e-008
1.7452409e-005
6.1820418e-009
1.7452732e-005
-1.7232693e-009
1.7451801e-005
-2.7367836e-009
1.745116e-005
-1.1167597e-009
1.7451014e-005
-2.3500716e-011
1.7451072e-005
2.176008e-010
1.7451125e-005
1.0211794e-010
1.7451137e-005
5.4106084e-012
1.7451134e-005
-1.3771262e-011
1.745113e-005
-5.3316165e-012
1.745113e-005
6.4361552e-013
1.7451131e-005
1.2542025e-012
1.7451131e-005
5.3074467e-013
1.7451131e-005
3.7491342e-014
1.7451131e-005
-6.977309e-013
1.7451131e-005
-2.231805e-012
1.7451131e-005
-2.4681704e-012
-8.4600443e-013
1.4307197e-005
-8.1543788e-006
1.3438501e-005
-1.6740964e-006
1.3310384e-005
-1.5045912e-007
1.3301705e-005
-7.8131642e-009
1.3319225e-005
3.451981e-008
1.3337086e-005
2.0634298e-008
1.3348814e-005
1.1750001e-008
1.3352605e-005
2.3908384e-009
1.3352163e-005
-1.2813724e-009
1.335093e-005
-1.5035093e-009
1.3350322e-005
-5.0881674e-010
1.3350259e-005
3.9396759e-011
1.3350351e-005
1.25921e-010
1.3350404e-005
4.9072389e-011
1.335041e-005
-9.3071498e-013
1.3350404e-005
-7.9032109e-012
1.3350401e-005
-2.4264999e-012
1.3350401e-005
5.7344189e-013
1.3350402e-005
6.7944585e-013
1.3350402e-005
2.7037116e-013
1.3350402e-005
5.7481503e-015
1.3350402e-005
-4.5679412e-013
1.3350402e-005
-1.6114558e-012
1.3350401e-005
-1.9531989e-012
-7.6227424e-013
9.6709475e-006
-4.8093169e-006
8.6948733e-006
-6.9802226e-007
8.5840658e-006
-3.9651674e-008
8.579399e-006
-3.1464127e-009
8.6003305e-006
1.3588283e-008
8.6156551e-006
5.3097467e-009
8.6243266e-006
3.0785088e-009
8.6264208e-006
2.9665184e-010
8.6256189e-006
-4.7950621e-010
8.6245622e-006
-4.4681648e-010
8.6241656e-006
-1.1219145e-010
8.6241767e-006
2.8315418e-011
8.6242632e-006
3.9413317e-011
8.6243e-006
1.2226e-011
8.6243006e-006
-1.4916587e-012
8.6242951e-006
-2.4340217e-012
8.6242932e-006
-5.4623737e-013
8.6242935e-006
2.4534121e-013
8.624294e-006
2.0084047e-013
8.6242943e-006
7.5369844e-014
8.6242943e-006
-6.6023966e-015
8.6242941e-006
-1.7995283e-013
8.6242932e-006
-6.9471209e-013
8.6242922e-006
-9.0997823e-013
-3.7752356e-013
3.9982989e-006
3.3002766e-006
3.2606249e-006
3.2574785e-006
3.2710668e-006
3.2763765e-006
3.279455e-006
3.2797517e-006
3.2792722e-006
3.2788254e-006
3.2787132e-006
3.2787415e-006
3.2787809e-006
3.2787931e-006
3.2787916e-006
3.2787892e-006
3.2787886e-006
3.2787889e-006
3.2787891e-006
3.2787892e-006
3.2787892e-006
3.2787891e-006
3.2787884e-006
3.2787875e-006
1.5565173e-005
-2.0772203e-006
1.6281314e-005
-2.6228697e-006
1.6878281e-005
-2.4210053e-006
1.7351837e-005
-2.0179727e-006
1.769526e-005
-1.5911332e-006
1.7937799e-005
-1.2059152e-006
1.8108011e-005
-9.1336439e-007
1.823188e-005
-7.0886903e-007
1.8327062e-005
-5.7865108e-007
1.8407671e-005
-5.1675232e-007
1.8484909e-005
-5.2019875e-007
1.857006e-005
-5.9166767e-007
1.8674165e-005
-7.3819105e-007
1.8808199e-005
-9.8379338e-007
1.8987705e-005
-1.3656073e-006
1.9232046e-005
-1.9315153e-006
1.9560048e-005
-2.7734726e-006
1.9998461e-005
-4.060888e-006
2.055633e-005
-5.9750458e-006
2.1174658e-005
-8.8209103e-006
2.1746415e-005
-1.2537574e-005
2.1594079e-005
-1.7181e-005
1.9945611e-005
-2.1397686e-005
1.4675695e-005
-2.5025813e-005
-1.6477454e-005
1.5706924e-005
-2.780303e-006
1.6523331e-005
-3.4392774e-006
1.7161631e-005
-3.0593053e-006
1.7620908e-005
-2.4772491e-006
1.7927118e-005
-1.8973433e-006
1.8123598e-005
-1.4023954e-006
1.8246775e-005
-1.0365412e-006
1.83277e-005
-7.8979377e-007
1.838426e-005
-6.3521098e-007
1.8427823e-005
-5.6031522e-007
1.8466063e-005
-5.5843896e-007
1.8504588e-005
-6.3019315e-007
1.8549435e-005
-7.8303736e-007
1.8604305e-005
-1.0386639e-006
1.867141e-005
-1.4327124e-006
1.8753486e-005
-2.0135911e-006
1.8842225e-005
-2.862211e-006
1.8919266e-005
-4.137929e-006
1.8931422e-005
-5.987202e-006
1.8738379e-005
-8.6278679e-006
1.8121485e-005
-1.192068e-005
1.6464777e-005
-1.5524291e-005
1.3178719e-005
-1.8111628e-005
6.8608772e-006
-1.8707972e-005
-9.6165765e-006
1.59065e-005
-3.6829624e-006
1.6822228e-005
-4.3550048e-006
1.7468669e-005
-3.7057467e-006
1.78822e-005
-2.8907798e-006
1.8123388e-005
-2.1385318e-006
1.8252801e-005
-1.5318086e-006
1.8315729e-005
-1.0994692e-006
1.834449e-005
-8.1855462e-007
1.8356125e-005
-6.4684555e-007
1.8358123e-005
-5.6231362e-007
1.8353715e-005
-5.5403092e-007
1.8343528e-005
-6.2000585e-007
1.8326787e-005
-7.6629645e-007
1.82999e-005
-1.0117771e-006
1.8254016e-005
-1.386828e-006
1.8178837e-005
-1.9384125e-006
1.8046374e-005
-2.7297483e-006
1.7802826e-005
-3.8943808e-006
1.7363287e-005
-5.5476629e-006
1.6540406e-005
-7.8049868e-006
1.5101955e-005
-1.0482229e-005
1.2618076e-005
-1.3040412e-005
8.84306e-006
-1.4336611e-005
3.4773778e-006
-1.334229e-005
-6.1391986e-006
1.614021e-005
-4.8193314e-006
1.7089445e-005
-5.30424e-006
1.7662627e-005
-4.2789287e-006
1.7966694e-005
-3.1948468e-006
1.8100924e-005
-2.2727612e-006
1.813842e-005
-1.5693049e-006
1.8128338e-005
-1.0893869e-006
1.8098586e-005
-7.8880279e-007
1.8062292e-005
-6.1055162e-007
1.8021819e-005
-5.2184102e-007
1.797542e-005
-5.0763193e-007
1.79184e-005
-5.6298567e-007
1.7843703e-005
-6.9159979e-007
1.7741352e-005
-9.0942558e-007
1.7594885e-005
-1.2403615e-006
1.7380504e-005
-1.7240309e-006
1.7061548e-005
-2.4107924e-006
1.6562736e-005
-3.3955686e-006
1.5784966e-005
-4.7698933e-006
1.454985e-005
-6.5698706e-006
1.2668434e-005
-8.6008135e-006
9.9309295e-006
-1.0302907e-005
6.3637027e-006
-1.0769385e-005
2.1925092e-006
-9.1710959e-006
-3.9466895e-006
1.6343771e-005
-6.1592617e-006
1.7167082e-005
-6.1275505e-006
1.7528633e-005
-4.6404795e-006
1.7629987e-005
-3.2962011e-006
1.7605082e-005
-2.2478561e-006
1.7526248e-005
-1.4904711e-006
1.7434153e-005
-9.9729199e-007
1.7344592e-005
-6.9924202e-007
1.7262442e-005
-5.2840171e-007
1.7183901e-005
-4.433001e-007
1.7101562e-005
-4.2529221e-007
1.7005549e-005
-4.6697292e-007
1.688475e-005
-5.7080037e-007
1.6722948e-005
-7.4762424e-007
1.6499064e-005
-1.0164772e-006
1.6179934e-005
-1.4049004e-006
1.5723616e-005
-1.9544744e-006
1.5052913e-005
-2.7248666e-006
1.4064109e-005
-3.7810887e-006
1.2609462e-005
-5.1152241e-006
1.0556978e-005
-6.5483287e-006
7.8598179e-006
-7.6057477e-006
4.6964328e-006
-7.6059996e-006
1.5333425e-006
-6.0080055e-006
-2.4133469e-006
1.6406295e-005
-7.5617161e-006
1.6853492e-005
-6.5747475e-006
1.6828012e-005
-4.6149991e-006
1.6626493e-005
-3.0946828e-006
1.6394429e-005
-2.0157921e-006
1.6184631e-005
-1.2806732e-006
1.6011015e-005
-8.2367502e-007
1.5868968e-005
-5.5719549e-007
1.5750378e-005
-4.098115e-007
1.564415e-005
-3.3707198e-007
1.553763e-005
-3.1877259e-007
1.5417274e-005
-3.4661697e-007
1.5268326e-005
-4.2185257e-007
1.5071588e-005
-5.5088584e-007
1.4802461e-005
-7.4735027e-007
1.4426917e-005
-1.0293567e-006
1.3899137e-005
-1.4266945e-006
1.3149877e-005
-1.9756058e-006
1.2083112e-005
-2.7143244e-006
1.0588939e-005
-3.6210506e-006
8.5880762e-006
-4.5474661e-006
6.1317712e-006
-5.1494426e-006
3.4778281e-006
-4.9520565e-006
1.1018766e-006
-3.6320541e-006
-1.3114702e-006
1.6183045e-005
-8.7409204e-006
1.5915572e-005
-6.307274e-006
1.5341879e-005
-4.0413062e-006
1.4776388e-005
-2.5291915e-006
1.4324414e-005
-1.5638189e-006
1.3994489e-005
-9.5074806e-007
1.3757699e-005
-5.8688516e-007
1.3582377e-005
-3.8187359e-007
1.3445133e-005
-2.7256743e-007
1.3327561e-005
-2.1949917e-007
1.3213399e-005
-2.0461071e-007
1.3087499e-005
-2.2071673e-007
1.2933186e-005
-2.6754028e-007
1.2731525e-005
-3.4922419e-007
1.2457312e-005
-4.7313767e-007
1.207914e-005
-6.5118516e-007
1.1553269e-005
-9.0082335e-007
1.0820731e-005
-1.243067e-006
9.8035036e-006
-1.6970974e-006
8.4243825e-006
-2.2419296e-006
6.6491415e-006
-2.7722251e-006
4.5724438e-006
-3.0727448e-006
2.4668436e-006
-2.8464563e-006
7.4577308e-007
-1.9109835e-006
-5.6569714e-007
1.5348408e-005
-9.0854878e-006
1.401564e-005
-4.9745052e-006
1.284711e-005
-2.8727762e-006
1.1965104e-005
-1.647186e-006
1.136152e-005
-9.6023463e-007
1.0967437e-005
-5.5666508e-007
1.0709531e-005
-3.2897936e-007
1.0532781e-005
-2.0512351e-007
1.0401717e-005
-1.4150358e-007
1.0293449e-005
-1.1123096e-007
1.0191053e-005
-1.0221437e-007
1.0079773e-005
-1.0943735e-007
9.9445942e-006
-1.3236125e-007
9.7685679e-006
-1.7319784e-007
9.5302779e-006
-2.3484767e-007
9.2028412e-006
-3.237485e-007
8.7499877e-006
-4.4796979e-007
8.124659e-006
-6.1773829e-007
7.2689349e-006
-8.4137328e-007
6.1328297e-006
-1.1058243e-006
4.7140649e-006
-1.3534603e-006
3.1128375e-006
-1.4715174e-006
1.5771302e-006
-1.310749e-006
4.3799541e-007
-7.7184863e-007
-1.2770171e-007
1.3212805e-005
-7.2944518e-006
1.0743302e-005
-2.5050024e-006
9.1242168e-006
-1.253691e-006
8.1298038e-006
-6.5277306e-007
7.5305136e-006
-3.6094443e-007
7.1734925e-006
-1.9964406e-007
6.957293e-006
-1.1277985e-007
6.8190551e-006
-6.6885619e-008
6.7215561e-006
-4.4004534e-008
6.6436732e-006
-3.3348066e-008
6.571501e-006
-3.0042152e-008
6.4939208e-006
-3.1857139e-008
6.4000964e-006
-3.8536865e-008
6.2775844e-006
-5.0685825e-008
6.1116658e-006
-6.8929021e-008
5.8832388e-006
-9.5321503e-008
5.5672784e-006
-1.3200941e-007
5.1314902e-006
-1.8195006e-007
4.5375501e-006
-2.4743322e-007
3.7554579e-006
-3.2373207e-007
2.7948956e-006
-3.9289799e-007
1.7393597e-006
-4.1598147e-007
7.7991516e-007
-3.5130442e-007
1.636345e-007
-1.5556793e-007
3.5932816e-008
7.7093892e-006
5.2043867e-006
3.9506958e-006
3.2979227e-006
2.9369783e-006
2.7373342e-006
2.6245544e-006
2.5576687e-006
2.5136642e-006
2.4803162e-006
2.450274e-006
2.4184169e-006
2.37988e-006
2.3291942e-006
2.2602652e-006
2.1649437e-006
2.0329343e-006
1.8509842e-006
1.603551e-006
1.2798189e-006
8.8692094e-007
4.7093949e-007
1.1963509e-007
-3.5932816e-008
)
;

boundaryField
{
    inlet
    {
        type            calculated;
        value           nonuniform List<scalar> 
20
(
-5.0012803e-006
-5.0012803e-006
-5.0012803e-006
-5.0012803e-006
-5.0012803e-006
-5.0012803e-006
-5.0012803e-006
-5.0012803e-006
-5.0012803e-006
-5.0012803e-006
-1.5003841e-005
-1.5003841e-005
-1.5003841e-005
-1.5003841e-005
-1.5003841e-005
-1.5003841e-005
-1.5003841e-005
-1.5003841e-005
-1.5003841e-005
-1.5003841e-005
)
;
    }
    walls
    {
        type            calculated;
        value           uniform 0;
    }
    outlet
    {
        type            calculated;
        value           nonuniform List<scalar> 10(2.9600615e-005 2.9016708e-005 2.7854914e-005 2.6121938e-005 2.3818282e-005 2.0934148e-005 1.7451131e-005 1.3350401e-005 8.6242918e-006 3.2787871e-006);
    }
    centreline
    {
        type            symmetryPlane;
        value           uniform 0;
    }
    frontAndBack
    {
        type            empty;
        value           nonuniform 0();
    }
}


// ************************************************************************* //
