/*--------------------------------*- C++ -*----------------------------------*\
| =========                 |                                                 |
| \\      /  F ield         | OpenFOAM: The Open Source CFD Toolbox           |
|  \\    /   O peration     | Version:  5.x                                   |
|   \\  /    A nd           | Web:      www.OpenFOAM.org                      |
|    \\/     M anipulation  |                                                 |
\*---------------------------------------------------------------------------*/
/*   Windows 32 and 64 bit porting by blueCAPE: http://www.bluecape.com.pt   *\
|  Based on Windows porting (2.0.x v4) by Symscape: http://www.symscape.com   |
\*---------------------------------------------------------------------------*/
FoamFile
{
    version     2.0;
    format      ascii;
    class       surfaceScalarField;
    location    "0.19";
    object      phi_0;
}
// * * * * * * * * * * * * * * * * * * * * * * * * * * * * * * * * * * * * * //

dimensions      [0 3 -1 0 0 0 0];

internalField   nonuniform List<scalar> 
1430
(
5.1430211e-006
-1.4174075e-007
5.3213191e-006
-1.7829803e-007
5.4974345e-006
-1.7611545e-007
5.6496041e-006
-1.5216951e-007
5.7770786e-006
-1.2747451e-007
5.8780312e-006
-1.0095259e-007
5.9579817e-006
-7.9950519e-008
6.0221278e-006
-6.4146135e-008
6.0760792e-006
-5.3951391e-008
6.1255656e-006
-4.9486325e-008
6.1764495e-006
-5.0883948e-008
6.2351566e-006
-5.8707102e-008
6.3092961e-006
-7.4139435e-008
6.4092588e-006
-9.9962713e-008
6.5498569e-006
-1.405981e-007
6.7517967e-006
-2.0193976e-007
7.0485615e-006
-2.9676482e-007
7.496035e-006
-4.4747354e-007
8.1822382e-006
-6.8620321e-007
9.2540852e-006
-1.071847e-006
1.0869938e-005
-1.6158525e-006
1.3295974e-005
-2.4260365e-006
1.664232e-005
-3.3463459e-006
2.0929203e-005
-4.286883e-006
-4.8371722e-006
2.5766375e-005
5.141996e-006
-2.8245643e-007
5.3237422e-006
-3.6004424e-007
5.4983213e-006
-3.5069452e-007
5.6514449e-006
-3.0529306e-007
5.7784031e-006
-2.5443277e-007
5.8792381e-006
-2.0178751e-007
5.9588438e-006
-1.5955626e-007
6.0226212e-006
-1.2792352e-007
6.0762246e-006
-1.0755481e-007
6.1253584e-006
-9.8620114e-008
6.1758181e-006
-1.0134358e-007
6.2340092e-006
-1.1689816e-007
6.307481e-006
-1.4761125e-007
6.4064462e-006
-1.9892793e-007
6.5456199e-006
-2.7977178e-007
6.7454471e-006
-4.0176692e-007
7.0386872e-006
-5.9000492e-007
7.4803966e-006
-8.8918291e-007
8.157407e-006
-1.3632136e-006
9.20951e-006
-2.12395e-006
1.0805612e-005
-3.2119545e-006
1.31685e-005
-4.7889244e-006
1.6482373e-005
-6.6602191e-006
2.0645901e-005
-8.4504112e-006
-9.6905602e-006
2.5499289e-005
5.1431233e-006
-4.2429937e-007
5.3258035e-006
-5.4272449e-007
5.5013578e-006
-5.2624885e-007
5.6546244e-006
-4.585596e-007
5.7813219e-006
-3.8113034e-007
5.8816302e-006
-3.0209574e-007
5.9605882e-006
-2.3851429e-007
6.0236747e-006
-1.9101002e-007
6.0765911e-006
-1.6047123e-007
6.1250037e-006
-1.4703264e-007
6.1746533e-006
-1.5099316e-007
6.2318152e-006
-1.7406002e-007
6.3039109e-006
-2.1970698e-007
6.4009772e-006
-2.9599419e-007
6.53732e-006
-4.1611455e-007
6.7328218e-006
-5.9726876e-007
7.0192458e-006
-8.7642891e-007
7.449573e-006
-1.3195101e-006
8.1071353e-006
-2.020776e-006
9.1262629e-006
-3.1430776e-006
1.0666407e-005
-4.752099e-006
1.2945423e-005
-7.0679398e-006
1.6128681e-005
-9.8434775e-006
2.0154098e-005
-1.2475827e-005
-1.4393758e-005
2.4857295e-005
5.1447986e-006
-5.6781769e-007
5.329083e-006
-7.2700887e-007
5.5060098e-006
-7.0317568e-007
5.6595423e-006
-6.1209202e-007
5.7858564e-006
-5.0744451e-007
5.8853395e-006
-4.015788e-007
5.9632912e-006
-3.1646603e-007
6.0253762e-006
-2.5309494e-007
6.0772634e-006
-2.123585e-007
6.1245872e-006
-1.943564e-007
6.1730249e-006
-1.9943084e-007
6.2286666e-006
-2.2970169e-007
6.2987175e-006
-2.8975786e-007
6.3929442e-006
-3.9022084e-007
6.5251027e-006
-5.4827313e-007
6.7142136e-006
-7.8637957e-007
6.9905413e-006
-1.1527567e-006
7.4042173e-006
-1.7331861e-006
8.0332409e-006
-2.6497996e-006
9.0033579e-006
-4.1131946e-006
1.0462045e-005
-6.2107861e-006
1.2615098e-005
-9.220993e-006
1.5600139e-005
-1.2828519e-005
1.9407717e-005
-1.6283405e-005
-1.8850563e-005
2.3864522e-005
5.1471582e-006
-7.1369553e-007
5.3336748e-006
-9.1352551e-007
5.5124605e-006
-8.8196139e-007
5.6663472e-006
-7.6597873e-007
5.7921422e-006
-6.3323953e-007
5.8904876e-006
-4.999242e-007
5.9670785e-006
-3.9305686e-007
6.0278303e-006
-3.1384675e-007
6.0783462e-006
-2.6287443e-007
6.1242241e-006
-2.4023422e-007
6.1710537e-006
-2.4626042e-007
6.2246986e-006
-2.8334656e-007
6.2920624e-006
-3.5712172e-007
6.3825579e-006
-4.807163e-007
6.5092472e-006
-6.7496237e-007
6.6900095e-006
-9.6714192e-007
6.953172e-006
-1.4159191e-006
7.3452453e-006
-2.1252595e-006
7.9371191e-006
-3.2416734e-006
8.8440485e-006
-5.0201241e-006
1.0195609e-005
-7.5623469e-006
1.2180411e-005
-1.1205795e-005
1.4903537e-005
-1.5551645e-005
1.8415389e-005
-1.9795257e-005
-2.2947245e-005
2.2512071e-005
5.1503503e-006
-8.6276548e-007
5.3397697e-006
-1.102945e-006
5.5209474e-006
-1.0631391e-006
5.6752661e-006
-9.2029737e-007
5.8003749e-006
-7.5834838e-007
5.8972556e-006
-5.968049e-007
5.9721239e-006
-4.6792515e-007
6.031188e-006
-3.7291081e-007
6.0799963e-006
-3.1168272e-007
6.1240826e-006
-2.8432058e-007
6.1689127e-006
-2.9109045e-007
6.2200989e-006
-3.3453274e-007
6.2841728e-006
-4.2119562e-007
6.3700931e-006
-5.6663658e-007
6.4900666e-006
-7.9493583e-007
6.6606287e-006
-1.1377041e-006
6.9077516e-006
-1.663042e-006
7.2737028e-006
-2.4912107e-006
7.8209022e-006
-3.7888728e-006
8.6514484e-006
-5.8506702e-006
9.8711663e-006
-8.7820648e-006
1.1648848e-005
-1.2983476e-005
1.4042521e-005
-1.7945318e-005
1.7172407e-005
-2.2925143e-005
-2.6598015e-005
2.0823177e-005
5.1545647e-006
-1.0160498e-006
5.347603e-006
-1.2959834e-006
5.5317359e-006
-1.2472719e-006
5.6865641e-006
-1.0751256e-006
5.810782e-006
-8.8256631e-007
5.9058553e-006
-6.918782e-007
5.9786286e-006
-5.4069842e-007
6.0356282e-006
-4.2991035e-007
6.0824018e-006
-3.5845632e-007
6.1243547e-006
-3.262735e-007
6.1667983e-006
-3.3353401e-007
6.2150957e-006
-3.8283011e-007
6.2753093e-006
-4.8140926e-007
6.3558539e-006
-6.4718114e-007
6.4679455e-006
-9.0702747e-007
6.6266374e-006
-1.2963959e-006
6.8551616e-006
-1.8915662e-006
7.1909605e-006
-2.8270096e-006
7.686948e-006
-4.2848603e-006
8.4291974e-006
-6.5929196e-006
9.4950518e-006
-9.8479192e-006
1.1027525e-005
-1.4515949e-005
1.3016896e-005
-1.9934688e-005
1.571032e-005
-2.5618567e-005
-2.9634908e-005
1.8747213e-005
5.1600635e-006
-1.174833e-006
5.3574396e-006
-1.4933594e-006
5.5451292e-006
-1.4349616e-006
5.7005264e-006
-1.2305228e-006
5.8235896e-006
-1.0056295e-006
5.9164904e-006
-7.8477896e-007
5.9867861e-006
-6.1099406e-007
6.0413328e-006
-4.844571e-007
6.0857517e-006
-4.0287516e-007
6.1252327e-006
-3.6575454e-007
6.1649045e-006
-3.7320574e-007
6.209916e-006
-4.2784168e-007
6.265753e-006
-5.3724618e-007
6.3401856e-006
-7.216138e-007
6.4433405e-006
-1.0101823e-006
6.588676e-006
-1.4417315e-006
6.7963638e-006
-2.099254e-006
7.0985147e-006
-3.1291605e-006
7.5380508e-006
-4.7243963e-006
8.1817616e-006
-7.2366305e-006
9.0744443e-006
-1.0740602e-005
1.0328172e-005
-1.5769677e-005
1.1873536e-005
-2.1480053e-005
1.4082271e-005
-2.7827302e-005
-3.1710495e-005
1.6157858e-005
5.1672205e-006
-1.3407732e-006
5.3695188e-006
-1.6956577e-006
5.5614445e-006
-1.6268873e-006
5.7173981e-006
-1.3864764e-006
5.8389576e-006
-1.127189e-006
5.9293114e-006
-8.7513271e-007
5.9967406e-006
-6.7842326e-007
6.0484472e-006
-5.3616369e-007
6.0901716e-006
-4.4459952e-007
6.1268506e-006
-4.0243361e-007
6.1634048e-006
-4.0975988e-007
6.2047426e-006
-4.691795e-007
6.2557519e-006
-5.8825538e-007
6.3234479e-006
-7.8930986e-007
6.4167245e-006
-1.1034589e-006
6.5473448e-006
-1.5723518e-006
6.7323812e-006
-2.2842904e-006
6.9980837e-006
-3.394863e-006
7.3763008e-006
-5.1026135e-006
7.9141517e-006
-7.7744814e-006
8.6195419e-006
-1.1445992e-005
9.5709621e-006
-1.6721097e-005
1.0627506e-005
-2.2536597e-005
1.2295619e-005
-2.9495414e-005
-3.2430819e-005
1.3015943e-005
5.1752823e-006
-1.5147752e-006
5.3849488e-006
-1.9053242e-006
5.580707e-006
-1.8226455e-006
5.7373988e-006
-1.5431681e-006
5.8568775e-006
-1.2466678e-006
5.94434e-006
-9.6259523e-007
6.008526e-006
-7.4260922e-007
6.0570035e-006
-5.8464121e-007
6.0956492e-006
-4.8324515e-007
6.1292264e-006
-4.3601079e-007
6.1623463e-006
-4.4287981e-007
6.1996412e-006
-5.0647432e-007
6.2454478e-006
-6.3406203e-007
6.3058598e-006
-8.4972184e-007
6.3884319e-006
-1.186031e-006
6.5031029e-006
-1.6870227e-006
6.6639385e-006
-2.445126e-006
6.8908618e-006
-3.6217864e-006
7.2044185e-006
-5.4161702e-006
7.6316744e-006
-8.2017372e-006
8.1517087e-006
-1.1966026e-005
8.7659982e-006
-1.7335387e-005
9.2791526e-006
-2.3049751e-005
1.0083178e-005
-3.029944e-005
8.8074719e-006
-3.1155112e-005
2.8417921e-005
-2.6515454e-006
2.9374355e-005
-9.5643471e-007
2.9593493e-005
-2.1913709e-007
2.9637872e-005
-4.437991e-008
2.9636965e-005
9.0735952e-010
2.9618248e-005
1.8716954e-008
2.9603502e-005
1.4746117e-008
2.9596702e-005
6.7999446e-009
2.9595577e-005
1.1250048e-009
2.9596457e-005
-8.793459e-010
2.9597278e-005
-8.2102399e-010
2.9597537e-005
-2.5977725e-010
2.9597494e-005
4.3388409e-011
2.9597426e-005
6.8083161e-011
2.9597405e-005
2.0974979e-011
2.9597407e-005
-2.4686832e-012
2.9597411e-005
-3.9170221e-012
2.9597412e-005
-6.7152911e-013
2.9597411e-005
4.9419461e-013
2.9597411e-005
3.1350499e-013
2.9597411e-005
9.2831979e-015
2.9597411e-005
-2.8613595e-013
2.9597412e-005
-5.665124e-013
2.9597412e-005
2.4485899e-013
6.479058e-013
2.7931306e-005
-5.0835624e-006
2.8841517e-005
-1.8666458e-006
2.9022654e-005
-4.0027311e-007
2.9060994e-005
-8.2719873e-008
2.9049968e-005
1.1933212e-008
2.9031702e-005
3.6982842e-008
2.9018377e-005
2.8071026e-008
2.9012698e-005
1.2478553e-008
2.9011982e-005
1.8416192e-009
2.9012965e-005
-1.8629713e-009
2.9013698e-005
-1.5538834e-009
2.9013888e-005
-4.4911264e-010
2.9013833e-005
9.8235785e-011
2.9013771e-005
1.2937188e-010
2.9013755e-005
3.7256889e-011
2.9013759e-005
-6.0460698e-012
2.9013762e-005
-7.4239509e-012
2.9013763e-005
-1.125706e-012
2.9013762e-005
1.0175386e-012
2.9013762e-005
6.1063351e-013
2.9013762e-005
3.7348511e-014
2.9013762e-005
-5.4951892e-013
2.9013763e-005
-1.1081624e-012
2.9013763e-005
3.0068276e-013
1.0961373e-012
2.6999174e-005
-7.2254409e-006
2.7755422e-005
-2.6228942e-006
2.7893959e-005
-5.3880979e-007
2.7897004e-005
-8.5765075e-008
2.7877288e-005
3.1649495e-008
2.7863744e-005
5.0526432e-008
2.7854433e-005
3.7381693e-008
2.7850896e-005
1.6015705e-008
2.7851022e-005
1.7161891e-009
2.7852038e-005
-2.8793498e-009
2.7852581e-005
-2.0971697e-009
2.785266e-005
-5.2767557e-010
2.7852591e-005
1.6686443e-010
2.7852544e-005
1.7615415e-010
2.7852537e-005
4.4652116e-011
2.7852542e-005
-1.0663154e-011
2.7852544e-005
-1.0029998e-011
2.7852544e-005
-1.191555e-012
2.7852544e-005
1.5050062e-012
2.7852544e-005
8.2426958e-013
2.7852544e-005
5.66266e-014
2.7852544e-005
-7.4109825e-013
2.7852544e-005
-1.5988925e-012
2.7852545e-005
-6.4864958e-014
1.0643298e-012
2.5597321e-005
-8.9582396e-006
2.6128155e-005
-3.1537277e-006
2.6175843e-005
-5.8649773e-007
2.6149776e-005
-5.9699023e-008
2.6131328e-005
5.0098222e-008
2.6124011e-005
5.7843129e-008
2.6119377e-005
4.2016143e-008
2.6118667e-005
1.6725579e-008
2.6119586e-005
7.9709348e-010
2.6120405e-005
-3.6981659e-009
2.6120646e-005
-2.3387701e-009
2.6120602e-005
-4.8299381e-010
2.6120532e-005
2.3686302e-010
2.6120509e-005
1.9890178e-010
2.6120512e-005
4.1897308e-011
2.6120516e-005
-1.5222581e-011
2.6120517e-005
-1.1197462e-011
2.6120517e-005
-8.4533179e-013
2.6120517e-005
1.8646337e-012
2.6120516e-005
9.4887611e-013
2.6120517e-005
6.5598176e-014
2.6120517e-005
-8.750558e-013
2.6120517e-005
-2.0354941e-012
2.6120518e-005
-8.4290385e-013
5.6532901e-013
2.3704411e-005
-1.015058e-005
2.3908828e-005
-3.3581439e-006
2.3849822e-005
-5.2749205e-007
2.3826092e-005
-3.5969e-008
2.3815575e-005
6.0615357e-008
2.3813925e-005
5.9492438e-008
2.3814758e-005
4.1183369e-008
2.3816806e-005
1.4678137e-008
2.3818093e-005
-4.8994819e-010
2.3818426e-005
-4.0311923e-009
2.3818297e-005
-2.2103768e-009
2.3818153e-005
-3.3911633e-010
2.3818108e-005
2.8219198e-010
2.3818116e-005
1.9101166e-010
2.3818127e-005
3.0931759e-011
2.381813e-005
-1.8050947e-011
2.3818129e-005
-1.0571504e-011
2.3818129e-005
-2.3467653e-013
2.3818128e-005
1.964077e-012
2.3818129e-005
9.4710863e-013
2.3818129e-005
7.8089009e-014
2.3818129e-005
-9.317454e-013
2.3818129e-005
-2.3756264e-012
2.381813e-005
-1.7642723e-012
-1.2625167e-013
2.1261039e-005
-1.0588442e-005
2.1050188e-005
-3.147293e-006
2.0931803e-005
-4.0910646e-007
2.091913e-005
-2.3296586e-008
2.0918113e-005
6.1632406e-008
2.0924493e-005
5.3111978e-008
2.093124e-005
3.4437211e-008
2.0935263e-005
1.0655246e-008
2.0936289e-005
-1.5160569e-009
2.0935957e-005
-3.6996105e-009
2.0935495e-005
-1.7483943e-009
2.0935314e-005
-1.5799378e-010
2.0935318e-005
2.7817573e-010
2.0935355e-005
1.54463e-010
2.0935369e-005
1.6656028e-011
2.0935368e-005
-1.7690979e-011
2.0935366e-005
-8.3302564e-012
2.0935366e-005
3.7225673e-013
2.0935366e-005
1.7354773e-012
2.0935366e-005
7.8256222e-013
2.0935366e-005
7.0850941e-014
2.0935366e-005
-8.6403946e-013
2.0935366e-005
-2.4816953e-012
2.0935367e-005
-2.4427327e-012
-6.9201498e-013
1.8162892e-005
-1.0004121e-005
1.7556868e-005
-2.5412688e-006
1.7424706e-005
-2.7694474e-007
1.7416412e-005
-1.5002483e-008
1.7425011e-005
5.3032825e-008
1.7439237e-005
3.8886895e-008
1.7450201e-005
2.3472656e-008
1.7454796e-005
6.0598362e-009
1.7455085e-005
-1.8042629e-009
1.7454139e-005
-2.7539464e-009
1.7453498e-005
-1.1077493e-009
1.7453356e-005
-1.5453418e-011
1.7453415e-005
2.1927681e-010
1.7453468e-005
1.0118515e-010
1.745348e-005
4.7189786e-012
1.7453476e-005
-1.387231e-011
1.7453473e-005
-5.2559738e-012
1.7453473e-005
6.8469111e-013
1.7453473e-005
1.2563786e-012
1.7453474e-005
5.2747977e-013
1.7453474e-005
3.9734631e-014
1.7453473e-005
-6.9517675e-013
1.7453473e-005
-2.250098e-012
1.7453473e-005
-2.5631022e-012
-9.3324184e-013
1.4307506e-005
-8.1537693e-006
1.3439396e-005
-1.673159e-006
1.3311951e-005
-1.4950011e-007
1.3303929e-005
-6.9803248e-009
1.3321925e-005
3.5036756e-008
1.3340006e-005
2.0805877e-008
1.3351757e-005
1.1721708e-008
1.33555e-005
2.3172425e-009
1.3355019e-005
-1.3231394e-009
1.3353774e-005
-1.5096705e-009
1.3353169e-005
-5.0285792e-010
1.335311e-005
4.3609368e-011
1.3353203e-005
1.2651794e-010
1.3353256e-005
4.8474309e-011
1.3353262e-005
-1.283501e-012
1.3353256e-005
-7.9339452e-012
1.3353253e-005
-2.3796776e-012
1.3353253e-005
5.9350274e-013
1.3353254e-005
6.7899012e-013
1.3353254e-005
2.6882692e-013
1.3353254e-005
8.1621445e-015
1.3353254e-005
-4.5447329e-013
1.3353253e-005
-1.6233365e-012
1.3353253e-005
-2.0141844e-012
-8.1815134e-013
9.6712345e-006
-4.8090608e-006
8.6957524e-006
-6.9767697e-007
8.5855834e-006
-3.9331149e-008
8.5814817e-006
-2.8786011e-009
8.602786e-006
1.3732443e-008
8.6182452e-006
5.3466628e-009
8.626905e-006
3.0618336e-009
8.6289494e-006
2.7285894e-010
8.6281174e-006
-4.9108475e-010
8.6270554e-006
-4.4763973e-010
8.6266627e-006
-1.1015554e-010
8.6266768e-006
2.9474167e-011
8.6267638e-006
3.9483936e-011
8.6268003e-006
1.2023503e-011
8.6268006e-006
-1.5868357e-012
8.6267951e-006
-2.4350241e-012
8.6267932e-006
-5.3075086e-013
8.6267936e-006
2.5052927e-013
8.626794e-006
2.0020569e-013
8.6267943e-006
7.5070871e-014
8.6267943e-006
-5.3192171e-015
8.6267941e-006
-1.7871121e-013
8.6267932e-006
-6.9871843e-013
8.6267921e-006
-9.3165728e-013
-3.9792866e-013
3.9984112e-006
3.3007342e-006
3.261403e-006
3.2585244e-006
3.2722568e-006
3.2776035e-006
3.2806653e-006
3.2809382e-006
3.2804471e-006
3.2799995e-006
3.2798893e-006
3.2799188e-006
3.2799583e-006
3.2799703e-006
3.2799687e-006
3.2799663e-006
3.2799657e-006
3.279966e-006
3.2799662e-006
3.2799663e-006
3.2799663e-006
3.2799662e-006
3.2799655e-006
3.2799646e-006
1.556463e-005
-2.0755647e-006
1.6280187e-005
-2.620881e-006
1.687669e-005
-2.4191487e-006
1.7349866e-005
-2.0163436e-006
1.7693011e-005
-1.5898125e-006
1.7935368e-005
-1.2049529e-006
1.810547e-005
-9.1271031e-007
1.8229281e-005
-7.0845227e-007
1.8324435e-005
-5.783998e-007
1.8405036e-005
-5.1661198e-007
1.8482279e-005
-5.2012227e-007
1.8567437e-005
-5.9163229e-007
1.8671553e-005
-7.381785e-007
1.8805607e-005
-9.8377536e-007
1.8985134e-005
-1.3655576e-006
1.9229497e-005
-1.9313862e-006
1.9557519e-005
-2.7731483e-006
1.9995946e-005
-4.0602128e-006
2.055384e-005
-5.9740644e-006
2.1172274e-005
-8.8201711e-006
2.1744316e-005
-1.2538069e-005
2.1592453e-005
-1.7183524e-005
1.9944521e-005
-2.1401819e-005
1.4675066e-005
-2.5029985e-005
-1.6480046e-005
1.570627e-005
-2.7779937e-006
1.6522132e-005
-3.4367435e-006
1.7160032e-005
-3.0570486e-006
1.7618994e-005
-2.4753055e-006
1.7924979e-005
-1.8957971e-006
1.8121317e-005
-1.4012908e-006
1.8244426e-005
-1.0358194e-006
1.8325333e-005
-7.8935929e-007
1.8381896e-005
-6.3496346e-007
1.8425472e-005
-5.6018707e-007
1.846373e-005
-5.5838035e-007
1.8502278e-005
-6.3018036e-007
1.8547151e-005
-7.8305142e-007
1.8602058e-005
-1.0386824e-006
1.8669207e-005
-1.4327069e-006
1.875134e-005
-2.0135196e-006
1.8840162e-005
-2.8619702e-006
1.891733e-005
-4.1373805e-006
1.8929671e-005
-5.9864051e-006
1.8736875e-005
-8.6273758e-006
1.8120316e-005
-1.192151e-005
1.6464031e-005
-1.5527238e-005
1.3178362e-005
-1.8116151e-005
6.8607257e-006
-1.8712348e-005
-9.6193205e-006
1.5905896e-005
-3.6800488e-006
1.6821302e-005
-4.3521493e-006
1.746754e-005
-3.7032871e-006
1.7880902e-005
-2.8886672e-006
1.8121959e-005
-2.1368544e-006
1.8251297e-005
-1.5306285e-006
1.8314211e-005
-1.098734e-006
1.8342994e-005
-8.1814147e-007
1.8354658e-005
-6.4662757e-007
1.8356685e-005
-5.6221467e-007
1.8352309e-005
-5.5400393e-007
1.8342156e-005
-6.2002695e-007
1.8325452e-005
-7.6634793e-007
1.8298611e-005
-1.0118416e-006
1.8252788e-005
-1.3868833e-006
1.8177692e-005
-1.938424e-006
1.8045357e-005
-2.7296348e-006
1.7802003e-005
-3.8940268e-006
1.7362724e-005
-5.5471257e-006
1.6540156e-005
-7.8048078e-006
1.5102003e-005
-1.0483357e-005
1.2618319e-005
-1.3043554e-005
8.843369e-006
-1.4341201e-005
3.4776041e-006
-1.3346583e-005
-6.1417165e-006
1.6139913e-005
-4.816121e-006
1.7089235e-005
-5.301471e-006
1.7662531e-005
-4.276583e-006
1.7966659e-005
-3.1927952e-006
1.810091e-005
-2.2711062e-006
1.8138431e-005
-1.5681489e-006
1.8128391e-005
-1.0886945e-006
1.8098694e-005
-7.8844367e-007
1.8062451e-005
-6.1038472e-007
1.8022021e-005
-5.2178531e-007
1.797566e-005
-5.0764253e-007
1.7918673e-005
-5.6303984e-007
1.7844009e-005
-6.9168443e-007
1.7741698e-005
-9.0952979e-007
1.7595289e-005
-1.2404742e-006
1.7380986e-005
-1.7241215e-006
1.7062152e-005
-2.4108009e-006
1.6563536e-005
-3.3954105e-006
1.5786027e-005
-4.7696169e-006
1.4551183e-005
-6.5699633e-006
1.2669906e-005
-8.6020804e-006
9.9322521e-006
-1.03059e-005
6.3646264e-006
-1.0773575e-005
2.1929428e-006
-9.1748997e-006
-3.9487736e-006
1.6343981e-005
-6.1562609e-006
1.7167818e-005
-6.1253077e-006
1.7529812e-005
-4.6385775e-006
1.763149e-005
-3.2944733e-006
1.7606795e-005
-2.2464109e-006
1.75281e-005
-1.4894536e-006
1.7436105e-005
-9.9669989e-007
1.7346624e-005
-6.9896274e-007
1.7264537e-005
-5.2829746e-007
1.7186041e-005
-4.4328892e-007
1.7103731e-005
-4.2533252e-007
1.7007737e-005
-4.6704599e-007
1.6886953e-005
-5.709012e-007
1.6725172e-005
-7.4774789e-007
1.6501314e-005
-1.0166168e-006
1.6182228e-005
-1.405035e-006
1.5725986e-005
-1.954559e-006
1.5055421e-005
-2.7248456e-006
1.4066809e-005
-3.7810049e-006
1.2612298e-005
-5.1154529e-006
1.0559716e-005
-6.5494979e-006
7.8620569e-006
-7.6082411e-006
4.6978346e-006
-7.6093528e-006
1.5338948e-006
-6.0109599e-006
-2.4148788e-006
1.6406984e-005
-7.5594037e-006
1.6854951e-005
-6.573275e-006
1.6830102e-005
-4.6137286e-006
1.6629093e-005
-3.0934644e-006
1.6397404e-005
-2.014722e-006
1.6187852e-005
-1.2799012e-006
1.6014384e-005
-8.2323234e-007
1.5872428e-005
-5.5700659e-007
1.5753894e-005
-4.09763e-007
1.5647698e-005
-3.3709304e-007
1.5541193e-005
-3.1882759e-007
1.5420838e-005
-3.4669146e-007
1.5271885e-005
-4.2194742e-007
1.5075136e-005
-5.5099962e-007
1.4805996e-005
-7.4747634e-007
1.4430447e-005
-1.0294858e-006
1.3902682e-005
-1.4267938e-006
1.3153474e-005
-1.975638e-006
1.2086797e-005
-2.7143281e-006
1.059262e-005
-3.621276e-006
8.59146e-006
-4.5483378e-006
6.1344138e-006
-5.1511948e-006
3.4793956e-006
-4.9543345e-006
1.1024104e-006
-3.6339747e-006
-1.3124684e-006
1.6183946e-005
-8.7395088e-006
1.5917194e-005
-6.3065229e-006
1.5344098e-005
-4.0406325e-006
1.4779149e-005
-2.5285161e-006
1.4327617e-005
-1.5631892e-006
1.399799e-005
-9.5027501e-007
1.3761371e-005
-5.8661276e-007
1.3586134e-005
-3.8176967e-007
1.344893e-005
-2.7255884e-007
1.333137e-005
-2.1953352e-007
1.3217205e-005
-2.046622e-007
1.309129e-005
-2.2077691e-007
1.2936953e-005
-2.6761048e-007
1.2735259e-005
-3.493049e-007
1.2461008e-005
-4.7322524e-007
1.2082796e-005
-6.5127415e-007
1.1556895e-005
-9.0089267e-007
1.0824349e-005
-1.2430923e-006
9.8071277e-006
-1.6971069e-006
8.4279176e-006
-2.2420659e-006
6.6523087e-006
-2.7727289e-006
4.5748519e-006
-3.073738e-006
2.4682273e-006
-2.8477099e-006
7.4622244e-007
-1.9119697e-006
-5.6624591e-007
1.5349204e-005
-9.0848721e-006
1.4016893e-005
-4.9742118e-006
1.2848793e-005
-2.8725327e-006
1.1967216e-005
-1.6469383e-006
1.1364004e-005
-9.5997754e-007
1.0970187e-005
-5.5645818e-007
1.0712434e-005
-3.2885953e-007
1.053575e-005
-2.0508596e-007
1.0404705e-005
-1.4151365e-007
1.0296432e-005
-1.1126045e-007
1.0194019e-005
-1.0224918e-007
1.0082716e-005
-1.0947387e-007
9.9475054e-006
-1.3240012e-007
9.7714405e-006
-1.7323992e-007
9.5331074e-006
-2.3489215e-007
9.2056244e-006
-3.237911e-007
8.7527302e-006
-4.4799847e-007
8.1273796e-006
-6.1774166e-007
7.2716383e-006
-8.4136565e-007
6.1354394e-006
-1.1058669e-006
4.7163647e-006
-1.3536543e-006
3.1145464e-006
-1.4719196e-006
1.5780939e-006
-1.3112574e-006
4.383234e-007
-7.7219923e-007
-1.2792249e-007
1.3213282e-005
-7.2943132e-006
1.0743995e-005
-2.5049252e-006
9.1251189e-006
-1.2536561e-006
8.1309259e-006
-6.5274541e-007
7.5318471e-006
-3.6089875e-007
7.1749891e-006
-1.9960015e-007
6.958885e-006
-1.1275547e-007
6.8206815e-006
-6.6882486e-008
6.7231819e-006
-4.4013957e-008
6.6452837e-006
-3.3362272e-008
6.5730914e-006
-3.0056837e-008
6.4954888e-006
-3.1871278e-008
6.4016394e-006
-3.8550666e-008
6.2790995e-006
-5.0700027e-008
6.1131508e-006
-6.8943435e-008
5.8846941e-006
-9.5334415e-008
5.5687116e-006
-1.3201597e-007
5.1329172e-006
-1.8194725e-007
4.5389756e-006
-2.4742408e-007
3.7568394e-006
-3.2373073e-007
2.7961132e-006
-3.9292803e-007
1.7402508e-006
-4.1605714e-007
7.8040367e-007
-3.514102e-007
1.6381555e-007
-1.5561106e-007
3.5893085e-008
7.7095278e-006
5.2046025e-006
3.9509464e-006
3.298201e-006
2.9373023e-006
2.7377021e-006
2.6249466e-006
2.5580641e-006
2.5140502e-006
2.4806879e-006
2.4506311e-006
2.4187598e-006
2.3802092e-006
2.3295092e-006
2.2605657e-006
2.1652313e-006
2.0332153e-006
1.8512681e-006
1.603844e-006
1.2801133e-006
8.8718526e-007
4.7112813e-007
1.1971795e-007
-3.5893086e-008
)
;

boundaryField
{
    inlet
    {
        type            calculated;
        value           nonuniform List<scalar> 
20
(
-5.0012803e-006
-5.0012803e-006
-5.0012803e-006
-5.0012803e-006
-5.0012803e-006
-5.0012803e-006
-5.0012803e-006
-5.0012803e-006
-5.0012803e-006
-5.0012803e-006
-1.5003841e-005
-1.5003841e-005
-1.5003841e-005
-1.5003841e-005
-1.5003841e-005
-1.5003841e-005
-1.5003841e-005
-1.5003841e-005
-1.5003841e-005
-1.5003841e-005
)
;
    }
    walls
    {
        type            calculated;
        value           uniform 0;
    }
    outlet
    {
        type            calculated;
        value           nonuniform List<scalar> 10(2.9597411e-005 2.9013762e-005 2.7852545e-005 2.6120518e-005 2.3818131e-005 2.0935367e-005 1.7453474e-005 1.3353253e-005 8.6267917e-006 3.2799642e-006);
    }
    centreline
    {
        type            symmetryPlane;
        value           uniform 0;
    }
    frontAndBack
    {
        type            empty;
        value           nonuniform 0();
    }
}


// ************************************************************************* //
