/*--------------------------------*- C++ -*----------------------------------*\
| =========                 |                                                 |
| \\      /  F ield         | OpenFOAM: The Open Source CFD Toolbox           |
|  \\    /   O peration     | Version:  5.x                                   |
|   \\  /    A nd           | Web:      www.OpenFOAM.org                      |
|    \\/     M anipulation  |                                                 |
\*---------------------------------------------------------------------------*/
/*   Windows 32 and 64 bit porting by blueCAPE: http://www.bluecape.com.pt   *\
|  Based on Windows porting (2.0.x v4) by Symscape: http://www.symscape.com   |
\*---------------------------------------------------------------------------*/
FoamFile
{
    version     2.0;
    format      ascii;
    class       volSymmTensorField;
    location    "0.19";
    object      sigma;
}
// * * * * * * * * * * * * * * * * * * * * * * * * * * * * * * * * * * * * * //

dimensions      [0 2 -2 0 0 0 0];

internalField   nonuniform List<symmTensor> 
750
(
(-0.00035646589 2.386628e-005 0 0.00034726785 0 0)
(-0.00046409104 2.7919718e-006 0 0.00046904954 0 0)
(-0.00048129135 -4.9851006e-006 0 0.00046876303 0 0)
(-0.00041111536 -8.2587557e-006 0 0.00040955155 0 0)
(-0.00034335542 -8.1848534e-006 0 0.00033926398 0 0)
(-0.00027784674 -7.4514165e-006 0 0.00027610562 0 0)
(-0.00021984951 -5.7810762e-006 0 0.00021846969 0 0)
(-0.00017950459 -4.0289566e-006 0 0.00017868931 0 0)
(-0.00015319161 -2.149857e-006 0 0.00015254307 0 0)
(-0.00014288203 -1.2596595e-007 0 0.00014238974 0 0)
(-0.00014730983 1.7704295e-006 0 0.00014665414 0 0)
(-0.00017084645 4.3375824e-006 0 0.00017003275 0 0)
(-0.00021749593 7.6956182e-006 0 0.00021633787 0 0)
(-0.00028845297 1.1934493e-005 0 0.00028601293 0 0)
(-0.00040535052 1.8278202e-005 0 0.00040077297 0 0)
(-0.00058270132 2.8010618e-005 0 0.00057378485 0 0)
(-0.0008455439 4.2678107e-005 0 0.00082570504 0 0)
(-0.0012675231 6.678263e-005 0 0.0012245689 0 0)
(-0.00194513 0.00010890991 0 0.00185064 0 0)
(-0.003040059 0.00017079125 0 0.0027964369 0 0)
(-0.004772084 0.00027476346 0 0.0042579027 0 0)
(-0.0073834405 0.00041396912 0 0.0060752263 0 0)
(-0.01082357 0.00056721852 0 0.0084552885 0 0)
(-0.014764629 0.00081528896 0 0.010287269 0 0)
(-0.018088724 0.00058157949 0 0.012005727 0 0)
(-0.00035835284 7.1993414e-005 0 0.00034670549 0 0)
(-0.00046483327 8.5479284e-006 0 0.0004739609 0 0)
(-0.00048259709 -1.5322579e-005 0 0.00046759068 0 0)
(-0.00041116062 -2.4534557e-005 0 0.00041060419 0 0)
(-0.00034361449 -2.464764e-005 0 0.0003389638 0 0)
(-0.00027671658 -2.2232307e-005 0 0.00027513728 0 0)
(-0.0002186947 -1.7135354e-005 0 0.00021727498 0 0)
(-0.00017909139 -1.1972916e-005 0 0.00017811967 0 0)
(-0.00015226314 -6.3057104e-006 0 0.00015153851 0 0)
(-0.00014187923 -2.3620922e-007 0 0.00014132211 0 0)
(-0.00014611021 5.4245953e-006 0 0.00014536456 0 0)
(-0.00016940189 1.3139233e-005 0 0.00016848784 0 0)
(-0.000215652 2.3138235e-005 0 0.00021437005 0 0)
(-0.00028560522 3.5738978e-005 0 0.00028293727 0 0)
(-0.00040140346 5.4721406e-005 0 0.00039651546 0 0)
(-0.00057683699 8.3564327e-005 0 0.00056748476 0 0)
(-0.00083578323 0.00012692672 0 0.00081506702 0 0)
(-0.0012519906 0.00019851969 0 0.0012077632 0 0)
(-0.0019199037 0.0003219569 0 0.0018237997 0 0)
(-0.0029906847 0.00049429995 0 0.0027425939 0 0)
(-0.0047031014 0.00082489323 0 0.0041897982 0 0)
(-0.0072325852 0.0011774683 0 0.0059122957 0 0)
(-0.010662393 0.00169544 0 0.0083356467 0 0)
(-0.014539168 0.0025041 0 0.0099620907 0 0)
(-0.017690703 0.0017882526 0 0.011877728 0 0)
(-0.00036112235 0.00012067224 0 0.0003481851 0 0)
(-0.00046730276 1.4058994e-005 0 0.00047792912 0 0)
(-0.00048492845 -2.6092443e-005 0 0.00046884874 0 0)
(-0.00041180071 -4.0783736e-005 0 0.00041151094 0 0)
(-0.00034304208 -4.1387426e-005 0 0.00033829371 0 0)
(-0.00027543228 -3.7216166e-005 0 0.00027388234 0 0)
(-0.00021705085 -2.8536744e-005 0 0.00021566368 0 0)
(-0.00017729821 -1.9928169e-005 0 0.00017639693 0 0)
(-0.00015035826 -1.0508785e-005 0 0.00014968856 0 0)
(-0.00013986982 -4.7349111e-007 0 0.00013938586 0 0)
(-0.00014379059 8.9671019e-006 0 0.00014311503 0 0)
(-0.00016655935 2.181186e-005 0 0.00016572714 0 0)
(-0.00021192945 3.8307767e-005 0 0.00021077129 0 0)
(-0.0002801187 5.9093605e-005 0 0.0002775864 0 0)
(-0.00039351276 9.0566774e-005 0 0.00038885092 0 0)
(-0.00056495985 0.00013799449 0 0.00055598226 0 0)
(-0.00081687143 0.00020924837 0 0.00079667496 0 0)
(-0.0012217292 0.00032689605 0 0.0011785276 0 0)
(-0.0018687393 0.00052699033 0 0.0017745117 0 0)
(-0.0028971635 0.00082434149 0 0.0026519324 0 0)
(-0.0045525447 0.0013405035 0 0.004050716 0 0)
(-0.0069728558 0.0019644751 0 0.0056684772 0 0)
(-0.010277785 0.0028037569 0 0.0080135004 0 0)
(-0.014292025 0.0041352541 0 0.0095119557 0 0)
(-0.016816599 0.0029408633 0 0.011485666 0 0)
(-0.00036514035 0.00016983202 0 0.00035173466 0 0)
(-0.00047135937 1.9312805e-005 0 0.00048192259 0 0)
(-0.0004884401 -3.7489533e-005 0 0.00047233377 0 0)
(-0.0004128675 -5.7812233e-005 0 0.00041237557 0 0)
(-0.00034201091 -5.8746566e-005 0 0.00033735719 0 0)
(-0.00027363471 -5.2681964e-005 0 0.00027199352 0 0)
(-0.00021473701 -4.0351628e-005 0 0.00021334131 0 0)
(-0.00017438666 -2.8112087e-005 0 0.00017353896 0 0)
(-0.00014751029 -1.496902e-005 0 0.00014684443 0 0)
(-0.00013686265 -1.1111459e-006 0 0.00013640291 0 0)
(-0.00014042001 1.2143506e-005 0 0.00013976357 0 0)
(-0.00016223098 2.9962532e-005 0 0.00016141908 0 0)
(-0.00020620945 5.2853482e-005 0 0.00020507804 0 0)
(-0.00027215826 8.1598799e-005 0 0.00026965675 0 0)
(-0.00038169687 0.00012513154 0 0.00037707626 0 0)
(-0.00054706498 0.00019070043 0 0.00053818583 0 0)
(-0.00078879393 0.00028922158 0 0.00076871219 0 0)
(-0.0011758073 0.00045224234 0 0.0011327891 0 0)
(-0.0017893237 0.00072858199 0 0.0016956906 0 0)
(-0.0027671773 0.0011292621 0 0.0025242779 0 0)
(-0.0043157895 0.001842926 0 0.003821927 0 0)
(-0.0066009378 0.0027086317 0 0.0053156318 0 0)
(-0.0096502131 0.0039122155 0 0.0074691778 0 0)
(-0.013879576 0.0055319208 0 0.0089662016 0 0)
(-0.015967539 0.0041023262 0 0.010990044 0 0)
(-0.00037065065 0.00021914596 0 0.00035659691 0 0)
(-0.00047683914 2.4071906e-005 0 0.00048723841 0 0)
(-0.00049314526 -4.959513e-005 0 0.00047705356 0 0)
(-0.00041428663 -7.5763201e-005 0 0.00041352192 0 0)
(-0.00034057195 -7.6808524e-005 0 0.00033599375 0 0)
(-0.00027117789 -6.8690533e-005 0 0.00026946058 0 0)
(-0.00021152826 -5.2634697e-005 0 0.00021015526 0 0)
(-0.00017060034 -3.6599947e-005 0 0.0001697814 0 0)
(-0.00014376106 -1.9733569e-005 0 0.00014310958 0 0)
(-0.0001328383 -2.1265886e-006 0 0.00013241266 0 0)
(-0.00013597156 1.489862e-005 0 0.00013534409 0 0)
(-0.00015648539 3.7433371e-005 0 0.00015570261 0 0)
(-0.00019878504 6.6619336e-005 0 0.00019771122 0 0)
(-0.00026163007 0.00010286957 0 0.00025918032 0 0)
(-0.00036618975 0.00015805837 0 0.0003616051 0 0)
(-0.00052366926 0.00024075598 0 0.00051489373 0 0)
(-0.00075238382 0.00036427064 0 0.00073248513 0 0)
(-0.001116913 0.00056799467 0 0.0010743229 0 0)
(-0.0016892906 0.00091138974 0 0.00159702 0 0)
(-0.0025941643 0.0014177591 0 0.0023538292 0 0)
(-0.0040062669 0.0023040969 0 0.0035231595 0 0)
(-0.0061291776 0.003379076 0 0.0048701949 0 0)
(-0.0088273801 0.0049302841 0 0.0067443628 0 0)
(-0.013059283 0.0072180951 0 0.0080653569 0 0)
(-0.01498284 0.0052470711 0 0.010439126 0 0)
(-0.00037790539 0.00026866534 0 0.00036295505 0 0)
(-0.00048386832 2.81578e-005 0 0.00049412787 0 0)
(-0.0004991219 -6.278217e-005 0 0.00048293891 0 0)
(-0.00041607923 -9.5179324e-005 0 0.00041501539 0 0)
(-0.00033867472 -9.5963083e-005 0 0.00033417355 0 0)
(-0.00026800128 -8.5542476e-005 0 0.00026619936 0 0)
(-0.00020738484 -6.565954e-005 0 0.00020605025 0 0)
(-0.00016592014 -4.5639045e-005 0 0.00016512309 0 0)
(-0.00013909269 -2.5038734e-005 0 0.0001384643 0 0)
(-0.0001278314 -3.8243767e-006 0 0.00012744596 0 0)
(-0.00013047969 1.6998234e-005 0 0.00012989296 0 0)
(-0.0001494883 4.3944913e-005 0 0.00014873581 0 0)
(-0.00018948139 7.9179587e-005 0 0.00018845988 0 0)
(-0.00024888008 0.00012267564 0 0.00024647185 0 0)
(-0.00034727475 0.00018851457 0 0.00034276191 0 0)
(-0.0004951824 0.00028711051 0 0.00048654383 0 0)
(-0.00070819334 0.00043409373 0 0.00068848864 0 0)
(-0.0010449249 0.00067565953 0 0.0010027535 0 0)
(-0.0015646124 0.0010835124 0 0.0014736054 0 0)
(-0.0023862271 0.0016753608 0 0.0021496385 0 0)
(-0.0036255686 0.0027191407 0 0.0031565227 0 0)
(-0.0055508103 0.0039918933 0 0.0043190663 0 0)
(-0.0077453161 0.0059266166 0 0.0057669744 0 0)
(-0.012253524 0.0084736782 0 0.0071509633 0 0)
(-0.012866248 0.0060485698 0 0.0092626918 0 0)
(-0.00038721785 0.00031821282 0 0.00037137602 0 0)
(-0.00049251497 3.1181729e-005 0 0.00050239195 0 0)
(-0.00050661309 -7.7709649e-005 0 0.00049040686 0 0)
(-0.00041828619 -0.00011653647 0 0.00041683513 0 0)
(-0.00033620252 -0.00011656286 0 0.00033175722 0 0)
(-0.00026405016 -0.00010355847 0 0.00026215146 0 0)
(-0.00020225609 -7.954529e-005 0 0.00020094236 0 0)
(-0.00016037959 -5.5425973e-005 0 0.00015959674 0 0)
(-0.0001335898 -3.1121808e-005 0 0.00013297605 0 0)
(-0.00012191069 -6.3908473e-006 0 0.00012156758 0 0)
(-0.00012389407 1.8121181e-005 0 0.00012334502 0 0)
(-0.00014120929 4.9216688e-005 0 0.00014048818 0 0)
(-0.00017864555 9.0303048e-005 0 0.00017765181 0 0)
(-0.00023397721 0.00014035975 0 0.00023161589 0 0)
(-0.0003252178 0.00021588135 0 0.00032075725 0 0)
(-0.00046174244 0.00032970905 0 0.00045321156 0 0)
(-0.00065693919 0.00049733188 0 0.00063748172 0 0)
(-0.00096223376 0.00077128045 0 0.0009205698 0 0)
(-0.0014261164 0.0012310563 0 0.0013367565 0 0)
(-0.0021438498 0.0018992635 0 0.0019137911 0 0)
(-0.0031780307 0.003081315 0 0.002726984 0 0)
(-0.0048906302 0.0044943169 0 0.0036911413 0 0)
(-0.006503486 0.0067726295 0 0.0046474286 0 0)
(-0.011268398 0.009497764 0 0.0061031321 0 0)
(-0.009548682 0.0074259146 0 0.0066141442 0 0)
(-0.00039922154 0.00036801075 0 0.00038250214 0 0)
(-0.00050264729 3.27215e-005 0 0.00051206 0 0)
(-0.00051555681 -9.4322158e-005 0 0.00049941235 0 0)
(-0.00042086757 -0.00014028427 0 0.00041893433 0 0)
(-0.00033304347 -0.00013888815 0 0.00032863351 0 0)
(-0.00025921533 -0.00012290468 0 0.00025714602 0 0)
(-0.00019610578 -9.4641674e-005 0 0.00019477964 0 0)
(-0.00015385347 -6.6189267e-005 0 0.00015307525 0 0)
(-0.00012715668 -3.8084333e-005 0 0.000126531 0 0)
(-0.0001151038 -1.0136975e-005 0 0.00011479302 0 0)
(-0.00011634526 1.8297417e-005 0 0.00011584539 0 0)
(-0.00013160994 5.2782595e-005 0 0.00013090591 0 0)
(-0.00016641049 9.9828403e-005 0 0.00016549645 0 0)
(-0.00021683981 0.00015569879 0 0.00021455346 0 0)
(-0.00029993968 0.00023985967 0 0.00029549094 0 0)
(-0.00042436136 0.00036743706 0 0.00041595549 0 0)
(-0.0005990038 0.00055351622 0 0.00057983665 0 0)
(-0.00086807958 0.00085587549 0 0.00082716655 0 0)
(-0.0012668636 0.0013614353 0 0.001178977 0 0)
(-0.0018742935 0.0020831976 0 0.0016501579 0 0)
(-0.0026591303 0.0033839584 0 0.0022298326 0 0)
(-0.0041256899 0.0048877874 0 0.0029583784 0 0)
(-0.0049774867 0.0075274142 0 0.0032410319 0 0)
(-0.0094772953 0.010647664 0 0.004426727 0 0)
(-0.0070411317 0.0082954972 0 0.0045074309 0 0)
(-0.00041483187 0.00041771281 0 0.00039541881 0 0)
(-0.00051447156 3.2690352e-005 0 0.00052570445 0 0)
(-0.00052643112 -0.00011332112 0 0.00050913855 0 0)
(-0.0004237678 -0.00016680139 0 0.00042134872 0 0)
(-0.00032886507 -0.0001632467 0 0.00032461722 0 0)
(-0.00025338489 -0.00014336719 0 0.00025102748 0 0)
(-0.00018897778 -0.00011100685 0 0.00018771969 0 0)
(-0.00014626036 -7.7889353e-005 0 0.00014555834 0 0)
(-0.00011974793 -4.5857411e-005 0 0.00011912875 0 0)
(-0.00010748568 -1.5286259e-005 0 0.0001072159 0 0)
(-0.00010777643 1.7388251e-005 0 0.00010736528 0 0)
(-0.00012117578 5.5186212e-005 0 0.00012058571 0 0)
(-0.00015235832 0.00010698848 0 0.0001515643 0 0)
(-0.00019783015 0.00016860444 0 0.0001956885 0 0)
(-0.00027184771 0.00026031708 0 0.00026762119 0 0)
(-0.00038217299 0.00040066519 0 0.00037422854 0 0)
(-0.0005360068 0.00060071576 0 0.00051723106 0 0)
(-0.00076676332 0.00092617924 0 0.00072718306 0 0)
(-0.0010967195 0.0014682136 0 0.0010122942 0 0)
(-0.00161153 0.0022023847 0 0.0013899939 0 0)
(-0.0021128175 0.0036117225 0 0.0017239672 0 0)
(-0.0032867643 0.0050842332 0 0.0021598806 0 0)
(-0.0031471598 0.0080196553 0 0.0016410904 0 0)
(-0.0072033445 0.01110858 0 0.0024050687 0 0)
(-0.00080654424 0.011192824 0 -0.0020531012 0 0)
(-0.00043478958 0.00046783331 0 0.00040645817 0 0)
(-0.00052833588 3.1157404e-005 0 0.00054858654 0 0)
(-0.00053902946 -0.00013493709 0 0.00051686252 0 0)
(-0.00042683218 -0.00019609103 0 0.00042400853 0 0)
(-0.00032342766 -0.00018938597 0 0.00031955385 0 0)
(-0.00024627042 -0.00016555414 0 0.00024409224 0 0)
(-0.0001806088 -0.00012816272 0 0.00017956117 0 0)
(-0.00013759349 -9.0063717e-005 0 0.00013723904 0 0)
(-0.00011138624 -5.4139639e-005 0 0.00011100245 0 0)
(-9.9077329e-005 -2.136988e-005 0 9.912108e-005 0 0)
(-9.8408823e-005 1.5897623e-005 0 9.8361102e-005 0 0)
(-0.00010931233 5.5446507e-005 0 0.00010895413 0 0)
(-0.00013760878 0.00011317985 0 0.00013706722 0 0)
(-0.00017716487 0.00017895472 0 0.00017539723 0 0)
(-0.0002415344 0.00027790406 0 0.0002380072 0 0)
(-0.00033782926 0.00042780114 0 0.00033087199 0 0)
(-0.00046730789 0.00063949646 0 0.0004488161 0 0)
(-0.00065678486 0.00098284697 0 0.0006181124 0 0)
(-0.00091387091 0.0015538668 0 0.00083402239 0 0)
(-0.001303365 0.0022833303 0 0.0010811736 0 0)
(-0.0015220736 0.0037300599 0 0.0011758043 0 0)
(-0.0022118233 0.0051388475 0 0.0011427371 0 0)
(-0.00098453399 0.0078042407 0 -0.0001486523 0 0)
(-0.0030335084 0.010092202 0 -0.0009667886 0 0)
(0.0031348656 0.011831899 0 -0.0076433071 0 0)
(-0.013995816 0.00052028278 0 0.0092685233 0 0)
(-0.0077978269 0.00092665295 0 0.0056889007 0 0)
(-0.0028298606 0.0013260273 0 0.0020384596 0 0)
(-0.00070438927 0.0015510742 0 0.00048977083 0 0)
(-0.0001664974 0.0016577938 0 3.0032599e-005 0 0)
(-7.2955626e-006 0.001681926 0 -8.5633715e-005 0 0)
(-4.0815961e-005 0.0016742077 0 -5.0663763e-005 0 0)
(-7.0614867e-005 0.0016675935 0 -1.7559199e-005 0 0)
(-8.9392656e-005 0.0016646859 0 1.2774514e-006 0 0)
(-9.1537e-005 0.0016643563 0 3.5884424e-006 0 0)
(-8.9067172e-005 0.001664723 0 1.1908974e-006 0 0)
(-8.7669072e-005 0.0016649209 0 -1.8876019e-007 0 0)
(-8.7569264e-005 0.0016649217 0 -2.9673051e-007 0 0)
(-8.7730324e-005 0.0016648897 0 -1.3367879e-007 0 0)
(-8.786802e-005 0.0016648665 0 3.5620935e-009 0 0)
(-8.7882934e-005 0.0016648631 0 1.8792164e-008 0 0)
(-8.7872054e-005 0.0016648642 0 7.7344068e-009 0 0)
(-8.7863396e-005 0.0016648652 0 -1.0020553e-009 0 0)
(-8.7862799e-005 0.0016648653 0 -1.615018e-009 0 0)
(-8.7863781e-005 0.001664865 0 -6.5333296e-010 0 0)
(-8.7864366e-005 0.0016648648 0 -1.231421e-010 0 0)
(-8.7865381e-005 0.0016648651 0 7.4094288e-010 0 0)
(-8.7865891e-005 0.0016648652 0 2.049892e-009 0 0)
(-8.7870537e-005 0.001664865 0 5.5110432e-009 0 0)
(-8.7872079e-005 0.0016648647 0 6.2863477e-009 0 0)
(-0.013522718 0.0016461789 0 0.0089162901 0 0)
(-0.0075426883 0.0028320219 0 0.0054045319 0 0)
(-0.0030732367 0.0039567354 0 0.0019330095 0 0)
(-0.0011926598 0.0047504361 0 0.00043326426 0 0)
(-0.0008238328 0.0050053564 0 2.7401025e-005 0 0)
(-0.00073349382 0.0050461737 0 -5.6191327e-005 0 0)
(-0.00075068443 0.0050346495 0 -4.2887804e-005 0 0)
(-0.00078308483 0.0050155682 0 -9.7471829e-006 0 0)
(-0.0007944773 0.0050104844 0 1.3851726e-006 0 0)
(-0.00079574411 0.0050101824 0 2.677026e-006 0 0)
(-0.00079410963 0.0050109761 0 9.7119166e-007 0 0)
(-0.00079296941 0.0050114562 0 -9.6314987e-008 0 0)
(-0.00079274057 0.0050115204 0 -2.5672165e-007 0 0)
(-0.00079288899 0.0050114339 0 -7.97767e-008 0 0)
(-0.00079297578 0.005011394 0 1.3428398e-008 0 0)
(-0.00079297919 0.0050113908 0 1.7787287e-008 0 0)
(-0.00079296876 0.0050113946 0 6.4829761e-009 0 0)
(-0.00079296159 0.0050113976 0 -9.4848492e-010 0 0)
(-0.00079296118 0.0050113972 0 -1.2464172e-009 0 0)
(-0.0007929621 0.005011397 0 -5.2444266e-010 0 0)
(-0.00079296256 0.0050113972 0 -1.0035434e-010 0 0)
(-0.00079296317 0.0050113969 0 4.7520737e-010 0 0)
(-0.00079296394 0.005011398 0 1.6340568e-009 0 0)
(-0.00079296943 0.0050113975 0 5.71601e-009 0 0)
(-0.00079297102 0.0050113995 0 6.2994798e-009 0 0)
(-0.012695169 0.0028760436 0 0.0083904309 0 0)
(-0.0069393038 0.0048320325 0 0.0048449789 0 0)
(-0.0035292687 0.0069572479 0 0.0015884661 0 0)
(-0.0024409537 0.0079750134 0 0.00045425744 0 0)
(-0.0022314432 0.0083249127 0 0.00010095501 0 0)
(-0.0021725207 0.0084473043 0 -2.5583126e-005 0 0)
(-0.0022007331 0.0084322856 0 -2.0493461e-005 0 0)
(-0.0022136635 0.0084128851 0 -4.2128239e-006 0 0)
(-0.0022194738 0.0084061941 0 2.1939005e-006 0 0)
(-0.0022190274 0.008406566 0 1.9037578e-006 0 0)
(-0.0022176061 0.0084077739 0 4.6890229e-007 0 0)
(-0.0022167821 0.0084083097 0 -1.8895234e-007 0 0)
(-0.0022166579 0.0084083117 0 -1.9214536e-007 0 0)
(-0.0022167532 0.0084081936 0 -4.4697717e-008 0 0)
(-0.0022167999 0.0084081455 0 1.4733353e-008 0 0)
(-0.0022168004 0.0084081429 0 1.5058713e-008 0 0)
(-0.0022167917 0.0084081509 0 3.7805638e-009 0 0)
(-0.0022167877 0.008408154 0 -8.1724044e-010 0 0)
(-0.0022167883 0.0084081542 0 -9.4588876e-010 0 0)
(-0.0022167887 0.0084081536 0 -2.919476e-010 0 0)
(-0.002216789 0.0084081537 0 -3.1262479e-011 0 0)
(-0.0022167895 0.0084081539 0 2.5610544e-010 0 0)
(-0.0022167904 0.0084081547 0 1.3509311e-009 0 0)
(-0.0022167949 0.0084081541 0 4.9553141e-009 0 0)
(-0.0022167976 0.0084081595 0 5.3381093e-009 0 0)
(-0.011484298 0.0041673046 0 0.007484001 0 0)
(-0.0060473943 0.0077641124 0 0.0035142519 0 0)
(-0.0047642032 0.0098503401 0 0.0015177687 0 0)
(-0.0041545659 0.011413488 0 0.00034907842 0 0)
(-0.0042982694 0.011867491 0 4.2020699e-005 0 0)
(-0.0043699263 0.011934634 0 -1.4775753e-006 0 0)
(-0.0043943436 0.011910988 0 -3.3481521e-006 0 0)
(-0.0043945218 0.011892244 0 1.0065315e-006 0 0)
(-0.0043945421 0.01188694 0 1.7029074e-006 0 0)
(-0.0043934388 0.011887751 0 7.123468e-007 0 0)
(-0.0043925717 0.011888959 0 -3.2948468e-008 0 0)
(-0.0043921207 0.011889401 0 -1.9791764e-007 0 0)
(-0.0043920809 0.011889331 0 -9.2931179e-008 0 0)
(-0.0043921094 0.011889218 0 -6.1508302e-009 0 0)
(-0.0043921186 0.011889179 0 1.3765848e-008 0 0)
(-0.0043921162 0.011889181 0 8.3072111e-009 0 0)
(-0.0043921134 0.01188919 0 1.0499454e-009 0 0)
(-0.0043921137 0.011889193 0 -5.3410039e-010 0 0)
(-0.0043921137 0.011889193 0 -3.7734831e-010 0 0)
(-0.0043921135 0.011889192 0 -9.07922e-011 0 0)
(-0.0043921133 0.011889192 0 6.2842554e-011 0 0)
(-0.0043921132 0.011889192 0 -5.5511155e-011 0 0)
(-0.0043921146 0.011889194 0 2.1213472e-010 0 0)
(-0.0043921196 0.011889195 0 3.8790079e-009 0 0)
(-0.0043921236 0.011889203 0 3.7923621e-009 0 0)
(-0.0095481863 0.0056712457 0 0.0060045328 0 0)
(-0.0062785534 0.010733584 0 0.0024748101 0 0)
(-0.0063335522 0.013273099 0 0.0010268671 0 0)
(-0.0068126327 0.01499519 0 0.00026792077 0 0)
(-0.0072821503 0.015448753 0 7.2246333e-005 0 0)
(-0.0073809945 0.015514288 0 3.1388709e-005 0 0)
(-0.0073886485 0.015497869 0 1.1486065e-005 0 0)
(-0.0073765743 0.015485624 0 4.0269519e-006 0 0)
(-0.0073719744 0.015483035 0 2.8013761e-007 0 0)
(-0.0073706068 0.015483975 0 -5.9200519e-007 0 0)
(-0.0073703853 0.01548477 0 -3.9826317e-007 0 0)
(-0.0073703991 0.015484941 0 -1.0532598e-007 0 0)
(-0.0073703903 0.015484843 0 1.1276446e-008 0 0)
(-0.0073703494 0.015484766 0 1.9647391e-008 0 0)
(-0.0073703298 0.015484746 0 6.0175142e-009 0 0)
(-0.0073703286 0.01548475 0 -1.527495e-010 0 0)
(-0.0073703332 0.015484757 0 -8.3657872e-010 0 0)
(-0.007370335 0.015484759 0 3.9751045e-011 0 0)
(-0.0073703351 0.015484759 0 1.800041e-010 0 0)
(-0.0073703354 0.015484759 0 3.7907302e-011 0 0)
(-0.0073703352 0.015484759 0 -1.3292841e-011 0 0)
(-0.0073703348 0.015484759 0 -3.2770772e-010 0 0)
(-0.0073703361 0.015484761 0 -3.3649912e-010 0 0)
(-0.0073703385 0.015484762 0 1.180452e-009 0 0)
(-0.0073703444 0.015484772 0 1.219104e-009 0 0)
(-0.0074976118 0.0087347049 0 0.0036409545 0 0)
(-0.0068752293 0.014049694 0 0.0012705384 0 0)
(-0.0090519858 0.017288046 0 0.0004223388 0 0)
(-0.010589143 0.018835874 0 0.00018434076 0 0)
(-0.011186729 0.019173595 0 9.2516914e-005 0 0)
(-0.011254195 0.019222692 0 5.14667e-005 0 0)
(-0.011236703 0.019213588 0 1.932433e-005 0 0)
(-0.011215777 0.019209394 0 4.5020042e-006 0 0)
(-0.011207408 0.01920878 0 -1.6328019e-006 0 0)
(-0.011206109 0.019209138 0 -1.4975546e-006 0 0)
(-0.011206875 0.019209298 0 -4.4781678e-007 0 0)
(-0.011207234 0.019209304 0 5.4547261e-008 0 0)
(-0.011207225 0.019209258 0 9.996601e-008 0 0)
(-0.011207127 0.019209239 0 2.8231376e-008 0 0)
(-0.01120709 0.019209235 0 -5.8933491e-009 0 0)
(-0.011207093 0.019209237 0 -7.2544585e-009 0 0)
(-0.011207102 0.019209239 0 -1.5909721e-009 0 0)
(-0.011207106 0.01920924 0 7.2845405e-010 0 0)
(-0.011207106 0.01920924 0 5.9878527e-010 0 0)
(-0.011207105 0.01920924 0 1.4287579e-010 0 0)
(-0.011207105 0.01920924 0 -1.2433249e-010 0 0)
(-0.011207105 0.01920924 0 -4.7517838e-010 0 0)
(-0.011207106 0.019209242 0 -9.6224441e-010 0 0)
(-0.011207105 0.019209244 0 -2.3363585e-009 0 0)
(-0.011207112 0.019209255 0 -1.9844806e-009 0 0)
(-0.0065191584 0.011377036 0 0.00148814 0 0)
(-0.008931009 0.018706394 0 -0.0002580535 0 0)
(-0.013643405 0.021632832 0 1.5606508e-005 0 0)
(-0.015470399 0.022786092 0 0.00014497406 0 0)
(-0.015991297 0.02299191 0 0.00011604201 0 0)
(-0.016002824 0.023038644 0 6.3946715e-005 0 0)
(-0.015969334 0.023045227 0 2.1487694e-005 0 0)
(-0.015946554 0.02304893 0 3.2853852e-006 0 0)
(-0.015936871 0.02304923 0 -3.1557235e-006 0 0)
(-0.015936512 0.023048614 0 -1.9057943e-006 0 0)
(-0.01593802 0.023048221 0 -3.2401888e-007 0 0)
(-0.015938564 0.023048187 0 1.8359343e-007 0 0)
(-0.015938567 0.023048239 0 1.4650875e-007 0 0)
(-0.015938444 0.023048274 0 2.7525205e-008 0 0)
(-0.015938392 0.023048276 0 -1.5958872e-008 0 0)
(-0.015938396 0.02304827 0 -1.0749507e-008 0 0)
(-0.015938406 0.023048268 0 -1.7624957e-009 0 0)
(-0.015938411 0.023048268 0 1.2093512e-009 0 0)
(-0.015938411 0.023048269 0 8.059878e-010 0 0)
(-0.01593841 0.023048269 0 2.6892938e-010 0 0)
(-0.015938409 0.023048269 0 -1.2437774e-010 0 0)
(-0.015938409 0.023048269 0 -6.0778687e-010 0 0)
(-0.015938409 0.023048271 0 -1.8941941e-009 0 0)
(-0.015938405 0.023048273 0 -5.5953172e-009 0 0)
(-0.015938412 0.023048281 0 -4.9900069e-009 0 0)
(-0.0065011248 0.016065831 0 -0.0017046066 0 0)
(-0.01352904 0.024082308 0 -0.0016181135 0 0)
(-0.019903852 0.026092893 0 -0.00018143097 0 0)
(-0.021226181 0.026742064 0 0.00011409939 0 0)
(-0.021637185 0.026861244 0 0.00012150317 0 0)
(-0.021614108 0.026924434 0 6.2427796e-005 0 0)
(-0.021592683 0.026951356 0 1.8299739e-005 0 0)
(-0.021571481 0.026960241 0 3.3887685e-008 0 0)
(-0.021565043 0.026959375 0 -3.8286771e-006 0 0)
(-0.0215657 0.0269576 0 -1.7447956e-006 0 0)
(-0.021567426 0.026956894 0 -1.5911465e-007 0 0)
(-0.021568171 0.026956978 0 2.6980499e-007 0 0)
(-0.021568178 0.026957154 0 1.3837052e-007 0 0)
(-0.021568047 0.026957213 0 1.135557e-008 0 0)
(-0.021567992 0.026957205 0 -2.0348615e-008 0 0)
(-0.021567994 0.026957192 0 -9.5203817e-009 0 0)
(-0.021568003 0.026957188 0 -6.2512522e-010 0 0)
(-0.021568006 0.026957188 0 1.3849549e-009 0 0)
(-0.021568006 0.026957189 0 7.6916827e-010 0 0)
(-0.021568006 0.026957189 0 2.2283034e-010 0 0)
(-0.021568006 0.026957189 0 -4.6204524e-011 0 0)
(-0.021568005 0.026957189 0 -5.6576822e-010 0 0)
(-0.021568004 0.026957191 0 -2.6184246e-009 0 0)
(-0.021567996 0.026957192 0 -7.6321933e-009 0 0)
(-0.021567999 0.026957194 0 -6.7693103e-009 0 0)
(-0.011680423 0.024964088 0 -0.0052365082 0 0)
(-0.021763441 0.030212305 0 -0.002656776 0 0)
(-0.027341515 0.03049795 0 -0.00020186017 0 0)
(-0.02773576 0.030650686 0 7.0970727e-005 0 0)
(-0.028059887 0.030740692 0 0.00011589248 0 0)
(-0.028076831 0.03084477 0 4.5358087e-005 0 0)
(-0.02809504 0.030885237 0 1.2495735e-005 0 0)
(-0.028081266 0.030894497 0 -2.2382409e-006 0 0)
(-0.028077983 0.030891472 0 -3.1934233e-006 0 0)
(-0.028077795 0.030888601 0 -1.2838842e-006 0 0)
(-0.02807936 0.030887837 0 1.083606e-008 0 0)
(-0.028080075 0.030888095 0 2.2913386e-007 0 0)
(-0.028080133 0.030888335 0 9.4317215e-008 0 0)
(-0.028080014 0.030888388 0 -1.4904215e-009 0 0)
(-0.028079954 0.030888365 0 -1.7216202e-008 0 0)
(-0.028079949 0.030888346 0 -6.3607917e-009 0 0)
(-0.028079956 0.030888343 0 3.0403651e-010 0 0)
(-0.028079959 0.030888344 0 1.1725464e-009 0 0)
(-0.028079959 0.030888345 0 5.1566167e-010 0 0)
(-0.028079959 0.030888345 0 1.3136929e-010 0 0)
(-0.028079959 0.030888345 0 5.7714014e-011 0 0)
(-0.028079958 0.030888345 0 -3.8148753e-010 0 0)
(-0.028079956 0.030888346 0 -2.3324348e-009 0 0)
(-0.028079946 0.030888346 0 -7.0926287e-009 0 0)
(-0.028079939 0.030888337 0 -6.1379801e-009 0 0)
(-0.034735594 0.042214033 0 -0.0097998134 0 0)
(-0.033123081 0.035640343 0 -0.0017808383 0 0)
(-0.03952445 0.036726604 0 -0.0001358896 0 0)
(-0.03820026 0.036095492 0 3.8066777e-005 0 0)
(-0.039153726 0.03649696 0 5.3935799e-005 0 0)
(-0.039131359 0.0365503 0 1.5610352e-005 0 0)
(-0.039235373 0.03660994 0 3.1947689e-006 0 0)
(-0.039211725 0.036604318 0 -1.9420935e-006 0 0)
(-0.039211264 0.036600602 0 -1.4368046e-006 0 0)
(-0.039206687 0.036596386 0 -5.0087822e-007 0 0)
(-0.039208077 0.036596148 0 6.0007725e-008 0 0)
(-0.039208631 0.03659652 0 1.0257074e-007 0 0)
(-0.03920888 0.036596807 0 3.4917508e-008 0 0)
(-0.039208788 0.03659683 0 -3.4077059e-009 0 0)
(-0.039208731 0.036596798 0 -7.02496e-009 0 0)
(-0.039208715 0.03659678 0 -2.0947056e-009 0 0)
(-0.039208719 0.036596778 0 4.0558135e-010 0 0)
(-0.039208722 0.036596781 0 5.0459195e-010 0 0)
(-0.039208723 0.036596782 0 1.8851672e-010 0 0)
(-0.039208724 0.036596782 0 4.1732314e-011 0 0)
(-0.039208724 0.036596782 0 4.226466e-011 0 0)
(-0.039208724 0.036596783 0 -1.9405666e-010 0 0)
(-0.039208722 0.036596782 0 -1.3325784e-009 0 0)
(-0.039208714 0.036596778 0 -3.7176272e-009 0 0)
(-0.039208691 0.03659676 0 -3.1405567e-009 0 0)
(-0.00048413601 0.00057496833 0 0.0004406329 0 0)
(-0.00056038779 2.3776815e-005 0 0.00060528151 0 0)
(-0.00056733447 -0.00018830363 0 0.00053735308 0 0)
(-0.00043211709 -0.0002571353 0 0.0004263053 0 0)
(-0.00031533723 -0.00024475163 0 0.000310542 0 0)
(-0.00022463659 -0.0002061266 0 0.00022102635 0 0)
(-0.00016277536 -0.00016084744 0 0.00016030677 0 0)
(-0.0001190117 -0.00011347816 0 0.00011789955 0 0)
(-9.3276996e-005 -6.9805031e-005 0 9.2049098e-005 0 0)
(-8.0652989e-005 -3.1263052e-005 0 8.0081494e-005 0 0)
(-7.8085936e-005 1.2496379e-005 0 7.7371746e-005 0 0)
(-8.6167618e-005 5.9907297e-005 0 8.4853201e-005 0 0)
(-0.00010447159 0.00012055028 0 0.00010366729 0 0)
(-0.00013320997 0.00019436993 0 0.00013048225 0 0)
(-0.00017840533 0.0003018496 0 0.00017326552 0 0)
(-0.0002451654 0.00047323003 0 0.00023759075 0 0)
(-0.00032659242 0.00069560638 0 0.00030624741 0 0)
(-0.00044323527 0.0010495923 0 0.00040272278 0 0)
(-0.00055616994 0.0016485717 0 0.0004858592 0 0)
(-0.00071033082 0.0023547596 0 0.00051255195 0 0)
(-0.00065112199 0.0036922801 0 0.00036425563 0 0)
(-0.00056776158 0.0048957193 0 -0.00030767964 0 0)
(0.0012708549 0.0069382703 0 -0.0019230449 0 0)
(0.0018756299 0.0075596466 0 -0.0042914922 0 0)
(0.0097869186 0.007091379 0 -0.012785342 0 0)
(-0.0006001209 0.00076100019 0 0.00053334656 0 0)
(-0.00064263635 -1.3947965e-006 0 0.00070226242 0 0)
(-0.00061831212 -0.00028736381 0 0.00057833124 0 0)
(-0.00043286465 -0.00035260993 0 0.00042279473 0 0)
(-0.00028513856 -0.0003217926 0 0.00028070077 0 0)
(-0.00018463479 -0.00025897891 0 0.00018121848 0 0)
(-0.00012363677 -0.00019684718 0 0.00012189875 0 0)
(-8.0971763e-005 -0.00013274148 0 8.0828923e-005 0 0)
(-5.8716417e-005 -7.9681875e-005 0 5.8058604e-005 0 0)
(-4.6557581e-005 -3.291423e-005 0 4.6358083e-005 0 0)
(-4.1118203e-005 1.8484231e-005 0 4.1371892e-005 0 0)
(-4.2286744e-005 6.9277868e-005 0 4.1925618e-005 0 0)
(-4.8557129e-005 0.00013810842 0 4.8745331e-005 0 0)
(-5.9047183e-005 0.00022229807 0 5.8243242e-005 0 0)
(-7.4052095e-005 0.000331801 0 6.8675503e-005 0 0)
(-9.2887178e-005 0.00051256059 0 8.771211e-005 0 0)
(-0.00010510872 0.00074195441 0 9.178222e-005 0 0)
(-0.00011495109 0.0010747817 0 7.7431015e-005 0 0)
(-5.4309463e-005 0.001642601 0 -5.7558421e-006 0 0)
(5.6300731e-005 0.0022633655 0 -0.00022291961 0 0)
(0.00053113542 0.0031911938 0 -0.00079144696 0 0)
(0.0011429282 0.0037878637 0 -0.0018432203 0 0)
(0.003132998 0.0042368089 0 -0.0038525936 0 0)
(0.0051896344 0.0018886138 0 -0.0073604949 0 0)
(0.006331534 -0.0013740154 0 -0.0092850079 0 0)
(-0.00077973679 0.00098187655 0 0.00069217272 0 0)
(-0.00074737551 -4.1497769e-005 0 0.00081505074 0 0)
(-0.00066102191 -0.00038508229 0 0.00061266448 0 0)
(-0.00040955077 -0.00042274853 0 0.00039640264 0 0)
(-0.00023206608 -0.00035347935 0 0.00022799359 0 0)
(-0.00012668686 -0.00025626273 0 0.00012305075 0 0)
(-7.0464495e-005 -0.00017394585 0 6.8895686e-005 0 0)
(-3.4623341e-005 -9.4462187e-005 0 3.4442437e-005 0 0)
(-1.7092376e-005 -3.1046413e-005 0 1.6981099e-005 0 0)
(-7.4193365e-006 2.1711547e-005 0 7.2664014e-006 0 0)
(-6.1719338e-007 7.4590133e-005 0 9.9694242e-007 0 0)
(3.9601009e-006 0.00012747923 0 -4.3852011e-006 0 0)
(9.0036661e-006 0.00019940038 0 -1.1039826e-005 0 0)
(1.9050227e-005 0.00028369028 0 -1.9036065e-005 0 0)
(2.9976614e-005 0.00038951009 0 -3.4891153e-005 0 0)
(5.3596616e-005 0.00055026504 0 -6.2312001e-005 0 0)
(0.00010579655 0.00078926468 0 -0.00011845857 0 0)
(0.00017435093 0.001074105 0 -0.00021162574 0 0)
(0.00036122687 0.0015559101 0 -0.00042147392 0 0)
(0.00064248691 0.0020552463 0 -0.00078001002 0 0)
(0.0012304663 0.0026885149 0 -0.0014448705 0 0)
(0.0020618709 0.0029458481 0 -0.00249418 0 0)
(0.0034809254 0.0027529947 0 -0.0038583273 0 0)
(0.0046725501 0.0006155847 0 -0.0054230741 0 0)
(0.0036056397 -0.0029401171 0 -0.0038238831 0 0)
(-0.0010239092 0.0012704702 0 0.0009030052 0 0)
(-0.00082833847 -7.7959753e-005 0 0.00090419417 0 0)
(-0.00064750501 -0.00042970378 0 0.00058963918 0 0)