/*--------------------------------*- C++ -*----------------------------------*\
| =========                 |                                                 |
| \\      /  F ield         | OpenFOAM: The Open Source CFD Toolbox           |
|  \\    /   O peration     | Version:  5.x                                   |
|   \\  /    A nd           | Web:      www.OpenFOAM.org                      |
|    \\/     M anipulation  |                                                 |
\*---------------------------------------------------------------------------*/
/*   Windows 32 and 64 bit porting by blueCAPE: http://www.bluecape.com.pt   *\
|  Based on Windows porting (2.0.x v4) by Symscape: http://www.symscape.com   |
\*---------------------------------------------------------------------------*/
FoamFile
{
    version     2.0;
    format      ascii;
    class       volSymmTensorField;
    location    "0.19";
    object      sigma_0;
}
// * * * * * * * * * * * * * * * * * * * * * * * * * * * * * * * * * * * * * //

dimensions      [0 2 -2 0 0 0 0];

internalField   nonuniform List<symmTensor> 
750
(
(-0.0003561736 2.3846848e-005 0 0.00034699023 0 0)
(-0.00046369666 2.7876935e-006 0 0.0004686516 0 0)
(-0.00048083575 -4.9822028e-006 0 0.00046832847 0 0)
(-0.0004106938 -8.2511568e-006 0 0.00040913525 0 0)
(-0.00034298696 -8.1754496e-006 0 0.00033890494 0 0)
(-0.00027755335 -7.441859e-006 0 0.00027581596 0 0)
(-0.00021964469 -5.7732956e-006 0 0.00021826835 0 0)
(-0.00017935491 -4.0225651e-006 0 0.00017854073 0 0)
(-0.0001530977 -2.1459739e-006 0 0.00015244982 0 0)
(-0.00014282088 -1.2355746e-007 0 0.00014232937 0 0)
(-0.00014726929 1.7721138e-006 0 0.000146614 0 0)
(-0.00017081137 4.3375183e-006 0 0.00016999776 0 0)
(-0.00021747633 7.6950326e-006 0 0.00021631873 0 0)
(-0.00028842998 1.1932791e-005 0 0.00028599072 0 0)
(-0.00040530173 1.8274111e-005 0 0.00040072482 0 0)
(-0.00058263307 2.8004331e-005 0 0.00057371971 0 0)
(-0.00084539774 4.266576e-005 0 0.0008255656 0 0)
(-0.0012672276 6.676125e-005 0 0.0012242944 0 0)
(-0.0019446004 0.00010887862 0 0.0018501656 0 0)
(-0.0030393123 0.00017075409 0 0.0027958166 0 0)
(-0.0047714702 0.00027474153 0 0.004257485 0 0)
(-0.0073835433 0.00041398312 0 0.0060754257 0 0)
(-0.010824991 0.00056724526 0 0.0084563158 0 0)
(-0.014767166 0.00081537621 0 0.010288718 0 0)
(-0.018091621 0.00058159729 0 0.01200685 0 0)
(-0.00035805884 7.1934646e-005 0 0.00034642883 0 0)
(-0.00046443782 8.5354636e-006 0 0.0004735577 0 0)
(-0.00048213959 -1.5312697e-005 0 0.00046715678 0 0)
(-0.00041073895 -2.4511104e-005 0 0.00041018623 0 0)
(-0.00034324553 -2.4618411e-005 0 0.00033860534 0 0)
(-0.00027642484 -2.2202788e-005 0 0.00027484867 0 0)
(-0.00021849245 -1.7111644e-005 0 0.00021707578 0 0)
(-0.00017894068 -1.1953123e-005 0 0.00017797094 0 0)
(-0.00015216939 -6.2927415e-006 0 0.00015144542 0 0)
(-0.00014181908 -2.2865833e-007 0 0.00014126281 0 0)
(-0.00014607015 5.4303341e-006 0 0.00014532491 0 0)
(-0.00016936717 1.3139804e-005 0 0.00016845315 0 0)
(-0.0002156336 2.313738e-005 0 0.00021435217 0 0)
(-0.00028558291 3.5734537e-005 0 0.00028291578 0 0)
(-0.00040135532 5.4709978e-005 0 0.00039646799 0 0)
(-0.0005767703 8.3546384e-005 0 0.00056742134 0 0)
(-0.00083563995 0.00012689089 0 0.00081493074 0 0)
(-0.0012517015 0.00019845757 0 0.0012074957 0 0)
(-0.0019193874 0.00032186454 0 0.00182334 0 0)
(-0.0029899582 0.00049419192 0 0.0027419928 0 0)
(-0.0047025034 0.00082483984 0 0.0041893894 0 0)
(-0.0072326724 0.0011775123 0 0.0059124802 0 0)
(-0.010663709 0.0016955556 0 0.0083366196 0 0)
(-0.014541528 0.0025041964 0 0.0099634921 0 0)
(-0.01769349 0.0017882323 0 0.011878814 0 0)
(-0.00036082542 0.00012057391 0 0.00034790726 0 0)
(-0.00046690415 1.4039861e-005 0 0.00047752103 0 0)
(-0.0004844669 -2.6072749e-005 0 0.00046841219 0 0)
(-0.00041137755 -4.0742712e-005 0 0.00041109116 0 0)
(-0.00034267365 -4.1336167e-005 0 0.00033793603 0 0)
(-0.00027514244 -3.7164234e-005 0 0.00027359556 0 0)
(-0.00021685128 -2.849578e-005 0 0.00021546722 0 0)
(-0.00017714884 -1.989329e-005 0 0.00017624936 0 0)
(-0.00015026615 -1.0484761e-005 0 0.00014959704 0 0)
(-0.0001398108 -4.5878337e-007 0 0.0001393277 0 0)
(-0.00014375145 8.9785078e-006 0 0.0001430762 0 0)
(-0.00016652637 2.1815201e-005 0 0.00016569419 0 0)
(-0.00021191167 3.8308313e-005 0 0.00021075394 0 0)
(-0.00028009856 5.9088391e-005 0 0.00027756707 0 0)
(-0.0003934656 9.0549568e-005 0 0.00038880438 0 0)
(-0.00056489666 0.00013796691 0 0.00055592211 0 0)
(-0.00081673419 0.0002091914 0 0.00079654446 0 0)
(-0.0012214529 0.00032679671 0 0.0011782726 0 0)
(-0.0018682476 0.00052684471 0 0.0017740736 0 0)
(-0.0028964674 0.00082419338 0 0.0026513562 0 0)
(-0.0045519765 0.0013404084 0 0.0040503287 0 0)
(-0.0069729429 0.0019644935 0 0.0056686536 0 0)
(-0.010279009 0.0028038404 0 0.0080144263 0 0)
(-0.014294034 0.0041358429 0 0.0095130864 0 0)
(-0.016818745 0.0029410093 0 0.01148662 0 0)
(-0.00036483841 0.00016969416 0 0.00035145299 0 0)
(-0.00047095497 1.9289055e-005 0 0.00048150854 0 0)
(-0.00048797278 -3.7458287e-005 0 0.00047189193 0 0)
(-0.00041244193 -5.7749784e-005 0 0.00041195365 0 0)
(-0.00034164349 -5.8669733e-005 0 0.00033700044 0 0)
(-0.00027334751 -5.260441e-005 0 0.00027170959 0 0)
(-0.00021454044 -4.029058e-005 0 0.00021314808 0 0)
(-0.00017424068 -2.8059636e-005 0 0.0001733944 0 0)
(-0.00014742082 -1.4931782e-005 0 0.00014675557 0 0)
(-0.00013680516 -1.0859892e-006 0 0.00013634626 0 0)
(-0.00014038247 1.2163298e-005 0 0.00013972632 0 0)
(-0.00016219946 2.997103e-005 0 0.00016138754 0 0)
(-0.00020619394 5.2858592e-005 0 0.00020506291 0 0)
(-0.0002721402 8.159495e-005 0 0.00026963961 0 0)
(-0.00038165272 0.00012511191 0 0.0003770326 0 0)
(-0.00054700587 0.00019066714 0 0.00053812984 0 0)
(-0.00078866536 0.00028914702 0 0.00076859029 0 0)
(-0.0011755491 0.00045211037 0 0.0011325514 0 0)
(-0.0017888664 0.00072839021 0 0.0016952857 0 0)
(-0.0027665481 0.0011290359 0 0.0025237634 0 0)
(-0.0043152652 0.0018428099 0 0.003821575 0 0)
(-0.0066010104 0.002708705 0 0.0053157809 0 0)
(-0.009651289 0.0039123843 0 0.0074699852 0 0)
(-0.013881775 0.0055319329 0 0.0089674469 0 0)
(-0.015969127 0.004102204 0 0.010990963 0 0)
(-0.0003703406 0.00021896925 0 0.00035630857 0 0)
(-0.00047642592 2.4046559e-005 0 0.00048681558 0 0)
(-0.000492669 -4.9545867e-005 0 0.00047660322 0 0)
(-0.00041385787 -7.5675012e-005 0 0.00041309721 0 0)
(-0.00034020595 -7.6701827e-005 0 0.0003356384 0 0)
(-0.00027089418 -6.8583328e-005 0 0.00026918035 0 0)
(-0.00021133518 -5.2549113e-005 0 0.00020996557 0 0)
(-0.00017045975 -3.652676e-005 0 0.00016964208 0 0)
(-0.00014367481 -1.9680225e-005 0 0.00014302401 0 0)
(-0.00013278311 -2.0873136e-006 0 0.00013235818 0 0)
(-0.00013593627 1.4930166e-005 0 0.00013530909 0 0)
(-0.00015645633 3.745048e-005 0 0.00015567346 0 0)
(-0.00019877171 6.6631805e-005 0 0.00019769837 0 0)
(-0.0002616143 0.00010287143 0 0.0002591652 0 0)
(-0.00036615035 0.00015804081 0 0.00036156591 0 0)
(-0.00052361594 0.00024071951 0 0.00051484379 0 0)
(-0.00075226585 0.00036418352 0 0.00073237401 0 0)
(-0.001116677 0.00056783465 0 0.0010741075 0 0)
(-0.0016888781 0.00091115759 0 0.0015966595 0 0)
(-0.0025935909 0.0014175184 0 0.0023533621 0 0)
(-0.0040058082 0.0023039767 0 0.003522852 0 0)
(-0.0061292461 0.0033791436 0 0.004870328 0 0)
(-0.0088282974 0.0049304562 0 0.0067450718 0 0)
(-0.013061 0.0072182026 0 0.0080663595 0 0)
(-0.014984274 0.005246551 0 0.010440072 0 0)
(-0.00037758297 0.00026845061 0 0.00036265602 0 0)
(-0.00048344241 2.8134223e-005 0 0.00049369248 0 0)
(-0.00049863435 -6.2711383e-005 0 0.00048247786 0 0)
(-0.00041564651 -9.5060761e-005 0 0.0004145872 0 0)
(-0.00033831055 -9.5822408e-005 0 0.00033382001 0 0)
(-0.00026772203 -8.54018e-005 0 0.00026592387 0 0)
(-0.00020719624 -6.5545299e-005 0 0.00020586505 0 0)
(-0.00016578642 -4.554221e-005 0 0.0001649906 0 0)
(-0.00013901022 -2.4966177e-005 0 0.00013838261 0 0)
(-0.00012777933 -3.7676771e-006 0 0.00012739446 0 0)
(-0.00013044719 1.7044367e-005 0 0.00012986073 0 0)
(-0.00014946334 4.3974615e-005 0 0.00014871086 0 0)
(-0.00018946917 7.9202082e-005 0 0.00018844781 0 0)
(-0.00024886889 0.00012268804 0 0.0002464613 0 0)
(-0.00034723998 0.00018850048 0 0.0003427274 0 0)
(-0.00049513682 0.00028707463 0 0.00048650116 0 0)
(-0.00070809047 0.00043399844 0 0.00068839231 0 0)
(-0.0010447115 0.00067548124 0 0.0010025602 0 0)
(-0.0015642448 0.0010832577 0 0.0014732868 0 0)
(-0.0023857487 0.0016750822 0 0.0021492588 0 0)
(-0.0036252051 0.0027189969 0 0.0031562863 0 0)
(-0.0055509111 0.0039919713 0 0.0043192085 0 0)
(-0.0077461114 0.0059267331 0 0.0057675958 0 0)
(-0.012254972 0.0084735623 0 0.0071519645 0 0)
(-0.012866806 0.0060479709 0 0.0092632876 0 0)
(-0.0003868772 0.00031796027 0 0.0003710608 0 0)
(-0.00049207223 3.1163362e-005 0 0.00050194008 0 0)
(-0.00050611213 -7.7614708e-005 0 0.00048993316 0 0)
(-0.00041784873 -0.00011638347 0 0.00041640287 0 0)
(-0.00033584095 -0.00011638547 0 0.00033140643 0 0)
(-0.00026377616 -0.00010338167 0 0.00026188156 0 0)
(-0.00020207385 -7.9400187e-005 0 0.00020076346 0 0)
(-0.0001602531 -5.5303398e-005 0 0.00015947153 0 0)
(-0.00013351217 -3.1028369e-005 0 0.00013289935 0 0)
(-0.00012186232 -6.3136003e-006 0 0.00012151969 0 0)
(-0.00012386499 1.8183769e-005 0 0.00012331619 0 0)
(-0.0001411867 4.9259533e-005 0 0.00014046538 0 0)
(-0.00017863831 9.0339989e-005 0 0.00017764451 0 0)
(-0.00023396999 0.00014038311 0 0.00023160955 0 0)
(-0.00032518837 0.00021587534 0 0.00032072802 0 0)
(-0.00046170526 0.00032967843 0 0.00045317683 0 0)
(-0.00065685196 0.00049723324 0 0.00063740077 0 0)
(-0.00096205351 0.00077108273 0 0.00092040859 0 0)
(-0.0014258028 0.001230781 0 0.0013364901 0 0)
(-0.0021434539 0.0018989749 0 0.0019134762 0 0)
(-0.0031777393 0.0030811998 0 0.0027267954 0 0)
(-0.0048907402 0.0044944105 0 0.0036912722 0 0)
(-0.0065040639 0.0067728011 0 0.0046478685 0 0)
(-0.011269209 0.0094977511 0 0.006103652 0 0)
(-0.0095487326 0.0074249396 0 0.0066146216 0 0)
(-0.00039885534 0.0003677213 0 0.00038216421 0 0)
(-0.00050218373 3.2711022e-005 0 0.00051158754 0 0)
(-0.00051503883 -9.41989e-005 0 0.00049892272 0 0)
(-0.00042042464 -0.00014009413 0 0.00041849763 0 0)
(-0.00033268591 -0.00013867225 0 0.00032828731 0 0)
(-0.00025894753 -0.00012268998 0 0.00025688244 0 0)
(-0.00019593199 -9.4464735e-005 0 0.00019460927 0 0)
(-0.00015373525 -6.6040826e-005 0 0.00015295834 0 0)
(-0.00012708439 -3.7970128e-005 0 0.00012645979 0 0)
(-0.00011505971 -1.0038472e-005 0 0.00011474927 0 0)
(-0.00011632007 1.8375507e-005 0 0.00011582026 0 0)
(-0.00013159369 5.2843059e-005 0 0.00013088948 0 0)
(-0.00016640367 9.9875325e-005 0 0.00016548961 0 0)
(-0.00021683709 0.00015573538 0 0.00021455116 0 0)
(-0.00029991958 0.00023986221 0 0.00029547019 0 0)
(-0.00042433401 0.0003674111 0 0.0004159303 0 0)
(-0.00059893483 0.00055341636 0 0.00057977409 0 0)
(-0.00086792932 0.00085566579 0 0.0008270343 0 0)
(-0.0012666084 0.0013611443 0 0.0011787666 0 0)
(-0.0018739801 0.0020829069 0 0.0016499251 0 0)
(-0.002658952 0.00338383 0 0.0022297356 0 0)
(-0.004125804 0.0048879075 0 0.0029585031 0 0)
(-0.0049779892 0.0075275219 0 0.0032414583 0 0)
(-0.009477966 0.010647294 0 0.0044273609 0 0)
(-0.0070410552 0.008294403 0 0.0045078303 0 0)
(-0.00041443138 0.00041738531 0 0.00039505182 0 0)
(-0.00051398347 3.2688831e-005 0 0.00052520505 0 0)
(-0.00052589403 -0.00011317027 0 0.00050863217 0 0)
(-0.00042331879 -0.00016657478 0 0.00042090696 0 0)
(-0.00032851302 -0.0001629949 0 0.00032427566 0 0)
(-0.00025312439 -0.00014312202 0 0.00025077294 0 0)
(-0.0001888129 -0.00011080024 0 0.0001875581 0 0)
(-0.00014615202 -7.7718568e-005 0 0.00014545107 0 0)
(-0.00011968254 -4.5724909e-005 0 0.00011906449 0 0)
(-0.00010744639 -1.5170069e-005 0 0.00010717688 0 0)
(-0.00010775617 1.7479994e-005 0 0.00010734522 0 0)
(-0.00012116256 5.5255828e-005 0 0.0001205722 0 0)
(-0.0001523562 0.00010704675 0 0.00015156168 0 0)
(-0.00019783286 0.00016865192 0 0.00019569144 0 0)
(-0.0002718361 0.0002603265 0 0.00026760891 0 0)
(-0.00038215691 0.00040064099 0 0.00037421433 0 0)
(-0.0005359601 0.00060061263 0 0.00051718991 0 0)
(-0.00076665117 0.00092595419 0 0.00072708832 0 0)
(-0.001096529 0.0014679021 0 0.0010121452 0 0)
(-0.0016112305 0.0022021086 0 0.0013897804 0 0)
(-0.0021127001 0.0036116211 0 0.0017239285 0 0)
(-0.0032869687 0.0050843343 0 0.0021600771 0 0)
(-0.0031475449 0.0080197208 0 0.0016414605 0 0)
(-0.0072032482 0.011108089 0 0.0024053684 0 0)
(-0.0008056423 0.011191204 0 -0.0020528694 0 0)
(-0.00043434659 0.00046746534 0 0.00040606068 0 0)
(-0.00052781991 3.1163461e-005 0 0.00054804853 0 0)
(-0.00053847147 -0.00013476242 0 0.00051634142 0 0)
(-0.00042637757 -0.00019583287 0 0.0004235611 0 0)
(-0.000323087 -0.00018910706 0 0.00031922211 0 0)
(-0.00024601609 -0.00016528252 0 0.00024384505 0 0)
(-0.00018045457 -0.00012793524 0 0.00017940978 0 0)
(-0.00013749556 -8.9880284e-005 0 0.00013714162 0 0)
(-0.00011132854 -5.3997429e-005 0 0.00011094545 0 0)
(-9.9043642e-005 -2.1245198e-005 0 9.9087803e-005 0 0)
(-9.8392546e-005 1.598675e-005 0 9.8344562e-005 0 0)
(-0.00010930683 5.5526927e-005 0 0.00010894794 0 0)
(-0.00013760917 0.00011323786 0 0.00013706745 0 0)
(-0.00017717238 0.0001790024 0 0.00017540516 0 0)
(-0.00024152798 0.00027790876 0 0.00023799971 0 0)
(-0.00033782463 0.00042777616 0 0.0003308691 0 0)
(-0.00046728619 0.00063938264 0 0.00044879863 0 0)
(-0.00065671653 0.00098260392 0 0.00061806029 0 0)
(-0.00091374806 0.0015535347 0 0.0008339378 0 0)
(-0.00130328 0.0022829955 0 0.0010811482 0 0)
(-0.0015221344 0.0037299836 0 0.0011759259 0 0)
(-0.002212124 0.0051389862 0 0.0011430084 0 0)
(-0.00098501296 0.0078042444 0 -0.00014817774 0 0)
(-0.0030334652 0.01009152 0 -0.00096644383 0 0)
(0.0031365556 0.01182949 0 -0.0076434362 0 0)
(-0.013997286 0.00052029574 0 0.0092689294 0 0)
(-0.0077973125 0.00092666028 0 0.005688184 0 0)
(-0.0028283093 0.001325821 0 0.0020370315 0 0)
(-0.00070270242 0.0015506489 0 0.00048816067 0 0)
(-0.0001654347 0.0016572666 0 2.9006318e-005 0 0)
(-6.9383459e-006 0.001681204 0 -8.5971354e-005 0 0)
(-4.0883512e-005 0.0016734095 0 -5.057896e-005 0 0)
(-7.0777826e-005 0.0016667829 0 -1.7386768e-005 0 0)
(-8.9461647e-005 0.0016638978 0 1.3541921e-006 0 0)
(-9.153848e-005 0.0016635811 0 3.5970045e-006 0 0)
(-8.9043652e-005 0.0016639519 0 1.1739691e-006 0 0)
(-8.7653013e-005 0.0016641482 0 -1.9824558e-007 0 0)
(-8.7561301e-005 0.0016641476 0 -2.9798289e-007 0 0)
(-8.7724788e-005 0.0016641153 0 -1.3249692e-007 0 0)
(-8.7862119e-005 0.0016640921 0 4.4069775e-009 0 0)
(-8.7876323e-005 0.0016640888 0 1.8923821e-008 0 0)
(-8.7865218e-005 0.0016640899 0 7.6396318e-009 0 0)
(-8.7856617e-005 0.001664091 0 -1.0406141e-009 0 0)
(-8.7856057e-005 0.0016640911 0 -1.6157985e-009 0 0)
(-8.7857043e-005 0.0016640907 0 -6.4899313e-010 0 0)
(-8.7857624e-005 0.0016640906 0 -1.2272273e-010 0 0)
(-8.7858637e-005 0.0016640909 0 7.3869312e-010 0 0)
(-8.7859145e-005 0.001664091 0 2.0445369e-009 0 0)
(-8.786382e-005 0.0016640908 0 5.530908e-009 0 0)
(-8.7865355e-005 0.0016640904 0 6.3119759e-009 0 0)
(-0.013524156 0.0016461629 0 0.0089167115 0 0)
(-0.0075422089 0.0028319749 0 0.0054039134 0 0)
(-0.0030720035 0.0039561825 0 0.0019318468 0 0)
(-0.0011911729 0.0047494644 0 0.00043189595 0 0)
(-0.00082295649 0.0050037617 0 2.6617777e-005 0 0)
(-0.00073317407 0.0050441596 0 -5.6418584e-005 0 0)
(-0.00075068838 0.0050324688 0 -4.2808063e-005 0 0)
(-0.00078318657 0.0050133788 0 -9.5876639e-006 0 0)
(-0.00079449497 0.0050083556 0 1.4485945e-006 0 0)
(-0.00079570253 0.005008088 0 2.6783546e-006 0 0)
(-0.00079404838 0.0050088908 0 9.5452467e-007 0 0)
(-0.00079291287 0.005009367 0 -1.0602036e-007 0 0)
(-0.00079269291 0.0050094268 0 -2.5724772e-007 0 0)
(-0.00079284319 0.0050093394 0 -7.8463413e-008 0 0)
(-0.00079292939 0.0050092998 0 1.4056909e-008 0 0)
(-0.00079293228 0.0050092968 0 1.7846989e-008 0 0)
(-0.0007929217 0.0050093007 0 6.3844208e-009 0 0)
(-0.00079291459 0.0050093037 0 -9.7879329e-010 0 0)
(-0.00079291421 0.0050093033 0 -1.2456921e-009 0 0)
(-0.00079291514 0.0050093031 0 -5.1789116e-010 0 0)
(-0.00079291559 0.0050093032 0 -9.9236564e-011 0 0)
(-0.00079291619 0.0050093029 0 4.7135838e-010 0 0)
(-0.00079291697 0.0050093041 0 1.626731e-009 0 0)
(-0.00079292248 0.0050093035 0 5.7350344e-009 0 0)
(-0.00079292406 0.0050093056 0 6.3188069e-009 0 0)
(-0.01269631 0.002876112 0 0.0083907846 0 0)
(-0.0069388691 0.004831927 0 0.0048445453 0 0)
(-0.0035285155 0.0069566268 0 0.0015875871 0 0)
(-0.0024402073 0.0079734793 0 0.00045353431 0 0)
(-0.0022308351 0.0083226814 0 0.00010050426 0 0)
(-0.0021723161 0.00844454 0 -2.5666313e-005 0 0)
(-0.0022007298 0.0084293374 0 -2.038507e-005 0 0)
(-0.0022136899 0.0084099472 0 -4.1010418e-006 0 0)
(-0.002219442 0.0084033439 0 2.2236189e-006 0 0)
(-0.0022189625 0.0084037535 0 1.8936791e-006 0 0)
(-0.0022175363 0.0084049637 0 4.5714772e-007 0 0)
(-0.0022167136 0.008405495 0 -1.9536038e-007 0 0)
(-0.0022165952 0.0084054914 0 -1.9186431e-007 0 0)
(-0.0022166915 0.0084053726 0 -4.360021e-008 0 0)
(-0.0022167377 0.0084053249 0 1.5148402e-008 0 0)
(-0.0022167379 0.0084053226 0 1.5082732e-008 0 0)
(-0.0022167291 0.0084053307 0 3.6924228e-009 0 0)
(-0.0022167251 0.0084053338 0 -8.359835e-010 0 0)
(-0.0022167257 0.008405334 0 -9.420439e-010 0 0)
(-0.0022167262 0.0084053334 0 -2.8622247e-010 0 0)
(-0.0022167264 0.0084053335 0 -3.0453553e-011 0 0)
(-0.0022167269 0.0084053336 0 2.5323265e-010 0 0)
(-0.0022167278 0.0084053345 0 1.3462053e-009 0 0)
(-0.0022167323 0.0084053339 0 4.9641756e-009 0 0)
(-0.002216735 0.0084053393 0 5.3469567e-009 0 0)
(-0.011485071 0.004166943 0 0.0074844316 0 0)
(-0.0060475292 0.0077642278 0 0.0035140149 0 0)
(-0.0047638728 0.009849896 0 0.0015173528 0 0)
(-0.0041542368 0.011411806 0 0.00034882381 0 0)
(-0.0042981246 0.011865045 0 4.1931636e-005 0 0)
(-0.0043699294 0.011931751 0 -1.4022288e-006 0 0)
(-0.0043943889 0.011908001 0 -3.2472108e-006 0 0)
(-0.004394565 0.011889311 0 1.0572229e-006 0 0)
(-0.0043945658 0.011884095 0 1.7044172e-006 0 0)
(-0.0043934523 0.011884933 0 6.9952809e-007 0 0)
(-0.004392583 0.011886138 0 -4.1332753e-008 0 0)
(-0.004392133 0.011886573 0 -1.9981221e-007 0 0)
(-0.0043920952 0.011886499 0 -9.2088591e-008 0 0)
(-0.0043921236 0.011886385 0 -5.4828358e-009 0 0)
(-0.0043921326 0.011886347 0 1.3922516e-008 0 0)
(-0.0043921301 0.011886349 0 8.2696315e-009 0 0)
(-0.0043921273 0.011886358 0 1.0063461e-009 0 0)
(-0.0043921276 0.011886361 0 -5.3879452e-010 0 0)
(-0.0043921276 0.011886361 0 -3.7291002e-010 0 0)
(-0.0043921274 0.01188636 0 -8.6803908e-011 0 0)
(-0.0043921272 0.01188636 0 6.4546703e-011 0 0)
(-0.0043921271 0.01188636 0 -5.8799569e-011 0 0)
(-0.0043921285 0.011886362 0 2.0836873e-010 0 0)
(-0.0043921336 0.011886363 0 3.8782442e-009 0 0)
(-0.0043921375 0.011886371 0 3.7903821e-009 0 0)
(-0.0095483018 0.0056716408 0 0.0060045001 0 0)
(-0.0062792137 0.010733034 0 0.0024752857 0 0)
(-0.0063339769 0.01327243 0 0.0010270659 0 0)
(-0.0068130279 0.01499371 0 0.0002681634 0 0)
(-0.0072824828 0.015446637 0 7.2464324e-005 0 0)
(-0.0073811889 0.015511905 0 3.1520847e-005 0 0)
(-0.0073887792 0.015495477 0 1.1526788e-005 0 0)
(-0.0073766953 0.015483303 0 4.0126253e-006 0 0)
(-0.007372112 0.015480772 0 2.5998581e-007 0 0)
(-0.0073707512 0.015481721 0 -6.0231257e-007 0 0)
(-0.0073705283 0.015482507 0 -3.9956612e-007 0 0)
(-0.0073705404 0.015482671 0 -1.0393422e-007 0 0)
(-0.0073705303 0.015482571 0 1.208303e-008 0 0)
(-0.007370489 0.015482495 0 1.9732964e-008 0 0)
(-0.0073704696 0.015482476 0 5.9413682e-009 0 0)
(-0.0073704685 0.01548248 0 -2.0621082e-010 0 0)
(-0.0073704731 0.015482487 0 -8.3792632e-010 0 0)
(-0.0073704749 0.015482488 0 4.6370783e-011 0 0)
(-0.007370475 0.015482488 0 1.8258478e-010 0 0)
(-0.0073704753 0.015482488 0 3.8347276e-011 0 0)
(-0.0073704751 0.015482488 0 -1.2548658e-011 0 0)
(-0.0073704747 0.015482488 0 -3.2907568e-010 0 0)
(-0.007370476 0.01548249 0 -3.392394e-010 0 0)
(-0.0073704784 0.015482491 0 1.1720516e-009 0 0)
(-0.0073704843 0.015482501 0 1.2112994e-009 0 0)
(-0.0074976208 0.00873445 0 0.0036411474 0 0)
(-0.0068756474 0.01404964 0 0.0012708969 0 0)
(-0.009052844 0.017287543 0 0.00042285962 0 0)
(-0.010589997 0.018834685 0 0.00018498143 0 0)
(-0.011187213 0.019172085 0 9.2932951e-005 0 0)
(-0.011254356 0.019221143 0 5.1587233e-005 0 0)
(-0.011236754 0.019212107 0 1.9292059e-005 0 0)
(-0.011215822 0.019207968 0 4.4326411e-006 0 0)
(-0.011207503 0.019207368 0 -1.659823e-006 0 0)
(-0.011206221 0.019207719 0 -1.4981189e-006 0 0)
(-0.011206986 0.019207871 0 -4.4173621e-007 0 0)
(-0.011207339 0.019207875 0 5.763271e-008 0 0)
(-0.011207327 0.019207828 0 1.0015931e-007 0 0)
(-0.011207229 0.01920781 0 2.7716269e-008 0 0)
(-0.011207192 0.019207806 0 -6.1311418e-009 0 0)
(-0.011207196 0.019207808 0 -7.2669494e-009 0 0)
(-0.011207205 0.01920781 0 -1.5560818e-009 0 0)
(-0.011207208 0.019207811 0 7.4002094e-010 0 0)
(-0.011207208 0.019207811 0 5.9707219e-010 0 0)
(-0.011207208 0.019207811 0 1.4126308e-010 0 0)
(-0.011207208 0.019207811 0 -1.2477837e-010 0 0)
(-0.011207207 0.019207811 0 -4.7357004e-010 0 0)
(-0.011207208 0.019207813 0 -9.655224e-010 0 0)
(-0.011207208 0.019207815 0 -2.3470744e-009 0 0)
(-0.011207215 0.019207825 0 -1.9937088e-009 0 0)
(-0.006518958 0.011376639 0 0.0014882389 0 0)
(-0.0089313664 0.018706197 0 -0.00025753424 0 0)
(-0.013644442 0.021632361 0 1.6551002e-005 0 0)
(-0.015471114 0.022785372 0 0.00014585524 0 0)
(-0.015991436 0.022991205 0 0.00011648445 0 0)
(-0.01600251 0.023038039 0 6.3989366e-005 0 0)
(-0.015968858 0.023044673 0 2.1382961e-005 0 0)
(-0.015946089 0.023048379 0 3.193106e-006 0 0)
(-0.015936462 0.02304865 0 -3.1781824e-006 0 0)
(-0.015936131 0.023048022 0 -1.8961127e-006 0 0)
(-0.015937639 0.023047628 0 -3.1359528e-007 0 0)
(-0.015938175 0.023047596 0 1.8725166e-007 0 0)
(-0.015938174 0.023047649 0 1.4592878e-007 0 0)
(-0.01593805 0.023047684 0 2.6633131e-008 0 0)
(-0.015937999 0.023047685 0 -1.6255156e-008 0 0)
(-0.015938003 0.02304768 0 -1.0725005e-008 0 0)
(-0.015938014 0.023047678 0 -1.6979559e-009 0 0)
(-0.015938018 0.023047678 0 1.2196961e-009 0 0)
(-0.015938018 0.023047678 0 8.009626e-010 0 0)
(-0.015938017 0.023047679 0 2.6593179e-010 0 0)
(-0.015938017 0.023047678 0 -1.2472825e-010 0 0)
(-0.015938016 0.023047679 0 -6.0412414e-010 0 0)
(-0.015938017 0.02304768 0 -1.8970032e-009 0 0)
(-0.015938013 0.023047683 0 -5.6053531e-009 0 0)
(-0.015938019 0.023047691 0 -5.0001045e-009 0 0)
(-0.0065006473 0.016065178 0 -0.0017044148 0 0)
(-0.013528918 0.024081971 0 -0.0016175239 0 0)
(-0.019904089 0.026092513 0 -0.00018030535 0 0)
(-0.021225988 0.02674189 0 0.00011500947 0 0)
(-0.021636418 0.026861396 0 0.00012188666 0 0)
(-0.021612837 0.026924737 0 6.2405063e-005 0 0)
(-0.02159117 0.026951633 0 1.8158863e-005 0 0)
(-0.021569971 0.026960444 0 -5.0259092e-008 0 0)
(-0.021563592 0.026959533 0 -3.8402298e-006 0 0)
(-0.021564286 0.026957753 0 -1.7291506e-006 0 0)
(-0.021566015 0.026957057 0 -1.480159e-007 0 0)
(-0.021566754 0.026957146 0 2.7237151e-007 0 0)
(-0.021566756 0.026957323 0 1.3715376e-007 0 0)
(-0.021566624 0.026957382 0 1.0395621e-008 0 0)
(-0.021566569 0.026957373 0 -2.056791e-008 0 0)
(-0.021566572 0.02695736 0 -9.4422296e-009 0 0)
(-0.021566581 0.026957356 0 -5.7273721e-010 0 0)
(-0.021566585 0.026957356 0 1.3905672e-009 0 0)
(-0.021566584 0.026957357 0 7.6194405e-010 0 0)
(-0.021566584 0.026957357 0 2.1973621e-010 0 0)
(-0.021566584 0.026957357 0 -4.5132338e-011 0 0)
(-0.021566583 0.026957358 0 -5.5920908e-010 0 0)
(-0.021566582 0.026957359 0 -2.6132965e-009 0 0)
(-0.021566574 0.026957361 0 -7.6437267e-009 0 0)
(-0.021566577 0.026957362 0 -6.7809356e-009 0 0)
(-0.011678731 0.024962912 0 -0.0052362945 0 0)
(-0.021761641 0.030211726 0 -0.0026562128 0 0)
(-0.027339963 0.030497865 0 -0.0002009484 0 0)
(-0.027734239 0.030651362 0 7.1639562e-005 0 0)
(-0.028057993 0.030741901 0 0.0001161411 0 0)
(-0.0280744 0.030846071 0 4.5307024e-005 0 0)
(-0.028092295 0.030886407 0 1.2383217e-005 0 0)
(-0.028078486 0.030895547 0 -2.2944302e-006 0 0)
(-0.028075253 0.030892475 0 -3.1957335e-006 0 0)
(-0.028075115 0.030889617 0 -1.2694167e-006 0 0)
(-0.028076691 0.03088887 0 1.8823967e-008 0 0)
(-0.028077401 0.030889135 0 2.3009105e-007 0 0)
(-0.028077455 0.030889374 0 9.3074909e-008 0 0)
(-0.028077335 0.030889426 0 -2.2273884e-009 0 0)
(-0.028077275 0.030889402 0 -1.7308374e-008 0 0)
(-0.028077271 0.030889384 0 -6.2820535e-009 0 0)
(-0.028077278 0.03088938 0 3.4232376e-010 0 0)
(-0.028077281 0.030889382 0 1.1721895e-009 0 0)
(-0.028077281 0.030889383 0 5.0906197e-010 0 0)
(-0.02807728 0.030889383 0 1.2877874e-010 0 0)
(-0.02807728 0.030889383 0 5.9139261e-011 0 0)
(-0.028077279 0.030889383 0 -3.7376443e-010 0 0)
(-0.028077278 0.030889383 0 -2.3194454e-009 0 0)
(-0.028077268 0.030889383 0 -7.0920637e-009 0 0)
(-0.02807726 0.030889374 0 -6.146287e-009 0 0)
(-0.034730177 0.042211656 0 -0.0097996507 0 0)
(-0.033117153 0.035638896 0 -0.0017805429 0 0)
(-0.039519647 0.036726585 0 -0.00013544571 0 0)
(-0.038196193 0.036096792 0 3.8417028e-005 0 0)
(-0.039149919 0.036499041 0 5.4044769e-005 0 0)
(-0.039127165 0.036552435 0 1.5588035e-005 0 0)
(-0.039230849 0.036611884 0 3.1481463e-006 0 0)
(-0.039207103 0.036606123 0 -1.9636344e-006 0 0)
(-0.039206675 0.036602374 0 -1.4361961e-006 0 0)
(-0.039202154 0.036598181 0 -4.9476909e-007 0 0)
(-0.039203564 0.036597963 0 6.2915576e-008 0 0)
(-0.039204117 0.03659834 0 1.0264033e-007 0 0)
(-0.039204361 0.036598626 0 3.43268e-008 0 0)
(-0.039204266 0.036598646 0 -3.690824e-009 0 0)
(-0.03920421 0.036598614 0 -7.0385473e-009 0 0)
(-0.039204194 0.036598596 0 -2.0577516e-009 0 0)
(-0.039204198 0.036598594 0 4.1998211e-010 0 0)
(-0.039204202 0.036598597 0 5.0300566e-010 0 0)
(-0.039204203 0.036598598 0 1.8562193e-010 0 0)
(-0.039204203 0.036598598 0 4.0728426e-011 0 0)
(-0.039204203 0.036598598 0 4.3383393e-011 0 0)
(-0.039204204 0.036598599 0 -1.8828194e-010 0 0)
(-0.039204202 0.036598598 0 -1.3187072e-009 0 0)
(-0.039204193 0.036598594 0 -3.7154022e-009 0 0)
(-0.039204171 0.036598576 0 -3.1504456e-009 0 0)
(-0.00048359124 0.00057449746 0 0.00044015567 0 0)
(-0.00055981745 2.3778499e-005 0 0.00060466545 0 0)
(-0.00056673539 -0.00018811186 0 0.00053680704 0 0)
(-0.00043165802 -0.0002568625 0 0.00042585574 0 0)
(-0.0003150034 -0.00024446803 0 0.00031022036 0 0)
(-0.00022440493 -0.0002058532 0 0.00022080093 0 0)
(-0.00016265314 -0.00016064562 0 0.00016018911 0 0)
(-0.00011893359 -0.00011331879 0 0.00011782271 0 0)
(-9.3236224e-005 -6.9698926e-005 0 9.2010194e-005 0 0)
(-8.0631904e-005 -3.1175259e-005 0 8.0060309e-005 0 0)
(-7.8082359e-005 1.2545995e-005 0 7.7367275e-005 0 0)
(-8.6169275e-005 5.993549e-005 0 8.4855051e-005 0 0)
(-0.00010448188 0.00012056468 0 0.00010367802 0 0)
(-0.00013322876 0.00019437541 0 0.00013050263 0 0)
(-0.00017842348 0.00030179967 0 0.0001732803 0 0)
(-0.00024518988 0.00047314738 0 0.00023761723 0 0)
(-0.00032661149 0.00069544367 0 0.00030627706 0 0)
(-0.0004432489 0.0010492711 0 0.00040275139 0 0)
(-0.00055620242 0.0016481843 0 0.00048593015 0 0)
(-0.00071036159 0.0023544113 0 0.0005126372 0 0)
(-0.00065129951 0.0036922134 0 0.00036446767 0 0)
(-0.00056814989 0.0048958719 0 -0.00030731796 0 0)
(0.0012702881 0.0069383444 0 -0.0019224928 0 0)
(0.0018753883 0.0075590516 0 -0.0042909204 0 0)
(0.0097867532 0.0070892971 0 -0.012784318 0 0)
(-0.00059939264 0.00076030204 0 0.00053272962 0 0)
(-0.00064200378 -1.436446e-006 0 0.00070156696 0 0)
(-0.00061769185 -0.00028721436 0 0.00057777658 0 0)
(-0.00043242872 -0.00035241743 0 0.00042236768 0 0)
(-0.00028484272 -0.00032160613 0 0.00028041691 0 0)
(-0.00018446134 -0.00025884221 0 0.00018104904 0 0)
(-0.00012356282 -0.00019679888 0 0.00012182664 0 0)
(-8.0938983e-005 -0.00013275568 0 8.0795562e-005 0 0)
(-5.8708066e-005 -7.9751918e-005 0 5.8049452e-005 0 0)
(-4.6560147e-005 -3.3006261e-005 0 4.6359206e-005 0 0)
(-4.1131153e-005 1.8336251e-005 0 4.1387359e-005 0 0)
(-4.2305375e-005 6.910898e-005 0 4.1943693e-005 0 0)
(-4.858472e-005 0.00013793364 0 4.8770661e-005 0 0)
(-5.9082381e-005 0.00022211414 0 5.8282988e-005 0 0)
(-7.4089826e-005 0.00033156486 0 6.8718379e-005 0 0)
(-9.2952171e-005 0.00051227683 0 8.7777364e-005 0 0)
(-0.00010518268 0.00074161734 0 9.1870476e-005 0 0)
(-0.00011503217 0.0010743098 0 7.754011e-005 0 0)
(-5.4421298e-005 0.0016420394 0 -5.5976194e-006 0 0)
(5.6051668e-005 0.002262906 0 -0.00022260058 0 0)
(0.00053074741 0.0031910784 0 -0.00079100134 0 0)
(0.0011424845 0.0037880299 0 -0.0018427521 0 0)
(0.0031326207 0.0042367584 0 -0.0038521104 0 0)
(0.0051894582 0.0018880892 0 -0.007360111 0 0)
(0.0063316753 -0.0013757917 0 -0.0092855295 0 0)
(-0.00077888641 0.00098084989 0 0.00069147629 0 0)
(-0.00074679975 -4.1669471e-005 0 0.00081440748 0 0)
(-0.00066050148 -0.00038513728 0 0.00061220741 0 0)
(-0.00040921118 -0.00042284808 0 0.00039606512 0 0)
(-0.0002318637 -0.00035363494 0 0.00022779468 0 0)
(-0.0001265988 -0.00025650848 0 0.00012296331 0 0)
(-7.0448004e-005 -0.00017428903 0 6.8877115e-005 0 0)
(-3.4640174e-005 -9.4884962e-005 0 3.4457001e-005 0 0)
(-1.7118905e-005 -3.153539e-005 0 1.7005806e-005 0 0)
(-7.4477906e-006 2.1178114e-005 0 7.2953235e-006 0 0)
(-6.4567782e-007 7.40394e-005 0 1.0287069e-006 0 0)
(3.9273006e-006 0.00012690778 0 -4.3495743e-006 0 0)
(8.9642565e-006 0.00019880873 0 -1.0997218e-005 0 0)
(1.9001506e-005 0.00028308578 0 -1.8981185e-005 0 0)
(2.9921291e-005 0.00038890257 0 -3.4818584e-005 0 0)
(5.3510872e-005 0.00054958495 0 -6.2210976e-005 0 0)
(0.00010566494 0.00078854281 0 -0.00011830232 0 0)
(0.00017415881 0.0010733003 0 -0.00021138118 0 0)
(0.00036090612 0.001555083 0 -0.00042107553 0 0)
(0.00064209956 0.0020545319 0 -0.00077952602 0 0)
(0.0012300549 0.0026882062 0 -0.0014443577 0 0)
(0.0020615188 0.0029458282 0 -0.0024937488 0 0)
(0.0034807444 0.0027529458 0 -0.0038581018 0 0)
(0.0046725555 0.00061512611 0 -0.0054230954 0 0)
(0.0036058956 -0.002942025 0 -0.0038246638 0 0)
(-0.0010231627 0.0012690436 0 0.00090246106 0 0)
(-0.00082805598 -7.8331057e-005 0 0.00090385263 0 0)
(-0.00064727652 -0.00043009578 0 0.00058945467 0 0)