/*--------------------------------*- C++ -*----------------------------------*\
| =========                 |                                                 |
| \\      /  F ield         | OpenFOAM: The Open Source CFD Toolbox           |
|  \\    /   O peration     | Version:  5.x                                   |
|   \\  /    A nd           | Web:      www.OpenFOAM.org                      |
|    \\/     M anipulation  |                                                 |
\*---------------------------------------------------------------------------*/
/*   Windows 32 and 64 bit porting by blueCAPE: http://www.bluecape.com.pt   *\
|  Based on Windows porting (2.0.x v4) by Symscape: http://www.symscape.com   |
\*---------------------------------------------------------------------------*/
FoamFile
{
    version     2.0;
    format      ascii;
    class       volVectorField;
    location    "0.19";
    object      U;
}
// * * * * * * * * * * * * * * * * * * * * * * * * * * * * * * * * * * * * * //

dimensions      [0 1 -1 0 0 0 0];

internalField   nonuniform List<vector> 
750
(
(0.039303991 -0.00013755474 0)
(0.040449621 -0.00017206671 0)
(0.042002619 -0.00017096141 0)
(0.043226914 -0.00014731235 0)
(0.044342874 -0.00012380775 0)
(0.045212722 -9.7879938e-005 0)
(0.045906011 -7.7588249e-005 0)
(0.046453909 -6.240872e-005 0)
(0.046900851 -5.2433826e-005 0)
(0.047290607 -4.8096061e-005 0)
(0.0476681 -4.9463446e-005 0)
(0.048079891 -5.7080699e-005 0)
(0.048578086 -7.2104176e-005 0)
(0.049228668 -9.7217519e-005 0)
(0.050128769 -0.00013678852 0)
(0.051408167 -0.00019652985 0)
(0.053258152 -0.00028889203 0)
(0.056012068 -0.00043588915 0)
(0.060198151 -0.0006690607 0)
(0.066635082 -0.0010453702 0)
(0.076889308 -0.0015762872 0)
(0.091491289 -0.0023697214 0)
(0.11497689 -0.0032623973 0)
(0.14248583 -0.0041811805 0)
(0.18281731 -0.0046985477 0)
(0.03930757 -0.00041105765 0)
(0.040455065 -0.00052119812 0)
(0.04201268 -0.00051064891 0)
(0.043239608 -0.00044335262 0)
(0.044354532 -0.00037046578 0)
(0.045222826 -0.0002936494 0)
(0.045913964 -0.00023239434 0)
(0.046459165 -0.00018647113 0)
(0.046903231 -0.00015677523 0)
(0.04729042 -0.00014377449 0)
(0.047665003 -0.00014777424 0)
(0.048073399 -0.00017049828 0)
(0.048566935 -0.00021532015 0)
(0.049211529 -0.00029021525 0)
(0.050102941 -0.00040825351 0)
(0.051368968 -0.00058641609 0)
(0.05319893 -0.00086155618 0)
(0.055920619 -0.0012991879 0)
(0.06005052 -0.0019924711 0)
(0.066393878 -0.0031077753 0)
(0.076479396 -0.0046955719 0)
(0.090833625 -0.0070187955 0)
(0.11388328 -0.0097389698 0)
(0.14078835 -0.012386807 0)
(0.18074748 -0.014093506 0)
(0.039313479 -0.00068462865 0)
(0.040466561 -0.00087423162 0)
(0.042033631 -0.00084984239 0)
(0.043265172 -0.00074038524 0)
(0.044378661 -0.00061637964 0)
(0.045243862 -0.00048887704 0)
(0.045930156 -0.00038634795 0)
(0.046470024 -0.00030953113 0)
(0.046908746 -0.00026018342 0)
(0.047290638 -0.00023849243 0)
(0.047659332 -0.00024498877 0)
(0.048061009 -0.00028251268 0)
(0.048545335 -0.00035667759 0)
(0.049177823 -0.00048063525 0)
(0.050051846 -0.00067587313 0)
(0.051291355 -0.00097047046 0)
(0.053080837 -0.0014248816 0)
(0.055737189 -0.0021467815 0)
(0.059755573 -0.003290303 0)
(0.065910468 -0.0051231233 0)
(0.075667696 -0.007746818 0)
(0.089497719 -0.011536728 0)
(0.11174288 -0.016062035 0)
(0.13744963 -0.020372783 0)
(0.1765495 -0.023405828 0)
(0.039321915 -0.00096081809 0)
(0.040484672 -0.001229936 0)
(0.042066261 -0.0011911469 0)
(0.043304396 -0.0010378566 0)
(0.044416104 -0.00086173067 0)
(0.045276612 -0.00068273466 0)
(0.045955109 -0.00053863619 0)
(0.046487089 -0.00043103701 0)
(0.046918061 -0.0003619293 0)
(0.047291862 -0.00033144399 0)
(0.047651705 -0.00034023282 0)
(0.048043421 -0.00039202817 0)
(0.048514171 -0.00049472373 0)
(0.049128498 -0.00066639931 0)
(0.049976653 -0.00093664544 0)
(0.051177149 -0.0013441162 0)
(0.052906501 -0.0019717383 0)
(0.055466353 -0.0029672032 0)
(0.059323035 -0.0045413428 0)
(0.065197004 -0.0070578763 0)
(0.074474303 -0.010665637 0)
(0.087524735 -0.015849947 0)
(0.10859306 -0.022066905 0)
(0.13238988 -0.027972611 0)
(0.17016798 -0.032402066 0)
(0.039333751 -0.0012409577 0)
(0.04051023 -0.0015891669 0)
(0.042111737 -0.0015356997 0)
(0.043358604 -0.0013358716 0)
(0.044467981 -0.0011062448 0)
(0.045322052 -0.0008746796 0)
(0.045989768 -0.00068861766 0)
(0.046511305 -0.00055030028 0)
(0.046931918 -0.00046134493 0)
(0.047294968 -0.00042192878 0)
(0.047643041 -0.00043273469 0)
(0.048021588 -0.0004981513 0)
(0.048474592 -0.00062814804 0)
(0.049064935 -0.00084578316 0)
(0.049879246 -0.0011880562 0)
(0.051028793 -0.0017034102 0)
(0.052679515 -0.0024958858 0)
(0.055113809 -0.0037502162 0)
(0.058761166 -0.0057282954 0)
(0.064267729 -0.0088829219 0)
(0.072933482 -0.013400767 0)
(0.084932806 -0.019876333 0)
(0.1044509 -0.027637374 0)
(0.12570144 -0.035104498 0)
(0.16164701 -0.040722651 0)
(0.039350015 -0.0015264191 0)
(0.040544491 -0.0019533218 0)
(0.042171812 -0.0018844128 0)
(0.043429696 -0.0016346435 0)
(0.044535926 -0.001349611 0)
(0.045381596 -0.0010641153 0)
(0.046035535 -0.00083562534 0)
(0.046543947 -0.00066663412 0)
(0.04695141 -0.0005577789 0)
(0.04730129 -0.00050927754 0)
(0.047634635 -0.00052173221 0)
(0.04799689 -0.00059993688 0)
(0.048428144 -0.00075576201 0)
(0.048989113 -0.0010171316 0)
(0.049761911 -0.0014276338 0)
(0.050848872 -0.0020446266 0)
(0.052403818 -0.0029916559 0)
(0.054685185 -0.0044869432 0)
(0.058080212 -0.0068355251 0)
(0.06314601 -0.010571774 0)
(0.071069927 -0.015903929 0)
(0.081759515 -0.023541247 0)
(0.099399646 -0.032630141 0)
(0.11732824 -0.041615977 0)
(0.15103296 -0.048246885 0)
(0.039372131 -0.0018190155 0)
(0.040589085 -0.0023236645 0)
(0.042248411 -0.0022383218 0)
(0.04351988 -0.0019343458 0)
(0.044621859 -0.0015914801 0)
(0.045456834 -0.0012503897 0)
(0.046094105 -0.00097893873 0)
(0.046586448 -0.00077932389 0)
(0.046977869 -0.00065058282 0)
(0.047312404 -0.00059281419 0)
(0.047627895 -0.00060647584 0)
(0.047970963 -0.00069649978 0)
(0.048376695 -0.0008764653 0)
(0.048903237 -0.0011787522 0)
(0.049627149 -0.0016529854 0)
(0.050640816 -0.0023644209 0)
(0.052084752 -0.0034536128 0)
(0.054188888 -0.0051685403 0)
(0.057292949 -0.0078493657 0)
(0.061855179 -0.012099895 0)
(0.068917712 -0.018126401 0)
(0.078064908 -0.02676685 0)
(0.093493721 -0.036899366 0)
(0.10720883 -0.0472587 0)
(0.1388898 -0.054974344 0)
(0.03940236 -0.0021212403 0)
(0.040645882 -0.0027012791 0)
(0.042343715 -0.0025987824 0)
(0.043631662 -0.0022350798 0)
(0.04472773 -0.0018313286 0)
(0.045549264 -0.0014328597 0)
(0.046167127 -0.0011178173 0)
(0.046640163 -0.00088760516 0)
(0.04701275 -0.0007391144 0)
(0.047329754 -0.00067188038 0)
(0.047624362 -0.00068619707 0)
(0.047945247 -0.00078710554 0)
(0.04832231 -0.00098907329 0)
(0.048809614 -0.0013291781 0)
(0.049477979 -0.0018619353 0)
(0.050408662 -0.0026595609 0)
(0.051728179 -0.0038772906 0)
(0.053633992 -0.0057881197 0)
(0.056414067 -0.0087581809 0)
(0.06042205 -0.013450746 0)
(0.066520317 -0.020030306 0)
(0.073917854 -0.029489073 0)
(0.086833155 -0.040328516 0)
(0.095970943 -0.051994456 0)
(0.12543042 -0.059735312 0)
(0.039443405 -0.0024359301 0)
(0.040717306 -0.0030876621 0)
(0.042459741 -0.0029670069 0)
(0.043767519 -0.0025369346 0)
(0.044854935 -0.002068524 0)
(0.045659952 -0.0016107759 0)
(0.046255815 -0.0012514564 0)
(0.046706091 -0.00099073502 0)
(0.047057309 -0.00082273827 0)
(0.047353973 -0.00074582904 0)
(0.047625459 -0.00076020026 0)
(0.047921007 -0.00087087499 0)
(0.048266516 -0.0010928029 0)
(0.048710543 -0.0014671361 0)
(0.049317643 -0.0020526075 0)
(0.050156477 -0.0029274568 0)
(0.051339375 -0.004258406 0)
(0.053030783 -0.0063390947 0)
(0.055460313 -0.0095516113 0)
(0.058862908 -0.014597584 0)
(0.063933228 -0.021574048 0)
(0.069435004 -0.031622289 0)
(0.079600802 -0.042837383 0)
(0.083700848 -0.055888179 0)
(0.11060625 -0.062911304 0)
(0.03949694 -0.0027640768 0)
(0.040806257 -0.003487762 0)
(0.042598056 -0.0033421212 0)
(0.043929173 -0.0028401897 0)
(0.045003804 -0.0023027238 0)
(0.045788551 -0.001782984 0)
(0.046360517 -0.0013793181 0)
(0.04678436 -0.0010880953 0)
(0.047111744 -0.00090078584 0)
(0.047384681 -0.00081403967 0)
(0.047631757 -0.00082782182 0)
(0.047898383 -0.00094732406 0)
(0.048210277 -0.0011868174 0)
(0.048607037 -0.0015914872 0)
(0.049148775 -0.00222332 0)
(0.04988711 -0.0031657862 0)
(0.050922217 -0.0045943241 0)
(0.052387421 -0.0068180548 0)
(0.054442871 -0.010223248 0)
(0.057207998 -0.015530585 0)
(0.061219751 -0.022776256 0)
(0.064853284 -0.033138738 0)
(0.071811493 -0.044448051 0)
(0.070186505 -0.058468043 0)
(0.091068188 -0.063187921 0)
(0.21542205 -0.0026413432 0)
(0.2257134 -0.00096412335 0)
(0.22929631 -0.00022991654 0)
(0.22956228 -3.6373822e-005 0)
(0.22980784 1.1763021e-006 0)
(0.22962503 1.5858172e-005 0)
(0.22949844 1.5840974e-005 0)
(0.22941035 6.5108821e-006 0)
(0.22938914 1.4087911e-006 0)
(0.22939343 -6.6993334e-007 0)
(0.2294022 -8.421609e-007 0)
(0.22940613 -3.1210196e-007 0)
(0.22940625 3.2281156e-008 0)
(0.2294055 6.3494456e-008 0)
(0.22940518 2.1938413e-008 0)
(0.22940517 -1.5224721e-009 0)
(0.22940522 -3.9441891e-009 0)
(0.22940523 -8.0514611e-010 0)
(0.22940523 4.2548832e-010 0)
(0.22940522 3.4278818e-010 0)
(0.22940522 -1.0252285e-011 0)
(0.22940522 -2.7833198e-010 0)
(0.22940523 -5.043075e-010 0)
(0.22940523 3.0964616e-010 0)
(0.22940522 7.2929339e-010 0)
(0.21252493 -0.0076088008 0)
(0.2215505 -0.0028091492 0)
(0.22498507 -0.00060142387 0)
(0.22511507 -0.00014365049 0)
(0.22527479 -9.2738794e-007 0)
(0.22506884 5.256755e-005 0)
(0.22495589 4.1915557e-005 0)
(0.22487994 1.9232066e-005 0)
(0.22486329 3.2379802e-006 0)
(0.22486952 -2.5315521e-006 0)
(0.2248779 -2.3539374e-006 0)
(0.22488098 -7.4404382e-007 0)
(0.22488084 1.2297062e-007 0)
(0.22488015 1.9383336e-007 0)
(0.22487988 6.0321438e-008 0)
(0.22487989 -7.4240199e-009 0)
(0.22487993 -1.1230578e-008 0)
(0.22487995 -1.9713177e-009 0)
(0.22487994 1.4359478e-009 0)
(0.22487994 8.9451545e-010 0)
(0.22487994 5.5728564e-011 0)
(0.22487994 -8.1858357e-010 0)
(0.22487994 -1.6595093e-009 0)
(0.22487995 7.1102892e-010 0)
(0.22487994 1.8847809e-009 0)
(0.20660902 -0.012119849 0)
(0.21315491 -0.0043985122 0)
(0.21646894 -0.00097427885 0)
(0.21616806 -0.00018251576 0)
(0.2161669 3.7424792e-005 0)
(0.21599483 8.4789992e-005 0)
(0.21591957 6.3894255e-005 0)
(0.21586563 2.9086109e-005 0)
(0.21586027 3.9967756e-006 0)
(0.21586856 -4.5947385e-006 0)
(0.21587545 -3.6391304e-006 0)
(0.21587715 -1.0052299e-006 0)
(0.21587667 2.4444803e-007 0)
(0.21587609 3.0786045e-007 0)
(0.21587594 8.6506359e-008 0)
(0.21587597 -1.5326048e-008 0)
(0.21587601 -1.7488603e-008 0)
(0.21587601 -2.570712e-009 0)
(0.21587601 2.447102e-009 0)
(0.21587601 1.4232984e-009 0)
(0.21587601 8.2379823e-011 0)
(0.21587601 -1.26054e-009 0)
(0.21587601 -2.5511606e-009 0)
(0.21587601 4.9701766e-010 0)
(0.21587602 2.3959117e-009 0)
(0.19737362 -0.015930002 0)
(0.20086412 -0.0057059297 0)
(0.20341435 -0.0011675063 0)
(0.20263875 -0.00015152735 0)
(0.20259846 8.6199717e-005 0)
(0.20248561 0.00010777581 0)
(0.20245004 7.9408431e-005 0)
(0.20242678 3.3402088e-005 0)
(0.20243415 3.0311548e-006 0)
(0.20244251 -6.4268579e-006 0)
(0.20244641 -4.465222e-006 0)
(0.20244645 -1.0618714e-006 0)
(0.20244571 3.8667302e-007 0)
(0.20244536 3.787212e-007 0)
(0.20244535 9.1009656e-008 0)
(0.2024454 -2.4583722e-008 0)
(0.20244542 -2.157336e-008 0)
(0.20244542 -2.3255723e-009 0)
(0.20244541 3.3342608e-009 0)
(0.20244541 1.8195325e-009 0)
(0.20244541 1.2520343e-010 0)
(0.20244541 -1.6158182e-009 0)
(0.20244542 -3.4989974e-009 0)
(0.20244542 -6.3402762e-010 0)
(0.20244543 1.8679592e-009 0)
(0.18466691 -0.018752916 0)
(0.18440961 -0.0065602084 0)
(0.18540901 -0.001091328 0)
(0.18458989 -9.570441e-005 0)
(0.18462324 0.00010323005 0)
(0.18454668 0.00011480304 0)
(0.18456223 8.3238864e-005 0)
(0.18457261 3.189237e-005 0)
(0.18458927 6.0696639e-007 0)
(0.1845944 -7.6808506e-006 0)
(0.18459415 -4.6078116e-006 0)
(0.1845926 -8.6156418e-007 0)
(0.1845919 5.1339937e-007 0)
(0.18459188 3.9519355e-007 0)
(0.184592 7.6092659e-008 0)
(0.18459205 -3.2762402e-008 0)
(0.18459205 -2.2199032e-008 0)
(0.18459204 -1.2787473e-009 0)
(0.18459204 3.8142284e-009 0)
(0.18459204 1.9192028e-009 0)
(0.18459204 1.595237e-010 0)
(0.18459204 -1.795344e-009 0)
(0.18459204 -4.3818624e-009 0)
(0.18459205 -2.3215693e-009 0)
(0.18459206 6.1426591e-010 0)
(0.16872325 -0.020551551 0)
(0.16270944 -0.0064904541 0)
(0.16274561 -0.00092479128 0)
(0.16201269 -5.7533188e-005 0)
(0.16213082 0.00011907703 0)
(0.16210929 0.00011177915 0)
(0.16218934 7.5810189e-005 0)
(0.16222864 2.5395803e-005 0)
(0.16224762 -1.9713331e-006 0)
(0.16224672 -7.7680199e-006 0)
(0.1622423 -3.9990403e-006 0)
(0.16223972 -5.0296506e-007 0)
(0.16223941 5.6359162e-007 0)
(0.16223976 3.481121e-007 0)
(0.16223997 4.8469169e-008 0)
(0.16223999 -3.5887869e-008 0)
(0.16223997 -1.9084661e-008 0)
(0.16223996 8.4043958e-011 0)
(0.16223996 3.7142167e-009 0)
(0.16223996 1.7302214e-009 0)
(0.16223996 1.5956439e-010 0)
(0.16223996 -1.7826971e-009 0)
(0.16223996 -4.8027767e-009 0)
(0.16223996 -4.0366438e-009 0)
(0.16223997 -7.0135527e-010 0)
(0.14816095 -0.020602939 0)
(0.13558161 -0.0056589843 0)
(0.13561636 -0.00068940563 0)
(0.13480706 -4.0857634e-005 0)
(0.13502004 0.00011366244 0)
(0.13506109 9.1340211e-005 0)
(0.1351954 5.7419826e-005 0)
(0.13524831 1.6408903e-005 0)
(0.13526295 -3.4438079e-006 0)
(0.13525531 -6.4603615e-006 0)
(0.1352481 -2.8177828e-006 0)
(0.13524549 -1.5175663e-007 0)
(0.13524577 5.0192195e-007 0)
(0.13524638 2.5320184e-007 0)
(0.13524659 1.9836583e-008 0)
(0.13524658 -3.1916114e-008 0)
(0.13524654 -1.3420254e-008 0)
(0.13524653 1.1312695e-009 0)
(0.13524653 2.9838402e-009 0)
(0.13524653 1.3032026e-009 0)
(0.13524654 1.0583768e-010 0)
(0.13524654 -1.5669258e-009 0)
(0.13524653 -4.6720621e-009 0)
(0.13524653 -4.9302432e-009 0)
(0.13524654 -1.5246505e-009 0)
(0.12085268 -0.018002922 0)
(0.10345069 -0.004223804 0)
(0.10385182 -0.00042343743 0)
(0.10285704 -2.1773137e-005 0)
(0.10320094 8.8362445e-005 0)
(0.10327573 5.8159474e-005 0)
(0.10343174 3.3524613e-005 0)
(0.10347821 7.6670209e-006 0)
(0.10348579 -3.2524154e-006 0)
(0.10347365 -4.1539835e-006 0)
(0.10346613 -1.4983869e-006 0)
(0.10346433 6.021193e-008 0)
(0.10346509 3.4178624e-007 0)
(0.10346576 1.419848e-007 0)
(0.10346591 9.3562878e-010 0)
(0.10346586 -2.162959e-008 0)
(0.10346582 -7.1971051e-009 0)
(0.10346581 1.3791607e-009 0)
(0.10346582 1.8809213e-009 0)
(0.10346582 7.6733661e-010 0)
(0.10346583 2.9704663e-011 0)
(0.10346582 -1.1629139e-009 0)
(0.10346582 -3.9234086e-009 0)
(0.10346581 -4.7337931e-009 0)
(0.10346582 -1.8334208e-009 0)
(0.086295114 -0.012945698 0)
(0.066465844 -0.0024031534 0)
(0.067256063 -0.00014349233 0)
(0.066209283 -9.9916102e-006 0)
(0.066641326 5.2374979e-005 0)
(0.066695488 2.3112072e-005 0)
(0.066828052 1.2477934e-005 0)
(0.066852899 1.4201964e-006 0)
(0.066854922 -1.8417355e-006 0)
(0.066843094 -1.7149009e-006 0)
(0.066837823 -4.6408359e-007 0)
(0.066837063 9.9961471e-008 0)
(0.066837919 1.4935816e-007 0)
(0.066838423 4.8132275e-008 0)
(0.066838492 -5.0024069e-009 0)
(0.066838436 -9.2348651e-009 0)
(0.066838406 -2.2170917e-009 0)
(0.066838406 8.8305766e-010 0)
(0.066838411 7.7664884e-010 0)
(0.066838414 2.9691615e-010 0)
(0.066838415 -2.3969529e-015 0)
(0.066838414 -6.1880823e-010 0)
(0.066838412 -2.3896469e-009 0)
(0.066838399 -3.1863842e-009 0)
(0.066838396 -1.4534639e-009 0)
(0.040169019 -0.0068217397 0)
(0.024355314 -0.00012977535 0)
(0.025851711 -1.2987732e-006 0)
(0.025006364 3.3461013e-006 0)
(0.025380388 -4.7881889e-006 0)
(0.025350605 -1.5437662e-006 0)
(0.025417882 -1.0220005e-006 0)
(0.025416947 -1.3559718e-007 0)
(0.025417704 -5.9488551e-008 0)
(0.025411683 1.299406e-008 0)
(0.02541014 1.7107111e-008 0)
(0.025410062 1.3854727e-008 0)
(0.02541051 4.6953867e-009 0)
(0.025410692 1.6990612e-010 0)
(0.025410701 -9.4439628e-010 0)
(0.025410672 -2.462889e-010 0)
(0.025410662 6.3480813e-011 0)
(0.025410664 8.1454976e-011 0)
(0.025410666 9.9273139e-012 0)
(0.025410667 -1.0240859e-011 0)
(0.025410667 -3.1942347e-011 0)
(0.025410667 -9.2738417e-011 0)
(0.025410665 -4.1666362e-010 0)
(0.025410656 -9.5533456e-011 0)
(0.025410652 2.158096e-010 0)
(0.039627841 -0.0034404697 0)
(0.041023594 -0.004334928 0)
(0.042921708 -0.0040981414 0)
(0.044302653 -0.0034503638 0)
(0.045341763 -0.0027628145 0)
(0.046079244 -0.0021170534 0)
(0.046597561 -0.0016223164 0)
(0.046960659 -0.0012703198 0)
(0.047235238 -0.0010449118 0)
(0.047455377 -0.00093856311 0)
(0.047650678 -0.00095014836 0)
(0.047854659 -0.0010841111 0)
(0.048092879 -0.0013541407 0)
(0.048387969 -0.0018117794 0)
(0.048790389 -0.0025234875 0)
(0.049318356 -0.0035795145 0)
(0.050039056 -0.0051691007 0)
(0.051029844 -0.0076204848 0)
(0.05231539 -0.011311025 0)
(0.053824958 -0.016947397 0)
(0.055730422 -0.024453719 0)
(0.056119353 -0.034716119 0)
(0.056554185 -0.045239123 0)
(0.043298557 -0.057648203 0)
(0.036253057 -0.0468968 0)
(0.039905726 -0.0046299665 0)
(0.04152971 -0.0058145855 0)
(0.043630924 -0.0052942118 0)
(0.045042911 -0.0043635664 0)
(0.045996395 -0.003400782 0)
(0.046621674 -0.0025530282 0)
(0.047015402 -0.0019140401 0)
(0.047260317 -0.0014739993 0)
(0.04743117 -0.0011956321 0)
(0.047554646 -0.0010624519 0)
(0.04765577 -0.0010645145 0)
(0.047751988 -0.0012064476 0)
(0.047857178 -0.0015031404 0)
(0.047980609 -0.0019981724 0)
(0.048137605 -0.0027670198 0)
(0.048338833 -0.0038977286 0)
(0.048549562 -0.0055689699 0)
(0.048793047 -0.0081081789 0)
(0.048981707 -0.011829532 0)
(0.048778548 -0.017245112 0)
(0.048104279 -0.02412623 0)
(0.045296862 -0.03216457 0)
(0.040424903 -0.038361928 0)
(0.026099061 -0.041075884 0)
(0.010842409 -0.021120427 0)
(0.040314047 -0.0061617696 0)
(0.042200668 -0.0075052364 0)
(0.04445883 -0.0065611019 0)
(0.045800585 -0.0052313786 0)
(0.046591515 -0.0039473174 0)
(0.047041005 -0.0028788199 0)
(0.047265499 -0.0021007702 0)
(0.047366303 -0.0015849152 0)
(0.047413585 -0.0012643966 0)
(0.047426631 -0.0011077117 0)
(0.047424456 -0.0010980928 0)
(0.047402354 -0.0012347687 0)
(0.047372311 -0.0015309514 0)
(0.047319195 -0.0020225956 0)
(0.047222707 -0.0027820553 0)
(0.047091506 -0.0039029041 0)
(0.04683567 -0.0055153521 0)
(0.04638482 -0.0079200403 0)
(0.045613857 -0.011365486 0)
(0.044057268 -0.016173664 0)
(0.041420929 -0.02201352 0)
(0.036490938 -0.027923353 0)
(0.028950357 -0.031501044 0)
(0.016062826 -0.030692677 0)
(0.0025694506 -0.014670785 0)
(0.040855283 -0.0081380633 0)
(0.042900739 -0.0093619992 0)
(0.045094614 -0.0077966547 0)
(0.046168919 -0.0059657044 0)
(0.04666241 -0.0043349232 0)
(0.04685689 -0.0030525996 0)
(0.04686128 -0.0021572138 0)
(0.046801195 -0.0015863644 0)
(0.046710278 -0.0012413572 0)
(0.046612435 -0.001069991 0)
(0.046501164 -0.0010475966 0)
(0.046370966 -0.0011666401 0)
(0.046206508 -0.0014372644 0)
(0.045987665 -0.0018964467 0)
(0.045673049 -0.002586436 0)
(0.045226879 -0.0036068912 0)
(0.044578068 -0.0050588974 0)
(0.043555936 -0.007162409 0)
(0.042025028 -0.010124605 0)
(0.039508992 -0.014067498 0)
(0.035658151 -0.018619733 0)
(0.029734794 -0.022662624 0)
(0.021624466 -0.024127371 0)
(0.011132401 -0.021302546 0)
(0.00044512849 -0.0092333224 0)
(0.041426964 -0.010581841 0)
(0.04335699 -0.011177876 0)
(0.045027036 -0.0087781495 0)
(0.045539781 -0.0064074644 0)
(0.045556505 -0.0044677448 0)
(0.045405029 -0.0030258686 0)
(0.045155024 -0.0020610133 0)
(0.044920247 -0.0014689232 0)
(0.044696837 -0.0011238611 0)
(0.044494083 -0.0009516728 0)
(0.04429015 -0.00091893934 0)
(0.044067282 -0.0010138453 0)
(0.043794892 -0.0012407334 0)
(0.043440391 -0.0016282817 0)
(0.042962379 -0.0022174965 0)
(0.042274855 -0.0030686877 0)
(0.041321858 -0.004280036 0)
(0.039906593 -0.0059889326 0)
(0.037862731 -0.0083532361 0)
(0.034794421 -0.011382558 0)
(0.030337219 -0.014702833 0)
(0.024165073 -0.017273632 0)
(0.016428376 -0.017587251 0)
(0.0079959804 -0.014340578 0)
(-4.7514238e-005 -0.0059033538 0)
(0.041758988 -0.013341806 0)
(0.043180221 -0.01255125 0)
(0.043651288 -0.0091823977 0)
(0.043275154 -0.0063535644 0)
(0.042646271 -0.0042358863 0)
(0.0420666 -0.0027472022 0)
(0.041565009 -0.0018016575 0)
(0.041160221 -0.0012386685 0)
(0.040832607 -0.00092293615 0)
(0.040546727 -0.00076579661 0)
(0.040281942 -0.00072896872 0)
(0.039995715 -0.00079527026 0)
(0.039660216 -0.00097031723 0)
(0.039223633 -0.0012666671 0)
(0.038645162 -0.0017211662 0)
(0.037829743 -0.0023722583 0)
(0.036704964 -0.003291388 0)
(0.035101462 -0.0045680525 0)
(0.032830936 -0.0062974945 0)
(0.029594737 -0.0084422575 0)
(0.025096343 -0.0106768 0)
(0.019257573 -0.012205349 0)
(0.012372917 -0.011921306 0)
(0.0057885539 -0.0090231491 0)
(-0.00016850247 -0.0034151483 0)
(0.04149847 -0.016106571 0)
(0.041824384 -0.012850931 0)
(0.04037151 -0.0086667914 0)
(0.03885728 -0.005615138 0)
(0.037517065 -0.003563158 0)
(0.036511599 -0.0022084265 0)
(0.035803724 -0.0013886938 0)
(0.035283962 -0.00091940362 0)
(0.034894849 -0.00066445094 0)
(0.034574368 -0.00053995352 0)
(0.034285239 -0.00050604498 0)
(0.033984403 -0.00054762392 0)
(0.033633618 -0.00066464011 0)
(0.033186501 -0.00086738996 0)
(0.03259057 -0.0011747293 0)
(0.031768983 -0.0016169137 0)
(0.03063472 -0.0022365827 0)
(0.029052205 -0.0030882965 0)
(0.026845928 -0.0042217243 0)
(0.023799159 -0.0055938145 0)
(0.019713926 -0.0069484654 0)
(0.014632081 -0.007761515 0)
(0.0089338791 -0.0072913194 0)
(0.0039849571 -0.0050906598 0)
(-0.00020405797 -0.0016652848 0)
(0.039854387 -0.018058622 0)
(0.038478354 -0.011460351 0)
(0.034419925 -0.0069797605 0)
(0.031874555 -0.0041606133 0)
(0.029993508 -0.0024815147 0)
(0.028736706 -0.0014654744 0)
(0.027939006 -0.00087988238 0)
(0.027401702 -0.00055721687 0)
(0.027021396 -0.00038940875 0)
(0.02672324 -0.00030892749 0)
(0.026460383 -0.00028528793 0)
(0.026193727 -0.00030637156 0)
(0.025884567 -0.00037053283 0)
(0.025494549 -0.00048436625 0)
(0.024974209 -0.00065629647 0)
(0.024262368 -0.00090392183 0)
(0.023280874 -0.0012504246 0)
(0.021922001 -0.0017240292 0)
(0.020047362 -0.0023478366 0)
(0.017498799 -0.0030871436 0)
(0.014176713 -0.0037869199 0)
(0.010171429 -0.004143834 0)
(0.0058635056 -0.0037399956 0)
(0.0024215993 -0.0023315774 0)
(-0.00020995555 -0.00052814482 0)
(0.034638712 -0.016359093 0)
(0.031783729 -0.0077052248 0)
(0.024860738 -0.0043160844 0)
(0.022039306 -0.0023139467 0)
(0.020055297 -0.001304271 0)
(0.018885724 -0.00073099791 0)
(0.018190999 -0.00041841679 0)
(0.017761677 -0.0002527928 0)
(0.017473484 -0.00016967283 0)
(0.017256527 -0.00013066323 0)
(0.017069868 -0.00011871353 0)
(0.016883155 -0.00012614323 0)
(0.016668574 -0.00015241835 0)
(0.016397393 -0.00019976133 0)
(0.016035114 -0.00027105723 0)
(0.015538984 -0.00037406007 0)
(0.014853526 -0.00051726754 0)
(0.013904975 -0.00071248011 0)
(0.012598963 -0.00096879814 0)
(0.010832939 -0.0012690715 0)
(0.0085534438 -0.0015434124 0)
(0.0058757582 -0.0016500021 0)
(0.0030796526 -0.0014189722 0)
(0.0010446894 -0.00071932495 0)
(-0.00022373534 9.7279168e-006 0)
(0.020557195 -0.012040579 0)
(0.017430025 -0.0023114306 0)
(0.010678874 -0.00038579158 0)
(0.0092732419 -0.0001597594 0)
(0.0079143437 -5.2917866e-005 0)
(0.0072680563 -1.9942796e-005 0)
(0.0068903241 -5.7467835e-006 0)
(0.0066762215 1.3244049e-006 0)
(0.0065418986 4.2949589e-006 0)
(0.0064470898 5.3138045e-006 0)
(0.0063685668 5.697629e-006 0)
(0.0062914843 6.1802962e-006 0)
(0.0062035365 7.1046341e-006 0)
(0.0060916555 8.4465271e-006 0)
(0.0059413676 1.0662136e-005 0)
(0.0057346029 1.3670527e-005 0)
(0.005447983 1.7742922e-005 0)
(0.0050513265 2.3301276e-005 0)
(0.0045052755 3.0298322e-005 0)
(0.0037706445 3.9594815e-005 0)
(0.0028281211 4.9539481e-005 0)
(0.001752305 6.7339592e-005 0)
(0.00065909315 7.5574257e-005 0)
(-2.9241335e-006 0.00012084066 0)
(-0.00018984371 0.00013352858 0)
)
;

boundaryField
{
    inlet
    {
        type            fixedValue;
        value           uniform (0.03876 0 0);
    }
    walls
    {
        type            fixedValue;
        value           uniform (0 0 0);
    }
    outlet
    {
        type            zeroGradient;
    }
    centreline
    {
        type            symmetryPlane;
    }
    frontAndBack
    {
        type            empty;
    }
}


// ************************************************************************* //
