/*--------------------------------*- C++ -*----------------------------------*\
| =========                 |                                                 |
| \\      /  F ield         | OpenFOAM: The Open Source CFD Toolbox           |
|  \\    /   O peration     | Version:  5.x                                   |
|   \\  /    A nd           | Web:      www.OpenFOAM.org                      |
|    \\/     M anipulation  |                                                 |
\*---------------------------------------------------------------------------*/
/*   Windows 32 and 64 bit porting by blueCAPE: http://www.bluecape.com.pt   *\
|  Based on Windows porting (2.0.x v4) by Symscape: http://www.symscape.com   |
\*---------------------------------------------------------------------------*/
FoamFile
{
    version     2.0;
    format      ascii;
    class       volVectorField;
    location    "0.19";
    object      U_0;
}
// * * * * * * * * * * * * * * * * * * * * * * * * * * * * * * * * * * * * * //

dimensions      [0 1 -1 0 0 0 0];

internalField   nonuniform List<vector> 
750
(
(0.039303609 -0.00013746406 0)
(0.040448524 -0.00017194985 0)
(0.042000412 -0.00017083731 0)
(0.043223791 -0.00014719632 0)
(0.044338825 -0.0001237048 0)
(0.045207944 -9.7798781e-005 0)
(0.045900669 -7.7528502e-005 0)
(0.046448171 -6.2368066e-005 0)
(0.046894865 -5.2408421e-005 0)
(0.047284468 -4.8079988e-005 0)
(0.047661855 -4.9452605e-005 0)
(0.048073581 -5.7073943e-005 0)
(0.048571735 -7.20989e-005 0)
(0.049222271 -9.7210651e-005 0)
(0.050122311 -0.00013677703 0)
(0.051401589 -0.00019650709 0)
(0.053251331 -0.00028884271 0)
(0.056004711 -0.00043579195 0)
(0.060189787 -0.00066891955 0)
(0.066625478 -0.001045249 0)
(0.076879009 -0.0015763105 0)
(0.091482018 -0.0023700042 0)
(0.11497111 -0.0032628966 0)
(0.14248452 -0.0041816596 0)
(0.18281905 -0.0046986111 0)
(0.039307186 -0.00041078696 0)
(0.040453964 -0.0005208431 0)
(0.042010461 -0.00051027779 0)
(0.043236468 -0.00044300271 0)
(0.044350464 -0.00037015764 0)
(0.045218031 -0.0002934058 0)
(0.045908607 -0.00023221528 0)
(0.046453416 -0.00018635043 0)
(0.046897238 -0.00015669963 0)
(0.047284274 -0.00014372624 0)
(0.047658752 -0.00014774192 0)
(0.048067084 -0.00017047852 0)
(0.048560582 -0.00021530427 0)
(0.04920513 -0.00029019519 0)
(0.050096483 -0.00040821907 0)
(0.051362393 -0.00058634887 0)
(0.053192116 -0.00086140988 0)
(0.055913282 -0.0012988994 0)
(0.060042196 -0.0019920499 0)
(0.066384333 -0.0031074112 0)
(0.07646916 -0.0046956385 0)
(0.09082438 -0.0070196364 0)
(0.11387745 -0.0097404615 0)
(0.14078685 -0.012388175 0)
(0.18074908 -0.014093696 0)
(0.03931309 -0.00068417788 0)
(0.040465447 -0.00087363425 0)
(0.042031382 -0.00084922367 0)
(0.043261994 -0.00073979976 0)
(0.044374554 -0.00061586676 0)
(0.045239031 -0.00048847158 0)
(0.045924768 -0.00038605052 0)
(0.046464251 -0.00030933172 0)
(0.046902735 -0.00026005824 0)
(0.047284474 -0.00023841228 0)
(0.047653066 -0.00024493547 0)
(0.048054683 -0.00028248028 0)
(0.048538974 -0.00035665183 0)
(0.049171418 -0.00048060232 0)
(0.050045386 -0.00067581663 0)
(0.051284784 -0.00097036013 0)
(0.053074037 -0.0014246413 0)
(0.055729891 -0.002146308 0)
(0.059747331 -0.0032896106 0)
(0.065901057 -0.0051225221 0)
(0.075657586 -0.0077469166 0)
(0.089488509 -0.011538097 0)
(0.11173694 -0.016064521 0)
(0.13744801 -0.020375121 0)
(0.17655085 -0.023406178 0)
(0.039321518 -0.00096018457 0)
(0.040483533 -0.0012290917 0)
(0.042063961 -0.0011902767 0)
(0.043301154 -0.0010370339 0)
(0.044411929 -0.00086101311 0)
(0.045271718 -0.00068216894 0)
(0.045949671 -0.00053822257 0)
(0.046481276 -0.00043076069 0)
(0.046912016 -0.00036175528 0)
(0.047285666 -0.00033133272 0)
(0.047645412 -0.0003401595 0)
(0.048037071 -0.00039198413 0)
(0.048507792 -0.00049468902 0)
(0.049122079 -0.00066635418 0)
(0.049970184 -0.00093656869 0)
(0.051170577 -0.0013439651 0)
(0.052899714 -0.0019714092 0)
(0.055459105 -0.002966555 0)
(0.059314905 -0.0045403928 0)
(0.065187772 -0.0070570425 0)
(0.074464385 -0.01066576 0)
(0.087515619 -0.015851819 0)
(0.10858701 -0.022070304 0)
(0.13238785 -0.027975844 0)
(0.17016874 -0.032402665 0)
(0.039333338 -0.0012401361 0)
(0.040509049 -0.0015880691 0)
(0.042109358 -0.0015345723 0)
(0.043355266 -0.0013348096 0)
(0.044463708 -0.0011053227 0)
(0.045317066 -0.00087395608 0)
(0.045984253 -0.00068809116 0)
(0.04650543 -0.00054994929 0)
(0.046925817 -0.0004611233 0)
(0.047288721 -0.00042178759 0)
(0.047636704 -0.00043264265 0)
(0.048015199 -0.00049809721 0)
(0.048468181 -0.00062810521 0)
(0.049058488 -0.00084572776 0)
(0.049872757 -0.0011879607 0)
(0.051022212 -0.0017032217 0)
(0.052672737 -0.0024954754 0)
(0.055106613 -0.0037494065 0)
(0.058753165 -0.005727107 0)
(0.064258716 -0.008881872 0)
(0.072923851 -0.013400904 0)
(0.084923885 -0.019878667 0)
(0.10444473 -0.027641627 0)
(0.12569855 -0.035108499 0)
(0.16164676 -0.040723531 0)
(0.039349576 -0.0015254005 0)
(0.040543244 -0.0019519608 0)
(0.042169321 -0.0018830208 0)
(0.043426227 -0.0016333395 0)
(0.044531519 -0.0013484848 0)
(0.045376485 -0.0010632372 0)
(0.046029916 -0.00083499046 0)
(0.046537983 -0.00066621104 0)
(0.04694523 -0.00055751147 0)
(0.04729497 -0.000509108 0)
(0.047628236 -0.00052162306 0)
(0.047990442 -0.00059987376 0)
(0.048421682 -0.00075571357 0)
(0.048982623 -0.0010170674 0)
(0.049755386 -0.0014275218 0)
(0.05084227 -0.0020444046 0)
(0.052397039 -0.0029911726 0)
(0.054678042 -0.0044859903 0)
(0.058072357 -0.0068341209 0)
(0.063137262 -0.010570532 0)
(0.071060655 -0.015904076 0)
(0.081750867 -0.023543972 0)
(0.099393313 -0.032635069 0)
(0.11732455 -0.041620649 0)
(0.15103191 -0.048248203 0)
(0.039371649 -0.001817786 0)
(0.040587747 -0.002322028 0)
(0.042245774 -0.0022366562 0)
(0.043516244 -0.0019327971 0)
(0.044617284 -0.0015901507 0)
(0.045451565 -0.0012493612 0)
(0.046088352 -0.00097820061 0)
(0.046580371 -0.00077883222 0)
(0.046971588 -0.00065027189 0)
(0.047305989 -0.00059261857 0)
(0.047621416 -0.00060635147 0)
(0.047964437 -0.00069642982 0)
(0.048370167 -0.00087641272 0)
(0.048896687 -0.0011786808 0)
(0.049620573 -0.0016528609 0)
(0.050634182 -0.0023641705 0)
(0.052077968 -0.0034530659 0)
(0.054181799 -0.0051674622 0)
(0.05728525 -0.0078477757 0)
(0.061846725 -0.012098489 0)
(0.068908873 -0.018126565 0)
(0.078056641 -0.026769898 0)
(0.093487368 -0.036904878 0)
(0.10720481 -0.047264032 0)
(0.13888844 -0.054976321 0)
(0.039401816 -0.0021197806 0)
(0.040644429 -0.002699353 0)
(0.042340899 -0.002596833 0)
(0.043627827 -0.0022332839 0)
(0.044722959 -0.0018297977 0)
(0.045543815 -0.0014316858 0)
(0.046161218 -0.001116981 0)
(0.046633951 -0.00088704933 0)
(0.047006348 -0.00073876303 0)
(0.047323231 -0.00067166186 0)
(0.047617792 -0.0006860599 0)
(0.047938632 -0.00078702984 0)
(0.048315702 -0.00098901891 0)
(0.048802996 -0.0013291025 0)
(0.049471345 -0.0018618018 0)
(0.050401992 -0.0026592885 0)
(0.051721392 -0.0038766924 0)
(0.053626961 -0.0057869368 0)
(0.056406535 -0.008756437 0)
(0.060413943 -0.013449202 0)
(0.066511982 -0.0200305 0)
(0.073910112 -0.029492413 0)
(0.086827024 -0.040334523 0)
(0.095966908 -0.052000424 0)
(0.12542904 -0.059737901 0)
(0.039442777 -0.0024342159 0)
(0.040715713 -0.0030854313 0)
(0.042456727 -0.0029647637 0)
(0.043763465 -0.0025348901 0)
(0.044849954 -0.0020667948 0)
(0.045654311 -0.0016094616 0)
(0.046249742 -0.001250528 0)
(0.046699736 -0.00099011955 0)
(0.047050782 -0.00082235026 0)
(0.047347342 -0.00074559162 0)
(0.047618799 -0.00076005238 0)
(0.047914305 -0.00087079513 0)
(0.048259828 -0.00109275 0)
(0.048703857 -0.0014670592 0)
(0.049310959 -0.0020524679 0)
(0.050149777 -0.0029271691 0)
(0.051332596 -0.0042577697 0)
(0.053023832 -0.0063378318 0)
(0.055452976 -0.009549755 0)
(0.058855211 -0.014595981 0)
(0.063925447 -0.021574308 0)
(0.069427884 -0.03162589 0)
(0.079595042 -0.042843824 0)
(0.083696875 -0.055894684 0)
(0.11060476 -0.062914365 0)
(0.039496209 -0.0027620791 0)
(0.04080451 -0.0034852084 0)
(0.042594836 -0.0033395764 0)
(0.043924901 -0.0028378954 0)
(0.04499862 -0.0023007984 0)
(0.04578273 -0.0017815361 0)
(0.046354291 -0.0013783045 0)
(0.046777873 -0.0010874249 0)
(0.047105109 -0.00090036588 0)
(0.04737796 -0.00081378722 0)
(0.047625019 -0.00082766735 0)
(0.04789162 -0.00094724176 0)
(0.048203531 -0.0011867669 0)
(0.048600304 -0.0015914128 0)
(0.049142061 -0.0022231813 0)
(0.04988041 -0.0031654915 0)
(0.050915472 -0.0045936619 0)
(0.052380581 -0.0068167354 0)
(0.054435784 -0.010221317 0)
(0.057200728 -0.015528953 0)
(0.061212562 -0.022776604 0)
(0.064846864 -0.033142579 0)
(0.071806353 -0.044454866 0)
(0.070182916 -0.058475068 0)
(0.091066156 -0.063191543 0)
(0.2154217 -0.0026408674 0)
(0.22570785 -0.00096349784 0)
(0.2292861 -0.00022936548 0)
(0.22954763 -3.5782155e-005 0)
(0.2297886 1.6359886e-006 0)
(0.22960191 1.6243179e-005 0)
(0.22947338 1.6011321e-005 0)
(0.22938493 6.5237877e-006 0)
(0.22936402 1.3704019e-006 0)
(0.22936858 -6.9217749e-007 0)
(0.22937742 -8.4580782e-007 0)
(0.22938133 -3.0882647e-007 0)
(0.22938142 3.4098115e-008 0)
(0.22938066 6.3605496e-008 0)
(0.22938035 2.1610966e-008 0)
(0.22938034 -1.6784492e-009 0)
(0.22938039 -3.9435987e-009 0)
(0.2293804 -7.7986993e-010 0)
(0.2293804 4.3561317e-010 0)
(0.2293804 3.4162678e-010 0)
(0.22938039 -1.2121569e-011 0)
(0.2293804 -2.8033295e-010 0)
(0.2293804 -5.072718e-010 0)
(0.2293804 3.0429525e-010 0)
(0.2293804 7.2557406e-010 0)
(0.21252464 -0.0076074332 0)
(0.22154561 -0.0028073015 0)
(0.22497559 -0.00059970816 0)
(0.22510119 -0.00014199971 0)
(0.22525642 5.3352972e-007 0)
(0.22504707 5.3633885e-005 0)
(0.22493262 4.2335153e-005 0)
(0.22485655 1.9236608e-005 0)
(0.22484022 3.1323833e-006 0)
(0.22484669 -2.5925884e-006 0)
(0.22485511 -2.3625134e-006 0)
(0.22485817 -7.351589e-007 0)
(0.22485801 1.2820276e-007 0)
(0.22485731 1.9407659e-007 0)
(0.22485705 5.9323198e-008 0)
(0.22485706 -7.8619448e-009 0)
(0.2248571 -1.1221967e-008 0)
(0.22485711 -1.8971742e-009 0)
(0.22485711 1.4614287e-009 0)
(0.2248571 8.9117288e-010 0)
(0.2248571 5.3550349e-011 0)
(0.2248571 -8.2369237e-010 0)
(0.22485711 -1.672972e-009 0)
(0.22485711 6.8887949e-010 0)
(0.22485711 1.8629838e-009 0)
(0.20660886 -0.01211773 0)
(0.2131513 -0.0043955853 0)
(0.2164612 -0.0009714186 0)
(0.2161561 -0.00017977552 0)
(0.21615095 3.9908463e-005 0)
(0.21597652 8.6386563e-005 0)
(0.21590053 6.4453746e-005 0)
(0.21584679 2.9043524e-005 0)
(0.21584177 3.8230183e-006 0)
(0.21585023 -4.6863282e-006 0)
(0.21585713 -3.6473641e-006 0)
(0.2158588 -9.9060577e-007 0)
(0.21585831 2.524908e-007 0)
(0.21585773 3.0797977e-007 0)
(0.21585758 8.487487e-008 0)
(0.21585761 -1.5971204e-008 0)
(0.21585765 -1.7457706e-008 0)
(0.21585765 -2.4529425e-009 0)
(0.21585765 2.4832918e-009 0)
(0.21585765 1.4175465e-009 0)
(0.21585765 7.89878e-011 0)
(0.21585765 -1.2663982e-009 0)
(0.21585765 -2.5742436e-009 0)
(0.21585765 4.3658553e-010 0)
(0.21585765 2.3387565e-009 0)
(0.19737345 -0.015927326 0)
(0.20086239 -0.0057023366 0)
(0.2034095 -0.0011636928 0)
(0.2026304 -0.00014775198 0)
(0.2025875 8.9400752e-005 0)
(0.20247369 0.00010963443 0)
(0.20243829 7.996177e-005 0)
(0.20241549 3.3270869e-005 0)
(0.20242315 2.7950765e-006 0)
(0.20243157 -6.5326522e-006 0)
(0.20243543 -4.4674649e-006 0)
(0.20243544 -1.0411581e-006 0)
(0.2024347 3.9623703e-007 0)
(0.20243435 3.7828297e-007 0)
(0.20243434 8.8893091e-008 0)
(0.20243439 -2.5307045e-008 0)
(0.20243441 -2.1494741e-008 0)
(0.20243441 -2.1776354e-009 0)
(0.20243441 3.3732934e-009 0)
(0.20243441 1.811339e-009 0)
(0.20243441 1.2098362e-010 0)
(0.20243441 -1.6208711e-009 0)
(0.20243441 -3.5307661e-009 0)
(0.20243441 -7.5137499e-010 0)
(0.20243442 1.7580203e-009 0)
(0.18466711 -0.018750093 0)
(0.18440958 -0.0065561235 0)
(0.18540787 -0.0010868931 0)
(0.18458718 -9.1338936e-005 0)
(0.18462006 0.00010662681 0)
(0.18454413 0.00011661048 0)
(0.18456055 8.3650888e-005 0)
(0.18457143 3.1663957e-005 0)
(0.18458822 3.4132963e-007 0)
(0.18459329 -7.780097e-006 0)
(0.18459299 -4.6008036e-006 0)
(0.18459141 -8.3706161e-007 0)
(0.18459071 5.2271402e-007 0)
(0.1845907 3.9395555e-007 0)
(0.18459083 7.3763268e-008 0)
(0.18459088 -3.3432046e-008 0)
(0.18459087 -2.2064069e-008 0)
(0.18459087 -1.1227887e-009 0)
(0.18459086 3.8469457e-009 0)
(0.18459087 1.9092459e-009 0)
(0.18459087 1.558456e-010 0)
(0.18459087 -1.797677e-009 0)
(0.18459087 -4.4196933e-009 0)
(0.18459087 -2.4960652e-009 0)
(0.18459088 4.4967653e-010 0)
(0.16872401 -0.020548977 0)
(0.16271091 -0.006486375 0)
(0.16274865 -0.00092030624 0)
(0.16201697 -5.3263036e-005 0)
(0.16213705 0.00012219019 0)
(0.16211754 0.00011326079 0)
(0.16219879 7.6019488e-005 0)
(0.16223839 2.5107395e-005 0)
(0.16225726 -2.2221534e-006 0)
(0.16225621 -7.8447548e-006 0)
(0.16225173 -3.9830753e-006 0)
(0.16224916 -4.7892257e-007 0)
(0.16224886 5.7095791e-007 0)
(0.16224922 3.4621786e-007 0)
(0.16224942 4.6296396e-008 0)
(0.16224944 -3.6383205e-008 0)
(0.16224942 -1.8915854e-008 0)
(0.16224941 2.2219948e-010 0)
(0.16224941 3.7353007e-009 0)
(0.16224941 1.7203644e-009 0)
(0.16224941 1.5893363e-010 0)
(0.16224941 -1.781153e-009 0)
(0.16224941 -4.844057e-009 0)
(0.16224941 -4.2496711e-009 0)
(0.16224942 -8.992243e-010 0)
(0.14816175 -0.020600767 0)
(0.13558475 -0.005655536 0)
(0.13562338 -0.00068563772 0)
(0.13481792 -3.739546e-005 0)
(0.13503486 0.00011606678 0)
(0.13507869 9.2342384e-005 0)
(0.1352141 5.7457007e-005 0)
(0.13526697 1.6131713e-005 0)
(0.13528128 -3.63961e-006 0)
(0.13527345 -6.5069122e-006 0)
(0.1352662 -2.798446e-006 0)
(0.13526362 -1.324672e-007 0)
(0.13526393 5.0646465e-007 0)
(0.13526454 2.5116067e-007 0)
(0.13526475 1.8165156e-008 0)
(0.13526473 -3.2198657e-008 0)
(0.13526469 -1.3251414e-008 0)
(0.13526468 1.2325428e-009 0)
(0.13526469 2.9922642e-009 0)
(0.13526469 1.295407e-009 0)
(0.13526469 1.0906308e-010 0)
(0.13526469 -1.5625607e-009 0)
(0.13526469 -4.7125117e-009 0)
(0.13526469 -5.1389656e-009 0)
(0.13526469 -1.7179292e-009 0)
(0.12085337 -0.018001389 0)
(0.10345497 -0.0042213678 0)
(0.10386133 -0.00042086882 0)
(0.10287188 -1.9429756e-005 0)
(0.10322051 8.9822851e-005 0)
(0.10329801 5.8671062e-005 0)
(0.10345471 3.3469302e-005 0)
(0.10350086 7.4703351e-006 0)
(0.10350801 -3.3700996e-006 0)
(0.10349569 -4.1736398e-006 0)
(0.10348818 -1.4827542e-006 0)
(0.10348642 7.2100066e-008 0)
(0.10348719 3.4372186e-007 0)
(0.10348786 1.4040819e-007 0)
(0.10348801 -6.4634967e-011 0)
(0.10348796 -2.1738579e-008 0)
(0.10348792 -7.071113e-009 0)
(0.10348792 1.4366765e-009 0)
(0.10348792 1.8810702e-009 0)
(0.10348792 7.6260055e-010 0)
(0.10348793 3.5133721e-011 0)
(0.10348793 -1.1574853e-009 0)
(0.10348792 -3.9543715e-009 0)
(0.10348792 -4.8920935e-009 0)
(0.10348792 -1.9813572e-009 0)
(0.086295487 -0.012944879 0)
(0.066470139 -0.0024019541 0)
(0.067265355 -0.00014231389 0)
(0.066223493 -9.0452913e-006 0)
(0.066659396 5.2936982e-005 0)
(0.066715442 2.3264606e-005 0)
(0.06684824 1.2419352e-005 0)
(0.066872682 1.3300054e-006 0)
(0.066874339 -1.8859448e-006 0)
(0.066862404 -1.7183812e-006 0)
(0.066857157 -4.563524e-007 0)
(0.066856434 1.0448393e-007 0)
(0.0668573 1.4967553e-007 0)
(0.066857802 4.7366664e-008 0)
(0.066857868 -5.3792288e-009 0)
(0.06685781 -9.2429456e-009 0)
(0.066857781 -2.1599019e-009 0)
(0.066857781 9.0314544e-010 0)
(0.066857786 7.7441881e-010 0)
(0.066857789 2.9539352e-010 0)
(0.06685779 4.5273514e-012 0)
(0.066857789 -6.1455465e-010 0)
(0.066857787 -2.4034953e-009 0)
(0.066857774 -3.2633436e-009 0)
(0.066857771 -1.5248947e-009 0)
(0.040168733 -0.0068215848 0)
(0.024357509 -0.00012964845 0)
(0.025856551 -1.2568648e-006 0)
(0.025013614 3.2087137e-006 0)
(0.0253893 -4.8046029e-006 0)
(0.02536013 -1.5522053e-006 0)
(0.025427372 -1.0291016e-006 0)
(0.025426221 -1.4249473e-007 0)
(0.025426824 -6.1238417e-008 0)
(0.025420774 1.3120351e-008 0)
(0.025419247 1.7403048e-008 0)
(0.025419185 1.3948841e-008 0)
(0.025419636 4.6659982e-009 0)
(0.025419816 1.3848947e-010 0)
(0.025419824 -9.4796672e-010 0)
(0.025419795 -2.4052669e-010 0)
(0.025419785 6.6531676e-011 0)
(0.025419786 8.1858084e-011 0)
(0.025419788 9.7379773e-012 0)
(0.025419789 -9.5851172e-012 0)
(0.02541979 -3.0609945e-011 0)
(0.02541979 -9.214831e-011 0)
(0.025419788 -4.1972695e-010 0)
(0.025419778 -1.0669026e-010 0)
(0.025419774 2.085301e-010 0)
(0.039626875 -0.0034378485 0)
(0.04102154 -0.0043316771 0)
(0.04291811 -0.0040949878 0)
(0.044297992 -0.0034475659 0)
(0.045336242 -0.002760505 0)
(0.046073146 -0.0021153516 0)
(0.046591099 -0.001621141 0)
(0.046953991 -0.0012695521 0)
(0.047228472 -0.0010444386 0)
(0.047448569 -0.00093828988 0)
(0.047643873 -0.00094998749 0)
(0.047847873 -0.0010840269 0)
(0.048086116 -0.0013540999 0)
(0.048381242 -0.0018117169 0)
(0.048783711 -0.0025233617 0)
(0.049311756 -0.0035792242 0)
(0.050032487 -0.0051684114 0)
(0.051023333 -0.0076190986 0)
(0.052308909 -0.011309006 0)
(0.053818571 -0.016945729 0)
(0.055724511 -0.024454297 0)
(0.056114456 -0.034720511 0)
(0.056550658 -0.045246601 0)
(0.043296627 -0.057655997 0)
(0.03625149 -0.046901593 0)
(0.039904406 -0.0046261497 0)
(0.041527409 -0.0058101619 0)
(0.043627218 -0.005290168 0)
(0.045038316 -0.0043600593 0)
(0.045991101 -0.003397974 0)
(0.046615916 -0.0025510005 0)
(0.047009373 -0.0019126799 0)
(0.047254208 -0.0014731549 0)
(0.047425042 -0.0011951363 0)
(0.047548564 -0.0010621818 0)
(0.047649712 -0.0010643717 0)
(0.047745982 -0.0012063969 0)
(0.047851242 -0.0015031387 0)
(0.047974758 -0.0019981607 0)
(0.048131833 -0.0027669521 0)
(0.048333214 -0.003897524 0)
(0.048544112 -0.0055683977 0)
(0.048787831 -0.0081069356 0)
(0.048976909 -0.011827745 0)
(0.048774302 -0.017243882 0)
(0.04810078 -0.024127518 0)
(0.045294354 -0.032169923 0)
(0.040423553 -0.038370413 0)
(0.026098578 -0.04108432 0)
(0.010842062 -0.021125758 0)
(0.040312603 -0.0061566249 0)
(0.042198774 -0.007499857 0)
(0.044456112 -0.0065563969 0)
(0.045797427 -0.0052273553 0)
(0.046587968 -0.0039441338 0)
(0.047037169 -0.0028765667 0)
(0.04726156 -0.0020993336 0)
(0.047362399 -0.0015840751 0)
(0.047409753 -0.0012639252 0)
(0.047422882 -0.0011074826 0)
(0.047420782 -0.0010980117 0)
(0.047398758 -0.001234772 0)
(0.047368809 -0.0015310138 0)
(0.047315814 -0.0020226799 0)
(0.047219432 -0.002782095 0)
(0.047088418 -0.0039028368 0)
(0.046832849 -0.0055150069 0)
(0.046382391 -0.0079191607 0)
(0.045612015 -0.011364192 0)
(0.044056192 -0.016173007 0)
(0.041420741 -0.02201545 0)
(0.036491429 -0.027929391 0)
(0.028951109 -0.031510083 0)
(0.016063613 -0.030701201 0)
(0.0025698584 -0.014675991 0)
(0.040854209 -0.0081319205 0)
(0.042900154 -0.0093563072 0)
(0.045094218 -0.0077918191 0)
(0.046168779 -0.0059615382 0)
(0.046662374 -0.0043316037 0)
(0.046856859 -0.0030502784 0)
(0.046861361 -0.0021557997 0)
(0.046801392 -0.0015856006 0)
(0.046710634 -0.0012409849 0)
(0.046612904 -0.0010698355 0)
(0.046501737 -0.0010475766 0)
(0.046371631 -0.0011667167 0)
(0.046207253 -0.0014373943 0)
(0.045988497 -0.0018966208 0)
(0.045674012 -0.0025866162 0)
(0.045227995 -0.0036069961 0)
(0.044579433 -0.0050588074 0)
(0.043557696 -0.0071619297 0)
(0.042027396 -0.010123819 0)
(0.039512098 -0.014067454 0)
(0.035661952 -0.018622172 0)
(0.029738636 -0.022668775 0)
(0.021627396 -0.024136106 0)
(0.011134277 -0.021310574 0)
(0.00044548872 -0.0092378716 0)
(0.041426804 -0.010575553 0)
(0.043358244 -0.011172816 0)
(0.045029578 -0.0087738944 0)
(0.045543322 -0.0064036813 0)
(0.045560739 -0.0044646429 0)
(0.045409651 -0.0030236988 0)
(0.045159956 -0.0020597434 0)
(0.0449254 -0.0014682975 0)
(0.044702179 -0.0011235909 0)
(0.044499566 -0.00095161255 0)
(0.044295717 -0.00091899439 0)
(0.044072917 -0.0010139764 0)
(0.043800566 -0.001240927 0)
(0.043446095 -0.0016285097 0)
(0.042968162 -0.0022177596 0)
(0.042280707 -0.0030689312 0)
(0.041327848 -0.0042801507 0)
(0.03991284 -0.0059887945 0)
(0.037869446 -0.0083529364 0)
(0.034801651 -0.011382947 0)
(0.03034465 -0.014705303 0)
(0.024171795 -0.01727909 0)
(0.016433162 -0.017594717 0)
(0.0079985669 -0.014347272 0)
(-4.7453051e-005 -0.0059068684 0)
(0.041760002 -0.013336488 0)
(0.043182945 -0.012547625 0)
(0.043655978 -0.0091792943 0)
(0.043281292 -0.006350649 0)
(0.042653557 -0.0042333978 0)
(0.042074689 -0.0027454359 0)
(0.041573552 -0.0018006304 0)
(0.041169077 -0.0012382109 0)
(0.040841633 -0.00092279449 0)
(0.040555862 -0.0007658134 0)
(0.040291139 -0.00072907089 0)
(0.040004927 -0.00079542122 0)
(0.039669419 -0.00097051773 0)
(0.039232814 -0.0012669105 0)
(0.038654311 -0.0017214353 0)
(0.03783886 -0.0023725356 0)
(0.03671408 -0.0032915918 0)
(0.035110645 -0.0045680977 0)
(0.032840339 -0.0062974676 0)
(0.029604372 -0.0084427482 0)
(0.025105734 -0.010678831 0)
(0.019265661 -0.012209508 0)
(0.012378411 -0.011926802 0)
(0.0057913262 -0.0090278863 0)
(-0.00016866855 -0.0034175707 0)
(0.041500303 -0.01610293 0)
(0.041827485 -0.01284886 0)
(0.040376521 -0.008664956 0)
(0.038863774 -0.0056133319 0)
(0.037524836 -0.0035615037 0)
(0.036520368 -0.0022072099 0)
(0.035813048 -0.0013880041 0)
(0.035293596 -0.00091912607 0)
(0.034904626 -0.00066440636 0)
(0.034584203 -0.00054001671 0)
(0.034295085 -0.00050615575 0)
(0.033994224 -0.00054776131 0)
(0.033643387 -0.00066480554 0)
(0.033196196 -0.00086758694 0)
(0.032600167 -0.001174944 0)
(0.031778477 -0.0016171341 0)
(0.030644114 -0.0022367619 0)
(0.029061535 -0.0030883708 0)
(0.026855291 -0.0042217601 0)
(0.023808527 -0.00559419 0)
(0.019722816 -0.0069498118 0)
(0.014639557 -0.0077641409 0)
(0.0089387582 -0.0072946617 0)
(0.0039873994 -0.0050933812 0)
(-0.000204311 -0.0016667339 0)
(0.039856256 -0.018056809 0)
(0.03848079 -0.011459482 0)
(0.034423758 -0.0069790262 0)
(0.031879486 -0.0041598322 0)
(0.029999495 -0.0024807372 0)
(0.028743541 -0.0014648607 0)
(0.027946375 -0.00087952427 0)
(0.027409328 -0.00055709317 0)
(0.02702911 -0.00038942003 0)
(0.026730962 -0.00030899599 0)
(0.026468073 -0.0002853742 0)
(0.026201365 -0.00030646524 0)
(0.025892133 -0.00037063597 0)
(0.025502024 -0.00048447961 0)
(0.024981576 -0.0006564182 0)
(0.024269618 -0.00090403997 0)
(0.023288003 -0.0012505093 0)
(0.021929039 -0.0017240469 0)
(0.020054379 -0.0023478307 0)
(0.017505755 -0.0030872947 0)
(0.014183228 -0.0037875284 0)
(0.010176801 -0.0041450562 0)
(0.0058668751 -0.0037415191 0)
(0.0024233533 -0.0023326973 0)
(-0.00021011972 -0.00052881918 0)
(0.03463981 -0.01635848 0)
(0.031785159 -0.0077049236 0)
(0.024862836 -0.004315842 0)
(0.022041904 -0.0023137295 0)
(0.020058492 -0.0013040249 0)
(0.018889409 -0.00073079061 0)
(0.018195034 -0.00041830088 0)
(0.017765866 -0.00025276945 0)
(0.017477699 -0.00016970268 0)
(0.017260712 -0.0001307128 0)
(0.017074004 -0.00011876649 0)
(0.016887236 -0.00012619582 0)
(0.016672594 -0.00015247125 0)
(0.016401345 -0.00019981715 0)
(0.01603899 -0.00027111544 0)
(0.01554278 -0.00037411567 0)
(0.014857248 -0.00051730355 0)
(0.013908658 -0.00071248599 0)
(0.012602656 -0.00096878652 0)
(0.010836618 -0.0012691007 0)
(0.0085568939 -0.0015435798 0)
(0.0058785871 -0.0016503792 0)
(0.0030813534 -0.0014194584 0)
(0.001045612 -0.0007196027 0)
(-0.00022379214 9.5200218e-006 0)
(0.020557455 -0.012040723 0)
(0.017430509 -0.002311448 0)
(0.0106795 -0.00038590154 0)
(0.0092739035 -0.00015987823 0)
(0.0079151181 -5.2995667e-005 0)
(0.0072689521 -1.9986664e-005 0)
(0.0068913215 -5.7705111e-006 0)
(0.0066772503 1.3143334e-006 0)
(0.0065429131 4.2909943e-006 0)
(0.00644807 5.3114516e-006 0)
(0.0063695083 5.6967653e-006 0)
(0.0062923884 6.1812473e-006 0)
(0.0062044047 7.1074728e-006 0)
(0.0060924877 8.4511849e-006 0)
(0.0059421622 1.0669156e-005 0)
(0.0057353601 1.3681416e-005 0)
(0.005448712 1.7759697e-005 0)
(0.00505205 2.3324402e-005 0)
(0.0045060212 3.032887e-005 0)
(0.0037714173 3.9636606e-005 0)
(0.0028288644 4.9600719e-005 0)
(0.0017529277 6.7437671e-005 0)
(0.00065939381 7.565044e-005 0)
(-2.7558592e-006 0.00012093921 0)
(-0.00018984001 0.00013357371 0)
)
;

boundaryField
{
    inlet
    {
        type            fixedValue;
        value           uniform (0.03876 0 0);
    }
    walls
    {
        type            fixedValue;
        value           uniform (0 0 0);
    }
    outlet
    {
        type            zeroGradient;
    }
    centreline
    {
        type            symmetryPlane;
    }
    frontAndBack
    {
        type            empty;
    }
}


// ************************************************************************* //
