# vtk DataFile Version 2.0
track0
ASCII
DATASET POLYDATA
POINTS 11925 float
-0.0205 0.001 1e-005
-0.0203851 0.00100536 1.50241e-005
-0.0202701 0.00101047 1.96636e-005
-0.0201551 0.00101536 2.39714e-005
-0.0200401 0.00102 2.79426e-005
-0.0198625 0.00102682 3.35475e-005
-0.0196934 0.00103276 3.80954e-005
-0.0195243 0.0010381 4.16113e-005
-0.0193552 0.00104282 4.41043e-005
-0.019186 0.00104694 4.55837e-005
-0.0190172 0.00105044 4.60579e-005
-0.0187132 0.00105596 4.60579e-005
-0.0184093 0.00106084 4.60579e-005
-0.0181054 0.00106519 4.60579e-005
-0.0178014 0.00106901 4.60579e-005
-0.0174976 0.00107231 4.60579e-005
-0.0172058 0.00107519 4.60579e-005
-0.016914 0.00107798 4.60579e-005
-0.0166222 0.00108071 4.60579e-005
-0.0163305 0.00108337 4.60579e-005
-0.0160387 0.00108596 4.60579e-005
-0.0157586 0.00108835 4.60579e-005
-0.0154784 0.00109067 4.60579e-005
-0.0151983 0.00109291 4.60579e-005
-0.0149182 0.00109507 4.60579e-005
-0.0146381 0.00109715 4.60579e-005
-0.0143692 0.00109902 4.60579e-005
-0.0141002 0.00110079 4.60579e-005
-0.0138313 0.00110249 4.60579e-005
-0.0135624 0.00110411 4.60579e-005
-0.0132934 0.00110566 4.60579e-005
-0.0130353 0.00110707 4.60579e-005
-0.0127771 0.00110842 4.60579e-005
-0.0125189 0.00110973 4.60579e-005
-0.0122607 0.00111101 4.60579e-005
-0.0120025 0.00111224 4.60579e-005
-0.0117547 0.0011134 4.60579e-005
-0.0115068 0.00111453 4.60579e-005
-0.0112589 0.00111564 4.60579e-005
-0.0110111 0.00111674 4.60579e-005
-0.0107632 0.00111782 4.60579e-005
-0.0105252 0.00111883 4.60579e-005
-0.0102873 0.00111983 4.60579e-005
-0.0100493 0.00112082 4.60579e-005
-0.00981133 0.0011218 4.60579e-005
-0.00957337 0.00112276 4.60579e-005
-0.00934491 0.00112368 4.60579e-005
-0.00911645 0.00112458 4.60579e-005
-0.00888799 0.00112547 4.60579e-005
-0.00865954 0.00112635 4.60579e-005
-0.00843108 0.00112723 4.60579e-005
-0.00821175 0.00112806 4.60579e-005
-0.00799242 0.00112888 4.60579e-005
-0.00777309 0.00112969 4.60579e-005
-0.00755376 0.00113051 4.60579e-005
-0.00733443 0.00113131 4.60579e-005
-0.00712387 0.00113208 4.60579e-005
-0.0069133 0.00113285 4.60579e-005
-0.00670273 0.00113361 4.60579e-005
-0.00649216 0.00113436 4.60579e-005
-0.0062816 0.00113512 4.60579e-005
-0.00607944 0.00113584 4.60579e-005
-0.00587729 0.00113656 4.60579e-005
-0.00567514 0.00113728 4.60579e-005
-0.00547298 0.00113799 4.60579e-005
-0.00527083 0.00113871 4.60579e-005
-0.00507675 0.00113939 4.60579e-005
-0.00488267 0.00114008 4.60579e-005
-0.0046886 0.00114076 4.60579e-005
-0.00449452 0.00114144 4.60579e-005
-0.00430044 0.00114212 4.60579e-005
-0.00411412 0.00114278 4.60579e-005
-0.0039278 0.00114343 4.60579e-005
-0.00374147 0.00114408 4.60579e-005
-0.00355515 0.00114473 4.60579e-005
-0.00336883 0.00114539 4.60579e-005
-0.00318995 0.00114602 4.60579e-005
-0.00301107 0.00114665 4.60579e-005
-0.00283219 0.00114728 4.60579e-005
-0.00265331 0.0011479 4.60579e-005
-0.00247443 0.00114854 4.60579e-005
-0.0023027 0.00114915 4.60579e-005
-0.00213097 0.00114976 4.60579e-005
-0.00195924 0.00115037 4.60579e-005
-0.0017875 0.00115098 4.60579e-005
-0.00161577 0.00115159 4.60579e-005
-0.0014509 0.00115219 4.60579e-005
-0.00128603 0.00115279 4.60579e-005
-0.00112116 0.00115338 4.60579e-005
-0.000956289 0.00115398 4.60579e-005
-0.000791418 0.00115458 4.60579e-005
-0.000633135 0.00115518 4.60579e-005
-0.000474851 0.00115577 4.60579e-005
-0.000316567 0.00115636 4.60579e-005
-0.000158284 0.00115696 4.60579e-005
0 0.00115757 4.60579e-005
0.000105677 0.00115798 4.60579e-005
0.000211355 0.00115839 4.60579e-005
0.000317032 0.0011588 4.60579e-005
0.00042271 0.00115922 4.60579e-005
0.000528387 0.00115964 4.60579e-005
0.000634886 0.00116008 4.60579e-005
0.000741385 0.00116051 4.60579e-005
0.000847885 0.00116095 4.60579e-005
0.000954384 0.00116139 4.60579e-005
0.00106088 0.00116184 4.60579e-005
0.00116821 0.00116231 4.60579e-005
0.00127554 0.00116277 4.60579e-005
0.00138286 0.00116323 4.60579e-005
0.00149019 0.0011637 4.60579e-005
0.00159752 0.00116417 4.60579e-005
0.00170568 0.00116465 4.60579e-005
0.00181384 0.00116514 4.60579e-005
0.001922 0.00116562 4.60579e-005
0.00203016 0.0011661 4.60579e-005
0.00213833 0.00116658 4.60579e-005
0.00224733 0.00116708 4.60579e-005
0.00235633 0.00116757 4.60579e-005
0.00246533 0.00116807 4.60579e-005
0.00257434 0.00116857 4.60579e-005
0.00268334 0.00116906 4.60579e-005
0.00279319 0.00116956 4.60579e-005
0.00290304 0.00117006 4.60579e-005
0.00301289 0.00117058 4.60579e-005
0.00312274 0.00117109 4.60579e-005
0.00323259 0.0011716 4.60579e-005
0.00334329 0.0011721 4.60579e-005
0.003454 0.00117262 4.60579e-005
0.0035647 0.00117315 4.60579e-005
0.0036754 0.00117368 4.60579e-005
0.00378611 0.00117421 4.60579e-005
0.00389767 0.00117472 4.60579e-005
0.00400924 0.00117525 4.60579e-005
0.0041208 0.0011758 4.60579e-005
0.00423237 0.00117634 4.60579e-005
0.00434393 0.00117688 4.60579e-005
0.00445636 0.0011774 4.60579e-005
0.00456879 0.00117794 4.60579e-005
0.00468123 0.0011785 4.60579e-005
0.00479366 0.00117905 4.60579e-005
0.00490609 0.0011796 4.60579e-005
0.0050194 0.00118013 4.60579e-005
0.0051327 0.00118068 4.60579e-005
0.00524601 0.00118124 4.60579e-005
0.00535931 0.00118181 4.60579e-005
0.00547262 0.00118237 4.60579e-005
0.00558681 0.00118291 4.60579e-005
0.005701 0.00118347 4.60579e-005
0.00581518 0.00118404 4.60579e-005
0.00592937 0.00118461 4.60579e-005
0.00604356 0.00118517 4.60579e-005
0.00615863 0.00118572 4.60579e-005
0.00627371 0.00118629 4.60579e-005
0.00638878 0.00118686 4.60579e-005
0.00650386 0.00118743 4.60579e-005
0.00661893 0.001188 4.60579e-005
0.0067349 0.00118856 4.60579e-005
0.00685087 0.00118913 4.60579e-005
0.00696684 0.0011897 4.60579e-005
0.00708281 0.00119027 4.60579e-005
0.00719878 0.00119084 4.60579e-005
0.00731565 0.0011914 4.60579e-005
0.00743252 0.00119197 4.60579e-005
0.00754939 0.00119254 4.60579e-005
0.00766626 0.00119311 4.60579e-005
0.00778313 0.00119368 4.60579e-005
0.00790091 0.00119424 4.60579e-005
0.00801869 0.00119481 4.60579e-005
0.00813647 0.00119537 4.60579e-005
0.00825425 0.00119594 4.60579e-005
0.00837203 0.00119651 4.60579e-005
0.00849073 0.00119706 4.60579e-005
0.00860942 0.00119763 4.60579e-005
0.00872812 0.00119819 4.60579e-005
0.00884682 0.00119875 4.60579e-005
0.00896551 0.00119931 4.60579e-005
0.00908513 0.00119987 4.60579e-005
0.00920475 0.00120043 4.60579e-005
0.00932437 0.00120098 4.60579e-005
0.00944398 0.00120154 4.60579e-005
0.0095636 0.00120209 4.60579e-005
0.00968415 0.00120264 4.60579e-005
0.0098047 0.00120319 4.60579e-005
0.00992525 0.00120374 4.60579e-005
0.0100458 0.00120428 4.60579e-005
0.0101663 0.00120482 4.60579e-005
0.0102878 0.00120536 4.60579e-005
0.0104093 0.0012059 4.60579e-005
0.0105308 0.00120644 4.60579e-005
0.0106523 0.00120697 4.60579e-005
0.0107738 0.0012075 4.60579e-005
0.0108962 0.00120803 4.60579e-005
0.0110186 0.00120856 4.60579e-005
0.0111411 0.00120908 4.60579e-005
0.0112635 0.0012096 4.60579e-005
0.0113859 0.00121012 4.60579e-005
0.0115093 0.00121063 4.60579e-005
0.0116327 0.00121114 4.60579e-005
0.0117561 0.00121165 4.60579e-005
0.0118795 0.00121216 4.60579e-005
0.0120028 0.00121266 4.60579e-005
0.0121272 0.00121315 4.60579e-005
0.0122515 0.00121364 4.60579e-005
0.0123759 0.00121413 4.60579e-005
0.0125002 0.00121462 4.60579e-005
0.0126245 0.0012151 4.60579e-005
0.0127498 0.00121557 4.60579e-005
0.0128752 0.00121604 4.60579e-005
0.0130005 0.00121651 4.60579e-005
0.0131258 0.00121698 4.60579e-005
0.0132511 0.00121743 4.60579e-005
0.0133774 0.00121788 4.60579e-005
0.0135036 0.00121833 4.60579e-005
0.0136299 0.00121877 4.60579e-005
0.0137562 0.00121921 4.60579e-005
0.0138825 0.00121964 4.60579e-005
0.0140098 0.00122005 4.60579e-005
0.014137 0.00122048 4.60579e-005
0.0142643 0.00122089 4.60579e-005
0.0143915 0.0012213 4.60579e-005
0.0145188 0.00122169 4.60579e-005
0.0146471 0.00122208 4.60579e-005
0.0147753 0.00122247 4.60579e-005
0.0149036 0.00122285 4.60579e-005
0.0150318 0.00122322 4.60579e-005
0.0151601 0.00122358 4.60579e-005
0.0152893 0.00122393 4.60579e-005
0.0154186 0.00122428 4.60579e-005
0.0155478 0.00122462 4.60579e-005
0.0156771 0.00122495 4.60579e-005
0.0158063 0.00122527 4.60579e-005
0.0159366 0.00122558 4.60579e-005
0.0160668 0.00122589 4.60579e-005
0.0161971 0.00122619 4.60579e-005
0.0163274 0.00122647 4.60579e-005
0.0164576 0.00122675 4.60579e-005
0.0165889 0.00122702 4.60579e-005
0.0167201 0.00122728 4.60579e-005
0.0168514 0.00122753 4.60579e-005
0.0169827 0.00122776 4.60579e-005
0.0171139 0.00122799 4.60579e-005
0.0172182 0.00122816 4.60579e-005
0.0173225 0.00122833 4.60579e-005
0.0174267 0.00122848 4.60579e-005
0.017531 0.00122863 4.60579e-005
0.0176291 0.00122877 4.60579e-005
0.0176583 0.00122881 4.60579e-005
0.0176876 0.00122884 4.60579e-005
0.0177169 0.00122888 4.60579e-005
0.0177461 0.00122892 4.60579e-005
0.0177754 0.00122895 4.60579e-005
0.0179087 0.00122911 4.60579e-005
0.018042 0.00122926 4.60579e-005
0.0181753 0.0012294 4.60579e-005
0.0183087 0.00122952 4.60579e-005
0.018442 0.00122963 4.60579e-005
0.0185763 0.00122972 4.60579e-005
0.0187107 0.00122981 4.60579e-005
0.018845 0.00122988 4.60579e-005
0.0189794 0.00122993 4.60579e-005
0.0191137 0.00122997 4.60579e-005
0.0192491 0.00123 4.60579e-005
0.0193845 0.00123001 4.60579e-005
0.0195199 0.00123001 4.60579e-005
0.0196553 0.00122999 4.60579e-005
0.0197907 0.00122996 4.60579e-005
0.0199272 0.00122991 4.60579e-005
0.0200636 0.00122985 4.60579e-005
0.0202001 0.00122977 4.60579e-005
0.0203365 0.00122968 4.60579e-005
0.020473 0.00122956 4.60579e-005
0.0206105 0.00122944 4.60579e-005
0.020748 0.00122929 4.60579e-005
0.0208855 0.00122913 4.60579e-005
0.021023 0.00122895 4.60579e-005
0.0211606 0.00122876 4.60579e-005
0.0212991 0.00122855 4.60579e-005
0.0214377 0.00122832 4.60579e-005
0.0215763 0.00122807 4.60579e-005
0.0217149 0.00122781 4.60579e-005
0.0218535 0.00122753 4.60579e-005
0.0219931 0.00122723 4.60579e-005
0.0221328 0.00122691 4.60579e-005
0.0222724 0.00122657 4.60579e-005
0.0224121 0.00122622 4.60579e-005
0.0225517 0.00122584 4.60579e-005
0.0226925 0.00122546 4.60579e-005
[...]
POINT_DATA 11925
 FIELD attributes 2
p 1 11925 float
-1401.47 -1388.89 -1375.09 -1361.44 -1347.94 -1327.34 -1312.68 -1297.95 -1283.14 -1268.26 -1247.5 -1199.38 -1151.33 -1103.36 -1055.45 -1012.99 -981.342 -955.879 -930.425 -904.982 -888.167 -876.384 -866.899 -857.417 -847.937 -840.325 -833.558 -825.652 -817.745 -809.838 -800.804 -792.344 -783.698 -775.047 -766.414 -758.009 -750.033 -742.842 -735.743 -728.796 -722.765 -716.989 -711.79 -706.712 -701.79 -697.459 -693.298 -689.36 -685.492 -681.711 -678.177 -674.772 -671.495 -668.27 -665.119 -662.123 -659.225 -656.451 -653.742 -651.116 -648.631 -646.213 -643.906 -641.67 -639.519 -637.489 -635.497 -633.587 -631.741 -629.97 -628.288 -626.619 -625.011 -623.461 -621.979 -620.565 -619.138 -617.758 -616.428 -615.163 -613.953 -612.704 -611.497 -610.344 -609.262 -608.232 -607.136 -606.063 -605.027 -604.063 -603.147 -602.149 -601.206 -600.357 -599.637 -598.985 -598.264 -597.605 -597.057 -596.642 -596.307 -595.783 -595.314 -594.925 -594.647 -594.453 -594.02 -593.719 -593.57 -593.57 -593.711 -593.629 -593.617 -593.668 -593.78 -593.964 -594.183 -594.319 -594.395 -594.423 -594.381 -594.748 -594.935 -595.016 -594.994 -594.779 -595.245 -595.482 -595.612 -595.624 -595.354 -595.877 -596.126 -596.274 -596.314 -596.015 -596.511 -596.72 -596.852 -596.903 -596.611 -597.038 -597.213 -597.339 -597.417 -597.19 -597.55 -597.714 -597.853 -597.968 -597.839 -598.138 -598.299 -598.449 -598.593 -598.559 -598.798 -598.953 -599.107 -599.261 -599.311 -599.498 -599.654 -599.81 -599.966 -600.087 -600.246 -600.411 -600.576 -600.741 -600.916 -601.072 -601.252 -601.431 -601.611 -601.822 -601.992 -602.187 -602.383 -602.578 -602.806 -603.002 -603.209 -603.417 -603.624 -603.853 -604.079 -604.297 -604.515 -604.733 -604.955 -605.213 -605.442 -605.671 -605.901 -606.113 -606.402 -606.645 -606.887 -607.13 -607.335 -607.653 -607.909 -608.165 -608.421 -608.624 -608.962 -609.23 -609.497 -609.765 -609.97 -610.319 -610.595 -610.871 -611.147 -611.358 -611.707 -611.987 -612.268 -612.548 -612.768 -613.114 -613.402 -613.69 -613.978 -614.216 -614.563 -614.865 -615.166 -615.468 -615.732 -616.076 -616.39 -616.703 -617.017 -617.308 -617.642 -617.962 -618.281 -618.6 -618.911 -619.167 -619.419 -619.671 -619.922 -620.159 -620.23 -620.301 -620.371 -620.442 -620.521 -620.833 -621.152 -621.472 -621.791 -622.154 -622.438 -622.758 -623.077 -623.396 -623.787 -624.051 -624.369 -624.688 -625.006 -625.412 -625.665 -625.981 -626.297 -626.612 -627.02 -627.271 -627.583 -627.894 -628.206 -628.603 -628.86 -629.166 -629.472 -629.778 -630.152 -630.424 -630.723 -631.022 -631.321 -631.662 -631.953 -632.244 -632.535 -632.826 -633.125 -633.44 -633.721 -634.002 -634.284 -634.536 -634.873 -635.144 -635.416 -635.687 -635.89 -636.246 -636.509 -636.769 -637.02 -637.184 -637.543 -637.808 -638.058 -638.282 -638.416 -638.771 -639.043 -639.281 -639.476 -639.59 -639.937 -640.214 -640.44 -640.602 -640.696 -641.03 -641.31 -641.518 -641.644 -641.72 -642.031 -642.308 -642.498 -642.59 -642.652 -642.932 -643.199 -643.372 -643.437 -643.49 -643.735 -643.98 -644.131 -644.181 -644.23 -644.436 -644.643 -644.772 -644.819 -644.866 -645.032 -645.198 -645.305 -645.349 -645.393 -645.518 -645.644 -645.727 -645.768 -645.809 -645.895 -645.981 -646.04 -646.075 -646.11 -646.157 -646.203 -646.239 -646.267 -646.294 -646.303 -646.312 -646.325 -646.34 -646.356 -646.33 -646.308 -646.297 -646.295 -646.297 -646.238 -646.189 -646.155 -646.132 -646.119 -646.029 -645.958 -645.901 -645.851 -645.821 -645.701 -645.611 -645.528 -645.448 -645.4 -645.25 -645.142 -645.034 -644.926 -644.856 -644.686 -644.554 -644.423 -644.292 -644.195 -644.011 -643.858 -643.707 -643.555 -643.426 -643.234 -643.062 -642.891 -642.72 -642.558 -642.425 -642.3 -642.175 -642.05 -641.93 -641.864 -641.799 -641.733 -641.667 -641.603 -641.394 -641.187 -640.98 -640.774 -640.574 -640.34 -640.115 -639.89 -639.666 -639.454 -639.195 -638.952 -638.709 -638.467 -638.242 -637.96 -637.702 -637.443 -637.186 -636.954 -636.656 -636.382 -636.113 -635.852 -635.611 -635.308 -635.018 -634.741 -634.478 -634.227 -633.918 -633.615 -633.331 -633.068 -632.811 -632.498 -632.185 -631.899 -631.638 -631.377 -631.064 -630.751 -630.463 -630.201 -629.939 -629.627 -629.316 -629.03 -628.77 -628.511 -628.203 -627.896 -627.614 -627.359 -627.104 -626.803 -626.508 -626.234 -625.978 -625.73 -625.435 -625.155 -624.891 -624.638 -624.401 -624.119 -623.86 -623.607 -623.356 -623.132 -622.866 -622.627 -622.388 -622.149 -621.932 -621.688 -621.464 -621.241 -621.018 -620.807 -620.591 -620.385 -620.179 -619.974 -619.771 -619.742 -619.714 -619.685 -619.657 -619.63 -619.47 -619.31 -619.151 -618.992 -618.835 -618.659 -618.488 -618.317 -618.146 -617.98 -617.815 -617.658 -617.501 -617.344 -617.188 -617.034 -616.886 -616.738 -616.59 -616.438 -616.296 -616.151 -616.004 -615.847 -615.683 -615.537 -615.39 -615.234 -615.058 -614.88 -614.734 -614.587 -614.415 -614.212 -614.01 -613.854 -613.7 -613.501 -613.258 -613.015 -612.836 -612.657 -612.414 -612.117 -611.82 -611.601 -611.356 -611.038 -610.676 -610.286 -609.986 -609.614 -609.198 -608.766 -608.265 -607.864 -607.339 -606.814 -606.289 -605.696 -605.14 -604.49 -603.841 -603.193 -602.513 -602.038 -601.52 -601.002 -600.485 -599.997 -599.717 -599.438 -599.158 -598.879 -598.577 -597.641 -596.685 -595.73 -594.775 -593.721 -592.657 -591.496 -590.336 -589.169 -587.818 -586.582 -585.232 -583.84 -582.337 -580.729 -579.252 -577.754 -576.106 -574.223 -572.34 -570.603 -568.868 -566.906 -564.715 -562.524 -560.497 -558.456 -556.135 -553.641 -551.101 -548.741 -546.187 -543.51 -540.822 -537.909 -535.121 -532.059 -528.997 -525.937 -522.814 -521.897 -520.911 -519.926 -518.941 -517.994 -515.531 -513.069 -510.607 -508.147 -505.544 -501.817 -497.945 -494.076 -490.171 -485.967 -481.873 -477.664 -473.322 -468.696 -464 -459.421 -454.845 -449.946 -444.721 -439.492 -434.392 -429.173 -423.682 -418.101 -412.323 -406.637 -400.587 -394.539 -388.493 -382.421 -382.129 -381.821 -381.513 -381.204 -380.898 -374.693 -368.49 -362.292 -356.096 -349.562 -342.77 -335.777 -328.711 -321.353 -313.87 -306.509 -299.151 -291.465 -283.427 -275.372 -267.443 -259.257 -250.945 -242.637 -234.172 -231.842 -229.417 -226.985 -224.553 -222.214 -215.88 -209.549 -203.221 -196.882 -190.282 -181.312 -172.196 -163.002 -153.521 -143.967 -134.521 -125.079 -115.347 -105.509 -95.5417 -89.019 -82.3635 -75.6751 -68.9895 -62.8615 -59.3593 -55.8581 -52.3578 -48.8392 -45.2445 -35.0354 -24.7 -14.3731 -3.91609 6.6516 17.1176 27.5749 38.1624 48.8145 59.5698 65.2031 70.8625 76.5347 82.2045 87.5413 92.6584 97.7733 102.886 108.011 113.177 123.902 134.657 145.429 156.22 167.062 177.815 188.545 199.248 209.942 220.697 221.553 222.405 223.254 224.103 224.946 234.768 244.583 254.389 264.157 273.929 284.465 294.992 305.405 315.775 326.191 330.768 335.307 339.804 344.299 348.648 354.411 360.172 365.93 371.644 377.331 387.405 397.472 407.424 417.246 427.112 433.875 440.571 447.183 453.793 460.153 463.213 466.273 469.331 472.359 475.365 484.845 494.271 503.668 512.863 522.089 530.189 538.201 546.096 553.989 561.636 562.722 563.808 564.894 565.968 567.031 575.807 584.543 593.276 601.857 610.401 618.844 627.22 635.447 643.672 651.883 652.492 653.095 653.687 654.28 654.872 662.317 669.761 677.204 684.554 691.824 699.582 707.339 714.911 722.453 729.937 732.281 734.598 736.881 739.164 741.453 746.493 751.535 756.576 761.554 766.46 773.57 780.68 787.651 794.484 801.308 805.743 810.117 814.429 818.743 823.128 825.423 827.718 830.014 832.273 834.496 840.971 847.384 853.764 859.951 866.122 872.054 877.895 883.642 889.393 895.374 895.532 895.69 895.847 896.003 896.156 901.944 907.726 913.512 919.207 924.799 930.355 935.914 941.307 946.677 951.97 953.965 955.926 957.861 959.796 961.776 965.014 968.253 971.493 974.694 977.834 982.858 987.884 992.798 997.612 1002.41 1006.85 1011.22 1015.55 1019.88 1024.52 1024.76 1025 1025.24 1025.48 1025.71 1030.19 1034.67 1039.15 1043.58 1047.92 1052.22 1056.52 1060.73 1064.85 1068.96 1072.03 1075.05 1078.04 1081.04 1084.25 1085.19 1086.13 1087.07 1088.01 1088.92 1092.78 1096.6 1100.42 1104.2 1107.91 1111.58 1115.25 1118.85 1122.38 1125.89 1129.2 1132.44 1135.67 1138.9 1142.48 1142.56 1142.65 1142.74 1142.82 1142.91 1146.17 1149.42 1152.68 1155.93 1159.1 1162.22 1165.35 1168.41 1171.42 1174.42 1177.36 1180.3 1183.18 1186.06 1188.89 1191.06 1193.18 1195.3 1197.42 1199.74 1200.31 1200.89 1201.46 1202.03 1202.59 1205.21 1207.82 1210.43 1213.04 1215.59 1218.09 1220.57 1223.04 1225.45 1227.86 1230.22 1232.58 1234.89 1237.17 1239.45 1241.67 1243.87 1246.05 1248.22 1250.38 1251.65 1252.89 1254.13 1255.38 1256.72 1257.52 1258.32 1259.12 1259.92 1260.71 1262.68 1264.64 1266.6 1268.56 1270.48 1272.34 1274.2 1276.04 1277.86 1279.67 1281.43 1283.18 1284.91 1286.61 1288.31 1289.97 1291.61 1293.23 1294.84 1296.43 1297.98 1299.51 1301.03 1302.55 1304.05 1305.49 1306.91 1308.33 1309.75 1311.17 1311.34 1311.52 1311.69 1311.86 1312.03 1313.2 1314.37 1315.53 1316.7 1317.85 1319.11 1320.36 1321.61 1322.85 1324.08 1325.25 1326.41 1327.57 1328.71 1329.85 1330.93 1332.01 1333.08 1334.13 1335.18 1336.18 1337.17 1338.15 1339.11 1340.08 1340.99 1341.9 1342.79 1343.67 1344.55 1345.38 1346.2 1347.01 1347.82 1348.61 1349.36 1350.09 1350.82 1351.55 1352.28 1352.94 1353.59 1354.25 1354.9 1355.55 1355.86 1356.16 1356.47 1356.77 1357.09 1357.37 1357.65 1357.92 1358.2 1358.47 1358.99 1359.51 1360.03 1360.55 1361.07 1361.53 1361.99 1362.45 1362.91 1363.37 1363.78 1364.19 1364.6 1365.02 1365.45 1365.84 1366.2 1366.55 1366.91 1367.27 1367.58 1367.9 1368.23 1368.67 1369.12 1369.51 1369.9 1369.97 1369.92 1369.86 1369.69 1369.52 1369.64 1370.19 1370.74 1371.23 1371.73 1371.19 1369.61 1368.04 1366.23 1364.4 1362.53 1360.67 1358.81 1356.76 1354.61 1352.44 1350.28 1348.12 1346.42 1344.68 1342.94 1341.2 1339.14 1338.52 1337.9 1337.27 1336.65 1336.02 1333.29 1330.55 1327.8 1325.05 1322.23 1319.14 1315.95 1312.76 1309.54 1306.22 1302.64 1299.02 1295.33 1291.55 1287.73 1283.64 1279.55 1275.32 1270.96 1266.6 1261.95 1257.3 1252.5 1247.55 1242.6 1237.34 1232.05 1226.6 1221.04 1215.41 1209.46 1203.39 1197.24 1191.06 1184.72 1178.02 1171.09 1164.16 1157.23 1150.16 1142.5 1134.72 1126.94 1119.15 1111.33 1109.05 1106.73 1104.41 1102.1 1099.63 1093.33 1087.02 1080.7 1074.39 1068.01 1058.46 1048.82 1039.17 1029.52 1019.68 1009.17 998.449 987.726 976.996 966.012 954.481 942.619 930.679 918.601 906.272 893.35 880.329 867.176 853.904 840.574 826.618 812.603 797.775 782.117 766.454 750.081 733.705 717.751 702.24 686.729 670.518 654.309 635.052 612.806 590.555 567.342 544.124 525.511 510.939 496.49 481.387 461.254 430.5 393.433 349.865 304.455 280.102 263.281 247.448 254.703 248.038 185.61 122.506 58.7623 21.448 18.3159 15.1912 12.0739 8.96411 0