# vtk DataFile Version 2.0
track0
ASCII
DATASET POLYDATA
POINTS 11930 float
-0.0205 0.001 1e-005
-0.0203851 0.00100536 1.50226e-005
-0.0202702 0.00101048 1.96607e-005
-0.0201552 0.00101536 2.39673e-005
-0.0200402 0.00102001 2.79375e-005
-0.0198628 0.00102682 3.3538e-005
-0.0196936 0.00103277 3.80885e-005
-0.0195245 0.00103811 4.16063e-005
-0.0193553 0.00104284 4.41005e-005
-0.019186 0.00104697 4.55803e-005
-0.0190172 0.00105048 4.60543e-005
-0.0187132 0.00105601 4.60543e-005
-0.0184093 0.0010609 4.60543e-005
-0.0181054 0.00106526 4.60543e-005
-0.0178014 0.00106911 4.60543e-005
-0.0174976 0.00107242 4.60543e-005
-0.0172058 0.00107532 4.60543e-005
-0.016914 0.00107812 4.60543e-005
-0.0166222 0.00108085 4.60543e-005
-0.0163305 0.00108351 4.60543e-005
-0.0160387 0.0010861 4.60543e-005
-0.0157586 0.00108849 4.60543e-005
-0.0154784 0.0010908 4.60543e-005
-0.0151983 0.00109304 4.60543e-005
-0.0149182 0.00109519 4.60543e-005
-0.0146381 0.00109726 4.60543e-005
-0.0143692 0.00109912 4.60543e-005
-0.0141002 0.00110089 4.60543e-005
-0.0138313 0.00110259 4.60543e-005
-0.0135624 0.00110421 4.60543e-005
-0.0132934 0.00110576 4.60543e-005
-0.0130353 0.00110717 4.60543e-005
-0.0127771 0.00110853 4.60543e-005
-0.0125189 0.00110985 4.60543e-005
-0.0122607 0.00111113 4.60543e-005
-0.0120025 0.00111238 4.60543e-005
-0.0117547 0.00111354 4.60543e-005
-0.0115068 0.00111468 4.60543e-005
-0.0112589 0.0011158 4.60543e-005
-0.0110111 0.0011169 4.60543e-005
-0.0107632 0.00111798 4.60543e-005
-0.0105252 0.001119 4.60543e-005
-0.0102873 0.00112001 4.60543e-005
-0.0100493 0.001121 4.60543e-005
-0.00981133 0.00112198 4.60543e-005
-0.00957337 0.00112295 4.60543e-005
-0.00934491 0.00112386 4.60543e-005
-0.00911645 0.00112476 4.60543e-005
-0.00888799 0.00112565 4.60543e-005
-0.00865954 0.00112654 4.60543e-005
-0.00843108 0.00112741 4.60543e-005
-0.00821175 0.00112824 4.60543e-005
-0.00799242 0.00112906 4.60543e-005
-0.00777309 0.00112987 4.60543e-005
-0.00755376 0.00113068 4.60543e-005
-0.00733443 0.00113149 4.60543e-005
-0.00712387 0.00113225 4.60543e-005
-0.0069133 0.00113301 4.60543e-005
-0.00670273 0.00113377 4.60543e-005
-0.00649216 0.00113452 4.60543e-005
-0.0062816 0.00113528 4.60543e-005
-0.00607944 0.001136 4.60543e-005
-0.00587729 0.00113671 4.60543e-005
-0.00567514 0.00113743 4.60543e-005
-0.00547298 0.00113814 4.60543e-005
-0.00527083 0.00113885 4.60543e-005
-0.00507675 0.00113953 4.60543e-005
-0.00488267 0.00114021 4.60543e-005
-0.0046886 0.00114089 4.60543e-005
-0.00449452 0.00114157 4.60543e-005
-0.00430044 0.00114225 4.60543e-005
-0.00411412 0.0011429 4.60543e-005
-0.0039278 0.00114355 4.60543e-005
-0.00374147 0.0011442 4.60543e-005
-0.00355515 0.00114485 4.60543e-005
-0.00336883 0.0011455 4.60543e-005
-0.00318995 0.00114613 4.60543e-005
-0.00301107 0.00114675 4.60543e-005
-0.00283219 0.00114737 4.60543e-005
-0.00265331 0.001148 4.60543e-005
-0.00247443 0.00114863 4.60543e-005
-0.0023027 0.00114924 4.60543e-005
-0.00213097 0.00114984 4.60543e-005
-0.00195924 0.00115044 4.60543e-005
-0.0017875 0.00115105 4.60543e-005
-0.00161577 0.00115166 4.60543e-005
-0.0014509 0.00115226 4.60543e-005
-0.00128603 0.00115285 4.60543e-005
-0.00112116 0.00115343 4.60543e-005
-0.000956289 0.00115403 4.60543e-005
-0.000791418 0.00115463 4.60543e-005
-0.000633135 0.00115521 4.60543e-005
-0.000474851 0.0011558 4.60543e-005
-0.000316567 0.00115638 4.60543e-005
-0.000158284 0.00115697 4.60543e-005
0 0.00115757 4.60543e-005
0.000105677 0.00115797 4.60543e-005
0.000211355 0.00115838 4.60543e-005
0.000317032 0.00115878 4.60543e-005
0.00042271 0.00115919 4.60543e-005
0.000528387 0.0011596 4.60543e-005
0.000634886 0.00116003 4.60543e-005
0.000741385 0.00116045 4.60543e-005
0.000847885 0.00116087 4.60543e-005
0.000954384 0.0011613 4.60543e-005
0.00106088 0.00116174 4.60543e-005
0.00116821 0.00116219 4.60543e-005
0.00127554 0.00116265 4.60543e-005
0.00138286 0.0011631 4.60543e-005
0.00149019 0.00116355 4.60543e-005
0.00159752 0.00116401 4.60543e-005
0.00170568 0.00116449 4.60543e-005
0.00181384 0.00116497 4.60543e-005
0.001922 0.00116544 4.60543e-005
0.00203016 0.00116592 4.60543e-005
0.00213833 0.0011664 4.60543e-005
0.00224733 0.00116689 4.60543e-005
0.00235633 0.00116738 4.60543e-005
0.00246533 0.00116787 4.60543e-005
0.00257434 0.00116836 4.60543e-005
0.00268334 0.00116885 4.60543e-005
0.00279319 0.00116935 4.60543e-005
0.00290304 0.00116985 4.60543e-005
0.00301289 0.00117036 4.60543e-005
0.00312274 0.00117087 4.60543e-005
0.00323259 0.00117137 4.60543e-005
0.00334329 0.00117187 4.60543e-005
0.003454 0.00117239 4.60543e-005
0.0035647 0.00117291 4.60543e-005
0.0036754 0.00117342 4.60543e-005
0.00378611 0.00117394 4.60543e-005
0.00389767 0.00117445 4.60543e-005
0.00400924 0.00117497 4.60543e-005
0.0041208 0.0011755 4.60543e-005
0.00423237 0.00117603 4.60543e-005
0.00434393 0.00117655 4.60543e-005
0.00445636 0.00117706 4.60543e-005
0.00456879 0.0011776 4.60543e-005
0.00468123 0.00117813 4.60543e-005
0.00479366 0.00117867 4.60543e-005
0.00490609 0.0011792 4.60543e-005
0.0050194 0.00117971 4.60543e-005
0.0051327 0.00118025 4.60543e-005
0.00524601 0.00118079 4.60543e-005
0.00535931 0.00118133 4.60543e-005
0.00547262 0.00118187 4.60543e-005
0.00558681 0.00118238 4.60543e-005
0.005701 0.00118292 4.60543e-005
0.00581518 0.00118346 4.60543e-005
0.00592937 0.00118401 4.60543e-005
0.00604356 0.00118455 4.60543e-005
0.00615863 0.00118507 4.60543e-005
0.00627371 0.00118561 4.60543e-005
0.00638878 0.00118615 4.60543e-005
0.00650386 0.00118669 4.60543e-005
0.00661893 0.00118723 4.60543e-005
0.0067349 0.00118775 4.60543e-005
0.00685087 0.00118829 4.60543e-005
0.00696684 0.00118883 4.60543e-005
0.00708281 0.00118937 4.60543e-005
0.00719878 0.00118991 4.60543e-005
0.00731565 0.00119043 4.60543e-005
0.00743252 0.00119097 4.60543e-005
0.00754939 0.0011915 4.60543e-005
0.00766626 0.00119204 4.60543e-005
0.00778313 0.00119257 4.60543e-005
0.00790091 0.00119309 4.60543e-005
0.00801869 0.00119362 4.60543e-005
0.00813647 0.00119415 4.60543e-005
0.00825425 0.00119468 4.60543e-005
0.00837203 0.00119521 4.60543e-005
0.00849073 0.00119572 4.60543e-005
0.00860942 0.00119625 4.60543e-005
0.00872812 0.00119677 4.60543e-005
0.00884682 0.0011973 4.60543e-005
0.00896551 0.00119782 4.60543e-005
0.00908513 0.00119833 4.60543e-005
0.00920475 0.00119885 4.60543e-005
0.00932437 0.00119937 4.60543e-005
0.00944398 0.00119988 4.60543e-005
0.0095636 0.00120039 4.60543e-005
0.00968415 0.0012009 4.60543e-005
0.0098047 0.00120141 4.60543e-005
0.00992525 0.00120192 4.60543e-005
0.0100458 0.00120243 4.60543e-005
0.0101663 0.00120294 4.60543e-005
0.0102878 0.00120344 4.60543e-005
0.0104093 0.00120394 4.60543e-005
0.0105308 0.00120444 4.60543e-005
0.0106523 0.00120494 4.60543e-005
0.0107738 0.00120544 4.60543e-005
0.0108962 0.00120593 4.60543e-005
0.0110186 0.00120643 4.60543e-005
0.0111411 0.00120692 4.60543e-005
0.0112635 0.00120741 4.60543e-005
0.0113859 0.0012079 4.60543e-005
0.0115093 0.00120838 4.60543e-005
0.0116327 0.00120886 4.60543e-005
0.0117561 0.00120935 4.60543e-005
0.0118795 0.00120983 4.60543e-005
0.0120028 0.0012103 4.60543e-005
0.0121272 0.00121078 4.60543e-005
0.0122515 0.00121125 4.60543e-005
0.0123759 0.00121173 4.60543e-005
0.0125002 0.00121219 4.60543e-005
0.0126245 0.00121266 4.60543e-005
0.0127498 0.00121312 4.60543e-005
0.0128752 0.00121358 4.60543e-005
0.0130005 0.00121404 4.60543e-005
0.0131258 0.0012145 4.60543e-005
0.0132511 0.00121495 4.60543e-005
0.0133774 0.0012154 4.60543e-005
0.0135036 0.00121585 4.60543e-005
0.0136299 0.0012163 4.60543e-005
0.0137562 0.00121674 4.60543e-005
0.0138825 0.00121718 4.60543e-005
0.0140098 0.00121761 4.60543e-005
0.014137 0.00121805 4.60543e-005
0.0142643 0.00121848 4.60543e-005
0.0143915 0.0012189 4.60543e-005
0.0145188 0.00121932 4.60543e-005
0.0146471 0.00121974 4.60543e-005
0.0147753 0.00122016 4.60543e-005
0.0149036 0.00122057 4.60543e-005
0.0150318 0.00122098 4.60543e-005
0.0151601 0.00122138 4.60543e-005
0.0152893 0.00122177 4.60543e-005
0.0154186 0.00122217 4.60543e-005
0.0155478 0.00122256 4.60543e-005
0.0156771 0.00122295 4.60543e-005
0.0158063 0.00122333 4.60543e-005
0.0159366 0.00122371 4.60543e-005
0.0160668 0.00122408 4.60543e-005
0.0161971 0.00122445 4.60543e-005
0.0163274 0.00122481 4.60543e-005
0.0164576 0.00122517 4.60543e-005
0.0165889 0.00122552 4.60543e-005
0.0167201 0.00122587 4.60543e-005
0.0168514 0.00122621 4.60543e-005
0.0169827 0.00122655 4.60543e-005
0.0171139 0.00122688 4.60543e-005
0.0172031 0.0012271 4.60543e-005
0.0172923 0.00122732 4.60543e-005
0.0173815 0.00122753 4.60543e-005
0.0174707 0.00122774 4.60543e-005
0.0175573 0.00122795 4.60543e-005
0.0176009 0.00122805 4.60543e-005
0.0176445 0.00122815 4.60543e-005
0.0176881 0.00122825 4.60543e-005
0.0177318 0.00122834 4.60543e-005
0.0177754 0.00122844 4.60543e-005
0.0179087 0.00122874 4.60543e-005
0.018042 0.00122903 4.60543e-005
0.0181753 0.00122931 4.60543e-005
0.0183087 0.00122958 4.60543e-005
0.018442 0.00122985 4.60543e-005
0.0185763 0.00123011 4.60543e-005
0.0187107 0.00123036 4.60543e-005
0.018845 0.00123061 4.60543e-005
0.0189794 0.00123084 4.60543e-005
0.0191137 0.00123107 4.60543e-005
0.0192491 0.00123129 4.60543e-005
0.0193845 0.00123151 4.60543e-005
0.0195199 0.00123172 4.60543e-005
0.0196553 0.00123191 4.60543e-005
0.0197907 0.0012321 4.60543e-005
0.0199272 0.00123228 4.60543e-005
0.0200636 0.00123246 4.60543e-005
0.0202001 0.00123262 4.60543e-005
0.0203365 0.00123278 4.60543e-005
0.020473 0.00123292 4.60543e-005
0.0206105 0.00123306 4.60543e-005
0.020748 0.00123318 4.60543e-005
0.0208855 0.0012333 4.60543e-005
0.021023 0.00123341 4.60543e-005
0.0211606 0.00123351 4.60543e-005
0.0212991 0.0012336 4.60543e-005
0.0214377 0.00123368 4.60543e-005
0.0215763 0.00123375 4.60543e-005
0.0217149 0.00123381 4.60543e-005
0.0218535 0.00123386 4.60543e-005
0.0219931 0.0012339 4.60543e-005
0.0221328 0.00123393 4.60543e-005
0.0222724 0.00123394 4.60543e-005
0.0224121 0.00123395 4.60543e-005
0.0225517 0.00123395 4.60543e-005
0.0226925 0.00123394 4.60543e-005
[...]
POINT_DATA 11930
 FIELD attributes 2
p 1 11930 float
-1547.66 -1535.09 -1521.32 -1507.69 -1494.22 -1473.66 -1459.02 -1444.3 -1429.51 -1414.65 -1393.92 -1345.84 -1297.81 -1249.85 -1201.95 -1159.48 -1127.76 -1102.23 -1076.72 -1051.21 -1034.34 -1022.51 -1012.99 -1003.47 -993.951 -986.306 -979.544 -971.633 -963.721 -955.809 -946.756 -938.311 -929.67 -921.025 -912.397 -903.987 -896.025 -888.844 -881.756 -874.823 -868.799 -863.038 -857.853 -852.792 -847.886 -843.569 -839.421 -835.498 -831.644 -827.879 -824.359 -820.965 -817.7 -814.489 -811.351 -808.369 -805.481 -802.718 -800.021 -797.407 -794.936 -792.527 -790.23 -788.006 -785.867 -783.85 -781.867 -779.967 -778.132 -776.373 -774.704 -773.043 -771.444 -769.905 -768.434 -767.033 -765.614 -764.242 -762.924 -761.672 -760.476 -759.237 -758.042 -756.901 -755.833 -754.818 -753.732 -752.675 -751.663 -750.726 -749.836 -748.855 -747.924 -747.081 -746.359 -745.701 -744.961 -744.284 -743.72 -743.296 -742.956 -742.436 -741.959 -741.541 -741.22 -740.974 -740.54 -740.211 -740.002 -739.913 -739.939 -739.779 -739.704 -739.707 -739.776 -739.925 -740.029 -740.123 -740.208 -740.286 -740.352 -740.628 -740.801 -740.914 -740.968 -740.909 -741.306 -741.53 -741.674 -741.732 -741.584 -742.062 -742.312 -742.481 -742.561 -742.358 -742.862 -743.094 -743.254 -743.338 -743.09 -743.552 -743.729 -743.852 -743.923 -743.655 -744.04 -744.168 -744.265 -744.336 -744.1 -744.407 -744.508 -744.596 -744.676 -744.506 -744.738 -744.814 -744.89 -744.965 -744.864 -745.017 -745.074 -745.131 -745.189 -745.149 -745.24 -745.288 -745.337 -745.386 -745.399 -745.458 -745.511 -745.563 -745.616 -745.672 -745.719 -745.777 -745.835 -745.894 -745.976 -746.023 -746.086 -746.149 -746.213 -746.306 -746.365 -746.435 -746.504 -746.573 -746.668 -746.747 -746.825 -746.903 -746.981 -747.073 -747.178 -747.268 -747.359 -747.449 -747.537 -747.67 -747.774 -747.878 -747.982 -748.069 -748.226 -748.343 -748.46 -748.577 -748.666 -748.841 -748.971 -749.1 -749.229 -749.323 -749.512 -749.654 -749.795 -749.937 -750.041 -750.24 -750.394 -750.549 -750.703 -750.823 -751.028 -751.194 -751.361 -751.528 -751.667 -751.877 -752.058 -752.24 -752.421 -752.585 -752.8 -752.999 -753.197 -753.395 -753.586 -753.736 -753.88 -754.023 -754.167 -754.306 -754.376 -754.446 -754.516 -754.586 -754.668 -754.882 -755.107 -755.332 -755.556 -755.827 -756.023 -756.261 -756.498 -756.735 -757.049 -757.233 -757.483 -757.733 -757.983 -758.334 -758.511 -758.773 -759.034 -759.296 -759.677 -759.853 -760.127 -760.4 -760.674 -761.076 -761.26 -761.545 -761.83 -762.115 -762.528 -762.728 -763.023 -763.319 -763.615 -764.032 -764.253 -764.559 -764.866 -765.172 -765.582 -765.832 -766.148 -766.464 -766.78 -767.176 -767.46 -767.785 -768.11 -768.435 -768.81 -769.132 -769.466 -769.799 -770.133 -770.484 -770.845 -771.186 -771.528 -771.87 -772.193 -772.591 -772.943 -773.293 -773.637 -773.937 -774.364 -774.732 -775.089 -775.43 -775.713 -776.162 -776.549 -776.913 -777.247 -777.519 -777.985 -778.392 -778.763 -779.089 -779.356 -779.834 -780.261 -780.639 -780.959 -781.226 -781.715 -782.163 -782.549 -782.86 -783.13 -783.627 -784.095 -784.487 -784.788 -785.06 -785.56 -786.044 -786.439 -786.729 -787.003 -787.499 -787.992 -788.388 -788.669 -788.95 -789.438 -789.925 -790.317 -790.607 -790.897 -791.373 -791.849 -792.24 -792.541 -792.843 -793.305 -793.768 -794.157 -794.471 -794.785 -795.232 -795.679 -796.066 -796.392 -796.718 -797.15 -797.581 -797.965 -798.302 -798.639 -799.054 -799.47 -799.85 -800.196 -800.543 -800.942 -801.341 -801.718 -802.071 -802.424 -802.808 -803.192 -803.562 -803.92 -804.278 -804.647 -805.015 -805.379 -805.74 -806.099 -806.453 -806.808 -807.165 -807.523 -807.881 -808.221 -808.565 -808.914 -809.265 -809.619 -809.945 -810.279 -810.617 -810.959 -811.306 -811.618 -811.941 -812.268 -812.597 -812.935 -813.232 -813.543 -813.857 -814.172 -814.497 -814.779 -815.077 -815.376 -815.674 -815.983 -816.25 -816.531 -816.812 -817.093 -817.384 -817.633 -817.895 -818.158 -818.42 -818.692 -818.923 -819.166 -819.408 -819.651 -819.9 -820.113 -820.334 -820.555 -820.776 -821.001 -821.195 -821.392 -821.59 -821.788 -821.986 -821.993 -822.001 -822.008 -822.015 -822.023 -822.188 -822.354 -822.519 -822.685 -822.849 -822.996 -823.139 -823.283 -823.427 -823.567 -823.685 -823.797 -823.909 -824.022 -824.128 -824.217 -824.296 -824.375 -824.454 -824.524 -824.582 -824.625 -824.668 -824.712 -824.741 -824.766 -824.771 -824.775 -824.778 -824.766 -824.751 -824.719 -824.683 -824.64 -824.585 -824.529 -824.459 -824.378 -824.287 -824.187 -824.086 -823.976 -823.849 -823.707 -823.558 -823.41 -823.259 -823.084 -822.886 -822.687 -822.489 -822.291 -822.064 -821.812 -821.56 -821.31 -821.06 -820.781 -820.473 -820.166 -819.861 -819.556 -819.222 -818.856 -818.491 -818.128 -817.766 -817.374 -816.949 -816.523 -816.1 -815.675 -815.221 -814.738 -814.249 -813.764 -813.268 -812.749 -812.211 -811.657 -811.106 -810.536 -809.951 -809.355 -808.734 -808.116 -807.467 -806.813 -806.159 -805.468 -804.776 -804.05 -803.325 -802.599 -801.847 -801.072 -800.272 -799.473 -798.674 -797.86 -796.998 -796.122 -795.247 -794.371 -793.493 -793.221 -792.946 -792.671 -792.396 -792.126 -791.45 -790.774 -790.099 -789.423 -788.737 -787.72 -786.692 -785.664 -784.637 -783.581 -782.5 -781.39 -780.28 -779.171 -778.016 -776.869 -775.676 -774.483 -773.283 -772.032 -770.804 -769.54 -768.262 -766.958 -765.621 -764.306 -762.975 -761.61 -760.198 -758.773 -757.37 -755.968 -754.511 -752.996 -751.482 -749.99 -748.498 -746.95 -745.346 -743.741 -742.158 -740.576 -738.935 -737.239 -735.543 -733.868 -732.183 -730.445 -728.671 -726.883 -725.116 -723.314 -721.482 -719.637 -717.755 -715.895 -713.974 -712.048 -710.122 -708.155 -706.181 -704.16 -702.139 -700.118 -698.08 -696.429 -694.758 -693.088 -691.417 -689.832 -689.372 -688.913 -688.454 -687.995 -687.529 -685.336 -683.138 -680.94 -678.743 -676.512 -674.247 -671.954 -669.661 -667.369 -665.013 -662.668 -660.289 -657.902 -655.485 -653.033 -650.593 -648.145 -645.662 -643.12 -640.573 -638.038 -635.504 -632.917 -630.275 -627.633 -625.004 -622.376 -619.688 -616.953 -614.217 -611.494 -608.745 -605.958 -603.156 -600.327 -597.512 -594.636 -591.756 -588.876 -585.968 -583.03 -580.058 -577.086 -574.115 -571.143 -571.078 -571.012 -570.947 -570.881 -570.816 -567.825 -564.835 -561.845 -558.856 -555.842 -552.713 -549.568 -546.425 -543.279 -540.09 -536.88 -533.657 -530.426 -527.168 -523.893 -520.596 -517.301 -513.978 -510.618 -507.258 -503.877 -500.496 -497.08 -493.638 -490.194 -486.73 -483.252 -479.747 -476.236 -472.712 -469.168 -465.585 -462 -458.417 -454.822 -452.221 -449.603 -446.985 -444.367 -441.852 -440.789 -439.727 -438.664 -437.602 -436.532 -432.804 -429.073 -425.342 -421.612 -417.848 -414.06 -410.258 -406.455 -402.635 -398.79 -394.931 -391.072 -387.196 -383.284 -379.371 -375.444 -371.517 -367.561 -363.583 -359.605 -355.611 -351.605 -347.577 -343.545 -339.504 -335.446 -331.356 -327.267 -323.178 -319.085 -317.528 -315.963 -314.398 -312.834 -311.299 -308.712 -306.126 -303.539 -300.953 -298.352 -294.158 -289.958 -285.759 -281.557 -277.324 -273.08 -268.834 -264.583 -260.307 -256.024 -251.73 -247.436 -243.124 -238.796 -234.466 -230.125 -225.777 -221.41 -217.042 -212.669 -208.283 -203.874 -199.466 -195.058 -190.648 -189.28 -187.906 -186.533 -185.16 -183.807 -180.73 -177.653 -174.576 -171.499 -168.409 -163.929 -159.448 -154.967 -150.481 -145.976 -141.464 -136.952 -132.439 -127.907 -123.372 -118.83 -114.289 -109.732 -105.172 -100.61 -96.0395 -91.4606 -86.8772 -82.2942 -77.7115 -74.5766 -71.4365 -68.2967 -65.1572 -62.1124 -60.6311 -59.1499 -57.6687 -56.1876 -54.7028 -50.0815 -45.4617 -40.8425 -36.2227 -31.5887 -26.9498 -22.3132 -17.6797 -13.0373 -8.39194 -3.7409 0.909549 5.56385 10.214 14.8664 19.5251 24.1856 28.8473 33.5086 38.1657 40.9855 43.806 46.6262 49.4463 52.1962 54.0561 55.916 57.7758 59.6355 61.4968 66.1706 70.8393 75.5075 80.1756 84.8466 89.5211 94.194 98.8573 103.519 108.183 112.851 117.518 122.18 126.835 131.488 136.146 140.797 145.447 150.097 154.746 155.495 156.243 156.991 157.739 158.483 162.38 166.276 170.172 174.068 177.96 182.601 187.231 191.858 196.478 201.098 205.718 210.339 214.947 219.541 224.137 228.735 233.324 237.907 242.489 247.064 248.975 250.879 252.783 254.687 256.564 259.229 261.894 264.558 267.223 269.881 274.434 278.973 283.512 288.042 292.567 297.09 301.613 306.118 310.607 315.098 319.587 324.064 328.532 333 337.459 339.313 341.158 343.003 344.848 346.669 349.269 351.869 354.469 357.069 359.658 364.081 368.489 372.896 377.289 381.677 386.059 390.44 394.803 399.146 403.491 407.829 412.149 416.463 420.776 425.086 425.904 426.718 427.531 428.345 429.154 432.624 436.094 439.564 443.033 446.485 450.739 454.986 459.224 463.438 467.654 471.858 476.061 480.239 484.408 488.572 491.757 494.924 498.087 501.251 504.361 505.338 506.316 507.293 508.27 509.242 513.342 517.435 521.528 525.61 529.678 533.731 537.783 541.814 545.823 549.835 553.83 557.805 561.771 565.737 569.699 570.309 570.914 571.519 572.123 572.726 576.048 579.37 582.692 586.009 589.306 593.191 597.074 600.936 604.771 608.608 612.428 616.235 620.022 623.809 627.583 628.805 630.018 631.229 632.44 633.648 636.174 638.701 641.227 643.749 646.253 649.948 653.635 657.307 660.945 664.583 668.203 671.811 675.389 678.967 682.521 683.856 685.182 686.505 687.828 689.157 691.353 693.549 695.745 697.937 700.113 703.595 707.051 710.476 713.811 717.145 720.457 723.807 727.263 730.718 734.232 735.662 736.819 737.892 738.965 740.06 741.867 743.674 745.481 747.177 748.489 750.68 753.391 756.456 761.092 765.832 770.456 774.379 776.791 779.207 781.371 781.485 781.625 781.806 781.987 782.169 784.011 785.854 787.698 790.045 792.723 795.638 798.539 801.308 804.076 806.786 807.272 807.748 808.206 808.664 809.129 811.351 813.572 815.792 817.94 820.04 822.611 825.18 827.652 830.112 832.517 833.101 833.671 834.216 834.761 835.323 837.143 838.96 840.775 842.521 844.22 846.453 848.682 850.751 852.741 854.678 855.339 855.968 856.548 857.128 857.743 858.966 860.186 861.403 862.54 863.613 865.21 866.8 868.192 869.378 870.555 871.202 871.762 872.219 872.674 873.188 873.594 873.997 874.399 874.746 875.028 875.632 876.116 876.501 876.539 876.566 876.459 876.157 875.616 875.068 874.416 874.276 874.09 873.877 873.665 873.444 872.5 871.544 870.577 869.48 868.108 866.277 864.434 862.152 859.463 856.762 853.803 850.47 846.868 843.259 839.457 838.441 837.294 836.124 834.955 833.695 830.191 826.677 823.153 819.582 815.586 809.926 803.945 797.717 790.77 783.698 776.158 768.605 760.497 751.88 743.22 734.039 723.721 713.076 702.429 691.249 686.246 681.235 676.223 671.209 665.47 658.351 651.228 644.101 636.97 629.801 615.933 600.27 584.574 567.994 548.707 528.449 508.856 491.346 477.36 463.508 448.911 434.316 406.9 367.144 327.355 285.772 252.587 236.259 228.043 231.058 233.886 177.945 120.544 62.8476 0