# vtk DataFile Version 2.0
track0
ASCII
DATASET POLYDATA
POINTS 11930 float
-0.0205 0.001 1e-005
-0.020385 0.00100536 1.50249e-005
-0.0202701 0.00101047 1.96652e-005
-0.020155 0.00101535 2.39735e-005
-0.02004 0.00102 2.79451e-005
-0.0198623 0.00102682 3.35532e-005
-0.0196933 0.00103276 3.8099e-005
-0.0195242 0.00103809 4.16133e-005
-0.0193551 0.00104281 4.41053e-005
-0.019186 0.00104692 4.55842e-005
-0.0190172 0.00105042 4.60585e-005
-0.0187132 0.00105593 4.60585e-005
-0.0184093 0.00106079 4.60585e-005
-0.0181054 0.00106513 4.60585e-005
-0.0178014 0.00106894 4.60585e-005
-0.0174976 0.00107223 4.60585e-005
-0.0172058 0.00107509 4.60585e-005
-0.016914 0.00107787 4.60585e-005
-0.0166222 0.00108058 4.60585e-005
-0.0163305 0.00108323 4.60585e-005
-0.0160387 0.00108581 4.60585e-005
-0.0157586 0.00108819 4.60585e-005
-0.0154784 0.0010905 4.60585e-005
-0.0151983 0.00109274 4.60585e-005
-0.0149182 0.00109489 4.60585e-005
-0.0146381 0.00109697 4.60585e-005
-0.0143692 0.00109884 4.60585e-005
-0.0141002 0.00110061 4.60585e-005
-0.0138313 0.00110231 4.60585e-005
-0.0135624 0.00110394 4.60585e-005
-0.0132934 0.00110549 4.60585e-005
-0.0130353 0.0011069 4.60585e-005
-0.0127771 0.00110826 4.60585e-005
-0.0125189 0.00110957 4.60585e-005
-0.0122607 0.00111085 4.60585e-005
-0.0120025 0.0011121 4.60585e-005
-0.0117547 0.00111326 4.60585e-005
-0.0115068 0.00111439 4.60585e-005
-0.0112589 0.0011155 4.60585e-005
-0.0110111 0.0011166 4.60585e-005
-0.0107632 0.00111768 4.60585e-005
-0.0105252 0.00111869 4.60585e-005
-0.0102873 0.00111969 4.60585e-005
-0.0100493 0.00112068 4.60585e-005
-0.00981133 0.00112166 4.60585e-005
-0.00957337 0.00112262 4.60585e-005
-0.00934491 0.00112354 4.60585e-005
-0.00911645 0.00112444 4.60585e-005
-0.00888799 0.00112533 4.60585e-005
-0.00865954 0.00112621 4.60585e-005
-0.00843108 0.00112709 4.60585e-005
-0.00821175 0.00112792 4.60585e-005
-0.00799242 0.00112874 4.60585e-005
-0.00777309 0.00112956 4.60585e-005
-0.00755376 0.00113037 4.60585e-005
-0.00733443 0.00113118 4.60585e-005
-0.00712387 0.00113195 4.60585e-005
-0.0069133 0.00113272 4.60585e-005
-0.00670273 0.00113348 4.60585e-005
-0.00649216 0.00113424 4.60585e-005
-0.0062816 0.001135 4.60585e-005
-0.00607944 0.00113572 4.60585e-005
-0.00587729 0.00113644 4.60585e-005
-0.00567514 0.00113716 4.60585e-005
-0.00547298 0.00113788 4.60585e-005
-0.00527083 0.0011386 4.60585e-005
-0.00507675 0.00113929 4.60585e-005
-0.00488267 0.00113998 4.60585e-005
-0.0046886 0.00114066 4.60585e-005
-0.00449452 0.00114135 4.60585e-005
-0.00430044 0.00114203 4.60585e-005
-0.00411412 0.0011427 4.60585e-005
-0.0039278 0.00114335 4.60585e-005
-0.00374147 0.00114401 4.60585e-005
-0.00355515 0.00114467 4.60585e-005
-0.00336883 0.00114532 4.60585e-005
-0.00318995 0.00114596 4.60585e-005
-0.00301107 0.00114659 4.60585e-005
-0.00283219 0.00114723 4.60585e-005
-0.00265331 0.00114786 4.60585e-005
-0.00247443 0.00114849 4.60585e-005
-0.0023027 0.00114911 4.60585e-005
-0.00213097 0.00114972 4.60585e-005
-0.00195924 0.00115033 4.60585e-005
-0.0017875 0.00115095 4.60585e-005
-0.00161577 0.00115157 4.60585e-005
-0.0014509 0.00115217 4.60585e-005
-0.00128603 0.00115276 4.60585e-005
-0.00112116 0.00115336 4.60585e-005
-0.000956289 0.00115396 4.60585e-005
-0.000791418 0.00115457 4.60585e-005
-0.000633135 0.00115516 4.60585e-005
-0.000474851 0.00115575 4.60585e-005
-0.000316567 0.00115634 4.60585e-005
-0.000158284 0.00115694 4.60585e-005
0 0.00115755 4.60585e-005
0.000105677 0.00115796 4.60585e-005
0.000211355 0.00115837 4.60585e-005
0.000317032 0.00115878 4.60585e-005
0.00042271 0.00115919 4.60585e-005
0.000528387 0.00115961 4.60585e-005
0.000634886 0.00116005 4.60585e-005
0.000741385 0.00116048 4.60585e-005
0.000847885 0.00116091 4.60585e-005
0.000954384 0.00116134 4.60585e-005
0.00106088 0.00116179 4.60585e-005
0.00116821 0.00116225 4.60585e-005
0.00127554 0.00116271 4.60585e-005
0.00138286 0.00116317 4.60585e-005
0.00149019 0.00116363 4.60585e-005
0.00159752 0.0011641 4.60585e-005
0.00170568 0.00116458 4.60585e-005
0.00181384 0.00116506 4.60585e-005
0.001922 0.00116554 4.60585e-005
0.00203016 0.00116602 4.60585e-005
0.00213833 0.00116651 4.60585e-005
0.00224733 0.001167 4.60585e-005
0.00235633 0.00116749 4.60585e-005
0.00246533 0.00116799 4.60585e-005
0.00257434 0.00116848 4.60585e-005
0.00268334 0.00116898 4.60585e-005
0.00279319 0.00116947 4.60585e-005
0.00290304 0.00116998 4.60585e-005
0.00301289 0.00117049 4.60585e-005
0.00312274 0.00117099 4.60585e-005
0.00323259 0.0011715 4.60585e-005
0.00334329 0.001172 4.60585e-005
0.003454 0.00117252 4.60585e-005
0.0035647 0.00117304 4.60585e-005
0.0036754 0.00117356 4.60585e-005
0.00378611 0.00117407 4.60585e-005
0.00389767 0.00117458 4.60585e-005
0.00400924 0.00117511 4.60585e-005
0.0041208 0.00117564 4.60585e-005
0.00423237 0.00117616 4.60585e-005
0.00434393 0.00117669 4.60585e-005
0.00445636 0.0011772 4.60585e-005
0.00456879 0.00117773 4.60585e-005
0.00468123 0.00117827 4.60585e-005
0.00479366 0.00117881 4.60585e-005
0.00490609 0.00117934 4.60585e-005
0.0050194 0.00117985 4.60585e-005
0.0051327 0.00118039 4.60585e-005
0.00524601 0.00118093 4.60585e-005
0.00535931 0.00118147 4.60585e-005
0.00547262 0.00118201 4.60585e-005
0.00558681 0.00118253 4.60585e-005
0.005701 0.00118307 4.60585e-005
0.00581518 0.00118361 4.60585e-005
0.00592937 0.00118416 4.60585e-005
0.00604356 0.0011847 4.60585e-005
0.00615863 0.00118522 4.60585e-005
0.00627371 0.00118576 4.60585e-005
0.00638878 0.0011863 4.60585e-005
0.00650386 0.00118685 4.60585e-005
0.00661893 0.00118739 4.60585e-005
0.0067349 0.00118791 4.60585e-005
0.00685087 0.00118846 4.60585e-005
0.00696684 0.001189 4.60585e-005
0.00708281 0.00118954 4.60585e-005
0.00719878 0.00119008 4.60585e-005
0.00731565 0.0011906 4.60585e-005
0.00743252 0.00119114 4.60585e-005
0.00754939 0.00119168 4.60585e-005
0.00766626 0.00119222 4.60585e-005
0.00778313 0.00119275 4.60585e-005
0.00790091 0.00119327 4.60585e-005
0.00801869 0.00119381 4.60585e-005
0.00813647 0.00119434 4.60585e-005
0.00825425 0.00119487 4.60585e-005
0.00837203 0.0011954 4.60585e-005
0.00849073 0.00119592 4.60585e-005
0.00860942 0.00119645 4.60585e-005
0.00872812 0.00119698 4.60585e-005
0.00884682 0.0011975 4.60585e-005
0.00896551 0.00119803 4.60585e-005
0.00908513 0.00119854 4.60585e-005
0.00920475 0.00119906 4.60585e-005
0.00932437 0.00119958 4.60585e-005
0.00944398 0.0012001 4.60585e-005
0.0095636 0.00120062 4.60585e-005
0.00968415 0.00120113 4.60585e-005
0.0098047 0.00120164 4.60585e-005
0.00992525 0.00120216 4.60585e-005
0.0100458 0.00120267 4.60585e-005
0.0101663 0.00120317 4.60585e-005
0.0102878 0.00120368 4.60585e-005
0.0104093 0.00120418 4.60585e-005
0.0105308 0.00120469 4.60585e-005
0.0106523 0.00120519 4.60585e-005
0.0107738 0.00120569 4.60585e-005
0.0108962 0.00120618 4.60585e-005
0.0110186 0.00120668 4.60585e-005
0.0111411 0.00120717 4.60585e-005
0.0112635 0.00120767 4.60585e-005
0.0113859 0.00120815 4.60585e-005
0.0115093 0.00120864 4.60585e-005
0.0116327 0.00120913 4.60585e-005
0.0117561 0.00120961 4.60585e-005
0.0118795 0.00121009 4.60585e-005
0.0120028 0.00121057 4.60585e-005
0.0121272 0.00121104 4.60585e-005
0.0122515 0.00121152 4.60585e-005
0.0123759 0.00121199 4.60585e-005
0.0125002 0.00121246 4.60585e-005
0.0126245 0.00121293 4.60585e-005
0.0127498 0.00121339 4.60585e-005
0.0128752 0.00121385 4.60585e-005
0.0130005 0.00121431 4.60585e-005
0.0131258 0.00121477 4.60585e-005
0.0132511 0.00121522 4.60585e-005
0.0133774 0.00121567 4.60585e-005
0.0135036 0.00121612 4.60585e-005
0.0136299 0.00121657 4.60585e-005
0.0137562 0.00121701 4.60585e-005
0.0138825 0.00121745 4.60585e-005
0.0140098 0.00121788 4.60585e-005
0.014137 0.00121831 4.60585e-005
0.0142643 0.00121874 4.60585e-005
0.0143915 0.00121917 4.60585e-005
0.0145188 0.00121959 4.60585e-005
0.0146471 0.00122 4.60585e-005
0.0147753 0.00122042 4.60585e-005
0.0149036 0.00122083 4.60585e-005
0.0150318 0.00122124 4.60585e-005
0.0151601 0.00122164 4.60585e-005
0.0152893 0.00122203 4.60585e-005
0.0154186 0.00122243 4.60585e-005
0.0155478 0.00122282 4.60585e-005
0.0156771 0.00122321 4.60585e-005
0.0158063 0.00122359 4.60585e-005
0.0159366 0.00122396 4.60585e-005
0.0160668 0.00122434 4.60585e-005
0.0161971 0.00122471 4.60585e-005
0.0163274 0.00122507 4.60585e-005
0.0164576 0.00122543 4.60585e-005
0.0165889 0.00122578 4.60585e-005
0.0167201 0.00122613 4.60585e-005
0.0168514 0.00122647 4.60585e-005
0.0169827 0.00122681 4.60585e-005
0.0171139 0.00122714 4.60585e-005
0.0172088 0.00122737 4.60585e-005
0.0173037 0.0012276 4.60585e-005
0.0173986 0.00122783 4.60585e-005
0.0174935 0.00122805 4.60585e-005
0.0175854 0.00122827 4.60585e-005
0.0176234 0.00122836 4.60585e-005
0.0176614 0.00122844 4.60585e-005
0.0176994 0.00122853 4.60585e-005
0.0177374 0.00122861 4.60585e-005
0.0177754 0.0012287 4.60585e-005
0.0179087 0.001229 4.60585e-005
0.018042 0.00122928 4.60585e-005
0.0181753 0.00122957 4.60585e-005
0.0183087 0.00122984 4.60585e-005
0.018442 0.00123011 4.60585e-005
0.0185763 0.00123037 4.60585e-005
0.0187107 0.00123062 4.60585e-005
0.018845 0.00123087 4.60585e-005
0.0189794 0.00123111 4.60585e-005
0.0191137 0.00123134 4.60585e-005
0.0192491 0.00123156 4.60585e-005
0.0193845 0.00123178 4.60585e-005
0.0195199 0.00123199 4.60585e-005
0.0196553 0.00123219 4.60585e-005
0.0197907 0.00123238 4.60585e-005
0.0199272 0.00123256 4.60585e-005
0.0200636 0.00123274 4.60585e-005
0.0202001 0.0012329 4.60585e-005
0.0203365 0.00123306 4.60585e-005
0.020473 0.00123321 4.60585e-005
0.0206105 0.00123334 4.60585e-005
0.020748 0.00123347 4.60585e-005
0.0208855 0.00123359 4.60585e-005
0.021023 0.0012337 4.60585e-005
0.0211606 0.00123381 4.60585e-005
0.0212991 0.0012339 4.60585e-005
0.0214377 0.00123398 4.60585e-005
0.0215763 0.00123405 4.60585e-005
0.0217149 0.00123411 4.60585e-005
0.0218535 0.00123416 4.60585e-005
0.0219931 0.0012342 4.60585e-005
0.0221328 0.00123423 4.60585e-005
0.0222724 0.00123425 4.60585e-005
0.0224121 0.00123426 4.60585e-005
0.0225517 0.00123426 4.60585e-005
0.0226925 0.00123425 4.60585e-005
[...]
POINT_DATA 11930
 FIELD attributes 2
p 1 11930 float
-1547.2 -1534.62 -1520.82 -1507.17 -1493.68 -1473.07 -1458.42 -1443.69 -1428.9 -1414.02 -1393.28 -1345.18 -1297.16 -1249.2 -1201.31 -1158.85 -1127.23 -1101.77 -1076.32 -1050.89 -1034.05 -1022.28 -1012.79 -1003.3 -993.824 -986.194 -979.418 -971.506 -963.594 -955.682 -946.643 -938.173 -929.516 -920.855 -912.212 -903.799 -895.803 -888.596 -881.48 -874.517 -868.479 -862.686 -857.47 -852.376 -847.436 -843.094 -838.917 -834.964 -831.079 -827.282 -823.734 -820.317 -817.029 -813.793 -810.629 -807.622 -804.719 -801.941 -799.226 -796.593 -794.102 -791.685 -789.378 -787.142 -784.989 -782.956 -780.97 -779.064 -777.222 -775.453 -773.771 -772.109 -770.509 -768.965 -767.488 -766.078 -764.662 -763.291 -761.972 -760.716 -759.514 -758.28 -757.088 -755.95 -754.882 -753.864 -752.786 -751.736 -750.728 -749.794 -748.905 -747.932 -747.008 -746.173 -745.456 -744.804 -744.078 -743.413 -742.861 -742.445 -742.112 -741.611 -741.151 -740.751 -740.445 -740.211 -739.798 -739.49 -739.301 -739.228 -739.268 -739.126 -739.069 -739.09 -739.173 -739.332 -739.447 -739.55 -739.644 -739.727 -739.794 -740.068 -740.239 -740.349 -740.4 -740.338 -740.724 -740.938 -741.071 -741.119 -740.962 -741.423 -741.658 -741.81 -741.874 -741.659 -742.143 -742.359 -742.502 -742.57 -742.313 -742.758 -742.923 -743.034 -743.093 -742.821 -743.194 -743.316 -743.406 -743.47 -743.236 -743.536 -743.634 -743.72 -743.798 -743.631 -743.859 -743.936 -744.012 -744.088 -743.992 -744.143 -744.203 -744.263 -744.323 -744.288 -744.379 -744.431 -744.483 -744.535 -744.553 -744.612 -744.668 -744.723 -744.778 -744.838 -744.885 -744.945 -745.006 -745.066 -745.15 -745.198 -745.263 -745.327 -745.391 -745.487 -745.546 -745.616 -745.687 -745.757 -745.853 -745.933 -746.011 -746.09 -746.168 -746.261 -746.367 -746.457 -746.548 -746.639 -746.728 -746.861 -746.965 -747.069 -747.173 -747.261 -747.417 -747.534 -747.652 -747.769 -747.857 -748.032 -748.161 -748.291 -748.42 -748.513 -748.702 -748.843 -748.985 -749.126 -749.23 -749.429 -749.583 -749.738 -749.892 -750.011 -750.216 -750.383 -750.55 -750.717 -750.856 -751.067 -751.249 -751.431 -751.613 -751.777 -751.994 -752.193 -752.393 -752.592 -752.784 -752.944 -753.098 -753.252 -753.405 -753.554 -753.616 -753.677 -753.739 -753.8 -753.872 -754.089 -754.316 -754.543 -754.77 -755.041 -755.241 -755.481 -755.722 -755.962 -756.277 -756.466 -756.719 -756.972 -757.226 -757.579 -757.761 -758.026 -758.292 -758.558 -758.941 -759.122 -759.4 -759.677 -759.955 -760.359 -760.548 -760.836 -761.125 -761.414 -761.83 -762.034 -762.333 -762.632 -762.931 -763.35 -763.575 -763.884 -764.193 -764.502 -764.914 -765.167 -765.484 -765.802 -766.12 -766.518 -766.803 -767.129 -767.456 -767.782 -768.159 -768.481 -768.815 -769.15 -769.484 -769.835 -770.196 -770.538 -770.879 -771.221 -771.545 -771.941 -772.293 -772.642 -772.985 -773.285 -773.71 -774.076 -774.432 -774.772 -775.053 -775.501 -775.885 -776.246 -776.579 -776.849 -777.312 -777.715 -778.083 -778.407 -778.672 -779.146 -779.57 -779.946 -780.263 -780.529 -781.014 -781.459 -781.842 -782.151 -782.42 -782.913 -783.377 -783.767 -784.067 -784.337 -784.834 -785.314 -785.707 -785.996 -786.269 -786.762 -787.252 -787.645 -787.926 -788.206 -788.69 -789.175 -789.565 -789.855 -790.144 -790.618 -791.091 -791.481 -791.783 -792.085 -792.545 -793.005 -793.394 -793.709 -794.023 -794.469 -794.915 -795.302 -795.63 -795.957 -796.388 -796.819 -797.203 -797.542 -797.881 -798.296 -798.711 -799.092 -799.44 -799.788 -800.188 -800.588 -800.965 -801.32 -801.675 -802.059 -802.444 -802.815 -803.175 -803.534 -803.904 -804.273 -804.638 -805 -805.361 -805.716 -806.072 -806.431 -806.79 -807.15 -807.491 -807.836 -808.187 -808.54 -808.896 -809.223 -809.558 -809.898 -810.242 -810.591 -810.904 -811.229 -811.558 -811.889 -812.228 -812.527 -812.841 -813.157 -813.473 -813.8 -814.084 -814.384 -814.684 -814.985 -815.295 -815.564 -815.846 -816.129 -816.412 -816.705 -816.956 -817.22 -817.484 -817.749 -818.022 -818.255 -818.499 -818.743 -818.988 -819.239 -819.453 -819.676 -819.898 -820.121 -820.347 -820.542 -820.741 -820.94 -821.14 -821.339 -821.348 -821.358 -821.367 -821.377 -821.386 -821.551 -821.715 -821.88 -822.045 -822.208 -822.355 -822.5 -822.644 -822.789 -822.93 -823.048 -823.161 -823.273 -823.386 -823.493 -823.582 -823.66 -823.739 -823.819 -823.888 -823.945 -823.988 -824.03 -824.073 -824.102 -824.126 -824.129 -824.132 -824.134 -824.12 -824.104 -824.07 -824.032 -823.987 -823.93 -823.871 -823.799 -823.716 -823.623 -823.519 -823.416 -823.303 -823.174 -823.028 -822.876 -822.724 -822.57 -822.391 -822.189 -821.986 -821.785 -821.583 -821.352 -821.095 -820.838 -820.583 -820.328 -820.044 -819.731 -819.418 -819.107 -818.797 -818.457 -818.085 -817.713 -817.344 -816.975 -816.577 -816.144 -815.712 -815.282 -814.85 -814.388 -813.897 -813.402 -812.909 -812.405 -811.879 -811.333 -810.771 -810.213 -809.635 -809.042 -808.439 -807.81 -807.184 -806.528 -805.866 -805.204 -804.506 -803.807 -803.074 -802.341 -801.608 -800.849 -800.067 -799.261 -798.455 -797.649 -796.828 -795.961 -795.079 -794.198 -793.317 -792.433 -792.162 -791.887 -791.613 -791.339 -791.07 -790.389 -789.707 -789.026 -788.345 -787.653 -786.633 -785.601 -784.57 -783.539 -782.481 -781.397 -780.285 -779.174 -778.063 -776.908 -775.76 -774.566 -773.374 -772.174 -770.925 -769.697 -768.436 -767.16 -765.858 -764.525 -763.213 -761.886 -760.525 -759.12 -757.701 -756.303 -754.906 -753.456 -751.95 -750.444 -748.959 -747.475 -745.937 -744.343 -742.749 -741.176 -739.603 -737.974 -736.291 -734.608 -732.946 -731.273 -729.549 -727.789 -726.016 -724.263 -722.476 -720.66 -718.83 -716.965 -715.121 -713.218 -711.309 -709.401 -707.452 -705.495 -703.493 -701.491 -699.489 -697.469 -695.813 -694.135 -692.458 -690.781 -689.19 -688.756 -688.323 -687.89 -687.457 -687.018 -684.844 -682.667 -680.489 -678.313 -676.103 -673.858 -671.586 -669.314 -667.043 -664.708 -662.385 -660.026 -657.659 -655.264 -652.833 -650.414 -647.986 -645.524 -643.003 -640.475 -637.961 -635.447 -632.881 -630.258 -627.635 -625.025 -622.416 -619.748 -617.031 -614.313 -611.608 -608.878 -606.108 -603.322 -600.509 -597.711 -594.851 -591.987 -589.122 -586.228 -583.306 -580.347 -577.389 -574.431 -571.471 -571.287 -571.101 -570.914 -570.728 -570.542 -567.683 -564.825 -561.968 -559.11 -556.229 -553.109 -549.974 -546.84 -543.704 -540.523 -537.321 -534.105 -530.881 -527.63 -524.36 -521.069 -517.779 -514.462 -511.105 -507.747 -504.37 -500.992 -497.579 -494.137 -490.694 -487.231 -483.755 -480.249 -476.736 -473.211 -469.665 -466.08 -462.493 -458.906 -455.307 -452.502 -449.677 -446.853 -444.029 -441.325 -440.46 -439.595 -438.73 -437.865 -436.994 -433.259 -429.521 -425.784 -422.047 -418.277 -414.482 -410.67 -406.859 -403.031 -399.177 -395.309 -391.44 -387.556 -383.633 -379.709 -375.771 -371.834 -367.867 -363.878 -359.887 -355.882 -351.865 -347.825 -343.78 -339.727 -335.657 -331.555 -327.452 -323.35 -319.243 -317.469 -315.685 -313.902 -312.118 -310.374 -307.99 -305.607 -303.225 -300.842 -298.445 -294.237 -290.024 -285.811 -281.597 -277.35 -273.093 -268.832 -264.568 -260.279 -255.983 -251.675 -247.368 -243.044 -238.703 -234.361 -230.007 -225.647 -221.268 -216.887 -212.503 -208.106 -203.686 -199.267 -194.848 -190.427 -188.879 -187.325 -185.771 -184.217 -182.689 -179.782 -176.875 -173.968 -171.061 -168.142 -163.654 -159.165 -154.677 -150.183 -145.672 -141.153 -136.635 -132.117 -127.58 -123.042 -118.495 -113.95 -109.39 -104.828 -100.265 -95.6919 -91.1119 -86.5272 -81.943 -77.3597 -74.0769 -70.7897 -67.5028 -64.2161 -61.0317 -59.697 -58.3622 -57.0276 -55.6929 -54.3555 -49.7371 -45.1205 -40.5044 -35.8882 -31.2592 -26.625 -21.9935 -17.3655 -12.7299 -8.09105 -3.44637 1.19773 5.84428 10.4861 15.1301 19.7806 24.4322 29.0847 33.7367 38.3836 41.3531 44.3228 47.2923 50.2616 53.1544 54.8555 56.5566 58.2576 59.9586 61.6607 66.3226 70.9796 75.6361 80.2923 84.951 89.6132 94.2733 98.924 103.573 108.223 112.878 117.532 122.182 126.822 131.462 136.106 140.744 145.381 150.017 154.652 155.594 156.535 157.476 158.417 159.35 163.041 166.731 170.422 174.112 177.798 182.426 187.043 191.656 196.264 200.871 205.479 210.087 214.683 219.266 223.851 228.437 233.015 237.587 242.159 246.723 248.875 251.021 253.166 255.312 257.422 259.837 262.252 264.667 267.081 269.49 274.033 278.565 283.095 287.619 292.137 296.653 301.168 305.668 310.152 314.638 319.121 323.596 328.061 332.525 336.98 339.115 341.241 343.366 345.491 347.585 349.904 352.223 354.541 356.859 359.169 363.591 367.999 372.406 376.803 381.194 385.578 389.962 394.328 398.676 403.026 407.369 411.698 416.019 420.339 424.655 425.765 426.87 427.974 429.079 430.175 433.363 436.552 439.74 442.927 446.1 450.365 454.622 458.872 463.103 467.332 471.551 475.77 479.965 484.149 488.331 491.806 495.262 498.715 502.169 505.555 506.263 506.972 507.681 508.389 509.093 513.213 517.328 521.442 525.549 529.641 533.718 537.794 541.85 545.886 549.924 553.946 557.952 561.946 565.941 569.93 570.769 571.602 572.435 573.268 574.097 577.221 580.345 583.468 586.588 589.69 593.607 597.521 601.417 605.288 609.159 613.014 616.858 620.681 624.504 628.312 629.71 631.098 632.482 633.867 635.248 637.637 640.026 642.415 644.8 647.168 650.902 654.626 658.338 662.016 665.694 669.354 673.004 676.622 680.241 683.834 685.277 686.711 688.141 689.571 691.007 693.136 695.265 697.394 699.519 701.63 705.153 708.647 712.115 715.493 718.868 722.222 725.611 729.108 732.606 736.161 737.63 738.824 739.931 741.038 742.166 743.978 745.79 747.601 749.3 750.621 752.853 755.604 758.706 763.384 768.163 772.824 776.767 779.214 781.665 783.888 783.993 784.121 784.285 784.449 784.614 786.505 788.397 790.29 792.693 795.426 798.377 801.311 804.114 806.917 809.665 810.114 810.554 810.977 811.4 811.829 814.123 816.415 818.707 820.923 823.091 825.694 828.294 830.793 833.287 835.72 836.256 836.78 837.28 837.781 838.296 840.192 842.085 843.977 845.794 847.564 849.822 852.076 854.158 856.178 858.135 858.748 859.333 859.871 860.409 860.978 862.268 863.554 864.836 866.033 867.163 868.774 870.378 871.784 872.977 874.161 874.777 875.309 875.743 876.176 876.662 877.104 877.544 877.981 878.358 878.664 879.268 879.773 880.138 880.168 880.187 880.071 879.738 879.184 878.624 877.983 877.874 877.73 877.566 877.402 877.232 876.235 875.225 874.203 873.044 871.594 869.738 867.871 865.564 862.843 860.11 857.117 853.719 850.079 846.432 842.621 841.753 840.772 839.774 838.775 837.711 834.002 830.28 826.548 822.765 818.534 812.823 806.825 800.543 793.508 786.379 778.78 771.168 762.976 754.321 745.597 736.349 725.918 715.207 704.493 693.291 688.662 684.026 679.389 674.75 669.496 661.911 654.322 646.728 639.13 631.491 617.644 601.904 586.131 569.391 550.031 529.699 509.949 492.367 478.38 464.451 449.774 435.098 407.621 367.814 327.972 286.336 253.457 237.038 228.372 231.287 234.011 177.411 120.04 62.3753 0