/*--------------------------------*- C++ -*----------------------------------*\
| =========                 |                                                 |
| \\      /  F ield         | OpenFOAM: The Open Source CFD Toolbox           |
|  \\    /   O peration     | Version:  5.x                                   |
|   \\  /    A nd           | Web:      www.OpenFOAM.org                      |
|    \\/     M anipulation  |                                                 |
\*---------------------------------------------------------------------------*/
/*   Windows 32 and 64 bit porting by blueCAPE: http://www.bluecape.com.pt   *\
|  Based on Windows porting (2.0.x v4) by Symscape: http://www.symscape.com   |
\*---------------------------------------------------------------------------*/
FoamFile
{
    version     2.0;
    format      ascii;
    class       volScalarField;
    location    "0.07";
    object      p;
}
// * * * * * * * * * * * * * * * * * * * * * * * * * * * * * * * * * * * * * //

dimensions      [0 2 -2 0 0 0 0];

internalField   nonuniform List<scalar> 
750
(
0.35937823
0.35937675
0.35912705
0.35882507
0.35847259
0.35802604
0.35756257
0.3570451
0.35651197
0.35595438
0.35538297
0.3547986
0.35420492
0.35359773
0.35297103
0.35232743
0.35162835
0.35088071
0.3500183
0.34888611
0.3477606
0.34490806
0.34383434
0.33417613
0.33022038
0.35938262
0.3593871
0.35912893
0.35883221
0.35847448
0.35802995
0.35756419
0.35704706
0.35651306
0.35595533
0.35538375
0.35479929
0.35420553
0.35359852
0.35297253
0.35232918
0.35163195
0.35088735
0.35002438
0.34891242
0.34776048
0.34501856
0.34379013
0.33437531
0.33017624
0.35939439
0.35940218
0.35913777
0.35884264
0.35848106
0.35803622
0.35756832
0.35705054
0.35651548
0.35595724
0.35538535
0.35480073
0.35420703
0.35360056
0.35297572
0.35233389
0.35164019
0.35090073
0.35004522
0.34895306
0.3478112
0.34515024
0.34389578
0.33461707
0.33058506
0.3594149
0.35942005
0.35915479
0.35885598
0.35849234
0.3580449
0.35757486
0.35705558
0.35651919
0.35596011
0.35538768
0.35480287
0.35420935
0.35360371
0.35298042
0.35234111
0.35165263
0.35091979
0.35007901
0.34900653
0.34789967
0.34530611
0.34410514
0.33494193
0.33130777
0.35944337
0.35944217
0.35917865
0.35887304
0.35850763
0.35805628
0.3575836
0.35706225
0.3565241
0.35596389
0.35539072
0.35480567
0.35421243
0.35360783
0.35298651
0.35235052
0.35166887
0.35094424
0.35012378
0.34907557
0.34801839
0.34551013
0.34440202
0.33535506
0.33230525
0.35947923
0.35946972
0.35920864
0.35889433
0.35852664
0.35807051
0.35759444
0.35707053
0.35653018
0.35596856
0.35539448
0.35480909
0.35421618
0.35361278
0.3529939
0.35236185
0.3516884
0.350974
0.35017853
0.34916162
0.34816828
0.34576935
0.34482494
0.33582858
0.33386889
0.35952246
0.35950308
0.3592448
0.35891995
0.35854937
0.35808754
0.35760735
0.35708039
0.35653739
0.35597408
0.3553989
0.35481312
0.35422055
0.3536185
0.35300245
0.35237493
0.35171082
0.35100879
0.35024216
0.34926163
0.34834056
0.3460557
0.34535537
0.33633618
0.3363314
0.35957255
0.35954361
0.35928649
0.35895031
0.35857573
0.35810735
0.35762225
0.35709178
0.35654569
0.35598041
0.35540397
0.35481773
0.35422552
0.353625
0.35301218
0.35238973
0.35173592
0.35104831
0.35031196
0.34937579
0.3485427
0.34638952
0.34604815
0.33716884
0.34002147
0.35962773
0.35959459
0.35933142
0.35898659
0.35860507
0.35813007
0.35763898
0.3571047
0.35655504
0.35598751
0.35540968
0.3548229
0.35423106
0.35363222
0.35302312
0.35240642
0.35176366
0.35109202
0.35038674
0.34950236
0.34878833
0.34682132
0.34699037
0.3386053
0.34448397
0.35968761
0.35965625
0.35937918
0.35902942
0.35863673
0.35815597
0.35765733
0.35711916
0.35656533
0.35599534
0.3554159
0.35482848
0.35423689
0.35363979
0.35303473
0.35242417
0.35179346
0.35113918
0.35046481
0.34964149
0.3490216
0.34735821
0.34786949
0.34061388
0.3493024
0.30663456
0.29612248
0.28012661
0.26818844
0.25542508
0.24304843
0.23055342
0.2180965
0.20562961
0.19316819
0.18070535
0.16824307
0.15578058
0.14331813
0.13085568
0.11839322
0.10593076
0.093468306
0.081005851
0.068543396
0.056080953
0.043618514
0.031156066
0.01869365
0.0062312081
0.30639543
0.29584329
0.28008566
0.26814458
0.25542799
0.24305048
0.23055427
0.21809619
0.20562956
0.19316817
0.18070536
0.16824307
0.15578058
0.14331813
0.13085568
0.11839322
0.10593076
0.093468307
0.08100585
0.068543397
0.056080953
0.043618513
0.031156068
0.01869365
0.006231213
0.30582523
0.29569577
0.27993768
0.26811653
0.25540215
0.24304826
0.23055358
0.21809606
0.20562941
0.19316815
0.18070536
0.16824308
0.15578058
0.14331813
0.13085567
0.11839322
0.10593076
0.093468305
0.081005849
0.0685434
0.056080954
0.043618511
0.031156069
0.018693648
0.0062312187
0.30496706
0.29563383
0.27967577
0.26810741
0.25537108
0.24304138
0.23055172
0.2180959
0.20562917
0.19316814
0.18070535
0.16824309
0.15578058
0.14331813
0.13085568
0.11839322
0.10593076
0.093468301
0.081005849
0.068543402
0.056080953
0.04361851
0.031156071
0.018693643
0.006231222
0.30409863
0.29557519
0.27941813
0.26806939
0.25535128
0.24303533
0.23054905
0.21809572
0.20562892
0.19316814
0.18070534
0.16824309
0.15578058
0.14331813
0.13085568
0.11839322
0.10593076
0.093468303
0.081005852
0.068543401
0.05608095
0.043618509
0.031156076
0.018693638
0.0062312201
0.30330908
0.29552631
0.27923503
0.26798951
0.25533176
0.24303281
0.23054601
0.21809555
0.20562872
0.19316815
0.18070533
0.1682431
0.15578058
0.14331813
0.13085568
0.11839322
0.10593076
0.093468305
0.081005851
0.068543398
0.05608095
0.04361851
0.031156078
0.018693637
0.0062312178
0.30223372
0.29553026
0.27903481
0.26792636
0.25530644
0.24303071
0.23054319
0.21809537
0.20562858
0.19316818
0.18070531
0.1682431
0.15578057
0.14331813
0.13085568
0.11839322
0.10593076
0.093468306
0.08100585
0.068543398
0.056080951
0.043618511
0.031156079
0.018693643
0.0062312192
0.30070871
0.2953332
0.27879894
0.26789538
0.25528797
0.24302975
0.23054131
0.21809523
0.20562849
0.19316823
0.18070531
0.16824311
0.15578057
0.14331814
0.13085568
0.11839322
0.10593076
0.093468307
0.081005851
0.068543398
0.056080951
0.043618512
0.03115608
0.018693656
0.0062312252
0.29822572
0.29495279
0.27863138
0.26788743
0.25528061
0.24303206
0.23054033
0.21809522
0.20562854
0.19316831
0.18070531
0.16824312
0.15578057
0.14331814
0.13085568
0.11839322
0.10593076
0.093468306
0.08100585
0.068543398
0.056080951
0.043618513
0.031156081
0.018693667
0.0062312317
0.2929144
0.2953764
0.27857419
0.26801104
0.25525306
0.24304018
0.23053608
0.21809622
0.20562807
0.19316842
0.18070528
0.16824312
0.15578057
0.14331814
0.13085568
0.11839322
0.10593076
0.093468306
0.08100585
0.068543398
0.056080951
0.043618513
0.031156081
0.018693658
0.0062312226
0.35982403
0.35979029
0.35948882
0.35912482
0.35870572
0.35821365
0.3576972
0.35715075
0.35658763
0.3560121
0.35542886
0.3548399
0.35424861
0.35365484
0.35305779
0.35245947
0.35185395
0.35123857
0.3506218
0.34994663
0.34939866
0.34852902
0.34912991
0.34568235
0.36247057
0.36010434
0.36005573
0.35971101
0.3593031
0.35884509
0.35831902
0.35777436
0.35720816
0.35662911
0.35604243
0.3554523
0.35485989
0.35426859
0.35368028
0.35309508
0.35251611
0.3519461
0.35138366
0.35084743
0.35031268
0.34988343
0.34940644
0.34952796
0.3474291
0.35249126
0.36047129
0.36039481
0.35999221
0.3595195
0.35901207
0.35844215
0.35786347
0.35727291
0.3566753
0.35607522
0.35547657
0.35487964
0.35428713
0.35370301
0.3531285
0.35256727
0.35202799
0.3515137
0.35104902
0.35062924
0.35034567
0.35013026
0.35032093
0.34998066
0.35207055
0.36093759
0.36082801
0.36033166
0.35977263
0.35920029
0.35857842
0.35795997
0.35734124
0.35672285
0.35610816
0.35549913
0.35489618
0.35430201
0.35371957
0.35315223
0.35260525
0.35208946
0.35161358
0.3512014
0.35086539
0.35067615
0.35060855
0.35085526
0.35132462
0.35184491
0.36153226
0.36137268
0.3607277
0.36005588
0.35940179
0.35872033
0.35805813
0.35740863
0.3567682
0.35613806
0.35551789
0.35490783
0.35431034
0.35372671
0.35316203
0.35262383
0.35212273
0.35167181
0.35129357
0.35101138
0.35087527
0.35088996
0.35117875
0.35192128
0.35190672
0.36231984
0.362025
0.36117051
0.36035609
0.35960457
0.35885797
0.35815067
0.35747007
0.35680777
0.35616197
0.35553087
0.3549135
0.35431005
0.35372284
0.35315691
0.35262062
0.35212494
0.35168427
0.35132079
0.35106143
0.35094602
0.3509909
0.35127031
0.35206521
0.35186627
0.363424
0.36272306
0.3616296
0.36064983
0.35979002
0.35897862
0.35822912
0.35751996
0.35683777
0.35617803
0.35553637
0.35491089
0.35430017
0.35370717
0.35313623
0.35259506
0.35209464
0.35165022
0.35128241
0.35101836
0.35089323
0.35092453
0.3511645
0.35193145
0.35168105
0.36522848
0.3633229
0.3620413
0.36089671
0.35993281
0.35906708
0.3582836
0.35755159
0.35685378
0.35618254
0.35553127
0.3548966
0.35427726
0.35367477
0.353093
0.35253889
0.35202195
0.35155735
0.35116398
0.35086749
0.35069999
0.35067996
0.35085186
0.35156175
0.35131628
0.36914143
0.36379023
0.36241487
0.36106993
0.36001903
0.35911456
0.35830814
0.35756068
0.35685157
0.35617013
0.35550866
0.35486199
0.3542286
0.35360824
0.35300417
0.35242159
0.35186843
0.35135682
0.35090484
0.35053638
0.35028184
0.35016367
0.3502223
0.3508368
0.35065111
0.37020037
0.36238404
0.36264912
0.36113838
0.3600707
0.35914671
0.35832775
0.35757341
0.35686076
0.35617754
0.35551547
0.35486946
0.35423732
0.35361941
0.35301833
0.35243946
0.35189201
0.35138649
0.35094079
0.35057788
0.35032665
0.35021114
0.35024038
0.35080841
0.35056052
)
;

boundaryField
{
    inlet
    {
        type            zeroGradient;
    }
    walls
    {
        type            zeroGradient;
    }
    outlet
    {
        type            fixedValue;
        value           uniform 0;
    }
    centreline
    {
        type            symmetryPlane;
    }
    frontAndBack
    {
        type            empty;
    }
}


// ************************************************************************* //
