/*--------------------------------*- C++ -*----------------------------------*\
| =========                 |                                                 |
| \\      /  F ield         | OpenFOAM: The Open Source CFD Toolbox           |
|  \\    /   O peration     | Version:  5.x                                   |
|   \\  /    A nd           | Web:      www.OpenFOAM.org                      |
|    \\/     M anipulation  |                                                 |
\*---------------------------------------------------------------------------*/
/*   Windows 32 and 64 bit porting by blueCAPE: http://www.bluecape.com.pt   *\
|  Based on Windows porting (2.0.x v4) by Symscape: http://www.symscape.com   |
\*---------------------------------------------------------------------------*/
FoamFile
{
    version     2.0;
    format      ascii;
    class       surfaceScalarField;
    location    "0.07";
    object      phi;
}
// * * * * * * * * * * * * * * * * * * * * * * * * * * * * * * * * * * * * * //

dimensions      [0 3 -1 0 0 0 0];

internalField   nonuniform List<scalar> 
1430
(
5.0720144e-006
-7.073408e-008
5.1498676e-006
-7.7853212e-008
5.2194822e-006
-6.9614567e-008
5.2771218e-006
-5.7639619e-008
5.3260169e-006
-4.8895109e-008
5.3688597e-006
-4.2842754e-008
5.4057003e-006
-3.6840657e-008
5.4398022e-006
-3.4101869e-008
5.4730256e-006
-3.3223399e-008
5.508739e-006
-3.5713416e-008
5.5503194e-006
-4.1580332e-008
5.6024989e-006
-5.2179496e-008
5.6711948e-006
-6.8695963e-008
5.7646942e-006
-9.3499362e-008
5.8950184e-006
-1.3032421e-007
6.0792902e-006
-1.8427176e-007
6.3442012e-006
-2.6491109e-007
6.7307344e-006
-3.8653312e-007
7.3001746e-006
-5.6944024e-007
8.1674372e-006
-8.6726257e-007
9.4886603e-006
-1.3212231e-006
1.1680202e-005
-2.1915417e-006
1.5127007e-005
-3.4468052e-006
2.0147829e-005
-5.0208217e-006
-6.1747361e-006
2.6322565e-005
5.0716014e-006
-1.4105514e-007
5.1506187e-006
-1.5687049e-007
5.2197852e-006
-1.3878112e-007
5.2775355e-006
-1.1538986e-007
5.3265234e-006
-9.7883069e-008
5.3691034e-006
-8.5422733e-008
5.4059279e-006
-7.3665093e-008
5.4397844e-006
-6.7958438e-008
5.4728486e-006
-6.6287562e-008
5.5083071e-006
-7.1171862e-008
5.5496074e-006
-8.2880721e-008
5.6013826e-006
-1.0395463e-007
5.669522e-006
-1.3683543e-007
5.7622568e-006
-1.8623413e-007
5.8913687e-006
-2.5943611e-007
6.0739594e-006
-3.6686249e-007
6.336047e-006
-5.2699865e-007
6.7181032e-006
-7.6858932e-007
7.2808156e-006
-1.1321526e-006
8.1328527e-006
-1.7192997e-006
9.4473148e-006
-2.6356852e-006
1.1594728e-005
-4.3389553e-006
1.5035354e-005
-6.8874309e-006
1.9893091e-005
-9.878559e-006
-1.2242236e-005
2.5960591e-005
5.0716742e-006
-2.1144907e-007
5.1512167e-006
-2.3641299e-007
5.2205048e-006
-2.0806918e-007
5.2784924e-006
-1.7337745e-007
5.3273098e-006
-1.4670047e-007
5.3697588e-006
-1.2787167e-007
5.4062845e-006
-1.1019088e-007
5.4398294e-006
-1.0150325e-007
5.4725065e-006
-9.8964744e-008
5.5074986e-006
-1.0616388e-007
5.5482209e-006
-1.2360304e-007
5.5992193e-006
-1.5495307e-007
5.6662646e-006
-2.0388069e-007
5.7574434e-006
-2.7741297e-007
5.884275e-006
-3.8626768e-007
6.0633744e-006
-5.4596187e-007
6.3200451e-006
-7.8366932e-007
6.6934677e-006
-1.1420119e-006
7.2414959e-006
-1.6801808e-006
8.0697369e-006
-2.5475407e-006
9.3505264e-006
-3.9164746e-006
1.1451439e-005
-6.4398678e-006
1.4791867e-005
-1.0227859e-005
1.9453841e-005
-1.4540532e-005
-1.7917018e-005
2.5128624e-005
5.0717487e-006
-2.8191745e-007
5.1519118e-006
-3.1657611e-007
5.2217194e-006
-2.7787671e-007
5.2798704e-006
-2.3152848e-007
5.3285713e-006
-1.9540137e-007
5.370746e-006
-1.7004632e-007
5.4068638e-006
-1.4630872e-007
5.4399251e-006
-1.3456455e-007
5.472035e-006
-1.3107468e-007
5.5063325e-006
-1.4046129e-007
5.5461821e-006
-1.6345265e-007
5.5960204e-006
-2.0479138e-007
5.6614497e-006
-2.6931004e-007
5.7503164e-006
-3.6627962e-007
5.8737411e-006
-5.0969241e-007
6.0476927e-006
-7.1991347e-007
6.2963026e-006
-1.0322792e-006
6.6568496e-006
-1.5025589e-006
7.1833692e-006
-2.2067004e-006
7.9764736e-006
-3.3406451e-006
9.2058545e-006
-5.1458555e-006
1.1229397e-005
-8.46341e-006
1.4409018e-005
-1.3407481e-005
1.877113e-005
-1.8902644e-005
-2.3032798e-005
2.388691e-005
5.0718074e-006
-3.5244457e-007
5.1527473e-006
-3.9751597e-007
5.2233813e-006
-3.4851067e-007
5.281714e-006
-2.8986119e-007
5.3302836e-006
-2.4397104e-007
5.3720696e-006
-2.1183226e-007
5.4076507e-006
-1.818898e-007
5.4400647e-006
-1.669786e-007
5.4714238e-006
-1.624338e-007
5.5048042e-006
-1.738416e-007
5.5434945e-006
-2.0214297e-007
5.5917991e-006
-2.5309605e-007
5.6551081e-006
-3.3261903e-007
5.7409371e-006
-4.521086e-007
5.8598868e-006
-6.2864209e-007
6.027125e-006
-8.8715161e-007
6.2651865e-006
-1.2703407e-006
6.6088125e-006
-1.8461849e-006
7.1073348e-006
-2.7052227e-006
7.8543393e-006
-4.0876496e-006
9.0108844e-006
-6.3024006e-006
1.0917136e-005
-1.0369662e-005
1.3865263e-005
-1.6355609e-005
1.7843136e-005
-2.2880517e-005
-2.7459016e-005
2.2269354e-005
5.0719311e-006
-4.2309534e-007
5.1538096e-006
-4.7939446e-007
5.2254976e-006
-4.2019868e-007
5.2840726e-006
-3.4843622e-007
5.332451e-006
-2.9234941e-007
5.3737457e-006
-2.531269e-007
5.4086527e-006
-2.1679681e-007
5.4402574e-006
-1.9858331e-007
5.4706836e-006
-1.9286004e-007
5.5029289e-006
-2.0608691e-007
5.540185e-006
-2.3939901e-007
5.5865968e-006
-2.995079e-007
5.6472995e-006
-3.933217e-007
5.7294011e-006
-5.3421016e-007
5.8428742e-006
-7.4211525e-007
6.001919e-006
-1.0461964e-006
6.2270894e-006
-1.4955111e-006
6.5500138e-006
-2.1691092e-006
7.0144063e-006
-3.1696152e-006
7.7041209e-006
-4.7773642e-006
8.7644584e-006
-7.362738e-006
1.051093e-005
-1.2116133e-005
1.3154363e-005
-1.8999042e-005
1.6687994e-005
-2.6414148e-005
-3.1150302e-005
2.037928e-005
5.0722731e-006
-4.9408817e-007
5.155207e-006
-5.6232828e-007
5.2281318e-006
-4.9312351e-007
5.2869947e-006
-4.0729906e-007
5.3350975e-006
-3.4045221e-007
5.3757956e-006
-2.9382506e-007
5.4098884e-006
-2.5088954e-007
5.4405194e-006
-2.2921434e-007
5.4698344e-006
-2.2217508e-007
5.5007357e-006
-2.3698817e-007
5.5362929e-006
-2.7495617e-007
5.5804654e-006
-3.4368041e-007
5.638098e-006
-4.5095432e-007
5.7158203e-006
-6.1193243e-007
5.8228758e-006
-8.4917081e-007
5.972306e-006
-1.1956266e-006
6.1824906e-006
-1.7056957e-006
6.4814244e-006
-2.468043e-006
6.9062954e-006
-3.5944862e-006
7.5297157e-006
-5.4007845e-006
8.4734118e-006
-8.3064341e-006
1.002233e-005
-1.3665052e-005
1.2283283e-005
-2.1259995e-005
1.5353227e-005
-2.9484092e-005
-3.4105229e-005
1.8308155e-005
5.072988e-006
-5.6579587e-007
5.1570974e-006
-6.4643765e-007
5.2313435e-006
-5.6736964e-007
5.2905445e-006
-4.6650002e-007
5.3382485e-006
-3.8815625e-007
5.3782465e-006
-3.3382298e-007
5.4113771e-006
-2.8402019e-007
5.4408703e-006
-2.587075e-007
5.4688979e-006
-2.5020275e-007
5.4982559e-006
-2.6634615e-007
5.5318659e-006
-3.0856619e-007
5.5734666e-006
-3.852811e-007
5.6275851e-006
-5.0507279e-007
5.7003166e-006
-6.8466389e-007
5.8000832e-006
-9.4893743e-007
5.9386297e-006
-1.3341731e-006
6.1320597e-006
-1.8991257e-006
6.4043373e-006
-2.7403206e-006
6.7852518e-006
-3.9754007e-006
7.3338177e-006
-5.9493504e-006
8.1407223e-006
-9.1133387e-006
9.4425625e-006
-1.4966892e-005
1.1250685e-005
-2.3068117e-005
1.3864036e-005
-3.2097444e-005
-3.6165482e-005
1.592429e-005
5.0741675e-006
-6.3868301e-007
5.1596777e-006
-7.3194789e-007
5.2351306e-006
-6.4282248e-007
5.2948119e-006
-5.2618134e-007
5.3419049e-006
-4.3524931e-007
5.3811228e-006
-3.7304087e-007
5.4131233e-006
-3.1602068e-007
5.4413203e-006
-2.8690448e-007
5.4678874e-006
-2.7676987e-007
5.4955102e-006
-2.9396895e-007
5.5269462e-006
-3.4000212e-007
5.5656689e-006
-4.2400387e-007
5.6158613e-006
-5.5526521e-007
5.6830527e-006
-7.518552e-007
5.774763e-006
-1.0406477e-006
5.9013367e-006
-1.4607468e-006
6.0765605e-006
-2.0743495e-006
6.3199318e-006
-2.9836918e-006
6.6530778e-006
-4.3085468e-006
7.1201157e-006
-6.4163883e-006
7.7713267e-006
-9.7645497e-006
8.7785723e-006
-1.5974138e-005
1.0083833e-005
-2.4373378e-005
1.2202699e-005
-3.4216309e-005
-3.695356e-005
1.2990777e-005
5.0756334e-006
-7.1303613e-007
5.1631702e-006
-8.1948465e-007
5.2395913e-006
-7.192436e-007
5.2997719e-006
-5.8636186e-007
5.3461626e-006
-4.8164006e-007
5.3843956e-006
-4.1127382e-007
5.4151492e-006
-3.4677434e-007
5.4418596e-006
-3.1361487e-007
5.4668146e-006
-3.0172484e-007
5.4925094e-006
-3.1966374e-007
5.5215581e-006
-3.6905082e-007
5.5571339e-006
-4.5957963e-007
5.6030474e-006
-6.0117871e-007
5.6642305e-006
-8.130383e-007
5.7472214e-006
-1.1236386e-006
5.8609354e-006
-1.5744608e-006
6.0166269e-006
-2.2300411e-006
6.2292084e-006
-3.1962733e-006
6.5128667e-006
-4.5922051e-006
6.8941311e-006
-6.7976526e-006
7.3879779e-006
-1.0258396e-005
8.0674728e-006
-1.6653633e-005
8.8256142e-006
-2.513152e-005
1.0043569e-005
-3.5434264e-005
8.8806701e-006
-3.5790661e-005
3.0340347e-005
-4.0177823e-006
3.2342996e-005
-2.0026486e-006
3.2959598e-005
-6.1660207e-007
3.297814e-005
-1.8542396e-008
3.2886372e-005
9.1768113e-008
3.2839879e-005
4.649296e-008
3.283009e-005
9.7893201e-009
3.2830009e-005
8.0593371e-011
3.2830226e-005
-2.1612124e-010
3.2830051e-005
1.7430017e-010
3.2829927e-005
1.2389449e-010
3.2829896e-005
3.1522852e-011
3.2829895e-005
1.1544103e-012
3.2829896e-005
-9.776641e-013
3.2829896e-005
7.2776775e-014
3.2829896e-005
-1.8898071e-014
3.2829896e-005
-1.5184565e-013
3.2829895e-005
2.4647704e-013
3.2829895e-005
1.869135e-013
3.2829896e-005
-6.707348e-013
3.2829896e-005
-2.6245663e-013
3.2829896e-005
7.7354335e-013
3.2829893e-005
2.258233e-012
3.2829876e-005
1.6856298e-011
1.5972724e-011
2.955384e-005
-7.6110319e-006
3.1353157e-005
-3.8019651e-006
3.1879634e-005
-1.1430786e-006
3.1922946e-005
-6.1854807e-008
3.1850733e-005
1.6398155e-007
3.1814127e-005
8.3098796e-008
3.1805378e-005
1.8538271e-008
3.1805182e-005
2.7640255e-010
3.1805287e-005
-3.2105252e-010
3.1805171e-005
2.9070579e-010
3.180507e-005
2.2490563e-010
3.1805046e-005
5.5143512e-011
3.1805044e-005
2.8265593e-012
3.1805045e-005
-1.9537061e-012
3.1805045e-005
-1.053274e-013
3.1805046e-005
-2.4908273e-013
3.1805046e-005
-3.2139459e-013
3.1805045e-005
5.4322892e-013
3.1805046e-005
1.2116443e-013
3.1805046e-005
-9.3130643e-013
3.1805046e-005
-8.6303671e-014
3.1805045e-005
1.2452799e-012
3.1805044e-005
4.0130946e-012
3.1805031e-005
2.9008199e-011
2.7734254e-011
2.8055768e-005
-1.0538176e-005
2.9379177e-005
-5.1253744e-006
2.976986e-005
-1.5337611e-006
2.9824547e-005
-1.1654246e-007
2.978886e-005
1.9966842e-007
2.9767738e-005
1.0422145e-007
2.9761763e-005
2.4513475e-008
2.9761358e-005
6.809802e-010
2.9761364e-005
-3.2726807e-010
2.9761314e-005
3.4049283e-010
2.9761259e-005
2.800407e-010
2.9761247e-005
6.7750246e-011
2.9761246e-005
3.993735e-012
2.9761246e-005
-2.792676e-012
2.9761247e-005
-4.6684406e-013
2.9761247e-005
-2.6697114e-013
2.9761247e-005
-5.022834e-013
2.9761247e-005
2.0834021e-013
2.9761248e-005
-3.4092958e-013
2.9761247e-005
-4.0819617e-013
2.9761246e-005
7.0904336e-013
2.9761246e-005
1.4310378e-012
2.9761246e-005
4.0702286e-012
2.9761243e-005
3.2171792e-011
3.141483e-011
2.5877898e-005
-1.2529164e-005
2.6562853e-005
-5.8103291e-006
2.6744465e-005
-1.7153732e-006
2.6789031e-005
-1.6110896e-007
2.6791754e-005
1.9694593e-007
2.6789451e-005
1.0652398e-007
2.6787294e-005
2.667058e-008
2.6786904e-005
1.0711417e-009
2.6786843e-005
-2.6646071e-010
2.6786864e-005
3.2004627e-010
2.6786858e-005
2.8536301e-010
2.6786859e-005
6.7056399e-011
2.6786859e-005
3.7344569e-012
2.678686e-005
-3.4319716e-012
2.678686e-005
-8.3238268e-013
2.678686e-005
-7.5295024e-014
2.678686e-005
-7.2886668e-013
2.6786861e-005
-8.5398881e-013
2.6786861e-005
-5.4296579e-013
2.678686e-005
7.3606945e-013
2.678686e-005
1.384355e-012
2.678686e-005
1.3131371e-012
2.6786862e-005
2.4230929e-012
2.678687e-005
2.3944277e-011
2.459176e-011
2.3180726e-005
-1.3440535e-005
2.314515e-005
-5.7747532e-006
2.3062906e-005
-1.6331295e-006
2.3078763e-005
-1.7696599e-007
2.3109479e-005
1.6622979e-007
2.3123233e-005
9.2770437e-008
2.3125034e-005
2.486933e-008
2.3124911e-005
1.1943111e-009
2.3124836e-005
-1.9198491e-010
2.312491e-005
2.4588342e-010
2.3124947e-005
2.4895994e-010
2.312496e-005
5.4350526e-011
2.3124961e-005
2.0991579e-012
2.3124961e-005
-3.7585659e-012
2.3124962e-005
-1.0421337e-012
2.3124962e-005
-1.9253406e-013
2.3124962e-005
-1.0138581e-012
2.3124963e-005
-1.4346508e-012
2.3124962e-005
-8.0249132e-014
2.3124962e-005
1.3960828e-012
2.3124962e-005
1.1937152e-012
2.3124962e-005
9.6665127e-013
2.3124965e-005
7.221026e-014
2.3124982e-005
6.2247738e-012
8.3147038e-012
2.0155457e-005
-1.3216712e-005
1.9413421e-005
-5.0327179e-006
1.9089475e-005
-1.3091833e-006
1.9071453e-005
-1.5894386e-007
1.9113513e-005
1.2416933e-007
1.913634e-005
6.9943569e-008
1.9141394e-005
1.9816121e-008
1.9141644e-005
9.4342849e-010
1.9141586e-005
-1.3388693e-010
1.9141685e-005
1.4727034e-010
1.9141747e-005
1.8657973e-010
1.9141767e-005
3.4427138e-011
1.9141769e-005
8.7240735e-014
1.9141769e-005
-3.7697687e-012
1.9141769e-005
-1.0278737e-012
1.9141769e-005
-4.4158256e-013
1.9141769e-005
-9.6397861e-013
1.9141769e-005
-1.1719875e-012
1.9141769e-005
2.0316531e-013
1.9141769e-005
1.0643698e-012
1.914177e-005
7.2146328e-013
1.914177e-005
6.9425301e-013
1.9141772e-005
-2.2732492e-012
1.9141792e-005
-1.3503732e-011
-1.0164632e-011
1.6888261e-005
-1.1796819e-005
1.5594303e-005
-3.7387597e-006
1.5145035e-005
-8.5991549e-007
1.5094773e-005
-1.08682e-007
1.5136668e-005
8.2274625e-008
1.5162169e-005
4.4443164e-008
1.516897e-005
1.3014395e-008
1.5169458e-005
4.5528508e-010
1.5169411e-005
-8.6395189e-011
1.5169502e-005
5.6280741e-011
1.5169572e-005
1.1657514e-010
1.5169592e-005
1.4372645e-011
1.5169593e-005
-1.2831883e-012
1.5169593e-005
-3.3695062e-012
1.5169593e-005
-8.4312559e-013
1.5169593e-005
-5.0387686e-013
1.5169592e-005
-5.4712708e-013
1.5169592e-005
-6.1429021e-013
1.5169592e-005
8.2171069e-014
1.5169592e-005
4.7115909e-013
1.5169593e-005
4.0323013e-013
1.5169593e-005
4.2323187e-013
1.5169595e-005
-3.7271901e-012
1.5169607e-005
-2.5442237e-011
-2.1576559e-011
1.3258787e-005
-9.131316e-006
1.1734389e-005
-2.2143619e-006
1.1298575e-005
-4.2410118e-007
1.1238283e-005
-4.8390316e-008
1.1275453e-005
4.5104499e-008
1.1298321e-005
2.1575563e-008
1.1304883e-005
6.452683e-009
1.1305312e-005
2.5398578e-011
1.1305264e-005
-3.816164e-011
1.1305323e-005
-2.6794235e-012
1.1305384e-005
5.544718e-011
1.1305398e-005
1.0765669e-012
1.1305398e-005
-1.471273e-012
1.1305397e-005
-2.3607088e-012
1.1305396e-005
-5.1505805e-013
1.1305396e-005
-3.6770351e-013
1.1305396e-005
-1.9265844e-013
1.1305396e-005
-1.8777785e-013
1.1305396e-005
-1.3404526e-014
1.1305396e-005
1.1294601e-013
1.1305396e-005
2.1386002e-013
1.1305397e-005
1.4113687e-013
1.1305396e-005
-3.3549953e-012
1.1305394e-005
-2.3445697e-011
-2.040841e-011
9.0078277e-006
-5.1483669e-006
7.6134409e-006
-8.1997504e-007
7.2985505e-006
-1.0921077e-007
7.2610561e-006
-1.0895912e-008
7.2903029e-006
1.585766e-008
7.306425e-006
5.4534879e-009
7.3109453e-006
1.9324121e-009
7.3110954e-006
-1.2468306e-010
7.3110563e-006
9.0160921e-013
7.3110703e-006
-1.671904e-011
7.3111108e-006
1.4996483e-011
7.3111145e-006
-2.6267454e-012
7.3111137e-006
-7.1683508e-013
7.3111123e-006
-9.742321e-013
7.311112e-006
-1.7942337e-013
7.3111117e-006
-1.5001728e-013
7.3111116e-006
-1.7702562e-014
7.3111114e-006
-1.411742e-014
7.3111114e-006
-3.3266205e-014
7.3111116e-006
-1.2433859e-014
7.3111117e-006
7.0886999e-014
7.3111119e-006
5.7049769e-015
7.31111e-006
-1.4421301e-012
7.3110971e-006
-1.0458409e-011
-9.2485769e-012
3.7323032e-006
2.9123282e-006
2.8031174e-006
2.7922215e-006
2.8080792e-006
2.8135326e-006
2.8154651e-006
2.8153404e-006
2.8153413e-006
2.8153245e-006
2.8153395e-006
2.8153369e-006
2.8153362e-006
2.8153352e-006
2.815335e-006
2.8153349e-006
2.8153348e-006
2.8153348e-006
2.8153348e-006
2.8153348e-006
2.8153349e-006
2.8153349e-006
2.8153335e-006
2.8153231e-006
1.523308e-005
-9.4227473e-007
1.5519738e-005
-1.1061431e-006
1.575098e-005
-9.5048591e-007
1.5931851e-005
-7.6723213e-007
1.6069832e-005
-6.1962149e-007
1.6174724e-005
-5.1616543e-007
1.6259512e-005
-4.3156302e-007
1.6329412e-005
-3.8351462e-007
1.6393623e-005
-3.6593588e-007
1.6457987e-005
-3.8402747e-007
1.6529684e-005
-4.4074754e-007
1.6615972e-005
-5.4586797e-007
1.6726142e-005
-7.1134875e-007
1.6871199e-005
-9.5809542e-007
1.7064519e-005
-1.3169581e-006
1.732376e-005
-1.8337021e-006
1.7667852e-005
-2.5741338e-006
1.81138e-005
-3.6422213e-006
1.8677358e-005
-5.1557624e-006
1.9306209e-005
-7.4265043e-006
1.9961103e-005
-1.091329e-005
2.0084246e-005
-1.6776776e-005
1.9111448e-005
-2.4158722e-005
1.4679988e-005
-3.1002804e-005
-2.1110673e-005
1.525765e-005
-1.1960841e-006
1.5577829e-005
-1.4263215e-006
1.5820854e-005
-1.1935113e-006
1.6000842e-005
-9.472203e-007
1.6127426e-005
-7.4620515e-007
1.6216759e-005
-6.0549887e-007
1.6283679e-005
-4.9848306e-007
1.6335236e-005
-4.3507161e-007
1.6379231e-005
-4.0993036e-007
1.6420689e-005
-4.2548542e-007
1.6464658e-005
-4.8471644e-007
1.6515346e-005
-5.9655655e-007
1.6577847e-005
-7.7384945e-007
1.6657125e-005
-1.0373731e-006
1.6757956e-005
-1.4177892e-006
1.688429e-005
-1.9600359e-006
1.703649e-005
-2.726334e-006
1.7204096e-005
-3.8098273e-006
1.7363195e-005
-5.3148612e-006
1.7406721e-005
-7.4700303e-006
1.7125878e-005
-1.0632447e-005
1.5857003e-005
-1.55079e-005
1.2914674e-005
-2.1216393e-005
6.6804451e-006
-2.4768575e-005
-1.4430228e-005
1.5303589e-005
-1.4958319e-006
1.5663145e-005
-1.7858775e-006
1.5922448e-005
-1.4528146e-006
1.6091809e-005
-1.1165811e-006
1.6199959e-005
-8.5435556e-007
1.6266951e-005
-6.7249067e-007
1.63111e-005
-5.4263156e-007
1.6340231e-005
-4.6420318e-007
1.6360929e-005
-4.3062806e-007
1.6376727e-005
-4.4128386e-007
1.6390292e-005
-4.9828067e-007
1.6402707e-005
-6.0897186e-007
1.6414845e-005
-7.8598751e-007
1.6425759e-005
-1.0482865e-006
1.6432242e-005
-1.4242727e-006
1.6427164e-005
-1.9549576e-006
1.6395994e-005
-2.6951641e-006
1.6307187e-005
-3.7210205e-006
1.6110379e-005
-5.1180535e-006
1.5677771e-005
-7.0374225e-006
1.4764668e-005
-9.7193437e-006
1.2777806e-005
-1.3521038e-005
9.1813478e-006
-1.7619935e-005
3.5202271e-006
-1.9107454e-005
-1.0910001e-005
1.5394057e-005
-1.8860479e-006
1.5818277e-005
-2.2100977e-006
1.6088893e-005
-1.7234309e-006
1.6235898e-005
-1.2635861e-006
1.6313295e-005
-9.31752e-007
1.634981e-005
-7.090053e-007
1.6365513e-005
-5.5833504e-007
1.6368542e-005
-4.6723242e-007
1.6363636e-005
-4.2572177e-007
1.6352301e-005
-4.2994901e-007
1.633464e-005
-4.8061953e-007
1.6308701e-005
-5.8303302e-007
1.627088e-005
-7.4816687e-007
1.6215123e-005
-9.9252935e-007
1.6131788e-005
-1.3409372e-006
1.6004949e-005
-1.8281187e-006
1.5809026e-005
-2.499241e-006
1.5500297e-005
-3.4122912e-006
1.5013999e-005
-4.6317559e-006
1.4228475e-005
-6.2518985e-006
1.2929973e-005
-8.4208415e-006
1.0688184e-005
-1.1279249e-005
7.1581854e-006
-1.4089937e-005
2.4904533e-006
-1.4439722e-005
-8.4195476e-006
1.5609609e-005
-2.4918163e-006
1.6145901e-005
-2.7463893e-006
1.6413098e-005
-1.990628e-006
1.6515193e-005
-1.365681e-006
1.6543425e-005
-9.5998432e-007
1.6538745e-005
-7.0432529e-007
1.6520075e-005
-5.3966473e-007
1.6493823e-005
-4.4098014e-007
1.6461866e-005
-3.9376555e-007
1.6423089e-005
-3.9117149e-007
1.6374832e-005
-4.3236289e-007
1.6311939e-005
-5.2014018e-007
1.6226992e-005
-6.6321889e-007
1.6109666e-005
-8.7520409e-007
1.5944964e-005
-1.1762348e-006
1.5710415e-005
-1.5935699e-006
1.5373154e-005
-2.1619802e-006
1.4883637e-005
-2.9227738e-006
1.4171923e-005
-3.9200419e-006
1.3129556e-005
-5.2095317e-006
1.1586738e-005
-6.8780233e-006
9.2631954e-006
-8.9557062e-006
5.9857005e-006
-1.0812442e-005
2.1696701e-006
-1.0623692e-005
-6.2498775e-006
1.6059923e-005
-3.5478988e-006
1.6720327e-005
-3.4067934e-006
1.693317e-005
-2.2034706e-006
1.6948007e-005
-1.3805181e-006
1.6902063e-005
-9.1403998e-007
1.6843587e-005
-6.4584977e-007
1.678506e-005
-4.8113782e-007
1.672734e-005
-3.8325978e-007
1.6668043e-005
-3.3446879e-007
1.6602894e-005
-3.2602237e-007
1.6525832e-005
-3.5530029e-007
1.6428803e-005
-4.2311153e-007
1.6301391e-005
-5.3580701e-007
1.6129724e-005
-7.035367e-007
1.5894101e-005
-9.4061166e-007
1.5567665e-005
-1.2671349e-006
1.5113591e-005
-1.7079053e-006
1.4480103e-005
-2.2892861e-006
1.3598252e-005
-3.0381913e-006
1.2373747e-005
-3.9850263e-006
1.0674143e-005
-5.1784189e-006
8.3247537e-006
-6.6063174e-006
5.2792943e-006
-7.7669826e-006
2.0051432e-006
-7.3495407e-006
-4.2447343e-006
1.6632832e-005
-5.1768897e-006
1.7204169e-005
-3.9781304e-006
1.7223282e-005
-2.2225832e-006
1.7089737e-005
-1.2469736e-006
1.6945722e-005
-7.7002511e-007
1.6824348e-005
-5.244755e-007
1.6723755e-005
-3.8054434e-007
1.6635466e-005
-2.9497169e-007
1.6551537e-005
-2.5053896e-007
1.6463979e-005
-2.3846442e-007
1.6363413e-005
-2.547344e-007
1.6239712e-005
-2.9941108e-007
1.6079821e-005
-3.7591554e-007
1.5867291e-005
-4.9100691e-007
1.557963e-005
-6.5295054e-007
1.5187663e-005
-8.7516836e-007
1.4652761e-005
-1.173003e-006
1.3924461e-005
-1.5609861e-006
1.293919e-005
-2.0529203e-006
1.1617124e-005
-2.6629601e-006
9.8551531e-006
-3.4164481e-006
7.5395177e-006
-4.2906821e-006
4.6947088e-006
-4.9221737e-006
1.798547e-006
-4.4533788e-006
-2.4461873e-006
1.6617332e-005
-6.7903806e-006
1.645671e-005
-3.8175086e-006
1.6058672e-005
-1.8245447e-006
1.5721874e-005
-9.1017638e-007
1.5474716e-005
-5.2286672e-007
1.529492e-005
-3.4467972e-007
1.5159011e-005
-2.4463528e-007
1.5048297e-005
-1.8425795e-007
1.4949204e-005
-1.5144571e-007
1.4850471e-005
-1.3973153e-007
1.4740817e-005
-1.4508011e-007
1.4608713e-005
-1.6730735e-007
1.4440292e-005
-2.0749419e-007
1.4218399e-005
-2.691145e-007
1.3921573e-005
-3.5612424e-007
1.3521471e-005
-4.7506585e-007
1.2981232e-005
-6.3276417e-007
1.2256952e-005
-8.367068e-007
1.1295243e-005
-1.091211e-006
1.0033039e-005
-1.4007563e-006
8.3927068e-006
-1.7761154e-006
6.2992953e-006
-2.1972705e-006
3.8192312e-006
-2.4421096e-006
1.4192866e-006
-2.0534342e-006
-1.0269008e-006
1.4656795e-005
-6.4433341e-006
1.3062313e-005
-2.2230272e-006
1.2099481e-005
-8.6171244e-007
1.1581913e-005
-3.9260882e-007
1.1274248e-005
-2.1520095e-007
1.1069618e-005
-1.4004981e-007
1.0923418e-005
-9.8435328e-008
1.0811412e-005
-7.2252474e-008
1.0717356e-005
-5.7389513e-008
1.0628744e-005
-5.1118959e-008
1.0535017e-005
-5.1353767e-008
1.042546e-005
-5.7749936e-008
1.0288507e-005
-7.0541233e-008
1.0109935e-005
-9.0542983e-008
9.8728475e-006
-1.1903648e-007
9.555487e-006
-1.5770536e-007
9.1308793e-006
-2.0815642e-007
8.5669451e-006
-2.7277264e-007
7.8270742e-006
-3.5134002e-007
6.8703081e-006
-4.4399026e-007
5.6468438e-006
-5.5265114e-007
4.1158051e-006
-6.6623169e-007
2.3684728e-006
-6.9477731e-007
8.0373537e-007
-4.8869675e-007
-2.2316538e-007
8.5605068e-006
6.3374796e-006
5.4757672e-006
5.0831584e-006
4.8679574e-006
4.7279076e-006
4.6294723e-006
4.5572198e-006
4.4998303e-006
4.4487113e-006
4.3973576e-006
4.3396076e-006
4.2690664e-006
4.1785234e-006
4.0594869e-006
3.9017816e-006
3.6936252e-006
3.4208525e-006
3.0695125e-006
2.6255223e-006
2.0728711e-006
1.4066394e-006
7.1186213e-007
2.2316538e-007
)
;

boundaryField
{
    inlet
    {
        type            calculated;
        value           nonuniform List<scalar> 
20
(
-5.0012803e-006
-5.0012803e-006
-5.0012803e-006
-5.0012803e-006
-5.0012803e-006
-5.0012803e-006
-5.0012803e-006
-5.0012803e-006
-5.0012803e-006
-5.0012803e-006
-1.5003841e-005
-1.5003841e-005
-1.5003841e-005
-1.5003841e-005
-1.5003841e-005
-1.5003841e-005
-1.5003841e-005
-1.5003841e-005
-1.5003841e-005
-1.5003841e-005
)
;
    }
    walls
    {
        type            calculated;
        value           uniform 0;
    }
    outlet
    {
        type            calculated;
        value           nonuniform List<scalar> 10(3.2829861e-005 3.180502e-005 2.9761239e-005 2.6786877e-005 2.3124999e-005 1.9141811e-005 1.5169618e-005 1.1305393e-005 7.3110859e-006 2.8153138e-006);
    }
    centreline
    {
        type            symmetryPlane;
        value           uniform 0;
    }
    frontAndBack
    {
        type            empty;
        value           nonuniform 0();
    }
}


// ************************************************************************* //
