/*--------------------------------*- C++ -*----------------------------------*\
| =========                 |                                                 |
| \\      /  F ield         | OpenFOAM: The Open Source CFD Toolbox           |
|  \\    /   O peration     | Version:  5.x                                   |
|   \\  /    A nd           | Web:      www.OpenFOAM.org                      |
|    \\/     M anipulation  |                                                 |
\*---------------------------------------------------------------------------*/
/*   Windows 32 and 64 bit porting by blueCAPE: http://www.bluecape.com.pt   *\
|  Based on Windows porting (2.0.x v4) by Symscape: http://www.symscape.com   |
\*---------------------------------------------------------------------------*/
FoamFile
{
    version     2.0;
    format      ascii;
    class       surfaceScalarField;
    location    "0.07";
    object      phi_0;
}
// * * * * * * * * * * * * * * * * * * * * * * * * * * * * * * * * * * * * * //

dimensions      [0 3 -1 0 0 0 0];

internalField   nonuniform List<scalar> 
1430
(
5.0718409e-006
-7.0560602e-008
5.1494373e-006
-7.7596374e-008
5.2187917e-006
-6.935435e-008
5.2762378e-006
-5.7446133e-008
5.3249679e-006
-4.8730073e-008
5.367693e-006
-4.2725123e-008
5.404437e-006
-3.6744036e-008
5.4384707e-006
-3.40337e-008
5.471643e-006
-3.3172234e-008
5.5073211e-006
-3.5678166e-008
5.5488769e-006
-4.1555718e-008
5.6010386e-006
-5.2161779e-008
5.6697199e-006
-6.8681282e-008
5.7632035e-006
-9.3483591e-008
5.8935036e-006
-1.3030009e-007
6.0777354e-006
-1.8423182e-007
6.3425704e-006
-2.6483499e-007
6.7289755e-006
-3.8640511e-007
7.2981959e-006
-5.6922038e-007
8.1650812e-006
-8.6688525e-007
9.485436e-006
-1.3203548e-006
1.1675299e-005
-2.1898628e-006
1.5120128e-005
-3.4448292e-006
2.0139925e-005
-5.0197972e-006
-6.175193e-006
2.6315118e-005
5.0714331e-006
-1.4071338e-007
5.1501856e-006
-1.5634887e-007
5.2190955e-006
-1.382643e-007
5.2766478e-006
-1.1499839e-007
5.3254737e-006
-9.7555962e-008
5.3679342e-006
-8.5185606e-008
5.4046637e-006
-7.3473562e-008
5.4384516e-006
-6.7821567e-008
5.4714654e-006
-6.6186003e-008
5.5068886e-006
-7.1101379e-008
5.5481647e-006
-8.2831856e-008
5.5999224e-006
-1.0391943e-007
5.6680475e-006
-1.3680643e-007
5.7607669e-006
-1.8620298e-007
5.8898556e-006
-2.5938879e-007
6.0724069e-006
-3.667831e-007
6.3344217e-006
-5.2684973e-007
6.7163538e-006
-7.6833724e-007
7.2788551e-006
-1.1317217e-006
8.1305094e-006
-1.7185396e-006
9.4441082e-006
-2.6339536e-006
1.1589905e-005
-4.3356597e-006
1.5028859e-005
-6.8837834e-006
1.9886333e-005
-9.8772708e-006
-1.2244879e-005
2.5956019e-005
5.0715066e-006
-2.1093961e-007
5.150785e-006
-2.3562731e-007
5.2198113e-006
-2.0729061e-007
5.2776012e-006
-1.727883e-007
5.3262558e-006
-1.462105e-007
5.3685861e-006
-1.2751597e-007
5.4050175e-006
-1.0990489e-007
5.4384942e-006
-1.0129835e-007
5.4711216e-006
-9.8813338e-008
5.5060789e-006
-1.0605872e-007
5.5467775e-006
-1.2353044e-007
5.597759e-006
-1.5490088e-007
5.6647906e-006
-2.038381e-007
5.7559551e-006
-2.7736743e-007
5.8827647e-006
-3.8619841e-007
6.0618269e-006
-5.4584533e-007
6.3184292e-006
-7.8345194e-007
6.6917375e-006
-1.1416455e-006
7.2395675e-006
-1.6795517e-006
8.0674261e-006
-2.5463982e-006
9.3473613e-006
-3.9138888e-006
1.1446791e-005
-6.4350891e-006
1.4786065e-005
-1.0223057e-005
1.9449065e-005
-1.4540271e-005
-1.7924123e-005
2.5128309e-005
5.0715804e-006
-2.8123969e-007
5.1514784e-006
-3.1552529e-007
5.2210209e-006
-2.768331e-007
5.2789729e-006
-2.3074029e-007
5.3275112e-006
-1.9474878e-007
5.369568e-006
-1.6957278e-007
5.4055923e-006
-1.4592918e-007
5.4385864e-006
-1.342925e-007
5.4706474e-006
-1.3087429e-007
5.5049109e-006
-1.4032223e-007
5.5447376e-006
-1.6335709e-007
5.5945597e-006
-2.04723e-007
5.6599764e-006
-2.6925482e-007
5.74883e-006
-3.6622107e-007
5.8722348e-006
-5.0960316e-007
6.0461525e-006
-7.1976299e-007
6.2947003e-006
-1.0319997e-006
6.6551447e-006
-1.50209e-006
7.1814852e-006
-2.2058922e-006
7.974213e-006
-3.339126e-006
9.2027607e-006
-5.1424364e-006
1.1224993e-005
-8.4573215e-006
1.4404075e-005
-1.340214e-005
1.8768408e-005
-1.8904604e-005
-2.3045784e-005
2.3890069e-005
5.0716352e-006
-3.5159453e-007
5.1523088e-006
-3.9619897e-007
5.2226754e-006
-3.4719966e-007
5.2808075e-006
-2.8887241e-007
5.3292153e-006
-2.4315653e-007
5.3708843e-006
-2.1124178e-007
5.4063731e-006
-1.8141793e-007
5.4387212e-006
-1.6664063e-007
5.4700325e-006
-1.6218556e-007
5.5033799e-006
-1.7366966e-007
5.5420483e-006
-2.0202548e-007
5.5903378e-006
-2.5301252e-007
5.6536354e-006
-3.3255238e-007
5.7394531e-006
-4.520388e-007
5.8583854e-006
-6.285355e-007
6.0255936e-006
-8.8697118e-007
6.2636006e-006
-1.2700067e-006
6.6071369e-006
-1.8456263e-006
7.1055015e-006
-2.7042568e-006
7.8521468e-006
-4.0857713e-006
9.007923e-006
-6.2982125e-006
1.0913117e-005
-1.0362515e-005
1.3861285e-005
-1.6350308e-005
1.7841916e-005
-2.2885234e-005
-2.747755e-005
2.2273682e-005
5.0717507e-006
-4.2206494e-007
5.1533626e-006
-4.7781086e-007
5.2247813e-006
-4.1861834e-007
5.2831547e-006
-3.4724576e-007
5.3313721e-006
-2.9137397e-007
5.372551e-006
-2.5242066e-007
5.4073673e-006
-2.1623421e-007
5.4389076e-006
-1.9818096e-007
5.4692874e-006
-1.9256538e-007
5.5015011e-006
-2.0588331e-007
5.5387364e-006
-2.3926082e-007
5.5851344e-006
-2.9941052e-007
5.6458271e-006
-3.9324506e-007
5.7279194e-006
-5.3413113e-007
5.8413783e-006
-7.419944e-007
6.0003978e-006
-1.0459906e-006
6.2255221e-006
-1.495131e-006
6.5483694e-006
-2.1684736e-006
7.0126286e-006
-3.168516e-006
7.7020167e-006
-4.7751594e-006
8.7616858e-006
-7.3578816e-006
1.0507402e-005
-1.2108232e-005
1.3151331e-005
-1.8994237e-005
1.6687696e-005
-2.64216e-005
-3.1171978e-005
2.0382125e-005
5.0720811e-006
-4.9286572e-007
5.1547479e-006
-5.6047762e-007
5.227402e-006
-4.9127247e-007
5.2860624e-006
-4.0590618e-007
5.3340055e-006
-3.3931708e-007
5.3745894e-006
-2.9300455e-007
5.4085934e-006
-2.502382e-007
5.439162e-006
-2.2874949e-007
5.4684323e-006
-2.2183571e-007
5.4993034e-006
-2.3675439e-007
5.5348413e-006
-2.7479871e-007
5.5790014e-006
-3.4357068e-007
5.6366257e-006
-4.5086933e-007
5.714341e-006
-6.1184645e-007
5.8213858e-006
-8.490392e-007
5.9707961e-006
-1.1954009e-006
6.1809436e-006
-1.7052786e-006
6.4798139e-006
-2.4673438e-006
6.9045781e-006
-3.5932801e-006
7.5277141e-006
-5.3982954e-006
8.4708564e-006
-8.3010239e-006
1.0019286e-005
-1.3656661e-005
1.2281069e-005
-2.125602e-005
1.5353473e-005
-2.9494003e-005
-3.412738e-005
1.8308874e-005
5.0727816e-006
-5.6436696e-007
5.1566231e-006
-6.4431914e-007
5.2305972e-006
-5.6524658e-007
5.2895954e-006
-4.6490439e-007
5.3371411e-006
-3.8686273e-007
5.3770266e-006
-3.3289009e-007
5.410071e-006
-2.8328258e-007
5.4395038e-006
-2.581823e-007
5.4674888e-006
-2.4982073e-007
5.4968183e-006
-2.6608389e-007
5.5304107e-006
-3.0839104e-007
5.5720007e-006
-3.8516074e-007
5.6261128e-006
-5.0498137e-007
5.6988398e-006
-6.8457352e-007
5.7985996e-006
-9.4879892e-007
5.937132e-006
-1.3339334e-006
6.1305342e-006
-1.8986807e-006
6.402763e-006
-2.7395727e-006
6.783597e-006
-3.9741141e-006
7.3319298e-006
-5.9466283e-006
8.1383872e-006
-9.1074813e-006
9.4399396e-006
-1.4958213e-005
1.1248986e-005
-2.3065067e-005
1.3864744e-005
-3.2109761e-005
-3.6187112e-005
1.5924476e-005
5.073944e-006
-6.370306e-007
5.159187e-006
-7.2956214e-007
5.2343644e-006
-6.4042404e-007
5.2938442e-006
-5.2438419e-007
5.3407796e-006
-4.3379807e-007
5.3798877e-006
-3.7199826e-007
5.4118048e-006
-3.1519961e-007
5.4399439e-006
-2.863214e-007
5.4664707e-006
-2.7634759e-007
5.494067e-006
-2.9368018e-007
5.525487e-006
-3.3981097e-007
5.564201e-006
-4.2387472e-007
5.6143892e-006
-5.5516959e-007
5.6815788e-006
-7.5176319e-007
5.7732863e-006
-1.0405064e-006
5.8998521e-006
-1.4604991e-006
6.0750577e-006
-2.0738863e-006
6.318398e-006
-2.9829129e-006
6.651489e-006
-4.307205e-006
7.1183425e-006
-6.4134818e-006
7.7692153e-006
-9.7583541e-006
8.77629e-006
-1.5965288e-005
1.0082372e-005
-2.4371149e-005
1.2203626e-005
-3.4231015e-005
-3.6974612e-005
1.2991126e-005
5.0753935e-006
-7.1114377e-007
5.1626597e-006
-8.1682836e-007
5.2388039e-006
-7.1656821e-007
5.2987833e-006
-5.8436356e-007
5.3450181e-006
-4.8003289e-007
5.3831438e-006
-4.1012398e-007
5.4138177e-006
-3.4587351e-007
5.4404727e-006
-3.1297641e-007
5.4653902e-006
-3.0126508e-007
5.4910607e-006
-3.1935067e-007
5.5200953e-006
-3.6884558e-007
5.5556642e-006
-4.594436e-007
5.6015759e-006
-6.0108123e-007
5.6627602e-006
-8.1294754e-007
5.7457526e-006
-1.1234988e-006
5.859465e-006
-1.5742115e-006
6.0151504e-006
-2.2295717e-006
6.2277172e-006
-3.1954797e-006
6.5113486e-006
-4.5908365e-006
6.8924923e-006
-6.7946254e-006
7.3861131e-006
-1.0251975e-005
8.0654796e-006
-1.6644655e-005
8.8242846e-006
-2.5129954e-005
1.0044339e-005
-3.545107e-005
8.8814166e-006
-3.5811689e-005
3.0331972e-005
-4.016854e-006
3.233142e-005
-1.9994476e-006
3.2943871e-005
-6.1245135e-007
3.2960119e-005
-1.6247962e-008
3.2868151e-005
9.1968644e-008
3.2822048e-005
4.6102885e-008
3.2812444e-005
9.6041047e-009
3.2812381e-005
6.243459e-011
3.2812584e-005
-2.0305047e-010
3.2812406e-005
1.7852478e-010
3.2812282e-005
1.2342905e-010
3.2812251e-005
3.1062996e-011
3.281225e-005
1.1289171e-012
3.2812251e-005
-9.2464036e-013
3.2812251e-005
9.2817213e-014
3.2812251e-005
-2.3831232e-014
3.2812251e-005
-1.483479e-013
3.2812251e-005
2.4662632e-013
3.2812251e-005
1.8220724e-013
3.2812251e-005
-6.5797091e-013
3.2812252e-005
-2.5611254e-013
3.2812251e-005
7.7234005e-013
3.2812249e-005
2.2518027e-012
3.2812232e-005
1.6730959e-011
1.5855045e-011
2.955101e-005
-7.6118449e-006
3.134963e-005
-3.7980674e-006
3.1873231e-005
-1.1360521e-006
3.1914675e-005
-5.7692476e-008
3.1842187e-005
1.6445687e-007
3.180585e-005
8.2439983e-008
3.1797244e-005
1.8209661e-008
3.1797066e-005
2.411735e-010
3.1797161e-005
-2.9885108e-010
3.1797042e-005
2.9826187e-010
3.1796941e-005
2.24248e-010
3.1796917e-005
5.4354809e-011
3.1796916e-005
2.768684e-012
3.1796917e-005
-1.8656025e-012
3.1796917e-005
-7.2388112e-014
3.1796917e-005
-2.4727932e-013
3.1796917e-005
-3.1348691e-013
3.1796917e-005
5.4158846e-013
3.1796917e-005
1.1514811e-013
3.1796917e-005
-9.1461195e-013
3.1796917e-005
-7.7238124e-014
3.1796917e-005
1.2436523e-012
3.1796915e-005
4.0057438e-012
3.1796903e-005
2.8860009e-011
2.7594961e-011
2.8060666e-005
-1.0544202e-005
2.9386686e-005
-5.1240878e-006
2.9776686e-005
-1.5260525e-006
2.9830371e-005
-1.1137746e-007
2.979438e-005
2.0044868e-007
2.9773339e-005
1.0348091e-007
2.9767433e-005
2.4115681e-008
2.9767041e-005
6.3265265e-010
2.9767044e-005
-3.0143825e-010
2.9766992e-005
3.4994831e-010
2.9766937e-005
2.7950537e-010
2.9766924e-005
6.6829894e-011
2.9766923e-005
3.9120905e-012
2.9766924e-005
-2.6929436e-012
2.9766924e-005
-4.2905264e-013
2.9766924e-005
-2.5457861e-013
2.9766924e-005
-4.8942869e-013
2.9766925e-005
2.0607453e-013
2.9766925e-005
-3.4440001e-013
2.9766925e-005
-3.9707497e-013
2.9766924e-005
7.1268286e-013
2.9766924e-005
1.4285161e-012
2.9766924e-005
4.0737368e-012
2.9766921e-005
3.2120504e-011
3.13639e-011
2.588789e-005
-1.2542023e-005
2.6577657e-005
-5.8138543e-006
2.676093e-005
-1.709326e-006
2.6805639e-005
-1.5608598e-007
2.680817e-005
1.979179e-007
2.6805772e-005
1.0587855e-007
2.6803602e-005
2.6285105e-008
2.6803218e-005
1.0174137e-009
2.6803158e-005
-2.4192195e-010
2.6803178e-005
3.2977451e-010
2.6803173e-005
2.8514054e-010
2.6803173e-005
6.6188394e-011
2.6803174e-005
3.6455953e-012
2.6803174e-005
-3.3364622e-012
2.6803175e-005
-7.9557802e-013
2.6803174e-005
-6.2337868e-014
2.6803175e-005
-7.1894312e-013
2.6803176e-005
-8.5176088e-013
2.6803176e-005
-5.4002859e-013
2.6803175e-005
7.3903392e-013
2.6803174e-005
1.3820379e-012
2.6803174e-005
1.3129362e-012
2.6803176e-005
2.4464131e-012
2.6803184e-005
2.4045463e-011
2.468113e-011
2.3190104e-005
-1.3458446e-005
2.3159334e-005
-5.7830836e-006
2.3080461e-005
-1.6304531e-006
2.3097381e-005
-1.7300614e-007
2.3128114e-005
1.6718492e-007
2.3141686e-005
9.2306979e-008
2.3143415e-005
2.4555727e-008
2.3143288e-005
1.1440459e-009
2.3143218e-005
-1.716691e-010
2.3143293e-005
2.5443669e-010
2.3143329e-005
2.4903794e-010
2.3143342e-005
5.3645086e-011
2.3143344e-005
2.0179313e-012
2.3143344e-005
-3.676786e-012
2.3143344e-005
-1.0120333e-012
2.3143344e-005
-1.862006e-013
2.3143345e-005
-1.0127963e-012
2.3143345e-005
-1.427007e-012
2.3143345e-005
-7.2285503e-014
2.3143344e-005
1.3938202e-012
2.3143344e-005
1.1929395e-012
2.3143345e-005
9.7524763e-013
2.3143347e-005
1.1073669e-013
2.3143365e-005
6.440399e-012
8.5138314e-012
2.0159467e-005
-1.3235788e-005
1.9420396e-005
-5.0440131e-006
1.9099652e-005
-1.3097092e-006
1.9083086e-005
-1.5644026e-007
1.9125357e-005
1.249139e-007
1.9148013e-005
6.9651414e-008
1.915297e-005
1.9598737e-008
1.915321e-005
9.0373371e-010
1.9153158e-005
-1.1906425e-010
1.9153259e-005
1.5365148e-010
1.9153321e-005
1.8681341e-010
1.915334e-005
3.3911228e-011
1.9153342e-005
2.165057e-014
1.9153342e-005
-3.7096437e-012
1.9153342e-005
-1.0083066e-012
1.9153343e-005
-4.4076396e-013
1.9153343e-005
-9.6510326e-013
1.9153342e-005
-1.1632819e-012
1.9153342e-005
2.0840055e-013
1.9153342e-005
1.0584353e-012
1.9153343e-005
7.250188e-013
1.9153343e-005
7.1231778e-013
1.9153346e-005
-2.2292114e-012
1.9153365e-005
-1.3275038e-011
-9.9503871e-012
1.6886213e-005
-1.1813126e-005
1.5591859e-005
-3.7496599e-006
1.5144079e-005
-8.6192907e-007
1.5095182e-005
-1.0754316e-007
1.5137396e-005
8.2700048e-008
1.5162771e-005
4.4276718e-008
1.516948e-005
1.2889325e-008
1.5169954e-005
4.2958735e-010
1.5169912e-005
-7.7100781e-011
1.5170006e-005
6.0122771e-011
1.5170076e-005
1.1680378e-010
1.5170096e-005
1.402642e-011
1.5170097e-005
-1.3318989e-012
1.5170097e-005
-3.3350287e-012
1.5170097e-005
-8.3459893e-013
1.5170097e-005
-5.0529427e-013
1.5170096e-005
-5.4670962e-013
1.5170096e-005
-6.0650195e-013
1.5170096e-005
8.1985896e-014
1.5170096e-005
4.6438527e-013
1.5170097e-005
4.0967262e-013
1.5170097e-005
4.4558294e-013
1.5170098e-005
-3.6866172e-012
1.5170111e-005
-2.5289365e-011
-2.1433799e-011
1.3253106e-005
-9.1417557e-006
1.1724958e-005
-2.221512e-006
1.1289023e-005
-4.2599411e-007
1.1229611e-005
-4.8130739e-008
1.1267058e-005
4.5253395e-008
1.1289842e-005
2.1492223e-008
1.1296333e-005
6.398462e-009
1.129675e-005
1.2806323e-011
1.1296706e-005
-3.3422986e-011
1.1296767e-005
-1.039617e-012
1.1296829e-005
5.5581656e-011
1.1296842e-005
8.7711317e-013
1.1296842e-005
-1.5018742e-012
1.1296841e-005
-2.3476036e-012
1.1296841e-005
-5.1393498e-013
1.129684e-005
-3.6947795e-013
1.129684e-005
-1.9175481e-013
1.129684e-005
-1.8234043e-013
1.129684e-005
-1.5316215e-014
1.129684e-005
1.0801029e-013
1.129684e-005
2.1989501e-013
1.1296841e-005
1.5987374e-013
1.129684e-005
-3.3250058e-012
1.1296838e-005
-2.3385865e-011
-2.0355092e-011
9.001708e-006
-5.1523377e-006
7.6027159e-006
-8.2251985e-007
7.286764e-006
-1.100422e-007
7.2495823e-006
-1.0948984e-008
7.2789639e-006
1.5871741e-008
7.2950291e-006
5.4270091e-009
7.2995077e-006
1.9198734e-009
7.2996486e-006
-1.2803948e-010
7.2996129e-006
2.2406923e-012
7.2996281e-006
-1.6298442e-011
7.2996687e-006
1.50361e-011
7.2996723e-006
-2.6955987e-012
7.2996715e-006
-7.2800844e-013
7.2996701e-006
-9.7244437e-013
7.2996698e-006
-1.8049213e-013
7.2996695e-006
-1.5109812e-013
7.2996693e-006
-1.7511519e-014
7.2996692e-006
-1.1885571e-014
7.2996692e-006
-3.413143e-014
7.2996693e-006
-1.4033323e-014
7.2996695e-006
7.4081841e-014
7.2996697e-006
1.4988065e-014
7.2996679e-006
-1.4269956e-012
7.2996549e-006
-1.0447923e-011
-9.2421818e-012
3.7290789e-006
2.9065591e-006
2.7965169e-006
2.7855679e-006
2.8014397e-006
2.8068667e-006
2.8087865e-006
2.8086585e-006
2.8086607e-006
2.8086444e-006
2.8086595e-006
2.8086568e-006
2.808656e-006
2.808655e-006
2.8086549e-006
2.8086547e-006
2.8086547e-006
2.8086547e-006
2.8086547e-006
2.8086547e-006
2.8086548e-006
2.8086548e-006
2.8086534e-006
2.808643e-006
1.5232343e-005
-9.3964586e-007
1.5518023e-005
-1.1025086e-006
1.5748489e-005
-9.4703368e-007
1.5928733e-005
-7.6460816e-007
1.606629e-005
-6.175893e-007
1.6170858e-005
-5.1469239e-007
1.625544e-005
-4.3045553e-007
1.6325189e-005
-3.827255e-007
1.6389306e-005
-3.6538202e-007
1.6453611e-005
-3.8365558e-007
1.6525279e-005
-4.4051324e-007
1.6611559e-005
-5.4572355e-007
1.6721738e-005
-7.1126e-007
1.6866816e-005
-9.5802605e-007
1.706017e-005
-1.3168525e-006
1.7319446e-005
-1.8334874e-006
1.7663591e-005
-2.5737165e-006
1.8109584e-005
-3.6414731e-006
1.8673227e-005
-5.1544795e-006
1.9302154e-005
-7.4235525e-006
1.9957068e-005
-1.0906889e-005
2.0080347e-005
-1.6767934e-005
1.9108857e-005
-2.4158464e-005
1.4680517e-005
-3.102273e-005
-2.1131173e-005
1.5256784e-005
-1.192589e-006
1.5575908e-005
-1.4216324e-006
1.581809e-005
-1.189216e-006
1.5997471e-005
-9.4398925e-007
1.6123662e-005
-7.437801e-007
1.6212723e-005
-6.0375287e-007
1.6279478e-005
-4.9721129e-007
1.6330927e-005
-4.3417411e-007
1.6374859e-005
-4.0931383e-007
1.6416286e-005
-4.250826e-007
1.6460248e-005
-4.8447535e-007
1.651095e-005
-5.9642548e-007
1.6573484e-005
-7.7379381e-007
1.6652813e-005
-1.0373553e-006
1.6753719e-005
-1.4177582e-006
1.6880154e-005
-1.9599223e-006
1.7032496e-005
-2.7260587e-006
1.7200288e-005
-3.8092658e-006
1.7359677e-005
-5.3138677e-006
1.7403803e-005
-7.4676785e-006
1.7124167e-005
-1.0627253e-005
1.585684e-005
-1.5500607e-005
1.2915079e-005
-2.1216703e-005
6.679228e-006
-2.4786879e-005
-1.4451945e-005
1.5302555e-005
-1.4913028e-006
1.5660844e-005
-1.779922e-006
1.5919238e-005
-1.4476093e-006
1.6088005e-005
-1.112757e-006
1.6195827e-005
-8.51602e-007
1.6262619e-005
-6.7054498e-007
1.6306664e-005
-5.4125597e-007
1.633574e-005
-4.6325016e-007
1.6356415e-005
-4.2998911e-007
1.6372214e-005
-4.4088131e-007
1.6385797e-005
-4.980586e-007
1.639825e-005
-6.0887821e-007
1.6410444e-005
-7.8598778e-007
1.6421436e-005
-1.0483469e-006
1.6428031e-005
-1.4243532e-006
1.642311e-005
-1.9550016e-006
1.6392158e-005
-2.6951063e-006
1.6303656e-005
-3.720764e-006
1.610728e-005
-5.1174924e-006
1.5675527e-005
-7.0359246e-006
1.4764133e-005
-9.7158601e-006
1.2779736e-005
-1.3516209e-005
9.1842803e-006
-1.7621248e-005
3.5207973e-006
-1.9123396e-005
-1.0931147e-005
1.539247e-005
-1.8799323e-006
1.581501e-005
-2.2024614e-006
1.6084626e-005
-1.7172257e-006
1.6231116e-005
-1.2592464e-006
1.6308301e-005
-9.2878768e-007
1.6344728e-005
-7.0697149e-007
1.636041e-005
-5.5693818e-007
1.6363449e-005
-4.6628924e-007
1.6358569e-005
-4.2510866e-007
1.634727e-005
-4.2958304e-007
1.6329656e-005
-4.8044434e-007
1.6303779e-005
-5.830006e-007
1.6266036e-005
-7.4824518e-007
1.6210384e-005
-9.9269524e-007
1.6127196e-005
-1.3411646e-006
1.6000565e-005
-1.8283709e-006
1.5804932e-005
-2.4994728e-006
1.5496613e-005
-3.4124449e-006
1.5010879e-005
-4.6317588e-006
1.4226302e-005
-6.2513479e-006
1.2929517e-005
-8.419075e-006
1.0690335e-005
-1.1277027e-005
7.1620768e-006
-1.4092989e-005
2.4929499e-006
-1.4454269e-005
-8.4381974e-006
1.5606791e-005
-2.482882e-006
1.6140897e-005
-2.736568e-006
1.6407081e-005
-1.9834098e-006
1.6508857e-005
-1.3610224e-006
1.6537083e-005
-9.5701325e-007
1.6532474e-005
-7.0236272e-007
1.6513891e-005
-5.3835471e-007
1.6487725e-005
-4.4012387e-007
1.645585e-005
-3.9323344e-007
1.641715e-005
-3.9088262e-007
1.6368968e-005
-4.322629e-007
1.630616e-005
-5.2019256e-007
1.6221315e-005
-6.6339999e-007
1.6104124e-005
-8.7550437e-007
1.5939602e-005
-1.1766425e-006
1.5705308e-005
-1.5940766e-006
1.5368403e-005
-2.1625685e-006
1.4879392e-005
-2.9234335e-006
1.4168379e-005
-3.920746e-006
1.3127065e-005
-5.2100337e-006
1.1585931e-005
-6.8779405e-006
9.2648445e-006
-8.9559407e-006
5.9893928e-006
-1.0817537e-005
2.1728058e-006
-1.0637682e-005
-6.2653915e-006
1.6055987e-005
-3.5350284e-006
1.6714411e-005
-3.3949915e-006
1.6926601e-005
-2.1955996e-006
1.6941483e-005
-1.3759046e-006
1.689582e-005
-9.1135004e-007
1.6837614e-005
-6.4415654e-007
1.6779299e-005
-4.800402e-007
1.6721746e-005
-3.8257052e-007
1.6662583e-005
-3.3407023e-007
1.6597545e-005
-3.2584458e-007
1.652058e-005
-3.5529803e-007
1.642365e-005
-4.2326333e-007
1.6296354e-005
-5.361034e-007
1.6124828e-005
-7.0397821e-007
1.5889392e-005
-9.4120704e-007
1.5563223e-005
-1.267907e-006
1.5109517e-005
-1.7088628e-006
1.4476548e-005
-2.2904646e-006
1.359542e-005
-3.0396184e-006
1.2371963e-005
-3.9865762e-006
1.0673919e-005
-5.1798966e-006
8.326604e-006
-6.6086257e-006
5.282745e-006
-7.7736784e-006
2.0080252e-006
-7.3629621e-006
-4.2573663e-006
1.663017e-005
-5.1613576e-006
1.7201586e-005
-3.9664074e-006
1.7221136e-005
-2.2151498e-006
1.708819e-005
-1.2429582e-006
1.6944763e-005
-7.6792283e-007
1.6823845e-005
-5.2323857e-007
1.6723575e-005
-3.7977069e-007
1.6635514e-005
-2.9450985e-007
1.6551747e-005
-2.5030234e-007
1.6464305e-005
-2.3840353e-007
1.6363827e-005
-2.5482006e-007
1.6240198e-005
-2.9963387e-007
1.6080376e-005
-3.7628143e-007
1.5867921e-005
-4.9152315e-007
1.5580359e-005
-6.5364502e-007
1.5188531e-005
-8.7607936e-007
1.4653832e-005
-1.1741634e-006
1.3925826e-005
-1.562459e-006
1.2940974e-005
-2.054766e-006
1.1619539e-005
-2.6651411e-006
9.8585357e-006
-3.4188934e-006
7.5440405e-006
-4.2941305e-006
4.6995087e-006
-4.9291466e-006
1.8015428e-006
-4.4649961e-006
-2.4558235e-006
1.6619533e-005
-6.77705e-006
1.6462545e-005
-3.8094192e-006
1.6066378e-005
-1.8189826e-006
1.5730758e-005
-9.0733819e-007
1.548439e-005
-5.2155508e-007
1.5305137e-005
-3.4398565e-007
1.5169594e-005
-2.4422767e-007
1.5059116e-005
-1.8403133e-007
1.4960167e-005
-1.5135314e-007
1.4861511e-005
-1.3974821e-007
1.4751885e-005
-1.4519321e-007
1.4619767e-005
-1.67516e-007
1.4451295e-005
-2.0780941e-007
1.422932e-005
-2.6954895e-007
1.3932381e-005
-3.5670518e-007
1.3532123e-005
-4.758216e-007
1.2991707e-005
-6.3374706e-007
1.2267216e-005
-8.379681e-007
1.1305257e-005
-1.0928071e-006
1.0042809e-005
-1.4026932e-006
8.4022975e-006
-1.778382e-006
6.3084949e-006
-2.2003279e-006
3.8267134e-006
-2.447365e-006
1.4229504e-006
-2.0612331e-006
-1.0328732e-006
1.4663863e-005
-6.4370723e-006
1.3074677e-005
-2.2202327e-006
1.2114689e-005
-8.5899449e-007
1.159873e-005
-3.9137993e-007
1.129187e-005
-2.1469487e-007
1.1087713e-005
-1.3982847e-007
1.0941805e-005
-9.8319811e-008
1.0829969e-005
-7.2195177e-008
1.0735993e-005
-5.7377564e-008
1.0647392e-005
-5.1146997e-008
1.0553618e-005
-5.1418653e-008
1.0443956e-005
-5.7854423e-008
1.0306837e-005
-7.0690107e-008
1.0128034e-005
-9.0746342e-008
9.8906347e-006
-1.1930571e-007
9.572867e-006
-1.5805392e-007
9.1477364e-006
-2.0861647e-007
8.5831327e-006
-2.7336437e-007
7.8424179e-006
-3.5209225e-007
6.8846402e-006
-4.4491553e-007
5.6600105e-006
-5.5375233e-007
4.1273671e-006
-6.6768447e-007
2.3769902e-006
-6.9698813e-007
8.0742037e-007
-4.9166326e-007
-2.2545279e-007
8.5667687e-006
6.346536e-006
5.4875415e-006
5.0961616e-006
4.8814667e-006
4.7416383e-006
4.6433184e-006
4.5711233e-006
4.5137457e-006
4.4625987e-006
4.4111801e-006
4.3533256e-006
4.2826355e-006
4.1918892e-006
4.0725835e-006
3.9145296e-006
3.7059131e-006
3.4325487e-006
3.0804565e-006
2.635541e-006
2.0817886e-006
1.4141042e-006
7.1711604e-007
2.2545279e-007
)
;

boundaryField
{
    inlet
    {
        type            calculated;
        value           nonuniform List<scalar> 
20
(
-5.0012803e-006
-5.0012803e-006
-5.0012803e-006
-5.0012803e-006
-5.0012803e-006
-5.0012803e-006
-5.0012803e-006
-5.0012803e-006
-5.0012803e-006
-5.0012803e-006
-1.5003841e-005
-1.5003841e-005
-1.5003841e-005
-1.5003841e-005
-1.5003841e-005
-1.5003841e-005
-1.5003841e-005
-1.5003841e-005
-1.5003841e-005
-1.5003841e-005
)
;
    }
    walls
    {
        type            calculated;
        value           uniform 0;
    }
    outlet
    {
        type            calculated;
        value           nonuniform List<scalar> 10(3.2812216e-005 3.1796891e-005 2.9766917e-005 2.6803191e-005 2.3143381e-005 1.9153384e-005 1.5170122e-005 1.1296837e-005 7.2996439e-006 2.8086337e-006);
    }
    centreline
    {
        type            symmetryPlane;
        value           uniform 0;
    }
    frontAndBack
    {
        type            empty;
        value           nonuniform 0();
    }
}


// ************************************************************************* //
