/*--------------------------------*- C++ -*----------------------------------*\
| =========                 |                                                 |
| \\      /  F ield         | OpenFOAM: The Open Source CFD Toolbox           |
|  \\    /   O peration     | Version:  5.x                                   |
|   \\  /    A nd           | Web:      www.OpenFOAM.org                      |
|    \\/     M anipulation  |                                                 |
\*---------------------------------------------------------------------------*/
/*   Windows 32 and 64 bit porting by blueCAPE: http://www.bluecape.com.pt   *\
|  Based on Windows porting (2.0.x v4) by Symscape: http://www.symscape.com   |
\*---------------------------------------------------------------------------*/
FoamFile
{
    version     2.0;
    format      ascii;
    class       volSymmTensorField;
    location    "0.07";
    object      sigma_0;
}
// * * * * * * * * * * * * * * * * * * * * * * * * * * * * * * * * * * * * * //

dimensions      [0 2 -2 0 0 0 0];

internalField   nonuniform List<symmTensor> 
750
(
(-9.7213688e-005 9.8169943e-006 0 0.00011793262 0 0)
(-0.00018353682 -9.1393838e-007 0 0.00014782554 0 0)
(-7.8125479e-005 -2.0854751e-006 0 0.00010106077 0 0)
(-0.00012545737 -8.6479224e-007 0 0.00011013798 0 0)
(-7.3950484e-005 -1.9056696e-006 0 8.189603e-005 0 0)
(-8.6745234e-005 -7.0170656e-007 0 8.2341162e-005 0 0)
(-6.9286563e-005 -7.9116902e-007 0 7.1208405e-005 0 0)
(-7.2721109e-005 1.0379754e-007 0 7.1654042e-005 0 0)
(-7.3982085e-005 7.2747582e-007 0 7.4251565e-005 0 0)
(-8.5188132e-005 1.7416879e-006 0 8.4857582e-005 0 0)
(-0.00010482276 2.9914929e-006 0 0.00010461589 0 0)
(-0.00013252868 4.4899254e-006 0 0.00013207059 0 0)
(-0.00017957495 6.8309499e-006 0 0.00017881205 0 0)
(-0.00024453909 9.9754256e-006 0 0.00024314454 0 0)
(-0.00033995221 1.4521944e-005 0 0.00033707576 0 0)
(-0.00047855014 2.1293728e-005 0 0.00047315392 0 0)
(-0.00068598497 3.1981915e-005 0 0.00067503541 0 0)
(-0.00098234037 4.692747e-005 0 0.00095802573 0 0)
(-0.0014656818 7.4995976e-005 0 0.0014210391 0 0)
(-0.0021669345 0.00011229221 0 0.0020450411 0 0)
(-0.0033623827 0.00019670165 0 0.0031517342 0 0)
(-0.0053656714 0.00029464127 0 0.0046812539 0 0)
(-0.0087078104 0.00045338709 0 0.0074021711 0 0)
(-0.013281766 0.00058729299 0 0.0099247464 0 0)
(-0.016965036 3.3805141e-005 0 0.01250975 0 0)
(-9.6859445e-005 2.8324166e-005 0 0.00012117987 0 0)
(-0.00018442333 -2.4068043e-006 0 0.00014254249 0 0)
(-7.8178115e-005 -5.6951675e-006 0 0.00010624461 0 0)
(-0.00012539846 -2.9403677e-006 0 0.00010680934 0 0)
(-7.3984115e-005 -5.2321637e-006 0 8.4090523e-005 0 0)
(-8.64544e-005 -2.1717108e-006 0 8.0953969e-005 0 0)
(-6.9064793e-005 -2.061832e-006 0 7.1516787e-005 0 0)
(-7.2336006e-005 4.6945789e-007 0 7.0957285e-005 0 0)
(-7.356082e-005 2.4419481e-006 0 7.3901797e-005 0 0)
(-8.4658526e-005 5.4333343e-006 0 8.4220161e-005 0 0)
(-0.00010402943 9.1909657e-006 0 0.00010378622 0 0)
(-0.00013153095 1.367761e-005 0 0.00013097992 0 0)
(-0.00017826173 2.0678679e-005 0 0.0001773748 0 0)
(-0.0002426568 3.0046849e-005 0 0.00024109616 0 0)
(-0.00033699544 4.3581313e-005 0 0.0003338337 0 0)
(-0.00047436993 6.3809005e-005 0 0.00046864555 0 0)
(-0.00067951348 9.5315229e-005 0 0.00066788482 0 0)
(-0.00097068831 0.00013974697 0 0.0009455019 0 0)
(-0.0014510583 0.00022435717 0 0.0014055474 0 0)
(-0.0021335487 0.00032985665 0 0.0020043991 0 0)
(-0.0033305794 0.0005947932 0 0.0031235578 0 0)
(-0.0052857779 0.00088505189 0 0.0045672233 0 0)
(-0.0087034353 0.0012816436 0 0.0074073047 0 0)
(-0.013304524 0.001788213 0 0.0097906809 0 0)
(-0.017176862 0.00026928636 0 0.012669101 0 0)
(-9.6401228e-005 4.5879155e-005 0 0.00012269615 0 0)
(-0.00018603682 -3.4513745e-006 0 0.00014059481 0 0)
(-7.8103949e-005 -8.9188623e-006 0 0.0001085874 0 0)
(-0.00012558919 -5.3153595e-006 0 0.0001054032 0 0)
(-7.3936737e-005 -8.2819901e-006 0 8.4818237e-005 0 0)
(-8.5941554e-005 -3.7767956e-006 0 8.0025268e-005 0 0)
(-6.8601523e-005 -3.1875219e-006 0 7.1252753e-005 0 0)
(-7.1588249e-005 8.4127741e-007 0 7.0142538e-005 0 0)
(-7.2716361e-005 4.2304368e-006 0 7.31161e-005 0 0)
(-8.3589265e-005 9.1532676e-006 0 8.3161904e-005 0 0)
(-0.00010251908 1.5387877e-005 0 0.00010232957 0 0)
(-0.00012962015 2.2866045e-005 0 0.00012911317 0 0)
(-0.00017565223 3.4474201e-005 0 0.00017482675 0 0)
(-0.0002388644 4.9941509e-005 0 0.00023740644 0 0)
(-0.00033130938 7.2305166e-005 0 0.00032828605 0 0)
(-0.00046589693 0.00010584341 0 0.00046041683 0 0)
(-0.00066654937 0.00015746715 0 0.00065527015 0 0)
(-0.00094967368 0.00023136724 0 0.00092502801 0 0)
(-0.0014178283 0.00036961476 0 0.0013737729 0 0)
(-0.0020762279 0.00055064782 0 0.0019477794 0 0)
(-0.0032475518 0.00096363418 0 0.0030465333 0 0)
(-0.0051717377 0.0014560244 0 0.0044406497 0 0)
(-0.0085840745 0.0022044058 0 0.0072832677 0 0)
(-0.013342451 0.0031049954 0 0.0096275677 0 0)
(-0.017237151 0.00080768333 0 0.012649698 0 0)
(-9.5674476e-005 6.3798362e-005 0 0.00012268343 0 0)
(-0.00018832151 -4.1325303e-006 0 0.00014160865 0 0)
(-7.8105224e-005 -1.21668e-005 0 0.00010918756 0 0)
(-0.00012596553 -7.7912531e-006 0 0.00010553159 0 0)
(-7.3846259e-005 -1.1501323e-005 0 8.4667556e-005 0 0)
(-8.5201102e-005 -5.549427e-006 0 7.9370881e-005 0 0)
(-6.7883251e-005 -4.460295e-006 0 7.0462812e-005 0 0)
(-7.047741e-005 1.0338881e-006 0 6.9083834e-005 0 0)
(-7.1458408e-005 5.8367412e-006 0 7.1838416e-005 0 0)
(-8.1936837e-005 1.2633149e-005 0 8.1525872e-005 0 0)
(-0.00010042974 2.1361189e-005 0 0.00010023223 0 0)
(-0.0001267891 3.1748291e-005 0 0.00012628332 0 0)
(-0.00017161215 4.7846601e-005 0 0.00017079017 0 0)
(-0.00023311003 6.9276044e-005 0 0.00023165726 0 0)
(-0.00032295647 0.00010030958 0 0.00031994504 0 0)
(-0.00045324094 0.00014651426 0 0.00044774653 0 0)
(-0.00064702404 0.00021790159 0 0.00063584829 0 0)
(-0.00091937017 0.00032062533 0 0.00089473566 0 0)
(-0.0013662022 0.00051053818 0 0.0013226108 0 0)
(-0.0019941575 0.00075919304 0 0.0018676068 0 0)
(-0.0031039564 0.0013538285 0 0.0029024625 0 0)
(-0.004987998 0.0020733919 0 0.0042483428 0 0)
(-0.0083135022 0.0031797692 0 0.0069865728 0 0)
(-0.013304819 0.0045583811 0 0.009333304 0 0)
(-0.016848397 0.0017031611 0 0.012343626 0 0)
(-9.4482241e-005 8.2488402e-005 0 0.00012154696 0 0)
(-0.00019136133 -4.5905235e-006 0 0.00014449034 0 0)
(-7.8316649e-005 -1.5550907e-005 0 0.00010931246 0 0)
(-0.00012650992 -1.0255839e-005 0 0.00010637217 0 0)
(-7.3739721e-005 -1.488196e-005 0 8.4256056e-005 0 0)
(-8.421349e-005 -7.3560293e-006 0 7.8620208e-005 0 0)
(-6.6911e-005 -5.7736188e-006 0 6.9350007e-005 0 0)
(-6.9006583e-005 1.1902199e-006 0 6.7695169e-005 0 0)
(-6.9790021e-005 7.3889545e-006 0 7.0137136e-005 0 0)
(-7.9754333e-005 1.602359e-005 0 7.9366156e-005 0 0)
(-9.7651077e-005 2.7177327e-005 0 9.7447842e-005 0 0)
(-0.00012306381 4.0404453e-005 0 0.00012256843 0 0)
(-0.00016628396 6.0832153e-005 0 0.0001654791 0 0)
(-0.00022551352 8.8016892e-005 0 0.00022407729 0 0)
(-0.00031196574 0.00012738936 0 0.00030899485 0 0)
(-0.00043657052 0.00018586542 0 0.00043109197 0 0)
(-0.00062117627 0.00027592382 0 0.00061017286 0 0)
(-0.00087953891 0.00040598566 0 0.00085502739 0 0)
(-0.001298374 0.00064333617 0 0.001255024 0 0)
(-0.0018853218 0.00096254253 0 0.001760943 0 0)
(-0.0029300828 0.0016874563 0 0.0027243574 0 0)
(-0.0047592495 0.0026097375 0 0.0040094687 0 0)
(-0.007917886 0.0040822726 0 0.0065644201 0 0)
(-0.013107904 0.0060699287 0 0.0088267681 0 0)
(-0.015883105 0.0029001045 0 0.011679395 0 0)
(-9.2682719e-005 0.00010189964 0 0.0001195282 0 0)
(-0.00019531869 -5.0074353e-006 0 0.00014872064 0 0)
(-7.8737441e-005 -1.9285225e-005 0 0.0001093257 0 0)
(-0.00012722777 -1.2753784e-005 0 0.00010760913 0 0)
(-7.3622248e-005 -1.8538798e-005 0 8.3723101e-005 0 0)
(-8.2950412e-005 -9.2220003e-006 0 7.7638685e-005 0 0)
(-6.5695605e-005 -7.1793924e-006 0 6.7969055e-005 0 0)
(-6.7177215e-005 1.2641869e-006 0 6.5959609e-005 0 0)
(-6.7717813e-005 8.8374544e-006 0 6.8031648e-005 0 0)
(-7.7067023e-005 1.9268994e-005 0 7.6703339e-005 0 0)
(-9.4170403e-005 3.2769683e-005 0 9.3980071e-005 0 0)
(-0.00011845613 4.8740022e-005 0 0.00011797967 0 0)
(-0.00015968948 7.3290822e-005 0 0.00015890277 0 0)
(-0.00021623723 0.000105991 0 0.00021482357 0 0)
(-0.00029844403 0.00015330322 0 0.00029554679 0 0)
(-0.00041622414 0.00022306329 0 0.00041080656 0 0)
(-0.00058942835 0.00033083407 0 0.0005786939 0 0)
(-0.0008312931 0.00048523735 0 0.00080729543 0 0)
(-0.001215056 0.00076612789 0 0.0011722245 0 0)
(-0.0017544299 0.0011456026 0 0.0016336327 0 0)
(-0.0026924072 0.0020232899 0 0.0024897872 0 0)
(-0.0044161797 0.003173656 0 0.0036652247 0 0)
(-0.0072576511 0.0051124329 0 0.0059075901 0 0)
(-0.012672502 0.0076505127 0 0.0080698859 0 0)
(-0.014233687 0.0040636057 0 0.010718244 0 0)
(-9.0260483e-005 0.00012174243 0 0.00011690605 0 0)
(-0.0002003186 -5.5578411e-006 0 0.00015385804 0 0)
(-7.9327599e-005 -2.3520484e-005 0 0.0001095053 0 0)
(-0.00012810698 -1.5376147e-005 0 0.0001090134 0 0)
(-7.3486953e-005 -2.2541708e-005 0 8.3147157e-005 0 0)
(-8.1386523e-005 -1.1196931e-005 0 7.6384665e-005 0 0)
(-6.4240556e-005 -8.7138492e-006 0 6.6326785e-005 0 0)
(-6.4989e-005 1.2216178e-006 0 6.3881611e-005 0 0)
(-6.5250549e-005 1.0145244e-005 0 6.5526895e-005 0 0)
(-7.3877252e-005 2.2309496e-005 0 7.3544938e-005 0 0)
(-9.0056526e-005 3.8081618e-005 0 8.9873823e-005 0 0)
(-0.00011301378 5.6625503e-005 0 0.00011255177 0 0)
(-0.00015194094 8.5084626e-005 0 0.00015116251 0 0)
(-0.00020533483 0.00012302611 0 0.00020393243 0 0)
(-0.00028261902 0.00017764394 0 0.00027977008 0 0)
(-0.00039250028 0.00025794911 0 0.00038712499 0 0)
(-0.00055315675 0.00038097632 0 0.00054261347 0 0)
(-0.00077443258 0.00055851343 0 0.00075076548 0 0)
(-0.0011177638 0.0008772964 0 0.0010758166 0 0)
(-0.0015982081 0.0013146623 0 0.0014797304 0 0)
(-0.0024028776 0.0023241365 0 0.0022017184 0 0)
(-0.0039755557 0.0036848967 0 0.003214293 0 0)
(-0.0062278313 0.0062388718 0 0.0048670257 0 0)
(-0.011966426 0.0090362913 0 0.0070564836 0 0)
(-0.010163829 0.005449948 0 0.0078697719 0 0)
(-8.7263041e-005 0.00014197186 0 0.00011441939 0 0)
(-0.00020650857 -6.3370328e-006 0 0.00015882374 0 0)
(-8.00212e-005 -2.8394347e-005 0 0.0001106193 0 0)
(-0.00012912241 -1.8257895e-005 0 0.00011015317 0 0)
(-7.3302086e-005 -2.6896682e-005 0 8.2531243e-005 0 0)
(-7.9500149e-005 -1.3317133e-005 0 7.4847088e-005 0 0)
(-6.2549616e-005 -1.0393942e-005 0 6.4415942e-005 0 0)
(-6.2441061e-005 1.0475036e-006 0 6.1450232e-005 0 0)
(-6.240325e-005 1.1295182e-005 0 6.263026e-005 0 0)
(-7.0195252e-005 2.509169e-005 0 6.9883053e-005 0 0)
(-8.5365244e-005 4.3065485e-005 0 8.5157864e-005 0 0)
(-0.00010678994 6.4043898e-005 0 0.00010631519 0 0)
(-0.00014309535 9.6118472e-005 0 0.00014230204 0 0)
(-0.00019291043 0.00013882978 0 0.00019147175 0 0)
(-0.00026466578 0.00020023851 0 0.00026176574 0 0)
(-0.00036587419 0.00028980594 0 0.00036037065 0 0)
(-0.00051141414 0.00042775488 0 0.0005008851 0 0)
(-0.00071124471 0.00062305158 0 0.00068787031 0 0)
(-0.001007289 0.00097547722 0 0.00096646267 0 0)
(-0.0014248677 0.0014596233 0 0.0013096787 0 0)
(-0.0020811421 0.0025649891 0 0.0018763215 0 0)
(-0.003455384 0.0040893021 0 0.0026876181 0 0)
(-0.0052741691 0.0069742604 0 0.0038785715 0 0)
(-0.010997316 0.0099402175 0 0.0059429876 0 0)
(-0.0068265724 0.0066813312 0 0.0051658907 0 0)
(-8.3880134e-005 0.00016226831 0 0.00011316824 0 0)
(-0.00021390916 -7.2547123e-006 0 0.00016222449 0 0)
(-8.0807236e-005 -3.3913557e-005 0 0.00011331001 0 0)
(-0.00013018734 -2.1596984e-005 0 0.00011035741 0 0)
(-7.3042878e-005 -3.1594071e-005 0 8.2175565e-005 0 0)
(-7.7279358e-005 -1.5663503e-005 0 7.2823296e-005 0 0)
(-6.0622396e-005 -1.2261726e-005 0 6.2359462e-005 0 0)
(-5.9546627e-005 6.9099107e-007 0 5.8623032e-005 0 0)
(-5.9189824e-005 1.2222083e-005 0 5.9385929e-005 0 0)
(-6.6090542e-005 2.7598663e-005 0 6.5784748e-005 0 0)
(-8.0015965e-005 4.7601327e-005 0 7.9809264e-005 0 0)
(-9.9784165e-005 7.0909149e-005 0 9.9326692e-005 0 0)
(-0.00013315671 0.0001062571 0 0.0001323836 0 0)
(-0.00017897942 0.00015345923 0 0.00017756368 0 0)
(-0.00024448667 0.00022103508 0 0.00024165778 0 0)
(-0.00033609742 0.00031884157 0 0.00033069853 0 0)
(-0.00046649064 0.00046861195 0 0.0004561706 0 0)
(-0.00063985007 0.00068031102 0 0.00061674545 0 0)
(-0.0008921637 0.0010556451 0 0.0008526538 0 0)
(-0.0012316118 0.0015695513 0 0.0011192693 0 0)
(-0.0016832571 0.0027718734 0 0.0014957444 0 0)
(-0.0027845752 0.0043664104 0 0.0020306873 0 0)
(-0.0035454151 0.0077944101 0 0.0022592219 0 0)
(-0.0079866069 0.010951598 0 0.0032927728 0 0)
(-0.00084706869 0.0092405047 0 -0.00086258293 0 0)
(-8.0162e-005 0.00018248629 0 0.00011584087 0 0)
(-0.00022253733 -8.285068e-006 0 0.0001597185 0 0)
(-8.1919209e-005 -4.0300825e-005 0 0.00012211919 0 0)
(-0.00013112189 -2.5285879e-005 0 0.00010698449 0 0)
(-7.2645156e-005 -3.6614695e-005 0 8.371642e-005 0 0)
(-7.4722529e-005 -1.8238312e-005 0 6.9696287e-005 0 0)
(-5.8430834e-005 -1.4218685e-005 0 6.0408943e-005 0 0)
(-5.6278109e-005 1.6811286e-007 0 5.5295998e-005 0 0)
(-5.5579841e-005 1.2980857e-005 0 5.5794299e-005 0 0)
(-6.1564179e-005 2.9957183e-005 0 6.1290293e-005 0 0)
(-7.3984687e-005 5.1654791e-005 0 7.3889836e-005 0 0)
(-9.1960299e-005 7.715203e-005 0 9.1585516e-005 0 0)
(-0.00012228226 0.0001156627 0 0.00012160264 0 0)
(-0.00016367159 0.00016692925 0 0.00016241092 0 0)
(-0.00022208295 0.00023985922 0 0.00021945553 0 0)
(-0.00030272493 0.00034501915 0 0.00029748889 0 0)
(-0.00041581373 0.00050571758 0 0.000405693 0 0)
(-0.00056732363 0.00072538013 0 0.00054317432 0 0)
(-0.00076736354 0.001122003 0 0.00072834459 0 0)
(-0.0010364108 0.0016378175 0 0.00091639818 0 0)
(-0.0012225581 0.0028796876 0 0.0010678746 0 0)
(-0.001969398 0.0044351573 0 0.0012071062 0 0)
(-0.0013446961 0.0077261896 0 0.00044485169 0 0)
(-0.0033954941 0.0099760741 0 -0.00015318174 0 0)
(0.0036978543 0.009616753 0 -0.0066096557 0 0)
(-0.012808186 -0.00016791408 0 0.009605792 0 0)
(-0.0060200736 4.9511513e-005 0 0.0053072322 0 0)
(-0.0018668176 0.00036081404 0 0.001647918 0 0)
(-0.00027638537 0.00049329897 0 0.00028174996 0 0)
(1.5277612e-005 0.00053953933 0 -3.230886e-005 0 0)
(2.4154036e-005 0.00054623259 0 -2.9068528e-005 0 0)
(-1.5159447e-006 0.00054676841 0 -4.8834052e-006 0 0)
(-5.4408105e-006 0.00054648324 0 2.1780537e-007 0 0)
(-5.2234954e-006 0.00054642718 0 -2.2315898e-007 0 0)
(-4.9322172e-006 0.00054639674 0 -4.0558857e-007 0 0)
(-5.1628289e-006 0.00054636939 0 -2.0392097e-007 0 0)
(-5.3008398e-006 0.00054635199 0 -5.8323053e-008 0 0)
(-5.3465504e-006 0.00054634475 0 -1.4093328e-008 0 0)
(-5.356073e-006 0.00054634236 0 -4.5360235e-009 0 0)
(-5.3582428e-006 0.00054634028 0 -2.1687959e-009 0 0)
(-5.3599813e-006 0.00054634214 0 -4.6233083e-010 0 0)
(-5.3603712e-006 0.00054634192 0 -9.9253332e-011 0 0)
(-5.3601371e-006 0.00054634119 0 -3.6815824e-010 0 0)
(-5.3603155e-006 0.00054634193 0 -1.9928932e-010 0 0)
(-5.3609358e-006 0.00054634151 0 4.1142598e-010 0 0)
(-5.3608195e-006 0.0005463394 0 3.6035811e-010 0 0)
(-5.3605811e-006 0.0005463408 0 4.3865161e-010 0 0)
(-5.3591544e-006 0.00054634136 0 2.6283689e-009 0 0)
(-5.3602003e-006 0.00054634018 0 2.445531e-008 0 0)
(-5.3652134e-006 0.00054636039 0 2.6242894e-008 0 0)
(-0.01259895 -0.00025326947 0 0.0093440773 0 0)
(-0.005884423 0.00059196955 0 0.0051971039 0 0)
(-0.001825457 0.0015532348 0 0.0015243085 0 0)
(-0.00035833887 0.0019514528 0 0.00030196126 0 0)
(-6.3833197e-005 0.0020866941 0 -2.5525543e-005 0 0)
(-4.914092e-005 0.0021068441 0 -2.6199935e-005 0 0)
(-7.2170283e-005 0.0021080705 0 -5.5024563e-006 0 0)
(-7.5876212e-005 0.0021072622 0 -5.4573494e-008 0 0)
(-7.5913772e-005 0.0021070338 0 -2.8258067e-007 0 0)
(-7.5685115e-005 0.0021069462 0 -3.4810163e-007 0 0)
(-7.5890465e-005 0.0021068595 0 -1.7807115e-007 0 0)
(-7.6005036e-005 0.0021068104 0 -5.1698919e-008 0 0)
(-7.6045218e-005 0.0021067889 0 -1.2240365e-008 0 0)
(-7.6052705e-005 0.0021067806 0 -4.263973e-009 0 0)
(-7.6055142e-005 0.002106779 0 -1.585582e-009 0 0)
(-7.6056456e-005 0.0021067785 0 -4.5066674e-010 0 0)
(-7.6056857e-005 0.002106782 0 -1.2923497e-010 0 0)
(-7.6056354e-005 0.0021067758 0 -2.8903692e-010 0 0)
(-7.6056827e-005 0.0021067796 0 1.0121904e-010 0 0)
(-7.6057028e-005 0.002106779 0 2.1345939e-010 0 0)
(-7.605656e-005 0.0021067711 0 6.435996e-012 0 0)
(-7.6056907e-005 0.0021067797 0 5.5648775e-010 0 0)
(-7.6055983e-005 0.0021067805 0 2.1207441e-009 0 0)
(-7.6049107e-005 0.0021067735 0 1.4463669e-008 0 0)
(-7.6055068e-005 0.0021068452 0 1.498329e-008 0 0)
(-0.012212284 0.00030903095 0 0.0089530916 0 0)
(-0.0054737072 0.0022244143 0 0.0047870679 0 0)
(-0.0018724249 0.0039246188 0 0.0013457999 0 0)
(-0.00065263377 0.0046024748 0 0.0002910645 0 0)
(-0.00040950689 0.004808847 0 -9.8722163e-006 0 0)
(-0.00038347069 0.0048444108 0 -2.1010051e-005 0 0)
(-0.00040213369 0.0048438411 0 -6.014533e-006 0 0)
(-0.00040530069 0.0048421896 0 -5.6056464e-007 0 0)
(-0.00040582437 0.0048416124 0 -3.3111781e-007 0 0)
(-0.00040568532 0.0048414624 0 -2.644623e-007 0 0)
(-0.00040584135 0.0048413134 0 -1.3238758e-007 0 0)
(-0.00040590705 0.0048412399 0 -4.2645219e-008 0 0)
(-0.00040593596 0.0048412066 0 -9.7251059e-009 0 0)
(-0.00040594167 0.0048411991 0 -2.8361731e-009 0 0)
(-0.0004059425 0.004841192 0 -1.0424085e-009 0 0)
(-0.00040594333 0.0048411955 0 -4.6586554e-010 0 0)
(-0.00040594246 0.0048411817 0 -7.8767987e-011 0 0)
(-0.00040594334 0.0048411905 0 2.980448e-010 0 0)
(-0.00040594398 0.0048411941 0 4.1921177e-010 0 0)
(-0.00040594334 0.0048411947 0 -3.4267142e-010 0 0)
(-0.00040594237 0.0048411829 0 -3.8129891e-010 0 0)
(-0.00040594385 0.0048411919 0 4.6696812e-010 0 0)
(-0.00040594373 0.0048411887 0 9.3482952e-010 0 0)
(-0.0004059371 0.0048411926 0 -2.0839374e-009 0 0)
(-0.00040594551 0.0048412608 0 -3.0664799e-009 0 0)
(-0.011279443 0.0016301701 0 0.0081339789 0 0)
(-0.0048184087 0.0051760872 0 0.0038969531 0 0)
(-0.002430715 0.0076513086 0 0.0011042137 0 0)
(-0.0015905456 0.0086175476 0 0.00024811399 0 0)
(-0.0014734089 0.0088532808 0 2.3264582e-005 0 0)
(-0.0014351371 0.0089177791 0 -1.140407e-005 0 0)
(-0.0014453102 0.0089146047 0 -5.8725532e-006 0 0)
(-0.0014473805 0.0089117808 0 -1.0937139e-006 0 0)
(-0.0014483305 0.0089106462 0 -3.2663015e-007 0 0)
(-0.0014482455 0.0089104181 0 -1.4872335e-007 0 0)
(-0.0014483135 0.0089102141 0 -7.061068e-008 0 0)
(-0.0014483166 0.0089101272 0 -2.7339166e-008 0 0)
(-0.0014483261 0.0089100913 0 -6.0671772e-009 0 0)
(-0.0014483277 0.0089100837 0 -1.4719956e-009 0 0)
(-0.0014483266 0.0089100752 0 -4.2412033e-010 0 0)
(-0.0014483268 0.0089100789 0 -3.6066668e-010 0 0)
(-0.0014483272 0.0089100741 0 2.6456947e-010 0 0)
(-0.0014483279 0.0089100736 0 8.3417011e-010 0 0)
(-0.0014483273 0.0089100778 0 2.6455149e-011 0 0)
(-0.0014483243 0.0089100644 0 -7.3462022e-010 0 0)
(-0.0014483255 0.008910072 0 -4.8453486e-010 0 0)
(-0.0014483273 0.0089100784 0 2.0469239e-010 0 0)
(-0.0014483286 0.0089100794 0 -2.3549048e-010 0 0)
(-0.0014483218 0.008910065 0 -1.5004077e-008 0 0)
(-0.0014483349 0.0089101367 0 -1.7424577e-008 0 0)
(-0.0095417785 0.0035396095 0 0.006596085 0 0)
(-0.0043133576 0.009487681 0 0.0023902141 0 0)
(-0.0040094772 0.012147847 0 0.00084223293 0 0)
(-0.0037197571 0.013580435 0 0.000176524 0 0)
(-0.0037773299 0.013828983 0 2.8502478e-005 0 0)
(-0.0037491002 0.01387618 0 -9.9406691e-007 0 0)
(-0.0037491572 0.013868351 0 -4.3904866e-006 0 0)
(-0.0037488163 0.013864052 0 -1.3410506e-006 0 0)
(-0.0037498332 0.013862203 0 -2.2956122e-007 0 0)
(-0.0037497095 0.013861915 0 -6.6422317e-009 0 0)
(-0.0037496546 0.013861693 0 -9.018907e-009 0 0)
(-0.0037495952 0.013861613 0 -4.96211e-009 0 0)
(-0.0037495794 0.013861571 0 -1.5300465e-009 0 0)
(-0.0037495753 0.013861563 0 1.5390847e-011 0 0)
(-0.0037495717 0.013861555 0 1.8061834e-010 0 0)
(-0.0037495725 0.013861558 0 4.3436841e-011 0 0)
(-0.0037495724 0.013861556 0 3.3085481e-010 0 0)
(-0.0037495727 0.013861556 0 6.1439724e-010 0 0)
(-0.0037495689 0.013861546 0 -2.2230923e-010 0 0)
(-0.00374957 0.013861551 0 -4.8939226e-010 0 0)
(-0.0037495718 0.013861557 0 -1.9182341e-010 0 0)
(-0.0037495727 0.013861559 0 -3.5600661e-010 0 0)
(-0.0037495749 0.013861558 0 -7.5934611e-010 0 0)
(-0.0037495745 0.013861547 0 -1.8701522e-008 0 0)
(-0.0037495819 0.013861577 0 -2.172469e-008 0 0)
(-0.0063579739 0.0065955631 0 0.0035569161 0 0)
(-0.0050244779 0.013827401 0 0.00085345176 0 0)
(-0.0067088742 0.017132332 0 0.00026853497 0 0)
(-0.0073331189 0.018576221 0 0.00012600018 0 0)
(-0.0075601098 0.018833169 0 5.1807469e-005 0 0)
(-0.0075195083 0.018874494 0 1.0137484e-005 0 0)
(-0.0075084405 0.018863456 0 -1.5731831e-006 0 0)
(-0.0075038058 0.018858572 0 -1.1418896e-006 0 0)
(-0.0075042451 0.018856106 0 -2.9778297e-008 0 0)
(-0.0075039497 0.018855844 0 1.4281141e-007 0 0)
(-0.0075037849 0.018855658 0 5.0789401e-008 0 0)
(-0.0075036647 0.018855599 0 1.1903276e-008 0 0)
(-0.0075036328 0.018855566 0 2.4677504e-009 0 0)
(-0.0075036248 0.01885556 0 1.3147375e-009 0 0)
(-0.0075036222 0.018855558 0 6.1741058e-010 0 0)
(-0.0075036216 0.018855558 0 4.3001076e-010 0 0)
(-0.0075036209 0.018855558 0 4.6770777e-011 0 0)
(-0.007503618 0.01885555 0 -1.0219301e-010 0 0)
(-0.0075036195 0.018855554 0 -1.1170931e-010 0 0)
(-0.0075036212 0.018855557 0 2.9718443e-010 0 0)
(-0.0075036211 0.018855558 0 1.2863647e-010 0 0)
(-0.0075036208 0.018855557 0 -7.0101943e-010 0 0)
(-0.0075036229 0.018855554 0 -8.203703e-010 0 0)
(-0.0075036326 0.018855554 0 -1.2842603e-008 0 0)
(-0.007503624 0.018855525 0 -1.4773338e-008 0 0)
(-0.004407052 0.010403852 0 0.00040909069 0 0)
(-0.0065447194 0.01860529 0 -0.0010796821 0 0)
(-0.010898077 0.021777258 0 -0.0002663784 0 0)
(-0.012062856 0.022878549 0 6.8880905e-005 0 0)
(-0.012401008 0.023088665 0 6.8927667e-005 0 0)
(-0.012347244 0.023133578 0 1.8941298e-005 0 0)
(-0.012327689 0.023122132 0 1.1927189e-006 0 0)
(-0.012318942 0.023118425 0 -5.8108223e-007 0 0)
(-0.012318728 0.023115985 0 2.2932524e-007 0 0)
(-0.012318238 0.023115927 0 2.4485971e-007 0 0)
(-0.012318042 0.023115823 0 9.2992757e-008 0 0)
(-0.012317892 0.023115806 0 2.2015404e-008 0 0)
(-0.012317856 0.023115787 0 4.8630505e-009 0 0)
(-0.012317847 0.023115784 0 2.0509315e-009 0 0)
(-0.012317844 0.023115783 0 7.6229233e-010 0 0)
(-0.012317844 0.023115784 0 3.342216e-010 0 0)
(-0.012317843 0.023115783 0 -3.0848425e-010 0 0)
(-0.012317843 0.023115783 0 -5.4509024e-010 0 0)
(-0.012317843 0.023115781 0 1.8592568e-010 0 0)
(-0.012317843 0.023115781 0 6.6660184e-010 0 0)
(-0.012317843 0.023115782 0 1.8711459e-010 0 0)
(-0.012317843 0.023115783 0 -6.9498708e-010 0 0)
(-0.012317845 0.023115782 0 -7.287841e-010 0 0)
(-0.012317858 0.023115783 0 -3.181389e-009 0 0)
(-0.012317846 0.023115728 0 -3.4744039e-009 0 0)
(-0.003871506 0.014576567 0 -0.0027444071 0 0)
(-0.010042122 0.023620401 0 -0.0027194116 0 0)
(-0.015976151 0.025458372 0 -0.00057092791 0 0)
(-0.017066398 0.026055617 0 2.5373478e-005 0 0)
(-0.017456873 0.026204949 0 7.3414869e-005 0 0)
(-0.017392741 0.026253407 0 2.1769817e-005 0 0)
(-0.017374945 0.026246558 0 3.7178967e-006 0 0)
(-0.017363421 0.02624498 0 5.9547585e-009 0 0)
(-0.017363281 0.026243257 0 4.251596e-007 0 0)
(-0.017362727 0.026243504 0 2.5848584e-007 0 0)
(-0.017362624 0.026243511 0 1.0537239e-007 0 0)
(-0.017362489 0.026243541 0 2.3410738e-008 0 0)
(-0.017362463 0.026243536 0 4.9006629e-009 0 0)
(-0.017362457 0.026243538 0 1.7924787e-009 0 0)
(-0.017362456 0.026243539 0 5.7887234e-010 0 0)
(-0.017362456 0.02624354 0 1.0899965e-010 0 0)
(-0.017362456 0.02624354 0 -3.9598374e-010 0 0)
(-0.017362455 0.026243539 0 -4.355556e-010 0 0)
(-0.017362455 0.026243539 0 1.3257118e-010 0 0)
(-0.017362456 0.026243539 0 3.235493e-010 0 0)
(-0.017362457 0.02624354 0 1.7400873e-010 0 0)
(-0.017362457 0.02624354 0 -3.7071075e-010 0 0)
(-0.017362455 0.026243537 0 -9.3442798e-010 0 0)
(-0.017362462 0.026243539 0 4.1141585e-009 0 0)
(-0.017362453 0.026243486 0 5.4821599e-009 0 0)
(-0.0084448781 0.022720821 0 -0.0055806951 0 0)
(-0.015452761 0.027899424 0 -0.0036466219 0 0)
(-0.020955456 0.027848423 0 -0.00054180628 0 0)
(-0.021349886 0.027915904 0 -2.9350189e-005 0 0)
(-0.021757471 0.02802042 0 6.9625095e-005 0 0)
(-0.021690687 0.028072409 0 1.5091454e-005 0 0)
(-0.021693708 0.028075522 0 5.7312847e-006 0 0)
(-0.021679923 0.028075535 0 7.801567e-008 0 0)
(-0.021681794 0.028075256 0 5.6420689e-007 0 0)
(-0.021681042 0.028075626 0 1.7429194e-007 0 0)
(-0.021681243 0.02807577 0 9.6775923e-008 0 0)
(-0.021681129 0.028075822 0 1.3691649e-008 0 0)
(-0.021681133 0.028075828 0 3.6489966e-009 0 0)
(-0.021681131 0.028075832 0 9.6613805e-010 0 0)
(-0.021681132 0.028075833 0 2.3316168e-010 0 0)
(-0.021681132 0.028075834 0 -3.3056835e-011 0 0)
(-0.021681132 0.028075834 0 -1.0152098e-010 0 0)
(-0.021681132 0.028075833 0 -1.0111494e-010 0 0)
(-0.021681132 0.028075833 0 -1.2906965e-010 0 0)
(-0.021681132 0.028075834 0 -7.9871748e-011 0 0)
(-0.021681133 0.028075834 0 5.5634796e-011 0 0)
(-0.021681134 0.028075835 0 -1.8344018e-010 0 0)
(-0.021681133 0.028075833 0 -1.0665296e-009 0 0)
(-0.02168113 0.028075835 0 7.447682e-009 0 0)
(-0.021681123 0.028075814 0 9.5661732e-009 0 0)
(-0.029131955 0.038678234 0 -0.0094099975 0 0)
(-0.024154783 0.030677421 0 -0.0022807865 0 0)
(-0.031335579 0.031731215 0 -0.00034171691 0 0)
(-0.029386183 0.030550424 0 -2.7041132e-005 0 0)
(-0.030384919 0.030998944 0 3.2707294e-005 0 0)
(-0.030149945 0.030939696 0 6.806746e-006 0 0)
(-0.030239474 0.030990662 0 3.3370345e-006 0 0)
(-0.0302123 0.030980826 0 -5.0834394e-008 0 0)
(-0.030221117 0.030985133 0 3.2100984e-007 0 0)
(-0.030219496 0.030984622 0 4.1234986e-008 0 0)
(-0.030220259 0.030985093 0 4.1828424e-008 0 0)
(-0.030220161 0.030985082 0 7.9315825e-010 0 0)
(-0.030220193 0.0309851 0 7.1401829e-010 0 0)
(-0.030220195 0.030985101 0 -2.6878182e-010 0 0)
(-0.030220195 0.030985101 0 -9.1633309e-011 0 0)
(-0.030220196 0.030985101 0 -1.0101958e-010 0 0)
(-0.030220196 0.030985101 0 4.0863881e-011 0 0)
(-0.030220196 0.030985101 0 5.828441e-011 0 0)
(-0.030220196 0.030985101 0 -9.5023559e-011 0 0)
(-0.030220195 0.030985101 0 -1.9213635e-010 0 0)
(-0.030220195 0.030985101 0 -1.4472575e-010 0 0)
(-0.030220194 0.0309851 0 -2.8022188e-010 0 0)
(-0.030220191 0.030985101 0 -1.4193887e-009 0 0)
(-0.030220179 0.030985097 0 4.7658051e-009 0 0)
(-0.03022016 0.030985133 0 6.6619654e-009 0 0)
(-7.2413953e-005 0.00020940339 0 0.00012598175 0 0)
(-0.00024260009 -1.1468281e-005 0 0.00015373928 0 0)
(-8.3682113e-005 -5.300561e-005 0 0.00014150115 0 0)
(-0.00013274016 -3.6922646e-005 0 9.9478413e-005 0 0)
(-7.1717876e-005 -4.5142663e-005 0 8.555945e-005 0 0)
(-6.8732465e-005 -2.4957069e-005 0 6.295707e-005 0 0)
(-5.355192e-005 -1.7512318e-005 0 5.4970959e-005 0 0)
(-4.9101621e-005 -1.0873692e-006 0 4.7828953e-005 0 0)
(-4.7766154e-005 1.4540624e-005 0 4.7455807e-005 0 0)
(-5.1620232e-005 3.3857434e-005 0 5.0926922e-005 0 0)
(-6.1326627e-005 5.9167989e-005 0 6.0731666e-005 0 0)
(-7.5558083e-005 8.8323558e-005 0 7.453752e-005 0 0)
(-9.9370576e-005 0.0001316729 0 9.7940124e-005 0 0)
(-0.00013161712 0.00018903205 0 0.00012938043 0 0)
(-0.00017635329 0.00027005918 0 0.00017243847 0 0)
(-0.00023627626 0.00038531082 0 0.00022947953 0 0)
(-0.0003156389 0.00055862997 0 0.00030446423 0 0)
(-0.00041066845 0.00079251746 0 0.00038658753 0 0)
(-0.00052362083 0.0011969783 0 0.00049028688 0 0)
(-0.0006422408 0.0017269613 0 0.00054242453 0 0)
(-0.00060229296 0.002846355 0 0.00049785192 0 0)
(-0.00065622618 0.0043594174 0 2.6530264e-005 0 0)
(0.00080526437 0.0069188068 0 -0.0012694433 0 0)
(0.0015065995 0.0075115661 0 -0.0035598509 0 0)
(0.0097673826 0.0043682652 0 -0.01130928 0 0)
(-7.7232556e-005 0.0002465966 0 0.00014017735 0 0)
(-0.00026936964 -1.6220398e-005 0 0.00016459695 0 0)
(-8.8240104e-005 -7.3439601e-005 0 0.00015353439 0 0)
(-0.000132376 -6.0590034e-005 0 9.5644478e-005 0 0)
(-6.6593882e-005 -5.7254798e-005 0 7.9531301e-005 0 0)
(-5.7398285e-005 -3.6620891e-005 0 5.3064099e-005 0 0)
(-4.2564895e-005 -2.2061888e-005 0 4.346365e-005 0 0)
(-3.5802062e-005 -3.0922881e-006 0 3.5138808e-005 0 0)
(-3.2941944e-005 1.630329e-005 0 3.2810752e-005 0 0)
(-3.3903149e-005 3.9246001e-005 0 3.3560708e-005 0 0)
(-3.8540758e-005 6.7549192e-005 0 3.8419446e-005 0 0)
(-4.6340919e-005 0.00010103616 0 4.5916168e-005 0 0)
(-5.9145265e-005 0.0001486128 0 5.8373318e-005 0 0)
(-7.6491832e-005 0.00021315991 0 7.5265218e-005 0 0)
(-9.8311838e-005 0.00030012322 0 9.5846032e-005 0 0)
(-0.00012526084 0.00042267307 0 0.00012033183 0 0)
(-0.00015422149 0.00060073816 0 0.00014574293 0 0)
(-0.00017956744 0.00083792944 0 0.00016001017 0 0)
(-0.00018005031 0.0012067145 0 0.00014904121 0 0)
(-0.00013639754 0.0016795248 0 5.3751967e-005 0 0)
(0.0001061516 0.0025414052 0 -0.00023584846 0 0)
(0.00056364998 0.0034671804 0 -0.0010850697 0 0)
(0.0024442415 0.0046538313 0 -0.0030235357 0 0)
(0.0049081247 0.0023089413 0 -0.00678641 0 0)
(0.0061191448 -0.0032853799 0 -0.0092102029 0 0)
(-9.9060282e-005 0.00029439556 0 0.0001621402 0 0)
(-0.00029651099 -2.7034964e-005 0 0.00019180495 0 0)
(-9.2017301e-005 -0.00010332554 0 0.000155094 0 0)
(-0.00012733847 -8.8651506e-005 0 9.3632378e-005 0 0)
(-5.7050436e-005 -7.3725335e-005 0 6.5664248e-005 0 0)
(-4.2878161e-005 -4.8874628e-005 0 4.0548704e-005 0 0)
(-2.8282645e-005 -2.8294304e-005 0 2.8261204e-005 0 0)
(-2.0089673e-005 -5.9958181e-006 0 1.9812388e-005 0 0)
(-1.5871768e-005 1.594595e-005 0 1.5735672e-005 0 0)
(-1.3897893e-005 4.1111096e-005 0 1.3677007e-005 0 0)
(-1.370875e-005 7.1124881e-005 0 1.3621293e-005 0 0)
(-1.4762853e-005 0.00010770607 0 1.4491329e-005 0 0)
(-1.6584177e-005 0.00015584325 0 1.5916963e-005 0 0)
(-1.8192306e-005 0.00022157302 0 1.7122801e-005 0 0)
(-1.8248125e-005 0.00030987645 0 1.6243747e-005 0 0)
(-1.404829e-005 0.0004298439 0 9.8032838e-006 0 0)
(1.3619695e-006 0.00059912093 0 -8.8156125e-006 0 0)
(3.6592993e-005 0.00082173102 0 -5.2611003e-005 0 0)
(0.00011797871 0.0011390092 0 -0.00014455259 0 0)
(0.00026744569 0.0015448697 0 -0.00032794265 0 0)