/*--------------------------------*- C++ -*----------------------------------*\
| =========                 |                                                 |
| \\      /  F ield         | OpenFOAM: The Open Source CFD Toolbox           |
|  \\    /   O peration     | Version:  5.x                                   |
|   \\  /    A nd           | Web:      www.OpenFOAM.org                      |
|    \\/     M anipulation  |                                                 |
\*---------------------------------------------------------------------------*/
/*   Windows 32 and 64 bit porting by blueCAPE: http://www.bluecape.com.pt   *\
|  Based on Windows porting (2.0.x v4) by Symscape: http://www.symscape.com   |
\*---------------------------------------------------------------------------*/
FoamFile
{
    version     2.0;
    format      ascii;
    class       volSymmTensorField;
    location    "0.07";
    object      sigma;
}
// * * * * * * * * * * * * * * * * * * * * * * * * * * * * * * * * * * * * * //

dimensions      [0 2 -2 0 0 0 0];

internalField   nonuniform List<symmTensor> 
750
(
(-9.7944759e-005 9.8365246e-006 0 0.00011849391 0 0)
(-0.00018380327 -9.0447587e-007 0 0.00014838383 0 0)
(-7.9104576e-005 -2.0896388e-006 0 0.0001018377 0 0)
(-0.00012576892 -8.838451e-007 0 0.00011056325 0 0)
(-7.4476141e-005 -1.9109801e-006 0 8.2362723e-005 0 0)
(-8.7038261e-005 -7.1404444e-007 0 8.2659989e-005 0 0)
(-6.957944e-005 -7.9774044e-007 0 7.1488584e-005 0 0)
(-7.2929577e-005 9.7106831e-008 0 7.1866567e-005 0 0)
(-7.4160232e-005 7.2334736e-007 0 7.4427073e-005 0 0)
(-8.5333819e-005 1.7390737e-006 0 8.5003414e-005 0 0)
(-0.00010496233 2.9913034e-006 0 0.0001047543 0 0)
(-0.00013266464 4.4913576e-006 0 0.00013220539 0 0)
(-0.00017973975 6.8355585e-006 0 0.00017897499 0 0)
(-0.00024475487 9.9842747e-006 0 0.00024335737 0 0)
(-0.00034024561 1.453564e-005 0 0.00033736134 0 0)
(-0.00047899671 2.1317404e-005 0 0.00047358932 0 0)
(-0.00068664458 3.2018129e-005 0 0.00067566264 0 0)
(-0.00098336626 4.6986854e-005 0 0.00095899659 0 0)
(-0.0014672866 7.5097242e-005 0 0.0014225003 0 0)
(-0.0021694512 0.00011245569 0 0.0020472507 0 0)
(-0.0033667657 0.00019700558 0 0.0031553755 0 0)
(-0.0053736954 0.00029505344 0 0.0046872876 0 0)
(-0.0087221579 0.00045419833 0 0.0074114315 0 0)
(-0.013302797 0.00058916547 0 0.0099357305 0 0)
(-0.017000585 3.8182803e-005 0 0.012525282 0 0)
(-9.7595972e-005 2.839678e-005 0 0.00012170239 0 0)
(-0.00018468513 -2.3803861e-006 0 0.00014317623 0 0)
(-7.916068e-005 -5.7131026e-006 0 0.00010695998 0 0)
(-0.00012571135 -2.9912916e-006 0 0.00010727212 0 0)
(-7.4508555e-005 -5.2515631e-006 0 8.4534505e-005 0 0)
(-8.6747803e-005 -2.2059216e-006 0 8.1282247e-005 0 0)
(-6.9356302e-005 -2.0820743e-006 0 7.1791268e-005 0 0)
(-7.2543801e-005 4.5027159e-007 0 7.1170936e-005 0 0)
(-7.3737921e-005 2.429838e-006 0 7.4075463e-005 0 0)
(-8.4803544e-005 5.4260311e-006 0 8.4365578e-005 0 0)
(-0.0001041677 9.1907637e-006 0 0.0001039233 0 0)
(-0.00013166516 1.3682358e-005 0 0.000131113 0 0)
(-0.00017842498 2.0692991e-005 0 0.00017753616 0 0)
(-0.00024287066 3.0073631e-005 0 0.00024130709 0 0)
(-0.00033728377 4.362257e-005 0 0.00033411399 0 0)
(-0.00047481408 6.3880365e-005 0 0.00046907886 0 0)
(-0.00068015892 9.5421976e-005 0 0.00066849642 0 0)
(-0.00097170703 0.00013992623 0 0.00094646873 0 0)
(-0.0014526277 0.0002246447 0 0.0014069666 0 0)
(-0.0021359652 0.00033031625 0 0.0020065352 0 0)
(-0.0033350045 0.00059575632 0 0.0031271958 0 0)
(-0.0052935565 0.0008862556 0 0.0045730962 0 0)
(-0.0087173858 0.0012836499 0 0.0074160703 0 0)
(-0.013322942 0.0017935998 0 0.0097995421 0 0)
(-0.017205842 0.00028161099 0 0.012679922 0 0)
(-9.7144074e-005 4.6019359e-005 0 0.00012320688 0 0)
(-0.00018629376 -3.4091321e-006 0 0.00014125728 0 0)
(-7.9094044e-005 -8.9542447e-006 0 0.00010928688 0 0)
(-0.00012590317 -5.3943648e-006 0 0.00010588098 0 0)
(-7.4459736e-005 -8.3185551e-006 0 8.5254993e-005 0 0)
(-8.6235121e-005 -3.8314038e-006 0 8.0356722e-005 0 0)
(-6.8890616e-005 -3.2223675e-006 0 7.1523727e-005 0 0)
(-7.1794601e-005 8.0979405e-007 0 7.0355256e-005 0 0)
(-7.2891436e-005 4.2100299e-006 0 7.3287633e-005 0 0)
(-8.3732549e-005 9.1411402e-006 0 8.3305715e-005 0 0)
(-0.00010265496 1.5387276e-005 0 0.00010246435 0 0)
(-0.00012975158 2.2873909e-005 0 0.0001292436 0 0)
(-0.00017581198 3.4497832e-005 0 0.00017498469 0 0)
(-0.00023907407 4.9985451e-005 0 0.00023761331 0 0)
(-0.00033158977 7.2373023e-005 0 0.00032855851 0 0)
(-0.00046633089 0.00010596168 0 0.00046084047 0 0)
(-0.00066717521 0.00015764228 0 0.00065586237 0 0)
(-0.00095066233 0.00023165864 0 0.00092596624 0 0)
(-0.0014193411 0.00037008484 0 0.0013751361 0 0)
(-0.0020785278 0.00055143252 0 0.0019498079 0 0)
(-0.003251955 0.000965116 0 0.0030501346 0 0)
(-0.0051792414 0.0014581834 0 0.0044462813 0 0)
(-0.0085968895 0.0022079612 0 0.00729106 0 0)
(-0.0133568 0.0031133437 0 0.0096332944 0 0)
(-0.017254865 0.00082423884 0 0.012654106 0 0)
(-9.6423882e-005 6.4005096e-005 0 0.00012319895 0 0)
(-0.0001885745 -4.0753609e-006 0 0.00014227002 0 0)
(-7.910652e-005 -1.2219111e-005 0 0.00010989921 0 0)
(-0.00012628099 -7.8999696e-006 0 0.00010600964 0 0)
(-7.4367448e-005 -1.155573e-005 0 8.5105017e-005 0 0)
(-8.5494585e-005 -5.6251035e-006 0 7.9700853e-005 0 0)
(-6.8168915e-005 -4.5103855e-006 0 7.0731274e-005 0 0)
(-7.0681506e-005 9.8966652e-007 0 6.9293866e-005 0 0)
(-7.1630524e-005 5.807575e-006 0 7.2007211e-005 0 0)
(-8.2077162e-005 1.2615592e-005 0 8.1666684e-005 0 0)
(-0.00010056239 2.1359648e-005 0 0.00010036378 0 0)
(-0.00012691687 3.1758786e-005 0 0.00012641009 0 0)
(-0.00017176669 4.7878826e-005 0 0.00017094292 0 0)
(-0.00023331232 6.9336194e-005 0 0.00023185684 0 0)
(-0.00032322651 0.00010040316 0 0.00032020719 0 0)
(-0.00045365737 0.00014667422 0 0.00044815274 0 0)
(-0.00064762445 0.00021814273 0 0.00063641556 0 0)
(-0.00092030709 0.00032102584 0 0.00089562197 0 0)
(-0.0013676403 0.00051116807 0 0.001323903 0 0)
(-0.0019963639 0.00076027731 0 0.0018695314 0 0)
(-0.0031081582 0.0013559482 0 0.0029058497 0 0)
(-0.0049951541 0.0020765819 0 0.0042535516 0 0)
(-0.0083242472 0.0031851218 0 0.0069925508 0 0)
(-0.013314602 0.004568417 0 0.0093352964 0 0)
(-0.016852773 0.0017230808 0 0.01234026 0 0)
(-9.5240329e-005 8.2753837e-005 0 0.00012207186 0 0)
(-0.00019160978 -4.5205009e-006 0 0.00014514425 0 0)
(-7.933232e-005 -1.5619483e-005 0 0.00011004218 0 0)
(-0.00012682765 -1.0397134e-005 0 0.00010684793 0 0)
(-7.4258333e-005 -1.4953931e-005 0 8.4694293e-005 0 0)
(-8.4506693e-005 -7.4531516e-006 0 7.8947606e-005 0 0)
(-6.719222e-005 -5.8390411e-006 0 6.9615208e-005 0 0)
(-6.9207598e-005 1.1333106e-006 0 6.7901601e-005 0 0)
(-6.9958241e-005 7.3510978e-006 0 7.0302301e-005 0 0)
(-7.9890822e-005 1.6000645e-005 0 7.9503081e-005 0 0)
(-9.7779334e-005 2.7174844e-005 0 9.7575046e-005 0 0)
(-0.00012318674 4.041735e-005 0 0.00012269035 0 0)
(-0.00016643201 6.0872576e-005 0 0.0001656254 0 0)
(-0.00022570582 8.8092167e-005 0 0.00022426702 0 0)
(-0.00031222259 0.00012750706 0 0.00030924395 0 0)
(-0.00043696316 0.00018606686 0 0.00043147433 0 0)
(-0.00062174394 0.00027622596 0 0.00061070846 0 0)
(-0.00088041132 0.0004064846 0 0.00085584865 0 0)
(-0.0012997004 0.00064414054 0 0.0012562096 0 0)
(-0.0018873954 0.00096394202 0 0.0017627276 0 0)
(-0.0029340138 0.0016900154 0 0.0027274795 0 0)
(-0.0047660518 0.002613452 0 0.0040142973 0 0)
(-0.0079268159 0.0040875525 0 0.0065689596 0 0)
(-0.013113727 0.0060799207 0 0.0088256321 0 0)
(-0.015877076 0.0029188422 0 0.01167028 0 0)
(-9.3454803e-005 0.00010221394 0 0.00012006795 0 0)
(-0.00019555956 -4.9279307e-006 0 0.00014936322 0 0)
(-7.9770383e-005 -1.937001e-005 0 0.00011007743 0 0)
(-0.0001275485 -1.2931327e-005 0 0.00010808218 0 0)
(-7.4137097e-005 -1.8628129e-005 0 8.4161492e-005 0 0)
(-8.3243269e-005 -9.3414811e-006 0 7.7963311e-005 0 0)
(-6.5971255e-005 -7.2605884e-006 0 6.8229928e-005 0 0)
(-6.7374277e-005 1.1943954e-006 0 6.6161562e-005 0 0)
(-6.7881201e-005 8.7906949e-006 0 6.8192245e-005 0 0)
(-7.7198911e-005 1.9240533e-005 0 7.6835576e-005 0 0)
(-9.4293024e-005 3.2765723e-005 0 9.4101756e-005 0 0)
(-0.00011857309 4.8754779e-005 0 0.00011809566 0 0)
(-0.00015982956 7.3338415e-005 0 0.00015904118 0 0)
(-0.00021641771 0.00010607954 0 0.00021500146 0 0)
(-0.0002986853 0.00015344357 0 0.00029578044 0 0)
(-0.00041658923 0.00022330012 0 0.00041116107 0 0)
(-0.00058995457 0.00033119466 0 0.00057918868 0 0)
(-0.0008320953 0.00048581869 0 0.00080804418 0 0)
(-0.0012162494 0.00076708079 0 0.0011732822 0 0)
(-0.0017563479 0.0011472285 0 0.0016352596 0 0)
(-0.0026958877 0.0020263636 0 0.0024924818 0 0)
(-0.0044220091 0.0031784312 0 0.0036691151 0 0)
(-0.0072646765 0.0051178203 0 0.0059106073 0 0)
(-0.012674813 0.0076595206 0 0.0080661722 0 0)
(-0.014222012 0.0040762941 0 0.010707992 0 0)
(-9.1055381e-005 0.00012209536 0 0.00011746979 0 0)
(-0.0002005468 -5.4725724e-006 0 0.00015448314 0 0)
(-8.0380227e-005 -2.3621541e-005 0 0.00011028283 0 0)
(-0.00012843112 -1.5593863e-005 0 0.00010948319 0 0)
(-7.3996391e-005 -2.2648292e-005 0 8.3584515e-005 0 0)
(-8.1679112e-005 -1.133987e-005 0 7.670631e-005 0 0)
(-6.4509372e-005 -8.8113359e-006 0 6.6582286e-005 0 0)
(-6.518119e-005 1.1387227e-006 0 6.4078066e-005 0 0)
(-6.5408143e-005 1.00893e-005 0 6.5682009e-005 0 0)
(-7.4003612e-005 2.2275253e-005 0 7.3671569e-005 0 0)
(-9.0172571e-005 3.8075717e-005 0 8.9989019e-005 0 0)
(-0.00011312388 5.6641518e-005 0 0.00011266091 0 0)
(-0.0001520712 8.5138519e-005 0 0.00015129108 0 0)
(-0.00020550124 0.00012312781 0 0.00020409614 0 0)
(-0.00028284208 0.00017780441 0 0.00027998558 0 0)
(-0.00039283208 0.00025822018 0 0.00038744625 0 0)
(-0.00055363905 0.0003813853 0 0.00054306557 0 0)
(-0.00077515114 0.00055916231 0 0.00075142959 0 0)
(-0.001118821 0.00087837264 0 0.0010767484 0 0)
(-0.0015999015 0.001316512 0 0.0014811267 0 0)
(-0.0024059649 0.0023274924 0 0.0022040237 0 0)
(-0.0039807664 0.0036898528 0 0.0032175504 0 0)
(-0.006232316 0.006244539 0 0.0048679383 0 0)
(-0.011966778 0.0090414793 0 0.0070522331 0 0)
(-0.01014742 0.005459604 0 0.0078546163 0 0)
(-8.8092654e-005 0.00014235512 0 0.00011501868 0 0)
(-0.00020671688 -6.2488276e-006 0 0.00015942537 0 0)
(-8.109579e-005 -2.8511582e-005 0 0.0001114249 0 0)
(-0.00012945016 -1.8519735e-005 0 0.00011062012 0 0)
(-7.3804044e-005 -2.70201e-005 0 8.296664e-005 0 0)
(-7.9792694e-005 -1.3484406e-005 0 7.5165322e-005 0 0)
(-6.2810168e-005 -1.0507938e-005 0 6.466499e-005 0 0)
(-6.2627452e-005 9.5150321e-007 0 6.1640103e-005 0 0)
(-6.2554051e-005 1.123001e-005 0 6.2778915e-005 0 0)
(-7.0315152e-005 2.5051402e-005 0 7.0003211e-005 0 0)
(-8.5474022e-005 4.3057384e-005 0 8.5265841e-005 0 0)
(-0.00010689207 6.4060572e-005 0 0.00010641633 0 0)
(-0.00014321536 9.6177899e-005 0 0.00014242036 0 0)
(-0.00019306196 0.00013894159 0 0.00019162066 0 0)
(-0.00026486797 0.00020041697 0 0.00026196042 0 0)
(-0.0003661732 0.00029010094 0 0.00036065839 0 0)
(-0.00051184308 0.00042821275 0 0.00050128492 0 0)
(-0.00071186677 0.00062376185 0 0.00068843848 0 0)
(-0.0010081918 0.00097666302 0 0.00096724289 0 0)
(-0.0014263081 0.0014616618 0 0.0013108255 0 0)
(-0.0020835993 0.0025686755 0 0.0018779954 0 0)
(-0.0034590292 0.0040949157 0 0.0026893347 0 0)
(-0.005276758 0.0069798172 0 0.0038778479 0 0)
(-0.010994597 0.0099452244 0 0.005936784 0 0)
(-0.0068223233 0.0066845469 0 0.0051600332 0 0)
(-8.4758574e-005 0.00016267641 0 0.00011380456 0 0)
(-0.00021408886 -7.1647601e-006 0 0.00016282185 0 0)
(-8.1905568e-005 -3.4044297e-005 0 0.00011412944 0 0)
(-0.00013051889 -2.1906851e-005 0 0.00011083144 0 0)
(-7.3534937e-005 -3.1734038e-005 0 8.2603846e-005 0 0)
(-7.7572023e-005 -1.5855596e-005 0 7.3139387e-005 0 0)
(-6.0873098e-005 -1.2392046e-005 0 6.259992e-005 0 0)
(-5.9726387e-005 5.8227945e-007 0 5.8805793e-005 0 0)
(-5.9332996e-005 1.2148052e-005 0 5.9527249e-005 0 0)
(-6.6203301e-005 2.7552796e-005 0 6.589771e-005 0 0)
(-8.0116388e-005 4.7591268e-005 0 7.9909029e-005 0 0)
(-9.9877176e-005 7.0926576e-005 0 9.941888e-005 0 0)
(-0.00013326443 0.00010632166 0 0.00013248998 0 0)
(-0.00017911314 0.00015358091 0 0.00017769513 0 0)
(-0.0002446643 0.00022123043 0 0.00024182849 0 0)
(-0.00033635534 0.00031916458 0 0.00033094578 0 0)
(-0.00046685851 0.00046910959 0 0.00045650984 0 0)
(-0.00064037981 0.00068106228 0 0.000617223 0 0)
(-0.00089293296 0.0010568989 0 0.00085330545 0 0)
(-0.0012327967 0.0015716477 0 0.0011201593 0 0)
(-0.001684994 0.0027758003 0 0.0014968186 0 0)
(-0.0027885212 0.0043713914 0 0.0020327661 0 0)
(-0.0035449304 0.0077995126 0 0.0022565212 0 0)
(-0.0079810956 0.010954363 0 0.0032861589 0 0)
(-0.0008385052 0.0092471075 0 -0.00087452062 0 0)
(-8.1104044e-005 0.00018293322 0 0.00011647545 0 0)
(-0.00022267896 -8.1916187e-006 0 0.00016040177 0 0)
(-8.3042948e-005 -4.0444216e-005 0 0.00012287816 0 0)
(-0.00013145818 -2.5644754e-005 0 0.00010750205 0 0)
(-7.3124664e-005 -3.6772201e-005 0 8.4120333e-005 0 0)
(-7.5015243e-005 -1.8454209e-005 0 7.0013867e-005 0 0)
(-5.867006e-005 -1.436484e-005 0 6.0638137e-005 0 0)
(-5.6450049e-005 4.7943108e-008 0 5.5471424e-005 0 0)
(-5.571418e-005 1.2898907e-005 0 5.5927217e-005 0 0)
(-6.1669862e-005 2.9908372e-005 0 6.1396563e-005 0 0)
(-7.4075346e-005 5.1642182e-005 0 7.3980643e-005 0 0)
(-9.2042728e-005 7.7170092e-005 0 9.1667928e-005 0 0)
(-0.00012237678 0.00011573227 0 0.00012169671 0 0)
(-0.00016378818 0.00016706103 0 0.00016252652 0 0)
(-0.00022223506 0.00024006844 0 0.00021960267 0 0)
(-0.00030294208 0.00034536169 0 0.00029769913 0 0)
(-0.00041612798 0.00050624395 0 0.00040598333 0 0)
(-0.00056776417 0.00072615042 0 0.00054356485 0 0)
(-0.00076787227 0.0011233737 0 0.00072875844 0 0)
(-0.0010373435 0.0016398633 0 0.00091702657 0 0)
(-0.0012235609 0.0028837437 0 0.0010683739 0 0)
(-0.0019716944 0.0044401939 0 0.0012076816 0 0)
(-0.0013447398 0.0077297147 0 0.00044317114 0 0)
(-0.0033959129 0.0099772182 0 -0.00015546688 0 0)
(0.0036995507 0.009620466 0 -0.0066163304 0 0)
(-0.012849812 -0.00015974559 0 0.0096293606 0 0)
(-0.0060563592 6.2803197e-005 0 0.0053338648 0 0)
(-0.0018817404 0.00037710261 0 0.001660824 0 0)
(-0.00027873121 0.00051069033 0 0.00028369491 0 0)
(1.5778377e-005 0.00055678709 0 -3.3115167e-005 0 0)
(2.4641024e-005 0.00056334249 0 -2.9886386e-005 0 0)
(-1.589797e-006 0.00056380543 0 -5.1209073e-006 0 0)
(-5.7256189e-006 0.00056350354 0 1.9159482e-007 0 0)
(-5.5394747e-006 0.00056344379 0 -2.1603424e-007 0 0)
(-5.2404443e-006 0.0005634126 0 -4.0605702e-007 0 0)
(-5.4694295e-006 0.00056338479 0 -2.0601882e-007 0 0)
(-5.6086242e-006 0.00056336716 0 -5.9132621e-008 0 0)
(-5.6550869e-006 0.00056335984 0 -1.4183936e-008 0 0)
(-5.6647066e-006 0.00056335743 0 -4.5118684e-009 0 0)
(-5.6668551e-006 0.0005633553 0 -2.169768e-009 0 0)
(-5.6685919e-006 0.00056335719 0 -4.6405516e-010 0 0)
(-5.6689882e-006 0.00056335697 0 -9.5473576e-011 0 0)
(-5.6687472e-006 0.00056335625 0 -3.7161179e-010 0 0)
(-5.6689243e-006 0.00056335698 0 -2.0451414e-010 0 0)
(-5.6695599e-006 0.00056335656 0 4.2023169e-010 0 0)
(-5.6694376e-006 0.00056335441 0 3.6284769e-010 0 0)
(-5.6691805e-006 0.00056335582 0 4.2092549e-010 0 0)
(-5.6677473e-006 0.00056335637 0 2.5675524e-009 0 0)
(-5.6685372e-006 0.00056335515 0 2.4140132e-008 0 0)
(-5.6735567e-006 0.00056337539 0 2.6004762e-008 0 0)
(-0.012634679 -0.00023043076 0 0.009363757 0 0)
(-0.005915433 0.0006284378 0 0.005218792 0 0)
(-0.001841238 0.0015986005 0 0.0015359327 0 0)
(-0.00036368997 0.0020002973 0 0.00030401668 0 0)
(-6.6914107e-005 0.0021351649 0 -2.5836496e-005 0 0)
(-5.1998559e-005 0.0021550174 0 -2.6808297e-005 0 0)
(-7.5428076e-005 0.0021560535 0 -5.7064478e-006 0 0)
(-7.9307797e-005 0.0021551981 0 -8.3721921e-008 0 0)
(-7.9375716e-005 0.0021549579 0 -2.7791942e-007 0 0)
(-7.9141661e-005 0.0021548681 0 -3.4819784e-007 0 0)
(-7.9345388e-005 0.0021547802 0 -1.7959057e-007 0 0)
(-7.9460591e-005 0.0021547306 0 -5.2369097e-008 0 0)
(-7.9501397e-005 0.0021547089 0 -1.2303181e-008 0 0)
(-7.950891e-005 0.0021547004 0 -4.2579412e-009 0 0)
(-7.951135e-005 0.0021546988 0 -1.5773194e-009 0 0)
(-7.9512654e-005 0.0021546982 0 -4.5044384e-010 0 0)
(-7.9513064e-005 0.0021547019 0 -1.2608953e-010 0 0)
(-7.9512545e-005 0.0021546954 0 -2.9134926e-010 0 0)
(-7.9513026e-005 0.0021546994 0 1.0164969e-010 0 0)
(-7.9513231e-005 0.0021546988 0 2.1517728e-010 0 0)
(-7.9512748e-005 0.0021546908 0 4.567972e-013 0 0)
(-7.9513097e-005 0.0021546995 0 5.4160934e-010 0 0)
(-7.9512173e-005 0.0021547002 0 2.0756047e-009 0 0)
(-7.950513e-005 0.0021546931 0 1.4221158e-008 0 0)
(-7.9511145e-005 0.0021547647 0 1.4782581e-008 0 0)
(-0.012236569 0.0003405755 0 0.0089654018 0 0)
(-0.0054976819 0.0022754096 0 0.004800834 0 0)
(-0.0018920551 0.003988747 0 0.0013550024 0 0)
(-0.00066655569 0.0046724856 0 0.00029327611 0 0)
(-0.00042197908 0.0048786815 0 -9.5175889e-006 0 0)
(-0.00039536552 0.0049140399 0 -2.1310902e-005 0 0)
(-0.00041415635 0.0049132317 0 -6.1602743e-006 0 0)
(-0.00041742776 0.0049115013 0 -5.9065556e-007 0 0)
(-0.00041797596 0.0049109017 0 -3.2948197e-007 0 0)
(-0.00041783449 0.0049107482 0 -2.6415741e-007 0 0)
(-0.00041798898 0.0049105977 0 -1.3303384e-007 0 0)
(-0.00041805442 0.0049105236 0 -4.3150402e-008 0 0)
(-0.00041808369 0.00491049 0 -9.7772554e-009 0 0)
(-0.00041808941 0.0049104824 0 -2.8185949e-009 0 0)
(-0.00041809021 0.0049104753 0 -1.0328704e-009 0 0)
(-0.00041809104 0.0049104788 0 -4.6481202e-010 0 0)
(-0.00041809015 0.0049104648 0 -7.7061183e-011 0 0)
(-0.00041809104 0.0049104737 0 3.0261574e-010 0 0)
(-0.0004180917 0.0049104773 0 4.2568012e-010 0 0)
(-0.00041809105 0.004910478 0 -3.5022533e-010 0 0)
(-0.00041809004 0.004910466 0 -3.933966e-010 0 0)
(-0.00041809154 0.004910475 0 4.5474563e-010 0 0)
(-0.00041809143 0.0049104718 0 9.1610967e-010 0 0)
(-0.00041808477 0.0049104757 0 -2.2054801e-009 0 0)
(-0.00041809317 0.0049105432 0 -3.1918618e-009 0 0)
(-0.011290651 0.0016635501 0 0.0081364769 0 0)
(-0.0048362053 0.0052299688 0 0.0039005031 0 0)
(-0.0024587178 0.0077179437 0 0.0011106226 0 0)
(-0.0016176483 0.0086929163 0 0.00024977055 0 0)
(-0.0015005678 0.0089287426 0 2.4126548e-005 0 0)
(-0.001461737 0.0089932823 0 -1.1364979e-005 0 0)
(-0.001471737 0.0089899332 0 -5.9404841e-006 0 0)
(-0.001473827 0.0089870108 0 -1.1212744e-006 0 0)
(-0.0014747895 0.0089858439 0 -3.2750722e-007 0 0)
(-0.0014747043 0.0089856118 0 -1.4806386e-007 0 0)
(-0.0014747706 0.0089854066 0 -7.0539266e-008 0 0)
(-0.0014747729 0.0089853193 0 -2.7439006e-008 0 0)
(-0.0014747823 0.008985283 0 -6.0922789e-009 0 0)
(-0.0014747838 0.0089852753 0 -1.4617996e-009 0 0)
(-0.0014747827 0.0089852668 0 -4.1526729e-010 0 0)
(-0.0014747829 0.0089852705 0 -3.6013892e-010 0 0)
(-0.0014747833 0.0089852655 0 2.6569651e-010 0 0)
(-0.0014747841 0.0089852651 0 8.4484196e-010 0 0)
(-0.0014747834 0.0089852694 0 2.9900067e-011 0 0)
(-0.0014747804 0.0089852559 0 -7.4574452e-010 0 0)
(-0.0014747816 0.0089852635 0 -4.9508069e-010 0 0)
(-0.0014747835 0.00898527 0 2.0146655e-010 0 0)
(-0.0014747848 0.0089852709 0 -2.199664e-010 0 0)
(-0.001474778 0.0089852564 0 -1.4945914e-008 0 0)
(-0.001474791 0.0089853274 0 -1.7398902e-008 0 0)
(-0.0095424607 0.0035639637 0 0.0065909894 0 0)
(-0.0043275982 0.0095358285 0 0.0023830383 0 0)
(-0.0040411566 0.012199376 0 0.00084441812 0 0)
(-0.0037590569 0.0136417 0 0.00017802226 0 0)
(-0.0038179108 0.013892176 0 2.934878e-005 0 0)
(-0.0037892213 0.013939388 0 -7.4994153e-007 0 0)
(-0.0037889598 0.013931431 0 -4.3689629e-006 0 0)
(-0.0037885297 0.013927045 0 -1.3613833e-006 0 0)
(-0.0037895409 0.013925157 0 -2.3206157e-007 0 0)
(-0.0037894176 0.013924865 0 -5.4891499e-009 0 0)
(-0.0037893614 0.013924643 0 -8.341173e-009 0 0)
(-0.0037893009 0.013924562 0 -4.83417e-009 0 0)
(-0.0037892847 0.01392452 0 -1.5316836e-009 0 0)
(-0.0037892806 0.013924512 0 1.8583889e-011 0 0)
(-0.0037892769 0.013924504 0 1.8556456e-010 0 0)
(-0.0037892778 0.013924507 0 4.4554164e-011 0 0)
(-0.0037892777 0.013924506 0 3.3053201e-010 0 0)
(-0.0037892779 0.013924505 0 6.2253957e-010 0 0)
(-0.0037892741 0.013924495 0 -2.2260076e-010 0 0)
(-0.0037892752 0.013924501 0 -4.9750305e-010 0 0)
(-0.003789277 0.013924506 0 -1.9133123e-010 0 0)
(-0.003789278 0.013924508 0 -3.5195143e-010 0 0)
(-0.0037892801 0.013924507 0 -7.2278745e-010 0 0)
(-0.0037892799 0.013924496 0 -1.8460352e-008 0 0)
(-0.0037892872 0.013924525 0 -2.153045e-008 0 0)
(-0.0063450007 0.0066237718 0 0.0035385308 0 0)
(-0.005035529 0.013840646 0 0.00084718923 0 0)
(-0.0067374666 0.01716202 0 0.00026505835 0 0)
(-0.0073725651 0.018610239 0 0.00012623357 0 0)
(-0.0076023689 0.01886908 0 5.2678058e-005 0 0)
(-0.007561637 0.018910828 0 1.0525876e-005 0 0)
(-0.0075501662 0.018899755 0 -1.5030747e-006 0 0)
(-0.0075453983 0.018894819 0 -1.1487161e-006 0 0)
(-0.0075458126 0.018892319 0 -3.3140984e-008 0 0)
(-0.0075455177 0.018892054 0 1.4408467e-007 0 0)
(-0.0075453529 0.018891869 0 5.1783321e-008 0 0)
(-0.0075452316 0.01889181 0 1.2143549e-008 0 0)
(-0.0075451994 0.018891776 0 2.4708359e-009 0 0)
(-0.0075451913 0.01889177 0 1.3079271e-009 0 0)
(-0.0075451887 0.018891769 0 6.172435e-010 0 0)
(-0.0075451881 0.018891768 0 4.3285962e-010 0 0)
(-0.0075451874 0.018891768 0 4.4789332e-011 0 0)
(-0.0075451845 0.018891761 0 -1.0308578e-010 0 0)
(-0.007545186 0.018891764 0 -1.1526132e-010 0 0)
(-0.0075451876 0.018891768 0 2.9864812e-010 0 0)
(-0.0075451876 0.018891768 0 1.3751214e-010 0 0)
(-0.0075451873 0.018891767 0 -6.9022901e-010 0 0)
(-0.0075451894 0.018891765 0 -7.796084e-010 0 0)
(-0.0075451994 0.018891765 0 -1.2520413e-008 0 0)
(-0.0075451907 0.018891736 0 -1.4479291e-008 0 0)
(-0.0044038937 0.010408659 0 0.00040170927 0 0)
(-0.0065463443 0.018606735 0 -0.0010900004 0 0)
(-0.01091423 0.021779812 0 -0.00027144852 0 0)
(-0.012088201 0.022882209 0 6.8106078e-005 0 0)
(-0.01242976 0.023093627 0 6.9538807e-005 0 0)
(-0.012376233 0.023139047 0 1.9341639e-005 0 0)
(-0.012356346 0.023127695 0 1.2881326e-006 0 0)
(-0.012347452 0.023123959 0 -5.7955922e-007 0 0)
(-0.01234721 0.023121501 0 2.2565327e-007 0 0)
(-0.012346722 0.02312144 0 2.4551917e-007 0 0)
(-0.012346527 0.023121338 0 9.3932266e-008 0 0)
(-0.012346377 0.023121322 0 2.2275011e-008 0 0)
(-0.012346341 0.023121302 0 4.8554695e-009 0 0)
(-0.012346332 0.0231213 0 2.0323158e-009 0 0)
(-0.012346329 0.023121299 0 7.576137e-010 0 0)
(-0.012346329 0.023121299 0 3.3439928e-010 0 0)
(-0.012346327 0.023121299 0 -3.1171971e-010 0 0)
(-0.012346328 0.023121299 0 -5.5131343e-010 0 0)
(-0.012346327 0.023121296 0 1.8470717e-010 0 0)
(-0.012346327 0.023121297 0 6.7437659e-010 0 0)
(-0.012346327 0.023121297 0 1.9577996e-010 0 0)
(-0.012346328 0.023121298 0 -6.8352895e-010 0 0)
(-0.01234633 0.023121297 0 -7.0148444e-010 0 0)
(-0.012346343 0.023121298 0 -2.9359248e-009 0 0)
(-0.012346332 0.023121244 0 -3.2358294e-009 0 0)
(-0.0038696761 0.014577087 0 -0.0027507981 0 0)
(-0.010039347 0.023609346 0 -0.0027262496 0 0)
(-0.015978475 0.025444143 0 -0.00057546156 0 0)
(-0.017073386 0.026039495 0 2.4274378e-005 0 0)
(-0.017466858 0.026189408 0 7.3756985e-005 0 0)
(-0.017403179 0.026238308 0 2.209645e-005 0 0)
(-0.017385208 0.026231651 0 3.8053164e-006 0 0)
(-0.017373572 0.026230072 0 1.1314416e-008 0 0)
(-0.017373406 0.026228339 0 4.2077928e-007 0 0)
(-0.017372856 0.026228585 0 2.5834747e-007 0 0)
(-0.017372755 0.026228594 0 1.060085e-007 0 0)
(-0.017372621 0.026228625 0 2.3596783e-008 0 0)
(-0.017372594 0.02622862 0 4.8792517e-009 0 0)
(-0.017372589 0.026228622 0 1.7643679e-009 0 0)
(-0.017372587 0.026228622 0 5.7176681e-010 0 0)
(-0.017372587 0.026228623 0 1.0717322e-010 0 0)
(-0.017372587 0.026228623 0 -4.0070668e-010 0 0)
(-0.017372586 0.026228622 0 -4.4179624e-010 0 0)
(-0.017372586 0.026228622 0 1.346597e-010 0 0)
(-0.017372587 0.026228623 0 3.3015556e-010 0 0)
(-0.017372588 0.026228623 0 1.7877858e-010 0 0)
(-0.017372588 0.026228624 0 -3.6156091e-010 0 0)
(-0.017372587 0.026228621 0 -9.2959856e-010 0 0)
(-0.017372594 0.026228623 0 4.1610109e-009 0 0)
(-0.017372585 0.026228571 0 5.5366804e-009 0 0)
(-0.0084462409 0.022725073 0 -0.0055877388 0 0)
(-0.015456151 0.027894293 0 -0.003650216 0 0)
(-0.02095358 0.027836677 0 -0.00054486372 0 0)
(-0.021348858 0.027900897 0 -3.0091724e-005 0 0)
(-0.021757602 0.028005257 0 6.9772519e-005 0 0)
(-0.021691653 0.028057752 0 1.5306167e-005 0 0)
(-0.021694628 0.028061059 0 5.7925876e-006 0 0)
(-0.021680796 0.028061097 0 8.0759816e-008 0 0)
(-0.02168265 0.028060811 0 5.6001751e-007 0 0)
(-0.021681903 0.02806118 0 1.7368362e-007 0 0)
(-0.021682106 0.028061325 0 9.716656e-008 0 0)
(-0.021681992 0.028061377 0 1.3693827e-008 0 0)
(-0.021681997 0.028061384 0 3.6236496e-009 0 0)
(-0.021681995 0.028061388 0 9.3570778e-010 0 0)
(-0.021681995 0.028061389 0 2.2686666e-010 0 0)
(-0.021681996 0.02806139 0 -3.6670982e-011 0 0)
(-0.021681996 0.02806139 0 -1.0430225e-010 0 0)
(-0.021681995 0.028061389 0 -1.0401458e-010 0 0)
(-0.021681995 0.028061389 0 -1.2770106e-010 0 0)
(-0.021681996 0.028061389 0 -7.6486915e-011 0 0)
(-0.021681997 0.02806139 0 5.9331898e-011 0 0)
(-0.021681998 0.02806139 0 -1.7391016e-010 0 0)
(-0.021681997 0.028061389 0 -1.0764397e-009 0 0)
(-0.021681993 0.028061391 0 7.3344234e-009 0 0)
(-0.021681987 0.02806137 0 9.4664903e-009 0 0)
(-0.029134014 0.038687657 0 -0.0094167889 0 0)
(-0.024159662 0.030686799 0 -0.0022806568 0 0)
(-0.031324433 0.031731355 0 -0.00034228092 0 0)
(-0.02937513 0.030549522 0 -2.7126112e-005 0 0)
(-0.030373819 0.030997407 0 3.2749147e-005 0 0)
(-0.030139712 0.030938761 0 6.8910144e-006 0 0)
(-0.030229354 0.030989856 0 3.3501038e-006 0 0)
(-0.030202164 0.030980043 0 -5.0911507e-008 0 0)
(-0.030210982 0.030984343 0 3.1873495e-007 0 0)
(-0.030209355 0.030983827 0 4.0779373e-008 0 0)
(-0.030210123 0.0309843 0 4.1833796e-008 0 0)
(-0.030210023 0.030984288 0 7.5064359e-010 0 0)
(-0.030210056 0.030984306 0 6.9564124e-010 0 0)
(-0.030210057 0.030984307 0 -2.8627905e-010 0 0)
(-0.030210058 0.030984307 0 -9.3923604e-011 0 0)
(-0.030210059 0.030984308 0 -1.0304961e-010 0 0)
(-0.030210058 0.030984307 0 4.0975448e-011 0 0)
(-0.030210058 0.030984307 0 5.8167351e-011 0 0)
(-0.030210058 0.030984308 0 -9.4342162e-011 0 0)
(-0.030210058 0.030984307 0 -1.9036032e-010 0 0)
(-0.030210058 0.030984307 0 -1.4066353e-010 0 0)
(-0.030210057 0.030984307 0 -2.7209232e-010 0 0)
(-0.030210053 0.030984307 0 -1.4146115e-009 0 0)
(-0.030210042 0.030984303 0 4.6239364e-009 0 0)
(-0.030210022 0.030984338 0 6.5144869e-009 0 0)
(-7.3499094e-005 0.00021006951 0 0.00012658361 0 0)
(-0.0002426558 -1.1370145e-005 0 0.00015463833 0 0)
(-8.4866433e-005 -5.3208537e-005 0 0.00014212716 0 0)
(-0.00013308621 -3.7336105e-005 0 0.00010007354 0 0)
(-7.2166198e-005 -4.5356499e-005 0 8.5923973e-005 0 0)
(-6.9026361e-005 -2.5204239e-005 0 6.3262727e-005 0 0)
(-5.3764873e-005 -1.7688827e-005 0 5.5178183e-005 0 0)
(-4.9256337e-005 -1.2241756e-006 0 4.7985063e-005 0 0)
(-4.788171e-005 1.444829e-005 0 4.7569886e-005 0 0)
(-5.1708731e-005 3.3805475e-005 0 5.1015313e-005 0 0)
(-6.1398722e-005 5.9158412e-005 0 6.0803899e-005 0 0)
(-7.5618603e-005 8.8345857e-005 0 7.4597595e-005 0 0)
(-9.9438963e-005 0.0001317576 0 9.8008168e-005 0 0)
(-0.00013169577 0.00018918138 0 0.00012945831 0 0)
(-0.00017645371 0.00027029566 0 0.00017253375 0 0)
(-0.00023641418 0.00038568264 0 0.00022960934 0 0)
(-0.0003158286 0.00055921356 0 0.00030463423 0 0)
(-0.00041091019 0.00079332161 0 0.00038677751 0 0)
(-0.0005239365 0.0011983888 0 0.00049053081 0 0)
(-0.00064266914 0.0017289754 0 0.00054254585 0 0)
(-0.00060253054 0.0028503977 0 0.00049757774 0 0)
(-0.000656658 0.0043637885 0 2.5431518e-005 0 0)
(0.00080601538 0.0069221816 0 -0.0012718726 0 0)
(0.0015066638 0.0075126505 0 -0.0035624686 0 0)
(0.0097699405 0.0043767442 0 -0.011318026 0 0)
(-7.8454169e-005 0.00024764521 0 0.00014083229 0 0)
(-0.00026943183 -1.6149418e-005 0 0.00016564382 0 0)
(-8.9510239e-005 -7.3786931e-005 0 0.00015416534 0 0)
(-0.00013272658 -6.1069972e-005 0 9.6257306e-005 0 0)
(-6.6997695e-005 -5.7587147e-005 0 7.9873986e-005 0 0)
(-5.7668646e-005 -3.6914389e-005 0 5.3326212e-005 0 0)
(-4.2733985e-005 -2.2284721e-005 0 4.3633878e-005 0 0)
(-3.5918806e-005 -3.2534891e-006 0 3.5256712e-005 0 0)
(-3.3022382e-005 1.619723e-005 0 3.2890529e-005 0 0)
(-3.3959224e-005 3.9193761e-005 0 3.361681e-005 0 0)
(-3.8577207e-005 6.7534641e-005 0 3.8456897e-005 0 0)
(-4.6365251e-005 0.00010106501 0 4.5940287e-005 0 0)
(-5.9165911e-005 0.0001487063 0 5.839363e-005 0 0)
(-7.6510218e-005 0.00021332983 0 7.5283138e-005 0 0)
(-9.8326384e-005 0.0003003804 0 9.5856121e-005 0 0)
(-0.00012527462 0.0004230602 0 0.00012033425 0 0)
(-0.00015422526 0.00060134548 0 0.0001457279 0 0)
(-0.00017955605 0.0008387396 0 0.00015994199 0 0)
(-0.00017994081 0.0012080555 0 0.00014885143 0 0)
(-0.00013618082 0.001681428 0 5.3263509e-005 0 0)
(0.0001071412 0.0025447665 0 -0.00023729082 0 0)
(0.00056554126 0.003470578 0 -0.0010880341 0 0)
(0.0024475182 0.0046548698 0 -0.0030279145 0 0)
(0.0049101965 0.0023063873 0 -0.0067901281 0 0)
(0.0061216084 -0.0032799977 0 -0.0092138602 0 0)
(-0.00010042374 0.00029576382 0 0.0001629411 0 0)
(-0.00029666462 -2.7065339e-005 0 0.00019292466 0 0)
(-9.3381495e-005 -0.00010390003 0 0.00015584663 0 0)
(-0.00012767946 -8.9310104e-005 0 9.4189982e-005 0 0)
(-5.7390048e-005 -7.4227001e-005 0 6.5978972e-005 0 0)
(-4.309745e-005 -4.9277393e-005 0 4.0744691e-005 0 0)
(-2.8396902e-005 -2.8606514e-005 0 2.8379081e-005 0 0)
(-2.0156668e-005 -6.2247093e-006 0 1.9880636e-005 0 0)
(-1.5909644e-005 1.5781757e-005 0 1.5773292e-005 0 0)
(-1.391511e-005 4.100656e-005 0 1.3692996e-005 0 0)
(-1.3708391e-005 7.1063771e-005 0 1.3622084e-005 0 0)
(-1.4747473e-005 0.00010768718 0 1.4476759e-005 0 0)
(-1.6556282e-005 0.00015588239 0 1.5886896e-005 0 0)
(-1.8145598e-005 0.00022170094 0 1.7074099e-005 0 0)
(-1.8175282e-005 0.00031008644 0 1.616706e-005 0 0)
(-1.3941147e-005 0.00043016807 0 9.6834642e-006 0 0)
(1.5358378e-006 0.0005996488 0 -9.0077445e-006 0 0)
(3.6842544e-005 0.00082244187 0 -5.2912638e-005 0 0)
(0.00011841019 0.0011401552 0 -0.00014505117 0 0)
(0.00026807953 0.001546458 0 -0.0003287917 0 0)