/*--------------------------------*- C++ -*----------------------------------*\
| =========                 |                                                 |
| \\      /  F ield         | OpenFOAM: The Open Source CFD Toolbox           |
|  \\    /   O peration     | Version:  5.x                                   |
|   \\  /    A nd           | Web:      www.OpenFOAM.org                      |
|    \\/     M anipulation  |                                                 |
\*---------------------------------------------------------------------------*/
/*   Windows 32 and 64 bit porting by blueCAPE: http://www.bluecape.com.pt   *\
|  Based on Windows porting (2.0.x v4) by Symscape: http://www.symscape.com   |
\*---------------------------------------------------------------------------*/
FoamFile
{
    version     2.0;
    format      ascii;
    class       volVectorField;
    location    "0.07";
    object      U;
}
// * * * * * * * * * * * * * * * * * * * * * * * * * * * * * * * * * * * * * //

dimensions      [0 1 -1 0 0 0 0];

internalField   nonuniform List<vector> 
750
(
(0.038998854 -6.922173e-005 0)
(0.039627258 -7.4092962e-005 0)
(0.04018817 -6.8465843e-005 0)
(0.040713574 -5.5328363e-005 0)
(0.041084011 -4.7701422e-005 0)
(0.041466065 -4.1459363e-005 0)
(0.041753055 -3.5793818e-005 0)
(0.042033824 -3.3096071e-005 0)
(0.042283672 -3.2272061e-005 0)
(0.042547936 -3.4695247e-005 0)
(0.042837662 -4.0389931e-005 0)
(0.043192306 -5.0702722e-005 0)
(0.043646772 -6.6771073e-005 0)
(0.044257173 -9.0889209e-005 0)
(0.045095665 -0.00012670921 0)
(0.046278883 -0.00017921671 0)
(0.047950059 -0.00025776102 0)
(0.050387929 -0.0003760111 0)
(0.053945208 -0.0005549602 0)
(0.059196147 -0.00084450641 0)
(0.067471074 -0.0012858895 0)
(0.079459134 -0.0021334073 0)
(0.10200643 -0.003354892 0)
(0.13188246 -0.0049137919 0)
(0.18143109 -0.0060572713 0)
(0.038999194 -0.00020562731 0)
(0.039629017 -0.00022639851 0)
(0.040190407 -0.00020250017 0)
(0.040717269 -0.00016723255 0)
(0.041087197 -0.00014242735 0)
(0.041468826 -0.00012425085 0)
(0.041754926 -0.00010718522 0)
(0.04203442 -9.8976721e-005 0)
(0.042282995 -9.654006e-005 0)
(0.042545546 -0.0001037113 0)
(0.042833335 -0.00012075772 0)
(0.043185479 -0.00015152071 0)
(0.04363641 -0.00019949672 0)
(0.044241781 -0.00027153412 0)
(0.045073276 -0.00037836359 0)
(0.046245766 -0.00053511584 0)
(0.047900426 -0.00076905876 0)
(0.050313532 -0.001121892 0)
(0.053827248 -0.0016536231 0)
(0.059009819 -0.002513908 0)
(0.06716295 -0.0038448535 0)
(0.079046379 -0.0063410554 0)
(0.10135245 -0.010041972 0)
(0.13076325 -0.014509976 0)
(0.17926996 -0.017972474 0)
(0.038998383 -0.00034134934 0)
(0.039631962 -0.00038091291 0)
(0.040195343 -0.0003356238 0)
(0.040724564 -0.00027979464 0)
(0.041094011 -0.0002368674 0)
(0.041474629 -0.00020678615 0)
(0.041759017 -0.00017823913 0)
(0.042036007 -0.0001643747 0)
(0.042282029 -0.00016030613 0)
(0.042541239 -0.0001720739 0)
(0.042825111 -0.00020037526 0)
(0.043172208 -0.00025128213 0)
(0.04361613 -0.0003307203 0)
(0.044211562 -0.00045008011 0)
(0.045028902 -0.00062689656 0)
(0.04618007 -0.00088634958 0)
(0.047802072 -0.0012729353 0)
(0.050163821 -0.0018560863 0)
(0.053594344 -0.0027329463 0)
(0.058634887 -0.0041480018 0)
(0.066553689 -0.006364587 0)
(0.078168311 -0.010473639 0)
(0.099989601 -0.016633863 0)
(0.12836473 -0.023782088 0)
(0.17492394 -0.029427637 0)
(0.038995553 -0.00047776242 0)
(0.039635586 -0.0005356775 0)
(0.040202869 -0.0004701977 0)
(0.04073552 -0.00039231405 0)
(0.041104578 -0.00033137661 0)
(0.041483543 -0.00028881096 0)
(0.041765388 -0.00024868571 0)
(0.042038655 -0.00022897045 0)
(0.042280836 -0.00022316215 0)
(0.04253514 -0.00023930359 0)
(0.042813131 -0.00027858379 0)
(0.043152584 -0.0003491535 0)
(0.043586151 -0.00045929946 0)
(0.044166905 -0.00062485535 0)
(0.044963071 -0.00086986462 0)
(0.046082498 -0.001229163 0)
(0.047656676 -0.001763664 0)
(0.049940708 -0.0025691566 0)
(0.053250078 -0.0037771696 0)
(0.058077498 -0.0057244904 0)
(0.065663984 -0.0088095322 0)
(0.076819487 -0.014487411 0)
(0.097889607 -0.022994845 0)
(0.12452018 -0.032565109 0)
(0.16831675 -0.039990593 0)
(0.038990995 -0.00061449514 0)
(0.039639931 -0.00069142374 0)
(0.040212775 -0.00060635275 0)
(0.04075033 -0.00050501735 0)
(0.041118889 -0.00042571352 0)
(0.04149552 -0.00037016068 0)
(0.041773975 -0.00031822962 0)
(0.042042287 -0.00029246743 0)
(0.042279343 -0.00028474023 0)
(0.04252718 -0.00030497462 0)
(0.042797394 -0.0003547959 0)
(0.043126661 -0.0004444059 0)
(0.043546627 -0.00058425635 0)
(0.044108118 -0.00079444294 0)
(0.044876454 -0.0011051617 0)
(0.045954205 -0.0015604339 0)
(0.047466331 -0.0022362772 0)
(0.049647965 -0.0032532477 0)
(0.052798795 -0.004773515 0)
(0.057348804 -0.0072208936 0)
(0.064498489 -0.011131079 0)
(0.074965474 -0.018309994 0)
(0.094900472 -0.028969561 0)
(0.11905663 -0.040674287 0)
(0.15956353 -0.049344746 0)
(0.038985693 -0.00075122943 0)
(0.039645675 -0.00084905934 0)
(0.040225198 -0.00074415009 0)
(0.04076937 -0.00061822646 0)
(0.041137083 -0.00051968408 0)
(0.041510633 -0.00045068102 0)
(0.041784876 -0.0003865851 0)
(0.04204696 -0.00035456218 0)
(0.042277619 -0.00034468211 0)
(0.042517456 -0.00036865386 0)
(0.042778045 -0.00042849633 0)
(0.043094707 -0.00053633304 0)
(0.043497929 -0.00070462632 0)
(0.044035753 -0.00095746464 0)
(0.044769994 -0.0013307956 0)
(0.045796761 -0.0018772368 0)
(0.047233248 -0.0026861804 0)
(0.049289615 -0.0039006437 0)
(0.052246326 -0.0057089483 0)
(0.056459079 -0.008617848 0)
(0.063058671 -0.013288216 0)
(0.072585339 -0.021864567 0)
(0.090993402 -0.034402239 0)
(0.11187523 -0.047978548 0)
(0.14909454 -0.057151836 0)
(0.038980963 -0.00088812329 0)
(0.039653955 -0.0010090061 0)
(0.040240608 -0.00088393272 0)
(0.040793182 -0.00073209175 0)
(0.041159356 -0.00061313956 0)
(0.041529055 -0.00053017987 0)
(0.041798257 -0.00045348434 0)
(0.04205279 -0.00041493735 0)
(0.042275803 -0.00040264075 0)
(0.04250614 -0.00042992254 0)
(0.042755357 -0.00049916893 0)
(0.043057064 -0.00062425782 0)
(0.043440515 -0.00081949506 0)
(0.043950507 -0.0011126051 0)
(0.044644723 -0.0015449068 0)
(0.045611826 -0.0021767658 0)
(0.046959311 -0.0031088712 0)
(0.048871289 -0.0045045733 0)
(0.051602141 -0.0065725523 0)
(0.055425525 -0.0098945538 0)
(0.061388431 -0.015244509 0)
(0.069738516 -0.02509217 0)
(0.086290469 -0.039235498 0)
(0.10293957 -0.054457318 0)
(0.13775203 -0.063643668 0)
(0.038978347 -0.0010259225 0)
(0.039666044 -0.0011710663 0)
(0.040259665 -0.0010261824 0)
(0.04082238 -0.00084658033 0)
(0.041185931 -0.00070591644 0)
(0.041551014 -0.00060843635 0)
(0.041814293 -0.00051866518 0)
(0.04205991 -0.0004732711 0)
(0.042274063 -0.00045827453 0)
(0.042493398 -0.00048839614 0)
(0.042729653 -0.00056628935 0)
(0.04301415 -0.00070750374 0)
(0.043374924 -0.00092794437 0)
(0.043853107 -0.0012586201 0)
(0.044501805 -0.001745649 0)
(0.045401205 -0.0024563542 0)
(0.046648025 -0.0035007096 0)
(0.048400028 -0.0050589685 0)
(0.050878687 -0.0073556859 0)
(0.054270666 -0.011033091 0)
(0.059506636 -0.01694694 0)
(0.066451684 -0.027874654 0)
(0.080616921 -0.043173916 0)
(0.092434135 -0.059877458 0)
(0.12573102 -0.068387726 0)
(0.038979516 -0.001166373 0)
(0.039682931 -0.0013340558 0)
(0.040282845 -0.0011721875 0)
(0.040857612 -0.0009613129 0)
(0.041216914 -0.000797985 0)
(0.041576704 -0.00068520771 0)
(0.041833055 -0.0005818487 0)
(0.042068371 -0.00052922608 0)
(0.042272489 -0.00051123538 0)
(0.042479349 -0.00054368337 0)
(0.042701141 -0.00062936724 0)
(0.042966403 -0.00078541132 0)
(0.043301775 -0.0010291395 0)
(0.043744486 -0.0013943519 0)
(0.044342835 -0.0019313315 0)
(0.045167471 -0.0027133338 0)
(0.046303739 -0.0038582408 0)
(0.047883339 -0.0055595881 0)
(0.050086639 -0.0080485235 0)
(0.053010728 -0.012020694 0)
(0.057453739 -0.018351393 0)
(0.062762109 -0.030123019 0)
(0.074032917 -0.046126972 0)
(0.080793099 -0.064491718 0)
(0.11219682 -0.071643108 0)
(0.038985415 -0.0013097752 0)
(0.039704749 -0.0015004299 0)
(0.04031018 -0.0013202867 0)
(0.040899583 -0.0010770694 0)
(0.0412522 -0.000888819 0)
(0.041606195 -0.00076027581 0)
(0.041854464 -0.00064273682 0)
(0.042078078 -0.00058247066 0)
(0.042271018 -0.00056122454 0)
(0.042464091 -0.00059539882 0)
(0.042669852 -0.00068806189 0)
(0.042914089 -0.00085752337 0)
(0.043221779 -0.0011224271 0)
(0.043625857 -0.0015189557 0)
(0.044169692 -0.0021009366 0)
(0.044913737 -0.0029466857 0)
(0.045931413 -0.0041793448 0)
(0.047325974 -0.0060019355 0)
(0.049239402 -0.0086462887 0)
(0.051676933 -0.012843206 0)
(0.055297989 -0.019475554 0)
(0.05892431 -0.031759386 0)
(0.066967201 -0.048256875 0)
(0.067997455 -0.068077896 0)
(0.09275968 -0.071989708 0)
(0.22525301 -0.004039479 0)
(0.2457773 -0.002039116 0)
(0.25515029 -0.00062668094 0)
(0.25592524 -7.7774164e-006 0)
(0.255187 9.965152e-005 0)
(0.2545732 4.9292393e-005 0)
(0.25443964 9.9832024e-006 0)
(0.25442974 1.7928466e-008 0)
(0.25443579 -2.5317204e-007 0)
(0.25443401 1.9132917e-007 0)
(0.25443272 1.3173576e-007 0)
(0.25443221 3.3369527e-008 0)
(0.25443219 7.7047859e-010 0)
(0.2544322 -8.6563541e-010 0)
(0.2544322 1.6815838e-010 0)
(0.2544322 1.8847169e-010 0)
(0.2544322 -1.3545703e-010 0)
(0.2544322 1.1393793e-010 0)
(0.2544322 2.9709939e-010 0)
(0.2544322 -8.3947151e-010 0)
(0.25443221 -4.0168036e-010 0)
(0.2544322 9.0808497e-010 0)
(0.25443219 2.3814641e-009 0)
(0.25443217 1.8317984e-008 0)
(0.25443193 1.7347551e-008 0)
(0.22089331 -0.011502814 0)
(0.23848052 -0.0057978482 0)
(0.24685139 -0.0017477184 0)
(0.2476156 -7.0161194e-005 0)
(0.24711026 0.00026198681 0)
(0.24660911 0.00013200705 0)
(0.24649986 2.837367e-005 0)
(0.24648785 2.559549e-007 0)
(0.24649245 -5.7192943e-007 0)
(0.24649096 4.7861032e-007 0)
(0.24649002 3.5477505e-007 0)
(0.2464896 8.866611e-008 0)
(0.24648958 3.989742e-009 0)
(0.24648959 -2.8816415e-009 0)
(0.2464896 7.4785008e-011 0)
(0.24648959 -3.5106556e-010 0)
(0.2464896 -4.5993685e-010 0)
(0.2464896 1.0677204e-009 0)
(0.24648959 5.299103e-010 0)
(0.2464896 -1.8037314e-009 0)
(0.2464896 -7.4539581e-010 0)
(0.2464896 1.9355265e-009 0)
(0.24648959 6.7206056e-009 0)
(0.24648957 4.7550199e-008 0)
(0.2464894 4.5207264e-008 0)
(0.2121972 -0.018001987 0)
(0.22407222 -0.0089230637 0)
(0.23062782 -0.0026792141 0)
(0.23115328 -0.00016991533 0)
(0.23103778 0.00036772959 0)
(0.23072568 0.0001902507 0)
(0.23066259 4.3352498e-005 0)
(0.23064908 8.5973202e-007 0)
(0.23065182 -6.7952643e-007 0)
(0.23065076 6.4686071e-007 0)
(0.23065038 5.1213933e-007 0)
(0.23065011 1.2611168e-007 0)
(0.23065012 7.2339745e-009 0)
(0.23065012 -4.6980843e-009 0)
(0.23065012 -4.9430744e-010 0)
(0.23065012 -4.5088875e-010 0)
(0.23065012 -7.2386512e-010 0)
(0.23065012 9.4746146e-010 0)
(0.23065013 -2.595191e-010 0)
(0.23065013 -1.5822404e-009 0)
(0.23065012 5.8004168e-010 0)
(0.23065012 2.7481765e-009 0)
(0.23065012 8.4395082e-009 0)
(0.23065012 6.4511952e-008 0)
(0.23065007 6.3002545e-008 0)
(0.19930215 -0.022908522 0)
(0.20342747 -0.010918824 0)
(0.20752146 -0.0032938342 0)
(0.20741689 -0.00027154226 0)
(0.20769992 0.00040129827 0)
(0.20761363 0.00021229189 0)
(0.2076097 5.155349e-005 0)
(0.20759757 1.760718e-006 0)
(0.20759905 -6.0227698e-007 0)
(0.2075984 6.7236822e-007 0)
(0.20759864 5.7190551e-007 0)
(0.20759855 1.3691886e-007 0)
(0.20759858 8.028458e-009 0)
(0.20759858 -6.0984067e-009 0)
(0.20759858 -1.2906745e-009 0)
(0.20759858 -3.2651569e-010 0)
(0.20759858 -1.1618824e-009 0)
(0.20759859 -4.975215e-010 0)
(0.20759859 -9.7489014e-010 0)
(0.20759859 3.5378177e-010 0)
(0.20759858 2.0154287e-009 0)
(0.20759858 2.6717285e-009 0)
(0.20759858 7.1903684e-009 0)
(0.20759861 5.9692386e-008 0)
(0.20759871 5.9459694e-008 0)
(0.18268725 -0.025671766 0)
(0.17847375 -0.011596334 0)
(0.1793992 -0.0033763562 0)
(0.17852214 -0.00034831655 0)
(0.17906883 0.00036443798 0)
(0.17917073 0.00019968298 0)
(0.1792252 5.1709683e-005 0)
(0.17921706 2.3819109e-006 0)
(0.17921834 -4.449138e-007 0)
(0.17921793 5.6768215e-007 0)
(0.1792187 5.3526349e-007 0)
(0.17921876 1.2225668e-007 0)
(0.17921881 6.1816088e-009 0)
(0.17921881 -7.0306398e-009 0)
(0.17921881 -1.8626016e-009 0)
(0.17921881 -1.0598332e-010 0)
(0.17921881 -1.8498427e-009 0)
(0.17921882 -2.3144147e-009 0)
(0.17921882 -6.3942085e-010 0)
(0.17921881 2.1457832e-009 0)
(0.17921881 2.7846981e-009 0)
(0.17921881 2.2945291e-009 0)
(0.17921882 2.8006295e-009 0)
(0.17921885 3.2030638e-008 0)
(0.1792191 3.4566055e-008 0)
(0.16349542 -0.026315965 0)
(0.15102041 -0.010790281 0)
(0.14893234 -0.0029287691 0)
(0.14742293 -0.00035071323 0)
(0.1480531 0.0002816565 0)
(0.14824747 0.00016057098 0)
(0.14834992 4.4490388e-005 0)
(0.14834628 2.256453e-006 0)
(0.14834813 -3.0192183e-007 0)
(0.14834769 3.8410128e-007 0)
(0.1483488 4.2905875e-007 0)
(0.14834895 8.8194374e-008 0)
(0.14834901 2.0678685e-009 0)
(0.14834901 -7.6039577e-009 0)
(0.14834901 -2.1328402e-009 0)
(0.14834901 -5.8971371e-010 0)
(0.14834901 -1.9019715e-009 0)
(0.14834901 -2.8723405e-009 0)
(0.14834901 1.6727661e-010 0)
(0.148349 2.7501299e-009 0)
(0.14834901 2.0657799e-009 0)
(0.14834901 1.7066728e-009 0)
(0.14834902 -2.507978e-009 0)
(0.14834905 -8.6603845e-009 0)
(0.14834933 -3.2514164e-009 0)
(0.142201 -0.024842916 0)
(0.12201216 -0.0086436034 0)
(0.11864099 -0.0021357016 0)
(0.11660429 -0.00027022962 0)
(0.1172273 0.00019623066 0)
(0.11743282 0.0001103327 0)
(0.11756271 3.2078983e-005 0)
(0.11756128 1.3930459e-006 0)
(0.11756389 -2.107894e-007 0)
(0.11756312 1.8535199e-007 0)
(0.11756438 2.9155254e-007 0)
(0.11756452 4.5262345e-008 0)
(0.11756459 -1.75252e-009 0)
(0.11756458 -7.1602277e-009 0)
(0.11756458 -1.9023202e-009 0)
(0.11756458 -1.0125818e-009 0)
(0.11756458 -1.6113675e-009 0)
(0.11756457 -1.8078428e-009 0)
(0.11756457 4.6071853e-010 0)
(0.11756457 1.5828329e-009 0)
(0.11756458 9.6454736e-010 0)
(0.11756458 9.8536545e-010 0)
(0.11756459 -6.6638157e-009 0)
(0.1175646 -4.3599196e-008 0)
(0.11756477 -3.644523e-008 0)
(0.11656502 -0.020721137 0)
(0.091794847 -0.0058488693 0)
(0.088936279 -0.0012237723 0)
(0.086715845 -0.00014859426 0)
(0.087326094 0.00012137413 0)
(0.087486937 6.1264953e-005 0)
(0.087617227 1.8359017e-005 0)
(0.087613649 3.7081382e-007 0)
(0.087616988 -1.4025625e-007 0)
(0.087615665 2.822831e-008 0)
(0.087616931 1.600435e-007 0)
(0.087616957 1.0130907e-008 0)
(0.087617024 -3.3060067e-009 0)
(0.087617001 -5.7719679e-009 0)
(0.087616998 -1.3740892e-009 0)
(0.087616998 -9.3399782e-010 0)
(0.087616996 -6.8435181e-010 0)
(0.087616991 -6.8951243e-010 0)
(0.08761699 -1.0689853e-011 0)
(0.087616993 4.2702399e-010 0)
(0.087616995 5.3706306e-010 0)
(0.087616997 5.6179929e-010 0)
(0.087617 -7.7483105e-009 0)
(0.087616992 -5.3057911e-008 0)
(0.08761697 -4.6007698e-008 0)
(0.083860751 -0.014195863 0)
(0.059022571 -0.0029547815 0)
(0.057752603 -0.00042960704 0)
(0.055899275 -5.4970345e-005 0)
(0.056483707 5.9957595e-005 0)
(0.056561216 2.1576764e-005 0)
(0.056667116 7.519677e-006 0)
(0.056657993 -3.0408504e-007 0)
(0.056662098 3.370582e-008 0)
(0.056660205 -3.7964142e-008 0)
(0.056661333 6.2350202e-008 0)
(0.0566612 -5.5481264e-009 0)
(0.056661266 -2.1898754e-009 0)
(0.056661233 -3.205299e-009 0)
(0.056661232 -6.4444995e-010 0)
(0.05666123 -5.0526693e-010 0)
(0.056661229 -1.166681e-010 0)
(0.056661227 -9.006762e-011 0)
(0.056661226 -7.4300059e-011 0)
(0.056661227 -2.3104058e-011 0)
(0.056661228 2.3205343e-010 0)
(0.056661231 8.6139374e-011 0)
(0.05666123 -4.9493492e-009 0)
(0.056661205 -3.4034048e-008 0)
(0.056661027 -2.9693226e-008 0)
(0.039159221 -0.006991742 0)
(0.021545623 -3.1470718e-005 0)
(0.022508303 1.5976199e-005 0)
(0.021338787 2.7454699e-005 0)
(0.021804516 -4.5692162e-006 0)
(0.021763125 1.4082382e-006 0)
(0.021828733 -9.0139661e-007 0)
(0.021815824 -3.9070609e-008 0)
(0.021820164 -5.3737614e-008 0)
(0.021818331 -1.5866939e-008 0)
(0.021819054 -1.1134384e-008 0)
(0.021818868 -4.3770462e-009 0)
(0.021818915 -8.981825e-010 0)
(0.02181889 -6.5159063e-010 0)
(0.021818891 -3.6605323e-011 0)
(0.021818889 -1.0099545e-010 0)
(0.021818889 5.9324292e-011 0)
(0.021818889 3.6056642e-011 0)
(0.021818888 -4.8853747e-011 0)
(0.021818888 -2.4755647e-011 0)
(0.021818888 8.9196268e-011 0)
(0.02181889 -7.5804306e-011 0)
(0.021818889 -9.3045478e-010 0)
(0.02181887 -1.0206962e-008 0)
(0.021818725 -9.481383e-009 0)
(0.038998435 -0.0015981038 0)
(0.039756532 -0.0018513825 0)
(0.040375609 -0.0016137837 0)
(0.04099557 -0.0013117041 0)
(0.041332261 -0.0010683178 0)
(0.041672017 -0.00090540095 0)
(0.041902162 -0.00075996867 0)
(0.042099507 -0.00068284011 0)
(0.042267833 -0.00065482238 0)
(0.042430735 -0.00069124737 0)
(0.042601687 -0.00079624927 0)
(0.042800473 -0.00098944378 0)
(0.043048815 -0.0012922091 0)
(0.043370006 -0.0017447232 0)
(0.043797589 -0.002405958 0)
(0.044370891 -0.0033627212 0)
(0.045137098 -0.0047444555 0)
(0.046143275 -0.0067610293 0)
(0.047465118 -0.009648335 0)
(0.048970792 -0.014118875 0)
(0.050924511 -0.02112211 0)
(0.051691945 -0.033586877 0)
(0.053297222 -0.050099438 0)
(0.042283448 -0.06891177 0)
(0.037179018 -0.056154752 0)
(0.03901344 -0.0020558452 0)
(0.039872407 -0.002443355 0)
(0.040544662 -0.0020665946 0)
(0.04118645 -0.0016646909 0)
(0.041498692 -0.0013279143 0)
(0.041799827 -0.0010949906 0)
(0.041990247 -0.00090951918 0)
(0.042138058 -0.00080209173 0)
(0.042258323 -0.00076144327 0)
(0.04236596 -0.00079553879 0)
(0.042473882 -0.00091002947 0)
(0.042592143 -0.0011241776 0)
(0.042736407 -0.0014623272 0)
(0.042915798 -0.0019650999 0)
(0.043145004 -0.0026937938 0)
(0.043436597 -0.0037381748 0)
(0.043799431 -0.0052241866 0)
(0.044215103 -0.007347109 0)
(0.044681442 -0.010322063 0)
(0.044988888 -0.014681025 0)
(0.045001519 -0.021201807 0)
(0.043243428 -0.031722164 0)
(0.039438998 -0.044209152 0)
(0.025720251 -0.053046 0)
(0.010191276 -0.030237518 0)
(0.039062119 -0.0025842408 0)
(0.040054385 -0.0030950501 0)
(0.040801106 -0.0025559775 0)
(0.041443753 -0.0020060033 0)
(0.041715429 -0.0015602304 0)
(0.041956724 -0.0012488688 0)
(0.042091926 -0.0010196466 0)
(0.04218006 -0.0008818442 0)
(0.04224227 -0.00082520802 0)
(0.042287654 -0.00085188055 0)
(0.042325298 -0.00096684258 0)
(0.042356765 -0.0011859286 0)
(0.042389144 -0.0015349499 0)
(0.042420305 -0.0020526736 0)
(0.042444529 -0.0027969625 0)
(0.042452048 -0.0038526919 0)
(0.042419797 -0.0053345938 0)
(0.042283277 -0.0074076432 0)
(0.041970208 -0.010259452 0)
(0.041232336 -0.014248352 0)
(0.039791827 -0.019942857 0)
(0.036357408 -0.028321247 0)
(0.029973467 -0.037706038 0)
(0.016806899 -0.042169721 0)
(0.0019781053 -0.023962776 0)
(0.039191441 -0.0032248842 0)
(0.04039476 -0.0038346864 0)
(0.041242417 -0.0030730128 0)
(0.041855382 -0.0023174762 0)
(0.042051123 -0.0017464074 0)
(0.042207555 -0.0013531259 0)
(0.042268809 -0.0010800175 0)
(0.042286283 -0.00091454548 0)
(0.04228285 -0.00084152437 0)
(0.042261821 -0.00085637617 0)
(0.042224808 -0.00096281645 0)
(0.042169917 -0.0011727433 0)
(0.042090645 -0.001509002 0)
(0.041974031 -0.0020074949 0)
(0.041801707 -0.002719664 0)
(0.041541689 -0.0037191844 0)
(0.041146241 -0.0051046011 0)
(0.040524233 -0.0070047226 0)
(0.03955343 -0.0095661904 0)
(0.037991499 -0.013015429 0)
(0.035528524 -0.017717441 0)
(0.031195763 -0.024094277 0)
(0.024075457 -0.030590695 0)
(0.012969114 -0.032096219 0)
(3.4260603e-005 -0.018357231 0)
(0.039553913 -0.0041085799 0)
(0.041155825 -0.0047315073 0)
(0.042129347 -0.0036011919 0)
(0.04264495 -0.0025722147 0)
(0.04270702 -0.0018581826 0)
(0.042743662 -0.0013892899 0)
(0.042709735 -0.0010797636 0)
(0.042645854 -0.00089329864 0)
(0.042571489 -0.00080618962 0)
(0.042481619 -0.00080807861 0)
(0.042370884 -0.00089843515 0)
(0.042231832 -0.0010856283 0)
(0.042045879 -0.0013889985 0)
(0.041791313 -0.0018376618 0)
(0.041438805 -0.0024756402 0)
(0.040939179 -0.003363258 0)
(0.040225363 -0.0045780653 0)
(0.039193281 -0.0062155486 0)
(0.037694323 -0.0083793776 0)
(0.035506877 -0.011208412 0)
(0.032325258 -0.014916179 0)
(0.027486642 -0.019624896 0)
(0.020316918 -0.024003821 0)
(0.01091961 -0.024016908 0)
(0.00012807502 -0.014123146 0)
(0.040410409 -0.0055902909 0)
(0.042604761 -0.0058826009 0)
(0.043596085 -0.0040970803 0)
(0.043874815 -0.0027082379 0)
(0.043717938 -0.0018526671 0)
(0.043590742 -0.0013336432 0)
(0.043440103 -0.0010071245 0)
(0.043286698 -0.00081252077 0)
(0.043138466 -0.00071758467 0)
(0.042980595 -0.00070658163 0)
(0.0428015 -0.0007759893 0)
(0.042582101 -0.00092890228 0)
(0.042299091 -0.0011806082 0)
(0.041922545 -0.0015534979 0)
(0.041410929 -0.0020821501 0)
(0.040703965 -0.0028118481 0)
(0.039722546 -0.0037993872 0)
(0.038354978 -0.0051104764 0)
(0.036446587 -0.0068113452 0)
(0.033794266 -0.0089812166 0)
(0.030129304 -0.011740776 0)
(0.024986184 -0.015088924 0)
(0.017933839 -0.017915772 0)
(0.0096928379 -0.017241207 0)
(0.00045484614 -0.010083892 0)
(0.041672435 -0.0082783291 0)
(0.044129024 -0.0072592185 0)
(0.044585648 -0.0044136132 0)
(0.04439548 -0.0026236135 0)
(0.043934691 -0.0016775378 0)
(0.043607747 -0.0011616456 0)
(0.043327617 -0.00085234137 0)
(0.043084532 -0.00066918498 0)
(0.042867266 -0.00057605644 0)
(0.042650985 -0.00055465484 0)
(0.042413917 -0.00059894162 0)
(0.042130971 -0.00070874348 0)
(0.041773123 -0.00089355135 0)
(0.041304111 -0.00116973 0)
(0.040673682 -0.0015587259 0)
(0.039816299 -0.0020935083 0)
(0.038646671 -0.0028128257 0)
(0.037050349 -0.0037530203 0)
(0.034880612 -0.0049525334 0)
(0.031956789 -0.0064510352 0)
(0.028057412 -0.0083145322 0)
(0.022834436 -0.010501668 0)
(0.016016414 -0.012169987 0)
(0.0085847061 -0.011248251 0)
(0.00049454552 -0.0063434013 0)
(0.041948438 -0.012130073 0)
(0.043247099 -0.0081668731 0)
(0.041930492 -0.0042017814 0)
(0.041028669 -0.0021939109 0)
(0.040237392 -0.0012978214 0)
(0.039716817 -0.00086557621 0)
(0.039321032 -0.00061894014 0)
(0.039008316 -0.00047157248 0)
(0.038744542 -0.00039268832 0)
(0.038496027 -0.00036686401 0)
(0.038233061 -0.0003849897 0)
(0.037928458 -0.00044746145 0)
(0.037549313 -0.0005574384 0)
(0.037057229 -0.00072523263 0)
(0.036401707 -0.00096117151 0)
(0.035522088 -0.0012841767 0)
(0.034332366 -0.0017151657 0)
(0.03272903 -0.0022735485 0)
(0.030587134 -0.002974633 0)
(0.027757673 -0.003833974 0)
(0.024072045 -0.0048836677 0)
(0.019266386 -0.0060785125 0)
(0.013168552 -0.0068479354 0)
(0.0068822504 -0.0059476123 0)
(0.00026071496 -0.0030857861 0)
(0.037755665 -0.013326919 0)
(0.036368367 -0.0062448419 0)
(0.032000009 -0.0028171581 0)
(0.03045693 -0.0013145419 0)
(0.02944209 -0.00073356417 0)
(0.028825137 -0.00047810914 0)
(0.028386194 -0.00033678561 0)
(0.028060694 -0.00025029512 0)
(0.027802856 -0.00020258061 0)
(0.027573705 -0.00018426076 0)
(0.027343873 -0.00018879009 0)
(0.027087873 -0.00021555132 0)
(0.026777077 -0.00026571758 0)
(0.026378867 -0.00034297152 0)
(0.025853626 -0.00045251318 0)
(0.025152578 -0.00060139928 0)
(0.024211938 -0.00079586396 0)
(0.022956467 -0.0010463566 0)
(0.021295417 -0.001354472 0)
(0.019131124 -0.0017223024 0)
(0.016356591 -0.0021597339 0)
(0.012796742 -0.0026331403 0)
(0.0083523443 -0.0028411857 0)
(0.0041396672 -0.0022336248 0)
(-0.00012297654 -0.0010408863 0)
(0.02290099 -0.012070777 0)
(0.01959393 -0.0027990777 0)
(0.014321776 -0.00050823505 0)
(0.013549112 -0.00022087784 0)
(0.012792663 -9.7600386e-005 0)
(0.012370565 -6.057834e-005 0)
(0.012071055 -4.1082002e-005 0)
(0.011855691 -2.5687883e-005 0)
(0.011694063 -1.5218464e-005 0)
(0.011557951 -8.4572969e-006 0)
(0.011428898 -3.7376863e-006 0)
(0.011291539 -2.4918135e-008 0)
(0.011129705 2.9568778e-006 0)
(0.010926233 6.0910737e-006 0)
(0.010660978 9.6560397e-006 0)
(0.010310087 1.4492477e-005 0)
(0.0098452892 2.1085698e-005 0)
(0.0092324797 3.0789988e-005 0)
(0.0084341491 4.6073031e-005 0)
(0.0074152712 6.8500296e-005 0)
(0.0061429523 0.00010049106 0)
(0.004558857 0.00015071437 0)
(0.0026264561 0.00025574264 0)
(0.0012033808 0.00043279498 0)
(-0.00013077976 0.00023032375 0)
)
;

boundaryField
{
    inlet
    {
        type            fixedValue;
        value           uniform (0.03876 0 0);
    }
    walls
    {
        type            fixedValue;
        value           uniform (0 0 0);
    }
    outlet
    {
        type            zeroGradient;
    }
    centreline
    {
        type            symmetryPlane;
    }
    frontAndBack
    {
        type            empty;
    }
}


// ************************************************************************* //
