/*--------------------------------*- C++ -*----------------------------------*\
| =========                 |                                                 |
| \\      /  F ield         | OpenFOAM: The Open Source CFD Toolbox           |
|  \\    /   O peration     | Version:  5.x                                   |
|   \\  /    A nd           | Web:      www.OpenFOAM.org                      |
|    \\/     M anipulation  |                                                 |
\*---------------------------------------------------------------------------*/
/*   Windows 32 and 64 bit porting by blueCAPE: http://www.bluecape.com.pt   *\
|  Based on Windows porting (2.0.x v4) by Symscape: http://www.symscape.com   |
\*---------------------------------------------------------------------------*/
FoamFile
{
    version     2.0;
    format      ascii;
    class       volVectorField;
    location    "0.07";
    object      U_0;
}
// * * * * * * * * * * * * * * * * * * * * * * * * * * * * * * * * * * * * * //

dimensions      [0 1 -1 0 0 0 0];

internalField   nonuniform List<vector> 
750
(
(0.038997736 -6.905818e-005 0)
(0.039625584 -7.3835132e-005 0)
(0.040183282 -6.8223099e-005 0)
(0.040707683 -5.5137099e-005 0)
(0.041076253 -4.7543989e-005 0)
(0.041457526 -4.1344756e-005 0)
(0.041743531 -3.5700223e-005 0)
(0.042023754 -3.3029955e-005 0)
(0.04227311 -3.2222323e-005 0)
(0.042537062 -3.4661012e-005 0)
(0.04282656 -4.0365989e-005 0)
(0.043181048 -5.0685523e-005 0)
(0.043635396 -6.6756637e-005 0)
(0.044245688 -9.0873728e-005 0)
(0.045084046 -0.00012668572 0)
(0.046267019 -0.00017917722 0)
(0.047937835 -0.00025768692 0)
(0.050374857 -0.00037588297 0)
(0.053931046 -0.00055474562 0)
(0.059179609 -0.00084414924 0)
(0.067451126 -0.0012850453 0)
(0.079429068 -0.002131758 0)
(0.10196056 -0.0033528196 0)
(0.13182153 -0.004912445 0)
(0.1813702 -0.0060569057 0)
(0.03899808 -0.00020513066 0)
(0.039627359 -0.00022563879 0)
(0.040185513 -0.00020175372 0)
(0.040711364 -0.00016666345 0)
(0.041079424 -0.000141952 0)
(0.041460272 -0.00012390654 0)
(0.041745391 -0.00010690597 0)
(0.04202434 -9.87779e-005 0)
(0.042272427 -9.639188e-005 0)
(0.042534667 -0.00010360868 0)
(0.04282223 -0.00012068638 0)
(0.04317422 -0.00015146932 0)
(0.043625034 -0.00019945414 0)
(0.044230302 -0.00027148825 0)
(0.045061665 -0.00037829406 0)
(0.046233917 -0.00053499918 0)
(0.047888226 -0.00076883954 0)
(0.050300513 -0.0011215191 0)
(0.053813199 -0.0016529895 0)
(0.058993421 -0.0025128123 0)
(0.067143098 -0.0038423274 0)
(0.079016434 -0.0063362173 0)
(0.10130777 -0.010036302 0)
(0.13070698 -0.014507197 0)
(0.17922244 -0.017974412 0)
(0.038997269 -0.00034052184 0)
(0.039630324 -0.0003796515 0)
(0.040190435 -0.00033436625 0)
(0.040718626 -0.00027884726 0)
(0.041086207 -0.00023607427 0)
(0.041466044 -0.00020621209 0)
(0.041749459 -0.00017777585 0)
(0.042025907 -0.00016404339 0)
(0.042271446 -0.00016006066 0)
(0.042530349 -0.00017190348 0)
(0.042814 -0.00020025726 0)
(0.043160945 -0.00025119715 0)
(0.043604756 -0.0003306506 0)
(0.04420009 -0.00045000522 0)
(0.045017307 -0.00062678273 0)
(0.04616825 -0.00088615863 0)
(0.047789921 -0.0012725775 0)
(0.050150901 -0.001855483 0)
(0.053580491 -0.0027319095 0)
(0.058618791 -0.0041461584 0)
(0.066534046 -0.0063603983 0)
(0.078138782 -0.010465751 0)
(0.099947274 -0.016625444 0)
(0.1283168 -0.023780005 0)
(0.17489867 -0.029436057 0)
(0.038994419 -0.00047661143 0)
(0.039633954 -0.00053390238 0)
(0.040197932 -0.00046843102 0)
(0.040729532 -0.00039098207 0)
(0.041096727 -0.00033026868 0)
(0.041474911 -0.0002880076 0)
(0.041755793 -0.0002480403 0)
(0.042028523 -0.00022850795 0)
(0.04227023 -0.00022282084 0)
(0.042524232 -0.00023906661 0)
(0.042802008 -0.00027842041 0)
(0.043141315 -0.00034903624 0)
(0.043574777 -0.00045920416 0)
(0.044155442 -0.00062475382 0)
(0.044951498 -0.00086970991 0)
(0.046070717 -0.0012289028 0)
(0.047644598 -0.0017631789 0)
(0.049927926 -0.002568343 0)
(0.053236478 -0.0037757665 0)
(0.058061844 -0.0057219005 0)
(0.065644655 -0.008803693 0)
(0.076790777 -0.014476719 0)
(0.097850269 -0.022984703 0)
(0.12448257 -0.032566325 0)
(0.16831287 -0.040009811 0)
(0.038989808 -0.00061301821 0)
(0.03963828 -0.0006891299 0)
(0.040207791 -0.00060407326 0)
(0.04074427 -0.00050329647 0)
(0.041110974 -0.00042429203 0)
(0.041486824 -0.00036912941 0)
(0.04176433 -0.00031740417 0)
(0.042032111 -0.00029187579 0)
(0.042268704 -0.000284305 0)
(0.042516247 -0.00030467278 0)
(0.042786253 -0.00035458896 0)
(0.043115384 -0.00044425818 0)
(0.043535252 -0.0005841376 0)
(0.044096665 -0.00079431771 0)
(0.044864908 -0.0011049705 0)
(0.045942473 -0.0015601113 0)
(0.047454342 -0.002235679 0)
(0.049635348 -0.0032522454 0)
(0.052785475 -0.0047717865 0)
(0.057333674 -0.0072175876 0)
(0.064479658 -0.011123685 0)
(0.074938342 -0.018297037 0)
(0.094865536 -0.028958898 0)
(0.11902961 -0.04068059 0)
(0.15957231 -0.049376046 0)
(0.038984415 -0.00074941334 0)
(0.039643977 -0.00084624833 0)
(0.04022014 -0.00074135098 0)
(0.040763215 -0.00061611541 0)
(0.041129086 -0.00051794975 0)
(0.041501855 -0.00044942414 0)
(0.041775167 -0.00038558213 0)
(0.042036727 -0.00035384415 0)
(0.042266938 -0.00034415541 0)
(0.042506489 -0.00036828937 0)
(0.042766882 -0.000428248 0)
(0.043083417 -0.00053615709 0)
(0.043486552 -0.00070448684 0)
(0.044024307 -0.00095731942 0)
(0.044758477 -0.0013305736 0)
(0.045785084 -0.0018768603 0)
(0.047221361 -0.002685484 0)
(0.049277185 -0.0038994795 0)
(0.052233296 -0.0057069371 0)
(0.056444534 -0.0086138711 0)
(0.063040606 -0.013279384 0)
(0.072560358 -0.021849855 0)
(0.090963952 -0.034392234 0)
(0.11185742 -0.047990267 0)
(0.14910851 -0.057192318 0)
(0.038979561 -0.00088594629 0)
(0.039652184 -0.0010056819 0)
(0.040235451 -0.00088060735 0)
(0.040786909 -0.00072959072 0)
(0.041151259 -0.00061109388 0)
(0.041520175 -0.00052870013 0)
(0.04178847 -0.00045230722 0)
(0.042042489 -0.00041409627 0)
(0.042265071 -0.00040202562 0)
(0.042495133 -0.00042949807 0)
(0.042744164 -0.00049888176 0)
(0.043045756 -0.00062405637 0)
(0.043429132 -0.00081933757 0)
(0.043939069 -0.001112444 0)
(0.044633236 -0.0015446604 0)
(0.045600209 -0.002176345 0)
(0.046947537 -0.0031080944 0)
(0.048859062 -0.0045032741 0)
(0.051589429 -0.0065703057 0)
(0.055411603 -0.0098899897 0)
(0.061371335 -0.015234506 0)
(0.069715937 -0.025076361 0)
(0.086266066 -0.039226963 0)
(0.1029294 -0.054474319 0)
(0.13776687 -0.063686627 0)
(0.038976795 -0.0010233569 0)
(0.039664181 -0.0011672303 0)
(0.040254382 -0.0010223261 0)
(0.040815968 -0.00084368835 0)
(0.041177715 -0.00070356202 0)
(0.041542013 -0.0006067368 0)
(0.041804414 -0.00051731827 0)
(0.04204953 -0.00047231092 0)
(0.042263271 -0.0004575746 0)
(0.042482345 -0.00048791478 0)
(0.042718426 -0.00056596632 0)
(0.043002819 -0.00070727997 0)
(0.043363533 -0.00092777247 0)
(0.043841677 -0.0012584482 0)
(0.04449035 -0.0017453857 0)
(0.045389657 -0.0024559005 0)
(0.046636374 -0.0034998706 0)
(0.048388011 -0.0050575596 0)
(0.050866329 -0.00735325 0)
(0.054257362 -0.011028019 0)
(0.059490665 -0.016935977 0)
(0.066431476 -0.027857953 0)
(0.080596616 -0.043167307 0)
(0.092427788 -0.059899611 0)
(0.12574929 -0.068430607 0)
(0.038977797 -0.0011633936 0)
(0.039680964 -0.001329696 0)
(0.040277414 -0.0011678071 0)
(0.040851046 -0.00095802484 0)
(0.04120856 -0.00079532592 0)
(0.041567566 -0.00068329264 0)
(0.041823075 -0.00058033705 0)
(0.042057901 -0.00052815136 0)
(0.04226163 -0.000510455 0)
(0.042468246 -0.00054314851 0)
(0.042689877 -0.00062901154 0)
(0.042955048 -0.00078516875 0)
(0.043290375 -0.0010289573 0)
(0.043733067 -0.0013941738 0)
(0.044331414 -0.0019310583 0)
(0.045155997 -0.002712859 0)
(0.046292215 -0.0038573551 0)
(0.04787155 -0.0055581007 0)
(0.050074677 -0.0080459722 0)
(0.052998065 -0.012015212 0)
(0.057438852 -0.018339697 0)
(0.06274439 -0.030105926 0)
(0.074015295 -0.046121812 0)
(0.080787932 -0.064517342 0)
(0.11221724 -0.071684812 0)
(0.03898351 -0.0013063562 0)
(0.039702667 -0.0014955332 0)
(0.040304582 -0.0013153847 0)
(0.040892853 -0.0010733868 0)
(0.04124369 -0.00088585666 0)
(0.04159691 -0.00075815082 0)
(0.041844375 -0.0006410669 0)
(0.042067514 -0.00058128595 0)
(0.04226009 -0.00056036877 0)
(0.042452937 -0.00059481461 0)
(0.042658553 -0.00068767687 0)
(0.042902713 -0.00085726557 0)
(0.043210374 -0.0011222388 0)
(0.043614453 -0.001518777 0)
(0.044158311 -0.0021006618 0)
(0.044902343 -0.0029462007 0)
(0.045920032 -0.0041784351 0)
(0.047314451 -0.0060004024 0)
(0.049227825 -0.0086436532 0)
(0.051664998 -0.012837423 0)
(0.055284419 -0.019463251 0)
(0.058909093 -0.031742241 0)
(0.066951568 -0.048253074 0)
(0.067992596 -0.068108338 0)
(0.092777379 -0.072029483 0)
(0.22519726 -0.004037018 0)
(0.24570413 -0.0020347247 0)
(0.25504343 -0.00062208894 0)
(0.25578883 -5.2248992e-006 0)
(0.25504393 9.9791242e-005 0)
(0.25443379 4.8851052e-005 0)
(0.25430267 9.7848285e-006 0)
(0.25429318 3.6281017e-009 0)
(0.2542991 -2.3893526e-007 0)
(0.25429726 1.9580907e-007 0)
(0.25429597 1.3114283e-007 0)
(0.25429546 3.2860666e-008 0)
(0.25429544 7.5336138e-010 0)
(0.25429545 -8.1132917e-010 0)
(0.25429545 1.9144013e-010 0)
(0.25429545 1.7597692e-010 0)
(0.25429545 -1.3220139e-010 0)
(0.25429545 1.1697811e-010 0)
(0.25429545 2.8788272e-010 0)
(0.25429545 -8.2229428e-010 0)
(0.25429546 -3.9266693e-010 0)
(0.25429546 9.0683096e-010 0)
(0.25429545 2.3730532e-009 0)
(0.25429543 1.8149431e-008 0)
(0.25429518 1.718683e-008 0)
(0.2208684 -0.01150091 0)
(0.23846274 -0.0057893623 0)
(0.24681366 -0.0017360613 0)
(0.24755477 -6.3407612e-005 0)
(0.24704275 0.0002626304 0)
(0.24654406 0.00013090999 0)
(0.24643666 2.7845534e-005 0)
(0.24642499 2.0519218e-007 0)
(0.24642951 -5.3544133e-007 0)
(0.24642797 4.9060078e-007 0)
(0.24642702 3.5355278e-007 0)
(0.2464266 8.735686e-008 0)
(0.24642659 3.9070447e-009 0)
(0.2464266 -2.7351044e-009 0)
(0.2464266 1.2908406e-010 0)
(0.2464266 -3.5863966e-010 0)
(0.2464266 -4.5050193e-010 0)
(0.2464266 1.0663294e-009 0)
(0.2464266 5.2283456e-010 0)
(0.2464266 -1.7718699e-009 0)
(0.2464266 -7.2711692e-010 0)
(0.2464266 1.9342768e-009 0)
(0.24642659 6.6981066e-009 0)
(0.24642658 4.7232287e-008 0)
(0.2464264 4.4904708e-008 0)
(0.21221642 -0.018007002 0)
(0.22412963 -0.0089166343 0)
(0.23068632 -0.0026635726 0)
(0.23120104 -0.00016045125 0)
(0.23108022 0.00036899504 0)
(0.23076867 0.00018881308 0)
(0.23070643 4.2606593e-005 0)
(0.23069313 7.745669e-007 0)
(0.23069585 -6.3005253e-007 0)
(0.23069476 6.6410273e-007 0)
(0.23069438 5.1085983e-007 0)
(0.23069411 1.2435857e-007 0)
(0.23069412 7.0914828e-009 0)
(0.23069412 -4.5043533e-009 0)
(0.23069413 -4.2127411e-010 0)
(0.23069412 -4.3831722e-010 0)
(0.23069413 -7.0027925e-010 0)
(0.23069413 9.414836e-010 0)
(0.23069413 -2.7194519e-010 0)
(0.23069413 -1.5550234e-009 0)
(0.23069412 5.8768174e-010 0)
(0.23069412 2.7414115e-009 0)
(0.23069412 8.4334085e-009 0)
(0.23069413 6.4267621e-008 0)
(0.23069407 6.2761831e-008 0)
(0.19935406 -0.022926467 0)
(0.20353079 -0.010920874 0)
(0.20764749 -0.0032792402 0)
(0.20754637 -0.00026113977 0)
(0.20782774 0.0004030238 0)
(0.20774021 0.00021089045 0)
(0.20773608 5.0760693e-005 0)
(0.20772399 1.6570861e-006 0)
(0.2077255 -5.5114698e-007 0)
(0.20772484 6.9174823e-007 0)
(0.20772508 5.711162e-007 0)
(0.20772498 1.3512634e-007 0)
(0.20772501 7.8537238e-009 0)
(0.20772501 -5.9027325e-009 0)
(0.20772502 -1.2151154e-009 0)
(0.20772502 -2.9378018e-010 0)
(0.20772501 -1.1415239e-009 0)
(0.20772502 -4.9831442e-010 0)
(0.20772503 -9.7733714e-010 0)
(0.20772503 3.6584669e-010 0)
(0.20772501 2.0171394e-009 0)
(0.20772502 2.6687356e-009 0)
(0.20772501 7.2156716e-009 0)
(0.20772504 5.9732918e-008 0)
(0.20772514 5.9489625e-008 0)
(0.18274429 -0.025704263 0)
(0.17856301 -0.011607702 0)
(0.17952922 -0.0033680255 0)
(0.17866489 -0.00033911199 0)
(0.17921427 0.00036640806 0)
(0.17931419 0.00019857765 0)
(0.17936773 5.1013952e-005 0)
(0.17935946 2.2770428e-006 0)
(0.17936079 -4.0049e-007 0)
(0.1793604 5.8609435e-007 0)
(0.17936116 5.3517264e-007 0)
(0.17936122 1.2069594e-007 0)
(0.17936127 6.011454e-009 0)
(0.17936128 -6.8547901e-009 0)
(0.17936127 -1.7956818e-009 0)
(0.17936128 -7.6497698e-011 0)
(0.17936127 -1.8361809e-009 0)
(0.17936128 -2.3058531e-009 0)
(0.17936128 -6.2366248e-010 0)
(0.17936127 2.1453808e-009 0)
(0.17936127 2.7782559e-009 0)
(0.17936128 2.3003743e-009 0)
(0.17936128 2.8644216e-009 0)
(0.17936131 3.2375383e-008 0)
(0.17936156 3.4883587e-008 0)
(0.16352377 -0.026353977 0)
(0.15105591 -0.010810787 0)
(0.14900387 -0.0029270493 0)
(0.14751007 -0.00034445755 0)
(0.14814575 0.00028342064 0)
(0.14833852 0.00015986401 0)
(0.14843978 4.3971275e-005 0)
(0.14843588 2.1672833e-006 0)
(0.1484378 -2.6782897e-007 0)
(0.14843739 3.9890165e-007 0)
(0.14843849 4.2945856e-007 0)
(0.14843864 8.7012044e-008 0)
(0.1484387 1.9217368e-009 0)
(0.1484387 -7.464615e-009 0)
(0.1484387 -2.083378e-009 0)
(0.1484387 -5.8478236e-010 0)
(0.1484387 -1.9036725e-009 0)
(0.1484387 -2.8554402e-009 0)
(0.1484387 1.8758758e-010 0)
(0.1484387 2.7414995e-009 0)
(0.1484387 2.0676424e-009 0)
(0.14843871 1.7331487e-009 0)
(0.14843871 -2.4207546e-009 0)
(0.14843874 -8.1801637e-009 0)
(0.14843902 -2.7994702e-009 0)
(0.14219557 -0.024877495 0)
(0.12198734 -0.0086672817 0)
(0.11862713 -0.0021390011 0)
(0.11660399 -0.00026691987 0)
(0.11723351 0.00019737672 0)
(0.11743801 0.00010991821 0)
(0.11756684 3.1753474e-005 0)
(0.11756509 1.3295828e-006 0)
(0.11756776 -1.8680934e-007 0)
(0.11756703 1.9516537e-007 0)
(0.11756829 2.920496e-007 0)
(0.11756843 4.4449508e-008 0)
(0.1175685 -1.8654515e-009 0)
(0.11756849 -7.0685747e-009 0)
(0.11756848 -1.8759491e-009 0)
(0.11756848 -1.015308e-009 0)
(0.11756848 -1.6134351e-009 0)
(0.11756848 -1.7903485e-009 0)
(0.11756847 4.6362454e-010 0)
(0.11756848 1.5685706e-009 0)
(0.11756848 9.7609499e-010 0)
(0.11756848 1.0269426e-009 0)
(0.11756849 -6.5774577e-009 0)
(0.11756851 -4.3205644e-008 0)
(0.11756868 -3.6073573e-008 0)
(0.11654787 -0.02074872 0)
(0.09172542 -0.0058673817 0)
(0.088858798 -0.0012281879 0)
(0.086645748 -0.00014751908 0)
(0.087261417 0.00012187527 0)
(0.087421584 6.1032737e-005 0)
(0.087551134 1.8199159e-005 0)
(0.087547253 3.3592484e-007 0)
(0.087550655 -1.2847552e-007 0)
(0.087549353 3.3243807e-008 0)
(0.087550624 1.6041515e-007 0)
(0.087550649 9.5831853e-009 0)
(0.087550715 -3.3827385e-009 0)
(0.087550692 -5.728165e-009 0)
(0.087550689 -1.366734e-009 0)
(0.087550689 -9.3761353e-010 0)
(0.087550687 -6.820753e-010 0)
(0.087550683 -6.7591698e-010 0)
(0.087550681 -1.5504643e-011 0)
(0.087550684 4.1451965e-010 0)
(0.087550687 5.5059414e-010 0)
(0.087550688 6.0721841e-010 0)
(0.087550692 -7.6771034e-009 0)
(0.087550684 -5.2854601e-008 0)
(0.087550663 -4.5820314e-008 0)
(0.083843532 -0.014209857 0)
(0.058946863 -0.0029636874 0)
(0.057661033 -0.0004322905 0)
(0.055808575 -5.4971816e-005 0)
(0.056396219 6.0045092e-005 0)
(0.056473067 2.1472252e-005 0)
(0.056578607 7.4683932e-006 0)
(0.056569249 -3.1384969e-007 0)
(0.05657341 3.7871757e-008 0)
(0.056571524 -3.6347977e-008 0)
(0.056572658 6.248772e-008 0)
(0.056572523 -5.82409e-009 0)
(0.056572588 -2.2290048e-009 0)
(0.056572556 -3.1940327e-009 0)
(0.056572555 -6.4644873e-010 0)
(0.056572553 -5.0804182e-010 0)
(0.056572551 -1.15204e-010 0)
(0.05657255 -8.2666146e-011 0)
(0.056572549 -7.8104418e-011 0)
(0.05657255 -2.9270974e-011 0)
(0.056572551 2.398158e-010 0)
(0.056572553 1.1485099e-010 0)
(0.056572553 -4.9033415e-009 0)
(0.056572528 -3.3975245e-008 0)
(0.05657235 -2.9647834e-008 0)
(0.039150797 -0.0069939797 0)
(0.021505341 -3.2496066e-005 0)
(0.022458518 1.5084245e-005 0)
(0.021286566 2.7273738e-005 0)
(0.021753346 -4.6196632e-006 0)
(0.021711475 1.4124668e-006 0)
(0.021777037 -8.9793214e-007 0)
(0.021764023 -3.645465e-008 0)
(0.021768391 -5.2759809e-008 0)
(0.021766557 -1.6144061e-008 0)
(0.021767284 -1.1119652e-008 0)
(0.021767097 -4.4482817e-009 0)
(0.021767144 -9.0370166e-010 0)
(0.021767119 -6.6098686e-010 0)
(0.021767119 -3.9356594e-011 0)
(0.021767118 -1.0258505e-010 0)
(0.021767117 5.8808556e-011 0)
(0.021767117 3.7271901e-011 0)
(0.021767117 -4.9242515e-011 0)
(0.021767117 -2.5615883e-011 0)
(0.021767117 9.1528482e-011 0)
(0.021767119 -6.704423e-011 0)
(0.021767117 -9.2102646e-010 0)
(0.021767098 -1.0246655e-008 0)
(0.021766954 -9.5226528e-009 0)
(0.038996103 -0.0015937571 0)
(0.039754204 -0.0018453708 0)
(0.040369666 -0.0016078341 0)
(0.040988476 -0.0013072389 0)
(0.041323418 -0.0010647626 0)
(0.041662421 -0.0009028568 0)
(0.041891851 -0.00075800169 0)
(0.042088753 -0.00068144282 0)
(0.042256773 -0.00065382674 0)
(0.042419486 -0.00069057237 0)
(0.04259033 -0.00079581321 0)
(0.04278907 -0.00098916208 0)
(0.043037414 -0.0012920178 0)
(0.04335865 -0.0017445546 0)
(0.043786307 -0.0024056986 0)
(0.044359688 -0.0033622387 0)
(0.04512603 -0.0047435487 0)
(0.046132309 -0.006759468 0)
(0.047454275 -0.0096456133 0)
(0.048960371 -0.014112762 0)
(0.050913765 -0.021109034 0)
(0.051681777 -0.033568879 0)
(0.053287611 -0.050098707 0)
(0.042279841 -0.068951875 0)
(0.037185096 -0.056196614 0)
(0.039010606 -0.0020499352 0)
(0.039869705 -0.002435389 0)
(0.040538108 -0.0020590776 0)
(0.041178621 -0.001659036 0)
(0.041489246 -0.0013235717 0)
(0.041789701 -0.0010918467 0)
(0.041979563 -0.00090718981 0)
(0.042127027 -0.00080043606 0)
(0.042247083 -0.00076029085 0)
(0.042354609 -0.0007947745 0)
(0.042462484 -0.00090955729 0)
(0.042580757 -0.0011238988 0)
(0.042725076 -0.0014621755 0)
(0.042904582 -0.0019650019 0)
(0.043133948 -0.0026936424 0)
(0.043425758 -0.0037378268 0)
(0.043788895 -0.0052234741 0)
(0.044205015 -0.0073457789 0)
(0.044671809 -0.010319794 0)
(0.044980434 -0.01467572 0)
(0.044994713 -0.021190225 0)
(0.043241247 -0.031705973 0)
(0.039440681 -0.044209479 0)
(0.025720965 -0.053083851 0)
(0.010183561 -0.030277532 0)
(0.039058891 -0.0025765876 0)
(0.040051012 -0.0030848693 0)
(0.040793429 -0.0025468072 0)
(0.041434701 -0.0019991606 0)
(0.041704967 -0.0015551767 0)
(0.041945726 -0.0012452484 0)
(0.04208057 -0.0010170476 0)
(0.042168496 -0.0008800238 0)
(0.042230621 -0.00082397086 0)
(0.042275983 -0.00085108253 0)
(0.042313646 -0.00096638083 0)
(0.042345194 -0.0011857021 0)
(0.042377691 -0.001534883 0)
(0.042409014 -0.0020527004 0)
(0.042433483 -0.0027969953 0)
(0.042441342 -0.0038526002 0)
(0.042409543 -0.0053342371 0)
(0.042273731 -0.0074067992 0)
(0.041961452 -0.010257879 0)
(0.041225171 -0.014244545 0)
(0.039787239 -0.019934341 0)
(0.036359095 -0.028309165 0)
(0.02998196 -0.037706891 0)
(0.016813894 -0.042202333 0)
(0.0019736643 -0.024005309 0)
(0.039187206 -0.0032149856 0)
(0.040389329 -0.0038217934 0)
(0.041231968 -0.0030620189 0)
(0.041843616 -0.0023095099 0)
(0.042038299 -0.0017407985 0)
(0.042194483 -0.0013492084 0)
(0.042255639 -0.0010772861 0)
(0.04227309 -0.00091267329 0)
(0.042269722 -0.00084028491 0)
(0.042248767 -0.00085561472 0)
(0.042211865 -0.00096241734 0)
(0.042157112 -0.0011726033 0)
(0.042078018 -0.0015090667 0)
(0.041961623 -0.0020076993 0)
(0.041789625 -0.002719942 0)
(0.041530055 -0.0037194446 0)
(0.04113521 -0.0051047294 0)
(0.040514124 -0.0070045692 0)
(0.03954446 -0.0095655747 0)
(0.037984403 -0.013013414 0)
(0.035524284 -0.017712402 0)
(0.031197556 -0.024087512 0)
(0.024085063 -0.030594755 0)
(0.012979445 -0.032125503 0)
(3.6686181e-005 -0.018396641 0)
(0.039547212 -0.0040947225 0)
(0.041146274 -0.0047149065 0)
(0.042114181 -0.0035881734 0)
(0.042628847 -0.002563372 0)
(0.04269048 -0.0018523131 0)
(0.042727345 -0.0013853307 0)
(0.042693654 -0.0010770832 0)
(0.042629985 -0.00089151531 0)
(0.042555846 -0.00080505276 0)
(0.042466174 -0.00080742254 0)
(0.042355638 -0.00089815426 0)
(0.042216787 -0.0010856364 0)
(0.042031059 -0.0013892378 0)
(0.0417768 -0.0018381007 0)
(0.041424683 -0.0024762373 0)
(0.0409256 -0.0033639715 0)
(0.040212543 -0.004578829 0)
(0.039181561 -0.006216297 0)
(0.037684083 -0.008380009 0)
(0.035498829 -0.011208316 0)
(0.032320391 -0.014914398 0)
(0.027487281 -0.019623115 0)
(0.020325194 -0.024011772 0)
(0.010930155 -0.024044406 0)
(0.00013389581 -0.014156369 0)
(0.040400858 -0.0055693302 0)
(0.042592329 -0.0058612089 0)
(0.043579006 -0.0040821339 0)
(0.043857777 -0.002699037 0)
(0.043701338 -0.0018470296 0)
(0.043574994 -0.0013299996 0)
(0.043424985 -0.0010047288 0)
(0.043272051 -0.00081098475 0)
(0.043124199 -0.00071665856 0)
(0.042966644 -0.00070611588 0)
(0.042787807 -0.00077588223 0)
(0.042568659 -0.00092910377 0)
(0.042285908 -0.0011810748 0)
(0.041909697 -0.0015542266 0)
(0.041398482 -0.0020831384 0)
(0.040692085 -0.0028131057 0)
(0.039711464 -0.0038009167 0)
(0.038345015 -0.0051123001 0)
(0.036438165 -0.0068134628 0)
(0.033788061 -0.0089832818 0)
(0.030126279 -0.011742277 0)
(0.024987978 -0.01509168 0)
(0.017942031 -0.017927609 0)
(0.0097021807 -0.017267967 0)
(0.00046053438 -0.010111045 0)
(0.041664357 -0.0082491594 0)
(0.044122721 -0.0072350169 0)
(0.044579153 -0.0043981316 0)
(0.044390814 -0.0026149812 0)
(0.043931422 -0.001672762 0)
(0.043605949 -0.0011587284 0)
(0.043326814 -0.00085048259 0)
(0.043084409 -0.00066804901 0)
(0.042867631 -0.00057543449 0)
(0.042651702 -0.00055442768 0)
(0.042414889 -0.00059903508 0)
(0.042132138 -0.00070912819 0)
(0.041774467 -0.00089422815 0)
(0.041305633 -0.0011707053 0)
(0.040675415 -0.0015600396 0)
(0.03981833 -0.0020952365 0)
(0.038649122 -0.0028149945 0)
(0.037053428 -0.0037557468 0)
(0.034884576 -0.004955919 0)
(0.031962041 -0.0064549398 0)
(0.028064635 -0.0083187212 0)
(0.022844591 -0.010507794 0)
(0.016030047 -0.01218396 0)
(0.0085956726 -0.011273176 0)
(0.00049912076 -0.0063650699 0)
(0.04194972 -0.012098899 0)
(0.04325817 -0.008146354 0)
(0.041948595 -0.0041884037 0)
(0.041050566 -0.0021869426 0)
(0.040261421 -0.0012944056 0)
(0.039742646 -0.00086368074 0)
(0.039348006 -0.00061779315 0)
(0.039036025 -0.0004709177 0)
(0.038772725 -0.00039239511 0)
(0.038524483 -0.00036685839 0)
(0.038261646 -0.00038523279 0)
(0.037957054 -0.00044794279 0)
(0.037577826 -0.00055818571 0)
(0.037085563 -0.00072626727 0)
(0.036429801 -0.00096255834 0)
(0.035549826 -0.001285993 0)
(0.034359665 -0.0017175088 0)
(0.032755846 -0.0022765496 0)
(0.030613335 -0.0029784253 0)
(0.027783205 -0.0038385456 0)
(0.024096995 -0.0048889726 0)
(0.019290874 -0.006085756 0)
(0.013191969 -0.006860955 0)
(0.0068974626 -0.005967605 0)
(0.0002643698 -0.0031013731 0)
(0.0377696 -0.013306991 0)
(0.036392604 -0.0062334591 0)
(0.032037647 -0.0028085989 0)
(0.030499108 -0.0013103598 0)
(0.029486748 -0.00073174627 0)
(0.028871435 -0.00047722974 0)
(0.028433417 -0.00033629218 0)
(0.028108474 -0.00025003269 0)
(0.027850948 -0.00020249442 0)
(0.027621908 -0.00018432256 0)
(0.027392022 -0.00018898594 0)
(0.027135827 -0.00021588649 0)
(0.026824683 -0.0002662082 0)
(0.026425965 -0.00034364468 0)
(0.02590004 -0.00045341239 0)
(0.025198063 -0.00060255756 0)
(0.024256244 -0.00079739284 0)
(0.022999257 -0.001048326 0)
(0.021336256 -0.0013569743 0)
(0.019169557 -0.001725379 0)
(0.016392228 -0.0021633934 0)
(0.01282902 -0.002637987 0)
(0.0083800535 -0.0028489348 0)
(0.0041561211 -0.0022444252 0)
(-0.00012055641 -0.0010489256 0)
(0.022916306 -0.012066737 0)
(0.019611614 -0.0027998498 0)
(0.014350588 -0.0005070673 0)
(0.013581488 -0.00022037196 0)
(0.012827144 -9.7596722e-005 0)
(0.012405857 -6.0674357e-005 0)
(0.012106724 -4.1180062e-005 0)
(0.011891562 -2.5756309e-005 0)
(0.011730024 -1.5270682e-005 0)
(0.011593887 -8.5073165e-006 0)
(0.011464715 -3.7894889e-006 0)
(0.011327139 -8.5547423e-008 0)
(0.011164983 2.8868425e-006 0)
(0.010961061 5.9989948e-006 0)
(0.010695205 9.5436237e-006 0)
(0.010343529 1.4342966e-005 0)
(0.0098777032 2.0889009e-005 0)
(0.0092635543 3.0541596e-005 0)
(0.0084635015 4.5759233e-005 0)
(0.0074424579 6.8117834e-005 0)
(0.0061675589 0.00010004099 0)
(0.0045801734 0.00015013342 0)
(0.0026438416 0.00025523541 0)
(0.0012135289 0.0004324872 0)
(-0.0001294789 0.00022979048 0)
)
;

boundaryField
{
    inlet
    {
        type            fixedValue;
        value           uniform (0.03876 0 0);
    }
    walls
    {
        type            fixedValue;
        value           uniform (0 0 0);
    }
    outlet
    {
        type            zeroGradient;
    }
    centreline
    {
        type            symmetryPlane;
    }
    frontAndBack
    {
        type            empty;
    }
}


// ************************************************************************* //
