# vtk DataFile Version 2.0
track0
ASCII
DATASET POLYDATA
POINTS 12075 float
-0.0205 0.001 1e-005
-0.020385 0.00100536 1.50246e-005
-0.0202701 0.00101048 1.96645e-005
-0.0201551 0.00101536 2.39725e-005
-0.02004 0.00102001 2.79441e-005
-0.0198626 0.00102682 3.3544e-005
-0.0196935 0.00103277 3.80929e-005
-0.0195244 0.00103811 4.16096e-005
-0.0193552 0.00104284 4.4103e-005
-0.019186 0.00104697 4.55823e-005
-0.0190172 0.00105048 4.60561e-005
-0.0187132 0.00105601 4.60561e-005
-0.0184093 0.00106092 4.60561e-005
-0.0181054 0.00106531 4.60561e-005
-0.0178014 0.00106919 4.60561e-005
-0.0174976 0.00107256 4.60561e-005
-0.0172058 0.0010755 4.60561e-005
-0.016914 0.00107836 4.60561e-005
-0.0166222 0.00108116 4.60561e-005
-0.0163305 0.00108389 4.60561e-005
-0.0160387 0.00108656 4.60561e-005
-0.0157586 0.00108903 4.60561e-005
-0.0154784 0.0010914 4.60561e-005
-0.0151983 0.00109368 4.60561e-005
-0.0149182 0.00109586 4.60561e-005
-0.0146381 0.00109795 4.60561e-005
-0.0143692 0.00109984 4.60561e-005
-0.0141002 0.00110163 4.60561e-005
-0.0138313 0.00110333 4.60561e-005
-0.0135624 0.00110496 4.60561e-005
-0.0132934 0.0011065 4.60561e-005
-0.0130353 0.00110793 4.60561e-005
-0.0127771 0.00110935 4.60561e-005
-0.0125189 0.00111075 4.60561e-005
-0.0122607 0.00111214 4.60561e-005
-0.0120025 0.00111352 4.60561e-005
-0.0117547 0.00111479 4.60561e-005
-0.0115068 0.0011161 4.60561e-005
-0.0112589 0.00111742 4.60561e-005
-0.0110111 0.00111875 4.60561e-005
-0.0107632 0.00112009 4.60561e-005
-0.0105252 0.00112132 4.60561e-005
-0.0102873 0.00112254 4.60561e-005
-0.0100493 0.00112376 4.60561e-005
-0.00981133 0.00112496 4.60561e-005
-0.00957337 0.00112614 4.60561e-005
-0.00934491 0.00112724 4.60561e-005
-0.00911645 0.00112828 4.60561e-005
-0.00888799 0.00112929 4.60561e-005
-0.00865954 0.00113026 4.60561e-005
-0.00843108 0.00113121 4.60561e-005
-0.00821175 0.00113213 4.60561e-005
-0.00799242 0.00113299 4.60561e-005
-0.00777309 0.00113382 4.60561e-005
-0.00755376 0.00113463 4.60561e-005
-0.00733443 0.00113544 4.60561e-005
-0.00712387 0.00113626 4.60561e-005
-0.0069133 0.00113705 4.60561e-005
-0.00670273 0.00113784 4.60561e-005
-0.00649216 0.00113865 4.60561e-005
-0.0062816 0.00113947 4.60561e-005
-0.00607944 0.00114032 4.60561e-005
-0.00587729 0.00114118 4.60561e-005
-0.00567514 0.00114207 4.60561e-005
-0.00547298 0.00114298 4.60561e-005
-0.00527083 0.00114392 4.60561e-005
-0.00507675 0.00114487 4.60561e-005
-0.00488267 0.00114585 4.60561e-005
-0.0046886 0.00114687 4.60561e-005
-0.00449452 0.00114792 4.60561e-005
-0.00430044 0.00114899 4.60561e-005
-0.00411412 0.00115005 4.60561e-005
-0.0039278 0.00115115 4.60561e-005
-0.00374147 0.00115228 4.60561e-005
-0.00355515 0.00115345 4.60561e-005
-0.00336883 0.00115462 4.60561e-005
-0.00318995 0.00115575 4.60561e-005
-0.00301107 0.00115691 4.60561e-005
-0.00283219 0.00115809 4.60561e-005
-0.00265331 0.00115929 4.60561e-005
-0.00247443 0.00116049 4.60561e-005
-0.0023027 0.00116164 4.60561e-005
-0.00213097 0.0011628 4.60561e-005
-0.00195924 0.00116397 4.60561e-005
-0.00178751 0.00116516 4.60561e-005
-0.00161577 0.00116634 4.60561e-005
-0.0014509 0.00116748 4.60561e-005
-0.00128603 0.00116861 4.60561e-005
-0.00112116 0.00116972 4.60561e-005
-0.000956289 0.00117081 4.60561e-005
-0.000791418 0.00117187 4.60561e-005
-0.000633135 0.00117287 4.60561e-005
-0.000474851 0.0011738 4.60561e-005
-0.000316566 0.00117467 4.60561e-005
-0.000158281 0.00117543 4.60561e-005
0 0.00117608 4.60561e-005
0.000105677 0.00117643 4.60561e-005
0.000211355 0.00117669 4.60561e-005
0.000317033 0.00117685 4.60561e-005
0.000422711 0.00117684 4.60561e-005
0.000528387 0.00117672 4.60561e-005
0.000634886 0.00117646 4.60561e-005
0.000741385 0.00117608 4.60561e-005
0.000847883 0.00117556 4.60561e-005
0.00095438 0.00117489 4.60561e-005
0.00106088 0.00117415 4.60561e-005
0.00116821 0.00117333 4.60561e-005
0.00127554 0.0011725 4.60561e-005
0.00138286 0.00117171 4.60561e-005
0.00149019 0.00117102 4.60561e-005
0.00159752 0.00117051 4.60561e-005
0.00170568 0.00117023 4.60561e-005
0.00181384 0.00117026 4.60561e-005
0.001922 0.00117067 4.60561e-005
0.00203016 0.00117152 4.60561e-005
0.00213833 0.00117284 4.60561e-005
0.00224733 0.00117464 4.60561e-005
0.00235632 0.00117699 4.60561e-005
0.0024653 0.0011799 4.60561e-005
0.00257426 0.00118343 4.60561e-005
0.00268334 0.00118751 4.60561e-005
0.00279319 0.00119214 4.60561e-005
0.00290301 0.00119732 4.60561e-005
0.00301281 0.00120303 4.60561e-005
0.00312258 0.0012093 4.60561e-005
0.00323259 0.00121606 4.60561e-005
0.00334329 0.00122333 4.60561e-005
0.00345396 0.00123105 4.60561e-005
0.00356461 0.00123921 4.60561e-005
0.00367521 0.00124781 4.60561e-005
0.00378611 0.00125679 4.60561e-005
0.00389767 0.00126619 4.60561e-005
0.0040092 0.00127599 4.60561e-005
0.00412069 0.0012862 4.60561e-005
0.00423216 0.00129671 4.60561e-005
0.00434393 0.00130745 4.60561e-005
0.00445636 0.00131847 4.60561e-005
0.00456876 0.00132984 4.60561e-005
0.00468112 0.00134155 4.60561e-005
0.00479347 0.00135343 4.60561e-005
0.00490609 0.00136541 4.60561e-005
0.0050194 0.00137752 4.60561e-005
0.00513268 0.00138988 4.60561e-005
0.00524594 0.00140238 4.60561e-005
0.00535919 0.00141495 4.60561e-005
0.00547262 0.00142761 4.60561e-005
0.00558681 0.00144028 4.60561e-005
0.00570098 0.00145306 4.60561e-005
0.00581516 0.00146582 4.60561e-005
0.00592934 0.00147856 4.60561e-005
0.00604356 0.00149129 4.60561e-005
0.00608292 0.00149566 4.60561e-005
0.00612228 0.00150003 4.60561e-005
0.00616165 0.00150439 4.60561e-005
0.00620101 0.00150874 4.60561e-005
0.00624115 0.00151316 4.60561e-005
0.00631671 0.00152147 4.60561e-005
0.00639227 0.00152974 4.60561e-005
0.00646783 0.00153798 4.60561e-005
0.0065434 0.00154619 4.60561e-005
0.00661893 0.00155436 4.60561e-005
0.0067349 0.00156684 4.60561e-005
0.00685088 0.0015792 4.60561e-005
0.00696688 0.00159143 4.60561e-005
0.00708289 0.00160353 4.60561e-005
0.00719878 0.00161547 4.60561e-005
0.00731565 0.00162731 4.60561e-005
0.00743253 0.00163902 4.60561e-005
0.00754944 0.00165055 4.60561e-005
0.00766636 0.00166188 4.60561e-005
0.00778313 0.00167297 4.60561e-005
0.00790091 0.0016839 4.60561e-005
0.00801871 0.00169463 4.60561e-005
0.00813653 0.00170515 4.60561e-005
0.00825437 0.00171543 4.60561e-005
0.00837203 0.00172541 4.60561e-005
0.00849073 0.00173516 4.60561e-005
0.00860944 0.00174465 4.60561e-005
0.00872818 0.0017539 4.60561e-005
0.00884694 0.00176286 4.60561e-005
0.00896551 0.00177147 4.60561e-005
0.00908513 0.0017798 4.60561e-005
0.00920477 0.00178783 4.60561e-005
0.00932443 0.00179556 4.60561e-005
0.00944411 0.00180295 4.60561e-005
0.0095636 0.00180996 4.60561e-005
0.00968415 0.00181666 4.60561e-005
0.00980472 0.001823 4.60561e-005
0.0099253 0.001829 4.60561e-005
0.0100459 0.00183462 4.60561e-005
0.0101663 0.00183983 4.60561e-005
0.0102878 0.00184468 4.60561e-005
0.0104093 0.00184913 4.60561e-005
0.0105308 0.00185318 4.60561e-005
0.0106524 0.00185682 4.60561e-005
0.0107738 0.00186002 4.60561e-005
0.0108962 0.00186279 4.60561e-005
0.0110186 0.00186512 4.60561e-005
0.0111411 0.00186699 4.60561e-005
0.0112635 0.00186842 4.60561e-005
0.0113859 0.00186937 4.60561e-005
0.0115093 0.00186985 4.60561e-005
0.0116327 0.00186983 4.60561e-005
0.0117561 0.00186932 4.60561e-005
0.0118794 0.00186833 4.60561e-005
0.0120028 0.00186684 4.60561e-005
0.0121272 0.00186482 4.60561e-005
0.0122515 0.00186227 4.60561e-005
0.0123758 0.00185918 4.60561e-005
0.0125001 0.00185558 4.60561e-005
0.0126245 0.00185144 4.60561e-005
0.0127498 0.00184674 4.60561e-005
0.0128751 0.00184147 4.60561e-005
0.0130004 0.00183563 4.60561e-005
0.0131256 0.00182922 4.60561e-005
0.0132511 0.00182226 4.60561e-005
0.0133774 0.00181468 4.60561e-005
0.0135036 0.00180651 4.60561e-005
0.0136298 0.00179774 4.60561e-005
0.013756 0.00178836 4.60561e-005
0.0138825 0.00177838 4.60561e-005
0.0140098 0.00176774 4.60561e-005
0.014137 0.00175648 4.60561e-005
0.0142641 0.0017446 4.60561e-005
0.0143912 0.00173209 4.60561e-005
0.0145188 0.0017189 4.60561e-005
0.0146471 0.00170502 4.60561e-005
0.0147752 0.0016905 4.60561e-005
0.0149034 0.00167534 4.60561e-005
0.0150314 0.00165953 4.60561e-005
0.0151306 0.00164677 4.60561e-005
0.0151365 0.00164599 4.60561e-005
0.0151424 0.00164521 4.60561e-005
0.0151483 0.00164442 4.60561e-005
0.0151542 0.00164364 4.60561e-005
0.0151601 0.00164285 4.60561e-005
0.0152893 0.00162555 4.60561e-005
0.0154185 0.00160759 4.60561e-005
0.0155476 0.00158897 4.60561e-005
0.0156765 0.00156968 4.60561e-005
0.0158063 0.00154957 4.60561e-005
0.0159366 0.00152871 4.60561e-005
0.0160667 0.00150713 4.60561e-005
0.0161967 0.00148484 4.60561e-005
0.0163266 0.00146187 4.60561e-005
0.0164576 0.00143801 4.60561e-005
0.0165889 0.00141338 4.60561e-005
0.01672 0.00138803 4.60561e-005
0.016851 0.00136195 4.60561e-005
0.0169818 0.00133514 4.60561e-005
0.0171139 0.00130732 4.60561e-005
0.0171881 0.00129128 4.60561e-005
0.0172623 0.00127501 4.60561e-005
0.0173363 0.00125851 4.60561e-005
0.0174104 0.00124178 4.60561e-005
0.0174748 0.001227 4.60561e-005
0.0175349 0.00121305 4.60561e-005
0.017595 0.00119893 4.60561e-005
0.017655 0.00118466 4.60561e-005
0.0177151 0.00117023 4.60561e-005
0.0177754 0.00115554 4.60561e-005
0.0179087 0.00112273 4.60561e-005
0.0180418 0.00108911 4.60561e-005
0.0181747 0.00105471 4.60561e-005
0.0183075 0.00101953 4.60561e-005
0.018442 0.000983028 4.60561e-005
0.0185677 0.000948108 4.60561e-005
0.0186932 0.00091247 4.60561e-005
0.0188185 0.000876115 4.60561e-005
0.0189436 0.000839044 4.60561e-005
0.0190454 0.000808234 4.60561e-005
0.0190591 0.000804029 4.60561e-005
0.0190728 0.000799815 4.60561e-005
0.0190864 0.000795592 4.60561e-005
0.0191001 0.000791359 4.60561e-005
0.0191137 0.000787109 4.60561e-005
0.0192491 0.000744932 4.60561e-005
0.0193843 0.000701865 4.60561e-005
0.0195191 0.000657912 4.60561e-005
0.0196536 0.000613062 4.60561e-005
0.0197907 0.000566348 4.60561e-005
0.0198871 0.00053279 4.60561e-005
0.0199832 0.000498758 4.60561e-005
0.0200792 0.00046425 4.60561e-005
0.0201751 0.000429273 4.60561e-005
0.0202581 0.000398501 4.60561e-005
[...]
POINT_DATA 12075
 FIELD attributes 2
p 1 12075 float
-939.414 -926.829 -913.032 -899.383 -885.885 -865.297 -850.643 -835.913 -821.106 -806.225 -785.462 -737.424 -689.436 -641.511 -593.649 -551.096 -518.848 -492.47 -466.101 -439.741 -421.53 -407.396 -396.172 -384.952 -373.738 -365.804 -358.143 -350.958 -343.775 -336.593 -330.908 -326.702 -320.534 -314.297 -307.868 -299.383 -293.781 -286.972 -279.994 -272.524 -262.615 -254.225 -246.781 -239.585 -232.439 -225.443 -217.408 -210.657 -204.412 -199.001 -195.411 -189.6 -184.268 -179.189 -175.13 -172.814 -168.827 -165.129 -161.622 -158.995 -157.584 -155.865 -154.08 -152.241 -150.496 -148.857 -148.146 -147.306 -146.333 -144.671 -142.409 -141.715 -140.93 -140.021 -138.061 -135.411 -134.53 -133.527 -132.295 -129.799 -126.699 -124.41 -122.392 -121.097 -119.563 -117.949 -115.283 -113.27 -113.921 -116.005 -118.399 -117.731 -117.018 -115.987 -112.316 -108.31 -98.659 -88.5206 -74.8546 -58.3561 -41.3931 -14.9705 14.4561 54.9608 95.5044 136.066 179.942 225.675 275.002 315.409 350.141 376.834 399.682 417.974 428.465 431.726 424.338 411.441 392.428 371.061 347.814 318.746 287.968 253.652 223.229 193.852 162.733 131.528 100.677 74.873 48.9519 21.6183 -5.76492 -32.317 -58.2781 -84.3332 -112.48 -140.637 -168.489 -198.59 -229.398 -261.318 -292.549 -323.358 -354.287 -388.442 -421.619 -453.47 -485.322 -517.174 -549.71 -560.729 -571.515 -582.302 -593.09 -604.091 -624.838 -645.587 -666.339 -687.094 -707.369 -737.752 -769.035 -800.336 -831.653 -862.039 -891.189 -922.198 -953.466 -984.361 -1014.6 -1043.56 -1073.08 -1103.86 -1133.36 -1162.61 -1190.49 -1218.41 -1246.88 -1274.03 -1301.2 -1327.05 -1352.97 -1377.82 -1402.07 -1426.37 -1449.5 -1472.73 -1493.99 -1515.09 -1536.27 -1556.48 -1576.8 -1594.71 -1612.52 -1630.43 -1647.57 -1664.71 -1679.59 -1694.04 -1708.6 -1722.48 -1736.52 -1748.22 -1759.11 -1770.17 -1780.55 -1791.11 -1799.74 -1807.1 -1814.65 -1821.65 -1828.85 -1834.35 -1837.99 -1841.84 -1844.75 -1847.84 -1849.64 -1850.3 -1850.91 -1850.28 -1848.51 -1846 -1843.67 -1839.93 -1834.4 -1827.09 -1820.01 -1813.15 -1808.01 -1807.78 -1807.56 -1807.33 -1807.11 -1806.72 -1796.25 -1785.96 -1775.96 -1766.24 -1752.93 -1739.36 -1725.71 -1711.77 -1694.53 -1677.31 -1659.78 -1642.21 -1621.84 -1601.57 -1581.07 -1569.31 -1556.27 -1542.89 -1529.58 -1518.06 -1508.21 -1498.43 -1488.71 -1478.41 -1467.01 -1441.78 -1416.79 -1391.86 -1363.86 -1335.73 -1309.37 -1281.87 -1253.05 -1224.49 -1201.44 -1198.57 -1195.7 -1192.84 -1189.75 -1186.54 -1154.58 -1123.08 -1091.93 -1058.73 -1024.9 -1000.87 -976.781 -951.775 -926.951 -905.565 -895.04 -884.559 -874.123 -863.284 -852.377 -816.615 -781.31 -746.354 -712.061 -677.29 -673.042 -668.8 -664.784 -660.811 -656.935 -625.953 -595.344 -565.508 -538.936 -511.865 -498.468 -485.174 -474.144 -463.876 -454.545 -436.322 -418.312 -401.406 -388.271 -374.944 -360.143 -345.629 -335.584 -327.5 -320.652 -311.796 -303.056 -295.629 -291.298 -286.945 -277.643 -268.727 -265.138 -264.494 -264.181 -260.936 -257.741 -255.457 -254.898 -254.362 -252.371 -250.667 -252.922 -257.593 -262.061 -261.311 -260.575 -260.194 -260.515 -260.846 -263.215 -265.731 -269.817 -274.771 -279.609 -279.47 -279.332 -279.225 -279.201 -279.178 -280.735 -282.326 -283.883 -285.094 -286.332 -286.677 -287.023 -287.185 -287.27 -287.356 -285.402 -283.437 -281.06 -276.911 -272.772 -271.969 -271.163 -269.383 -267.378 -265.364 -261.033 -256.689 -252.232 -246.44 -240.681 -235.11 -229.517 -221.805 -213.926 -205.894 -203.872 -201.848 -199.822 -197.42 -195.002 -184.674 -174.272 -163.112 -150.344 -137.768 -133.736 -129.645 -124.832 -120.016 -115.143 -107.62 -100.087 -92.541 -84.209 -75.7887 -64.1219 -52.4278 -39.5161 -26.3397 -13.1874 -11.0222 -8.79701 -6.36673 -3.93575 -1.4869 8.60029 18.703 28.8217 39.3861 49.9898 61.4026 72.8361 84.9292 97.1318 109.381 112.107 114.901 117.803 120.707 123.647 132.126 140.615 149.115 157.625 165.991 176.409 186.843 197.354 208.05 218.511 225.015 231.552 238.116 244.686 251.536 254.683 257.832 260.982 264.077 267.085 276.248 285.535 294.851 303.907 312.76 321.357 329.895 338.307 346.731 355.082 356.617 358.135 359.643 361.15 362.676 369.216 375.763 382.317 388.82 395.137 402.704 410.279 417.889 425.501 432.992 439.747 446.461 453.16 459.867 467.007 467.395 467.783 468.171 468.558 468.942 475.913 482.904 489.902 496.902 503.8 510.482 517.169 523.883 530.648 537.335 543.568 549.836 556.118 562.404 569.089 569.227 569.366 569.504 569.642 569.781 576.163 582.552 588.945 595.349 601.712 607.9 614.091 620.331 626.616 632.844 638.903 644.99 651.103 657.22 663.298 665.119 666.956 668.796 670.635 672.511 676.671 680.831 684.993 689.159 693.326 699.224 705.126 711.031 716.964 722.857 728.64 734.425 740.242 746.062 751.838 757.358 762.898 768.441 773.986 779.908 779.986 780.063 780.14 780.218 780.296 785.914 791.532 797.152 802.773 808.366 813.892 819.413 824.92 830.426 835.896 841.308 846.72 852.129 857.522 862.875 868.178 873.468 878.757 884.046 889.3 889.906 890.51 891.114 891.718 892.327 896.914 901.502 906.089 910.676 915.224 920.329 925.414 930.492 935.551 940.575 945.563 950.55 955.507 960.431 965.331 970.201 975.055 979.885 984.713 989.49 993.671 997.822 1001.97 1006.12 1010.58 1011.08 1011.58 1012.07 1012.57 1013.06 1017.68 1022.3 1026.91 1031.53 1036.08 1040.6 1045.11 1049.6 1054.07 1058.49 1062.91 1067.32 1071.69 1076.01 1080.33 1084.63 1088.92 1093.17 1097.39 1101.59 1105.78 1109.92 1114.05 1118.18 1122.28 1124.79 1127.27 1129.75 1132.23 1134.84 1136.36 1137.88 1139.4 1140.92 1142.42 1146.36 1150.3 1154.23 1158.16 1162.02 1165.88 1169.72 1173.54 1177.33 1181.09 1184.85 1188.61 1192.32 1195.98 1199.63 1203.29 1206.95 1210.55 1214.1 1217.64 1221.18 1224.69 1228.18 1231.65 1235.09 1238.54 1241.94 1245.33 1248.73 1252.1 1254.63 1257.15 1259.66 1262.17 1264.84 1265.63 1266.41 1267.19 1267.97 1268.75 1272 1275.25 1278.49 1281.74 1284.93 1288.1 1291.22 1294.35 1297.46 1300.5 1303.54 1306.56 1309.57 1312.53 1315.47 1318.42 1321.36 1324.27 1327.13 1329.98 1332.85 1335.71 1338.53 1341.3 1344.07 1346.86 1349.64 1352.36 1355.06 1357.74 1360.45 1363.11 1365.75 1368.38 1370.98 1373.6 1376.16 1378.71 1381.26 1383.79 1386.3 1388.77 1391.24 1393.7 1396.17 1396.53 1396.88 1397.23 1397.59 1397.94 1399.98 1402.02 1404.06 1406.09 1408.1 1410.42 1412.73 1415.04 1417.35 1419.6 1421.85 1424.08 1426.3 1428.51 1430.66 1432.83 1434.98 1437.12 1439.23 1441.3 1443.39 1445.47 1447.53 1449.53 1451.52 1453.52 1455.52 1457.49 1459.43 1461.36 1463.29 1465.23 1467.13 1468.99 1470.86 1472.72 1474.58 1476.4 1478.21 1480.02 1481.82 1483.6 1485.36 1487.1 1488.84 1490.56 1492.26 1493.96 1495.64 1497.33 1498.99 1500.62 1502.24 1503.86 1505.48 1507.06 1508.61 1510.16 1511.72 1513.27 1514.77 1516.26 1517.75 1519.24 1520.73 1521.63 1522.52 1523.41 1524.3 1525.23 1525.77 1526.3 1526.84 1527.38 1527.92 1529.3 1530.68 1532.07 1533.46 1534.86 1536.17 1537.51 1538.85 1540.18 1541.55 1542.8 1544.1 1545.39 1546.68 1548 1549.21 1550.45 1551.69 1552.94 1554.21 1555.38 1556.56 1557.75 1558.96 1560.18 1561.29 1562.4 1563.54 1564.69 1565.86 1566.89 1567.93 1569.01 1570.13 1571.27 1572.25 1573.22 1574.25 1575.35 1576.44 1577.37 1578.29 1579.28 1580.32 1581.36 1582.25 1583.13 1584.05 1585.02 1585.99 1586.81 1587.63 1588.5 1589.43 1590.35 1591.14 1591.93 1592.76 1593.65 1594.53 1595.3 1596.06 1596.85 1597.66 1598.48 1599.19 1599.9 1600.64 1601.4 1602.17 1602.83 1603.5 1604.19 1604.92 1605.67 1606.31 1606.96 1607.61 1608.28 1608.99 1609.6 1610.22 1610.84 1611.47 1612.14 1612.75 1613.36 1613.98 1614.6 1615.25 1615.88 1616.5 1617.13 1617.75 1618.38 1619 1619.61 1620.23 1620.84 1621.45 1622.04 1622.64 1623.24 1623.83 1624.42 1625.01 1625.61 1626.2 1626.8 1627.39 1627.98 1628.56 1629.15 1629.73 1630.31 1630.86 1631.4 1631.94 1632.47 1633.01 1633.4 1633.79 1634.17 1634.56 1634.98 1635.08 1635.19 1635.29 1635.39 1635.49 1635.98 1636.46 1636.94 1637.42 1637.89 1638.37 1638.85 1639.33 1639.81 1640.27 1640.75 1641.22 1641.69 1642.16 1642.6 1643.06 1643.51 1643.95 1644.39 1644.79 1645.23 1645.64 1646.05 1646.47 1646.84 1647.26 1647.66 1648.07 1648.47 1648.83 1649.26 1649.65 1650.04 1650.43 1650.77 1651.18 1651.54 1651.89 1652.24 1652.54 1652.9 1653.22 1653.54 1653.86 1654.12 1654.44 1654.72 1655.01 1655.3 1655.53 1655.81 1656.08 1656.35 1656.62 1656.85 1657.14 1657.42 1657.7 1657.98 1658.22 1658.55 1658.83 1659.11 1659.39 1659.6 1659.92 1660.18 1660.43 1660.67 1660.83 1661.08 1661.31 1661.54 1661.75 1661.91 1662.14 1662.36 1662.58 1662.79 1662.96 1663.21 1663.43 1663.64 1663.84 1663.99 1664.24 1664.44 1664.63 1664.8 1664.93 1665.16 1665.35 1665.52 1665.69 1665.83 1666.05 1666.24 1666.41 1666.58 1666.72 1666.91 1667.09 1667.25 1667.41 1667.54 1667.72 1667.89 1668.05 1668.19 1668.3 1668.49 1668.65 1668.8 1668.92 1669.01 1669.17 1669.33 1669.47 1669.6 1669.69 1669.86 1670.02 1670.18 1670.31 1670.43 1670.62 1670.79 1670.95 1671.09 1671.21 1671.4 1671.58 1671.74 1671.88 1672.01 1672.22 1672.41 1672.59 1672.76 1672.92 1673.18 1673.42 1673.63 1673.84 1674.03 1674.34 1674.62 1674.87 1675.1 1675.31 1675.62 1675.92 1676.22 1676.53 1676.83 1677.21 1677.59 1677.97 1678.34 1678.71 1679.19 1679.64 1680.07 1680.47 1680.85 1681.37 1681.87 1682.36 1682.85 1683.32 1683.94 1684.55 1685.15 1685.76 1686.37 1687.13 1687.89 1688.63 1689.39 1690.16 1691.11 1692.05 1692.99 1693.95 1694.97 1696.18 1697.38 1698.58 1699.8 1701.12 1702.66 1704.15 1705.64 1707.14 1708.83 1710.74 1712.62 1714.5 1716.37 1718.6 1720.97 1722.82 1724.66 1726.49 1728.42 1730.24 1731.78 1733.29 1734.79 1736.37 1735.14 1733.4 1731.61 1729.74 1725.24 1717.5 1709.92 1702.32 1694.72 1685.47 1676.2 1668.74 1661.29 1653.83 1647.93 1642.46 1637.23 1632.04 1626.99 1622.55 1618.46 1613.61 1608.45 1602.93 1596.84 1590.95 1584.69 1578.1 1571.02 1563.5 1556.06 1548.62 1541.19 1533.6 1525.94 1518.28 1510.69 1503.28 1495.98 1488.71 1481.46 1474.2 1466.83 1459.39 1451.93 1444.5 1437.06 1429.34 1421.39 1413.43 1405.52 1397.6 1389.09 1380.05 1371.01 1361.99 1352.98 1343.52 1333.69 1323.86 1313.93 1304 1293.7 1283.02 1272.33 1261.47 1250.61 1239.32 1227.58 1215.84 1203.88 1191.92 1179.71 1167.26 1154.81 1142.14 1129.47 1116.38 1102.9 1089.41 1075.7 1061.98 1047.8 1033.16 1018.52 1003.6 988.683 973.05 956.707 940.364 923.653 906.941 889.394 871.019 852.645 833.849 815.053 795.388 774.925 754.463 733.574 712.685 690.413 666.694 642.976 618.609 594.242 569.828 545.334 520.841 495.554 470.268 439.332 403.214 367.106 329.972 292.838 264.557 244.977 225.392 205.546 182.373 134.729 69.9304 0