/*--------------------------------*- C++ -*----------------------------------*\
| =========                 |                                                 |
| \\      /  F ield         | OpenFOAM: The Open Source CFD Toolbox           |
|  \\    /   O peration     | Version:  5.x                                   |
|   \\  /    A nd           | Web:      www.OpenFOAM.org                      |
|    \\/     M anipulation  |                                                 |
\*---------------------------------------------------------------------------*/
/*   Windows 32 and 64 bit porting by blueCAPE: http://www.bluecape.com.pt   *\
|  Based on Windows porting (2.0.x v4) by Symscape: http://www.symscape.com   |
\*---------------------------------------------------------------------------*/
FoamFile
{
    version     2.0;
    format      ascii;
    class       volVectorField;
    location    "10";
    object      U;
}
// * * * * * * * * * * * * * * * * * * * * * * * * * * * * * * * * * * * * * //

dimensions      [0 1 -1 0 0 0 0];

internalField   nonuniform List<vector> 
4000
(
(0.99896 0.000502672 1.78833e-020)
(0.997012 0.00212529 0)
(0.993669 0.00289396 0)
(0.989968 0.00313393 0)
(0.986292 0.0029824 0)
(0.982828 0.00268533 0)
(0.979618 0.00240954 -3.90999e-020)
(0.976629 0.00221376 0)
(0.973803 0.00209547 0)
(0.971082 0.00203236 -3.92398e-020)
(0.968418 0.00200612 0)
(0.965773 0.00200594 0)
(0.963118 0.00202067 -3.9319e-020)
(0.960439 0.00203885 0)
(0.957738 0.00205243 -3.93828e-020)
(0.955024 0.00205943 -3.94164e-020)
(0.952306 0.00205868 -3.94468e-020)
(0.949599 0.00204696 -3.94736e-020)
(0.946911 0.00202827 -3.94969e-020)
(0.944244 0.00200939 -3.95166e-020)
(0.941595 0.00199395 -3.95328e-020)
(0.938958 0.00198338 -3.95454e-020)
(0.936328 0.00197828 0)
(0.933698 0.001978 -3.95615e-020)
(0.931064 0.00198066 -3.95659e-020)
(0.928422 0.00198477 -3.95679e-020)
(0.925771 0.00199013 -3.95678e-020)
(0.923108 0.00199795 -3.95655e-020)
(0.92043 0.00201123 -3.95611e-020)
(0.917724 0.00203147 -3.95544e-020)
(0.91498 0.00205284 0)
(0.912204 0.00206963 -3.9532e-020)
(0.909402 0.00208009 -3.95173e-020)
(0.906586 0.00208061 -3.95007e-020)
(0.903782 0.00206309 -3.94819e-020)
(0.90101 0.00202736 -3.94761e-020)
(0.898281 0.00198543 -3.9484e-020)
(0.895591 0.00194991 -3.94854e-020)
(0.892927 0.00192497 -3.94811e-020)
(0.89028 0.00190888 0)
(0.887642 0.0018986 -3.9459e-020)
(0.885009 0.00189183 -3.94424e-020)
(0.882377 0.00188722 -3.94227e-020)
(0.879745 0.00188404 -3.94001e-020)
(0.877112 0.00188218 -3.93749e-020)
(0.874481 0.00188197 -3.93472e-020)
(0.871853 0.00188321 -3.9317e-020)
(0.869226 0.00188508 0)
(0.866596 0.00188679 -3.92498e-020)
(0.86396 0.00188799 -3.92129e-020)
(0.861318 0.00188886 -3.91736e-020)
(0.858667 0.00188973 -3.9132e-020)
(0.856008 0.00189073 -3.90878e-020)
(0.853342 0.00189168 -3.90411e-020)
(0.850668 0.00189207 -3.89918e-020)
(0.847988 0.00189137 -3.89398e-020)
(0.845304 0.00188965 0)
(0.842618 0.00188767 -3.88276e-020)
(0.839929 0.0018864 -3.87674e-020)
(0.837236 0.00188651 -3.87047e-020)
(0.834535 0.00188814 -3.86395e-020)
(0.831826 0.00189059 -3.85719e-020)
(0.829108 0.00189268 -3.85018e-020)
(0.826383 0.00189359 -3.84292e-020)
(0.823653 0.00189317 0)
(0.820921 0.00189165 -3.82765e-020)
(0.818188 0.00188935 -3.81962e-020)
(0.815454 0.00188648 -3.81133e-020)
(0.812723 0.00188322 -3.80276e-020)
(0.809993 0.00187973 -3.79392e-020)
(0.807266 0.00187613 -3.7848e-020)
(0.804542 0.00187253 -3.77541e-020)
(0.80182 0.00186899 -3.76575e-020)
(0.799102 0.00186553 -3.75581e-020)
(0.796386 0.00186216 -3.74559e-020)
(0.793673 0.00185884 -3.7351e-020)
(0.790963 0.00185559 -3.72433e-020)
(0.788256 0.00185247 -3.71329e-020)
(0.785552 0.00184959 -3.70197e-020)
(0.78285 0.00184705 -3.69037e-020)
(0.78015 0.00184491 -3.67849e-020)
(0.777451 0.00184323 0)
(0.774752 0.00184209 -3.6539e-020)
(0.772053 0.00184161 -3.6412e-020)
(0.769352 0.00184162 -3.62822e-020)
(0.766649 0.00184133 -3.61498e-020)
(0.763951 0.00183985 -3.60147e-020)
(0.761262 0.00183737 -3.58771e-020)
(0.758579 0.00183544 -3.57369e-020)
(0.755895 0.00183516 -3.55941e-020)
(0.753206 0.00183602 0)
(0.75051 0.00183677 -3.53009e-020)
(0.74781 0.00183662 -3.51503e-020)
(0.745108 0.00183545 -3.49969e-020)
(0.742404 0.00183364 -3.48405e-020)
(0.739701 0.00183165 -3.46812e-020)
(0.736997 0.00182978 -3.45191e-020)
(0.734294 0.0018282 -3.43543e-020)
(0.73159 0.00182697 -3.41868e-020)
(0.728885 0.00182609 -3.40167e-020)
(0.726178 0.00182552 -3.3844e-020)
(0.723469 0.00182509 -3.36686e-020)
(0.720759 0.00182446 -3.34903e-020)
(0.718047 0.00182286 -3.3309e-020)
(0.715337 0.00181896 -3.31246e-020)
(0.712635 0.00181053 -3.29369e-020)
(0.70995 0.00179658 -3.27458e-020)
(0.707292 0.00177924 -3.25509e-020)
(0.704661 0.00176231 -3.23519e-020)
(0.702055 0.00174861 -3.2149e-020)
(0.699465 0.00173899 -3.19423e-020)
(0.696886 0.00173282 -3.17321e-020)
(0.694313 0.0017291 -3.15186e-020)
(0.691743 0.00172692 -3.13019e-020)
(0.689175 0.00172563 -3.1082e-020)
(0.686608 0.00172483 -3.08591e-020)
(0.684041 0.0017243 -3.06331e-020)
(0.681474 0.00172394 -3.0404e-020)
(0.678906 0.00172379 -3.01718e-020)
(0.676338 0.00172396 -2.99366e-020)
(0.673768 0.00172434 -2.96983e-020)
(0.671197 0.00172474 -2.94569e-020)
(0.668625 0.00172501 -2.92124e-020)
(0.666052 0.00172511 -2.89647e-020)
(0.663478 0.0017251 -2.87139e-020)
(0.660904 0.00172502 -2.84599e-020)
(0.658329 0.00172493 -2.82027e-020)
(0.655754 0.0017249 -2.79423e-020)
(0.653178 0.001725 -2.76787e-020)
(0.650602 0.0017253 -2.74118e-020)
(0.648024 0.00172594 -2.71417e-020)
(0.645444 0.00172711 -2.68683e-020)
(0.642861 0.00172906 -2.65917e-020)
(0.640273 0.00173206 -2.6312e-020)
(0.637679 0.00173633 -2.60291e-020)
(0.635075 0.00174175 -2.57432e-020)
(0.632462 0.00174754 -2.54544e-020)
(0.629839 0.00175203 -2.51627e-020)
(0.627212 0.00175358 -2.4868e-020)
(0.624585 0.00175201 -2.45703e-020)
(0.621962 0.00174835 -2.42693e-020)
(0.619347 0.00174371 -2.39648e-020)
(0.616739 0.00173894 -2.36567e-020)
(0.614137 0.00173255 -2.33449e-020)
(0.611541 0.00172396 -2.30294e-020)
(0.608949 0.00171465 -2.27102e-020)
(0.606361 0.00170463 -2.23872e-020)
(0.603776 0.00169447 -2.20604e-020)
(0.601193 0.00168557 -2.17298e-020)
(0.598612 0.00167875 -2.13954e-020)
(0.596035 0.00167377 -2.10575e-020)
(0.593461 0.00166966 -2.07158e-020)
(0.590893 0.00166567 -2.03705e-020)
(0.58833 0.00166057 -2.00218e-020)
(0.585775 0.00165261 -1.96705e-020)
(0.58323 0.00164456 -1.93173e-020)
(0.580693 0.00163847 -1.89609e-020)
(0.578162 0.00163177 -1.86005e-020)
(0.575636 0.00162382 -1.82363e-020)
(0.573116 0.00161561 -1.78681e-020)
(0.570603 0.00160777 -1.7496e-020)
(0.568099 0.00159995 -1.712e-020)
(0.565606 0.0015917 -1.67399e-020)
(0.563125 0.00158284 -1.63558e-020)
(0.560657 0.00157337 -1.59676e-020)
(0.558203 0.0015633 -1.55754e-020)
(0.555764 0.00155271 -1.5179e-020)
(0.55334 0.00154163 -1.47786e-020)
(0.550932 0.00153003 -1.43741e-020)
(0.548542 0.00151767 -1.39656e-020)
(0.546169 0.00150391 -1.3553e-020)
(0.543818 0.00148766 -1.31364e-020)
(0.541494 0.0014676 -1.27156e-020)
(0.539203 0.00144279 -1.22905e-020)
(0.536954 0.00141306 -1.18609e-020)
(0.534754 0.00137945 -1.14266e-020)
(0.532608 0.00134342 -1.09876e-020)
(0.530519 0.00130606 -1.05439e-020)
(0.528485 0.00126917 -1.00954e-020)
(0.526502 0.00123505 -9.64237e-021)
(0.524566 0.00120497 -9.18507e-021)
(0.522669 0.00117888 -8.72381e-021)
(0.520807 0.00115585 -8.25891e-021)
(0.518974 0.00113491 -7.79067e-021)
(0.517167 0.00111618 -7.31934e-021)
(0.51538 0.00110154 -6.84516e-021)
(0.513605 0.00109461 -6.36844e-021)
(0.511824 0.00110015 -5.88956e-021)
(0.510011 0.00112371 -5.40905e-021)
(0.508131 0.00117092 -4.92757e-021)
(0.506143 0.0012452 -4.44596e-021)
(0.504003 0.00134532 -3.96521e-021)
(0.501674 0.0014613 -3.48636e-021)
(0.499137 0.00156815 -3.01032e-021)
(0.49646 0.00162626 -2.53768e-021)
(0.493562 0.00151011 -2.06828e-021)
(0.491826 0.00121723 -1.60205e-021)
(0.488619 0.000583922 -1.13489e-021)
(0.485097 -0.000689268 -6.73896e-022)
(0.505416 -0.00213202 -2.23579e-022)
(1.00048 0.00140534 1.14443e-020)
(1.00075 0.00406396 0)
(1.00058 0.00525384 0)
(0.999957 0.00533477 0)
(0.999079 0.00512231 0)
(0.99805 0.00487179 0)
(0.996907 0.00465445 -2.77513e-020)
(0.995665 0.00448161 0)
(0.994374 0.00435897 0)
(0.993062 0.00428197 -2.78178e-020)
(0.991745 0.00425019 0)
(0.990403 0.00426958 0)
(0.988995 0.00433322 -2.77548e-020)
(0.987488 0.00441625 0)
(0.985904 0.00449049 -2.77297e-020)
(0.984266 0.00454219 -2.77349e-020)
(0.982605 0.00456533 -2.79978e-020)
(0.980933 0.00457439 -2.83548e-020)
(0.979238 0.00457701 -2.86697e-020)
(0.977517 0.00457541 -2.89483e-020)
(0.975775 0.00457065 -2.91909e-020)
(0.974015 0.00456482 -2.94006e-020)
(0.972242 0.00456257 0)
(0.970455 0.00456627 -2.97439e-020)
(0.968654 0.00457318 -2.98847e-020)
(0.966838 0.00458038 -3.00081e-020)
(0.965012 0.00458819 -3.01165e-020)
(0.963174 0.00459906 -3.02109e-020)
(0.961322 0.00461027 -3.02912e-020)
(0.959446 0.0046143 -3.03582e-020)
(0.957542 0.00461491 0)
(0.955613 0.00461693 -3.04517e-020)
(0.953674 0.00461924 -3.04788e-020)
(0.951725 0.00461837 -3.04958e-020)
(0.949775 0.00459723 -3.05145e-020)
(0.947843 0.00455186 -3.0576e-020)
(0.945926 0.00450304 -3.06815e-020)
(0.944004 0.00446477 -3.07834e-020)
(0.942073 0.00443552 -3.08726e-020)
(0.940134 0.0044121 0)
(0.93819 0.00439272 -3.10244e-020)
(0.936244 0.00437628 -3.10897e-020)
(0.934296 0.00436204 -3.11487e-020)
(0.932347 0.00435007 -3.1202e-020)
(0.930398 0.00434155 -3.12496e-020)
(0.92845 0.00433774 -3.12921e-020)
(0.926498 0.00433806 -3.133e-020)
(0.924538 0.00434107 0)
(0.922569 0.00434461 -3.1393e-020)
(0.920592 0.00434694 -3.14186e-020)
(0.918609 0.00434847 -3.14402e-020)
(0.916618 0.00435034 -3.14578e-020)
(0.91462 0.00435298 -3.14711e-020)
(0.912614 0.00435592 -3.14802e-020)
(0.910599 0.00435745 -3.14846e-020)
(0.908578 0.00435542 -3.14836e-020)
(0.906554 0.00434972 0)
(0.904529 0.004343 -3.14658e-020)
(0.902504 0.00433849 -3.14508e-020)
(0.900476 0.0043382 -3.14325e-020)
(0.898441 0.00434246 -3.14106e-020)
(0.896396 0.0043489 -3.13848e-020)
(0.894342 0.00435358 -3.13553e-020)
(0.892282 0.00435432 -3.13224e-020)
(0.890218 0.00435125 0)
(0.888153 0.0043454 -3.12473e-020)
(0.886088 0.00433765 -3.1205e-020)
(0.884025 0.0043285 -3.11594e-020)
(0.881963 0.00431832 -3.11106e-020)
(0.879905 0.00430752 -3.10586e-020)
(0.877849 0.00429641 -3.10034e-020)
(0.875796 0.00428524 -3.09449e-020)
(0.873747 0.00427414 -3.08832e-020)
(0.871701 0.00426316 -3.08182e-020)
(0.869658 0.00425227 -3.07501e-020)
(0.867619 0.00424141 -3.06789e-020)
(0.865583 0.00423053 -3.06045e-020)
(0.863551 0.00421985 -3.05271e-020)
(0.861523 0.00420974 -3.04466e-020)
(0.859498 0.00420039 -3.03631e-020)
(0.857476 0.00419195 -3.02765e-020)
(0.855457 0.00418454 0)
(0.853439 0.00417844 -3.00943e-020)
(0.851423 0.00417414 -2.99988e-020)
(0.849405 0.00417252 -2.99006e-020)
(0.847386 0.00417574 -2.97997e-020)
(0.845371 0.00418582 -2.96959e-020)
(0.843359 0.00420199 -2.95895e-020)
(0.84134 0.00422146 -2.94804e-020)
(0.839304 0.00424018 -2.93689e-020)
(0.837253 0.00425395 0)
(0.835189 0.00426076 -2.91386e-020)
(0.833121 0.00426123 -2.90197e-020)
(0.831052 0.00425739 -2.88983e-020)
(0.828983 0.00425154 -2.8774e-020)
(0.826917 0.0042454 -2.86467e-020)
(0.824852 0.00423982 -2.85166e-020)
(0.822788 0.00423513 -2.83836e-020)
(0.820724 0.00423145 -2.82481e-020)
(0.818661 0.00422878 -2.811e-020)
(0.816597 0.00422698 -2.79693e-020)
(0.814532 0.00422578 -2.78259e-020)
(0.812465 0.00422454 -2.76798e-020)
(0.810396 0.00422146 -2.75308e-020)
(0.808326 0.0042124 -2.73785e-020)
(0.806258 0.00418763 -2.72229e-020)
(0.80421 0.00414285 -2.70642e-020)
(0.802193 0.0040885 -2.69019e-020)
(0.800204 0.00403872 -2.67355e-020)
(0.798233 0.00400104 -2.65652e-020)
(0.796273 0.00397555 -2.63912e-020)
(0.794319 0.00395893 -2.62138e-020)
(0.792369 0.00394781 -2.60335e-020)
(0.790422 0.00393974 -2.58503e-020)
(0.788476 0.00393328 -2.56643e-020)
(0.786531 0.00392759 -2.54757e-020)
(0.784589 0.00392231 -2.52844e-020)
(0.782648 0.00391729 -2.50905e-020)
(0.780708 0.00391272 -2.48939e-020)
(0.77877 0.00390897 -2.46946e-020)
(0.776833 0.00390586 -2.44928e-020)
(0.774897 0.00390281 -2.42883e-020)
(0.772962 0.0038994 -2.40812e-020)
(0.771028 0.00389558 -2.38715e-020)
(0.769096 0.00389146 -2.36591e-020)
(0.767166 0.00388721 -2.3444e-020)
(0.765238 0.00388296 -2.32261e-020)
(0.763311 0.00387885 -2.30056e-020)
(0.761387 0.00387503 -2.27823e-020)
(0.759464 0.00387172 -2.25564e-020)
(0.757542 0.00386925 -2.23277e-020)
(0.755621 0.00386809 -2.20963e-020)
(0.7537 0.00386893 -2.18622e-020)
(0.751777 0.00387261 -2.16254e-020)
(0.749851 0.00387988 -2.13859e-020)
(0.747917 0.00389072 -2.11439e-020)
(0.745975 0.00390308 -2.08992e-020)
(0.744024 0.00391119 -2.06521e-020)
(0.742071 0.00390968 -2.04026e-020)
(0.740124 0.003899 -2.01505e-020)
(0.738187 0.00388363 -1.98956e-020)
(0.736262 0.00386718 -1.96379e-020)
(0.734347 0.00385092 -1.93773e-020)
(0.73244 0.00383486 -1.91138e-020)
(0.730541 0.00381916 -1.88474e-020)
(0.728649 0.003804 -1.85782e-020)
(0.726762 0.00378944 -1.83061e-020)
(0.724882 0.00377567 -1.80313e-020)
(0.723008 0.00376311 -1.77536e-020)
(0.721138 0.00375172 -1.74731e-020)
(0.719274 0.003741 -1.71897e-020)
(0.717417 0.00373038 -1.69036e-020)
(0.715566 0.00371942 -1.66146e-020)
(0.713721 0.00370778 -1.63229e-020)
(0.711884 0.00369532 -1.60285e-020)
(0.710055 0.00368208 -1.57316e-020)
(0.708233 0.00366811 -1.54319e-020)
(0.70642 0.00365344 -1.51294e-020)
(0.704614 0.00363817 -1.4824e-020)
(0.702817 0.00362208 -1.45159e-020)
(0.70103 0.00360474 -1.42048e-020)
(0.699254 0.00358581 -1.3891e-020)
(0.69749 0.00356526 -1.35742e-020)
(0.695738 0.00354321 -1.32546e-020)
(0.693999 0.00351981 -1.29322e-020)
(0.692274 0.00349518 -1.26068e-020)
(0.690562 0.00346948 -1.22786e-020)
(0.688865 0.00344291 -1.19475e-020)
(0.687181 0.00341557 -1.16136e-020)
(0.685511 0.00338695 -1.12768e-020)
(0.683856 0.00335536 -1.09373e-020)
(0.682216 0.00331754 -1.0595e-020)
(0.680598 0.00326957 -1.02499e-020)
(0.679009 0.00320884 -9.90203e-021)
(0.677457 0.00313537 -9.55116e-021)
(0.675951 0.00305163 -9.19712e-021)
(0.674494 0.00296192 -8.83976e-021)
(0.673089 0.00287145 -8.47898e-021)
(0.671734 0.00278534 -8.11476e-021)
(0.670424 0.00270769 -7.74717e-021)
(0.669152 0.00264116 -7.37635e-021)
(0.667908 0.00258584 -7.00254e-021)
(0.666685 0.00253894 -6.62604e-021)
(0.665478 0.00249725 -6.24709e-021)
(0.664285 0.00246049 -5.86585e-021)
(0.663106 0.00243379 -5.48241e-021)
(0.661931 0.00242726 -5.09688e-021)
(0.660745 0.00245371 -4.70942e-021)
(0.659524 0.00252801 -4.3203e-021)
(0.658231 0.00266613 -3.92993e-021)
(0.656824 0.00288032 -3.53896e-021)
(0.655247 0.00316903 -3.1484e-021)
(0.653448 0.00350677 -2.75967e-021)
(0.651387 0.00383553 -2.37437e-021)
(0.649094 0.00405228 -1.994e-021)
(0.646405 0.00392821 -1.6195e-021)
(0.644697 0.00323732 -1.25145e-021)
(0.641388 0.0014787 -8.8618e-022)
(0.638153 -0.00331862 -5.31737e-022)
(0.657879 -0.00642041 -1.80878e-022)
(1.00007 0.00173924 -1.77952e-020)
(0.999878 0.00430549 0)
(0.999633 0.00545502 0)
(0.999334 0.00579616 0)
(0.998911 0.00576823 0)
(0.998398 0.00564984 0)
(0.997809 0.00552189 2.85428e-020)
(0.997169 0.00541422 0)
(0.996497 0.00533371 0)
(0.995811 0.00527727 2.86277e-020)
(0.995121 0.00524313 0)
(0.99442 0.00523821 0)
(0.993692 0.00527914 2.83929e-020)
(0.992924 0.00536309 0)
(0.99215 0.00547411 2.80428e-020)
(0.991364 0.00559324 2.80142e-020)
(0.990597 0.00569835 2.85851e-020)
(0.989854 0.00580006 2.98102e-020)
(0.989108 0.00590453 3.11358e-020)
(0.988348 0.00600866 3.24134e-020)
(0.987557 0.00611356 3.36428e-020)
(0.986727 0.00621651 3.4812e-020)
(0.985869 0.00631769 0)
(0.984989 0.00642068 3.70122e-020)
(0.98409 0.00652359 3.80907e-020)
(0.983172 0.00662168 3.91312e-020)
(0.982238 0.00671699 4.01322e-020)
(0.981288 0.00681601 4.11005e-020)
(0.980311 0.00691292 1.26127e-019)
(0.979305 0.00699833 4.29351e-020)
(0.978277 0.00707791 0)
(0.977231 0.0071576 4.46091e-020)
(0.976169 0.00724098 4.53901e-020)
(0.975084 0.00732998 4.61452e-020)
(0.973979 0.00742413 1.40665e-019)
(0.972842 0.00751871 4.76178e-020)
(0.971654 0.00760383 4.83445e-020)
(0.970413 0.00766878 4.90547e-020)
(0.969137 0.00771102 4.9721e-020)
(0.96784 0.00773743 0)
(0.966531 0.00775596 1.52706e-019)
(0.965213 0.00777149 5.14114e-020)
(0.96389 0.00778544 5.18864e-020)
(0.962561 0.00779879 5.23218e-020)
(0.961232 0.00781387 5.27168e-020)
(0.959903 0.00783268 5.30771e-020)
(0.958575 0.00785601 1.60194e-019)
(0.957247 0.00788327 0)
(0.955919 0.00791068 5.38961e-020)
(0.95459 0.0079359 5.41247e-020)
(0.953258 0.00796009 5.43383e-020)
(0.951919 0.0079858 5.45359e-020)
(0.950572 0.00801353 5.4718e-020)
(0.949214 0.00804377 5.48867e-020)
(0.947841 0.00807666 5.50382e-020)
(0.946451 0.008106 5.51629e-020)
(0.945044 0.00812338 0)
(0.943628 0.00812981 5.53389e-020)
(0.942208 0.00813372 5.54051e-020)
(0.940785 0.00814306 5.54628e-020)
(0.939354 0.00816194 5.55104e-020)
(0.937907 0.00818522 5.55434e-020)
(0.936446 0.00820268 5.55622e-020)
(0.934977 0.00821029 5.55691e-020)
(0.933506 0.00821026 0)
(0.932036 0.00820575 5.55591e-020)
(0.930566 0.00819853 5.55421e-020)
(0.929098 0.00818903 5.55162e-020)
(0.927631 0.00817763 5.54817e-020)
(0.926168 0.00816503 5.54386e-020)
(0.924706 0.00815191 5.53869e-020)
(0.923248 0.00813869 5.53268e-020)
(0.921792 0.00812552 5.52583e-020)
(0.920338 0.00811247 5.51816e-020)
(0.918888 0.00809946 5.50967e-020)
(0.917439 0.00808623 5.50037e-020)
(0.915994 0.00807244 5.4903e-020)
(0.914553 0.00805861 5.47949e-020)
(0.913115 0.00804572 5.46796e-020)
(0.91168 0.00803412 5.45569e-020)
(0.910248 0.00802385 5.44269e-020)
(0.908818 0.00801503 0)
(0.90739 0.00800795 5.41454e-020)
(0.905964 0.00800336 -5.4029e-020)
(0.904541 0.00800297 -5.3872e-020)
(0.903121 0.008011 5.36738e-020)
(0.901708 0.00803184 5.3504e-020)
(0.900303 0.00806521 5.33279e-020)
(0.8989 0.00810584 5.3145e-020)
(0.897493 0.0081441 5.29547e-020)
(0.896082 0.00817059 -1.0555e-019)
(0.894669 0.00818242 5.25544e-020)
(0.89326 0.00818255 5.2346e-020)
(0.891856 0.00817558 5.21319e-020)
(0.890458 0.0081661 5.19112e-020)
(0.889064 0.00815721 5.16841e-020)
(0.887675 0.00814979 -5.14878e-020)
(0.886288 0.00814388 5.12112e-020)
(0.884903 0.00813966 5.09663e-020)
(0.88352 0.00813724 5.07163e-020)
(0.882138 0.00813647 5.04611e-020)
(0.880756 0.00813732 5.02005e-020)
(0.879372 0.00813966 -4.9972e-020)
(0.877983 0.0081421 4.9662e-020)
(0.876584 0.00813949 4.93832e-020)
(0.875179 0.00812206 4.90976e-020)
(0.873778 0.00808592 4.88058e-020)
(0.872373 0.00803976 4.85077e-020)
(0.870951 0.00799511 4.82032e-020)
(0.869511 0.00795795 -4.7932e-020)
(0.868057 0.00792867 4.75752e-020)
(0.866598 0.00790526 4.72523e-020)
(0.865136 0.00788551 4.69238e-020)
(0.863676 0.00786785 4.659e-020)
(0.862219 0.00785132 4.6251e-020)
(0.860766 0.00783539 -4.59476e-020)
(0.859317 0.00781983 4.55575e-020)
(0.857873 0.00780453 4.52031e-020)
(0.856432 0.00778966 4.48435e-020)
(0.854997 0.00777531 4.44788e-020)
(0.853568 0.00776173 4.41092e-020)
(0.852145 0.00774882 -4.3776e-020)
(0.850728 0.00773625 4.33548e-020)
(0.849315 0.00772376 4.297e-020)
(0.847906 0.00771132 4.25801e-020)
(0.846502 0.00769898 4.21852e-020)
(0.845101 0.00768683 4.17852e-020)
(0.843705 0.00767501 -4.14221e-020)
(0.842312 0.00766369 4.097e-020)
(0.840923 0.00765311 4.05549e-020)
(0.839537 0.00764373 4.01347e-020)
(0.838155 0.00763628 3.97096e-020)
(0.836775 0.0076319 3.92796e-020)
(0.835397 0.00763227 -3.88866e-020)
(0.834017 0.00763943 3.84049e-020)
(0.832631 0.00765486 3.79603e-020)
(0.831233 0.00767683 3.7511e-020)
(0.829819 0.00769399 3.70566e-020)
(0.828397 0.00769143 3.65963e-020)
(0.826977 0.00766701 -3.61708e-020)
(0.825564 0.00763077 3.56557e-020)
(0.824158 0.00759142 3.51766e-020)
(0.822759 0.00755233 3.46926e-020)
(0.821369 0.00751432 3.42039e-020)
(0.819988 0.00747767 3.37108e-020)
(0.818614 0.00744257 3.32132e-020)
(0.817248 0.00740887 -3.27553e-020)
(0.815888 0.00737646 3.22048e-020)
(0.814536 0.00734547 3.16939e-020)
(0.813189 0.00731583 3.11786e-020)
(0.81185 0.00728703 3.06588e-020)
(0.810518 0.00725841 3.01346e-020)
(0.809193 0.00722938 -2.965e-020)
(0.807876 0.00719951 2.90727e-020)
(0.806566 0.0071685 2.85351e-020)
(0.805264 0.00713624 2.79931e-020)
(0.80397 0.00710259 2.74466e-020)
(0.802685 0.0070673 2.68956e-020)
(0.801408 0.00703029 -2.63843e-020)
(0.800141 0.00699146 2.57804e-020)
(0.798884 0.00695053 2.5216e-020)
(0.797639 0.00690713 2.46471e-020)
(0.796405 0.00686106 2.40737e-020)
(0.795184 0.00681251 2.34958e-020)
(0.793976 0.00676174 -2.29572e-020)
(0.792782 0.00670875 2.23266e-020)
(0.791602 0.00665371 2.17353e-020)
(0.790435 0.0065971 2.11394e-020)
(0.789282 0.00653953 2.05391e-020)
(0.78814 0.00648084 1.99344e-020)
(0.787008 0.00641839 -1.93683e-020)
(0.785886 0.00634539 1.87117e-020)
(0.78478 0.00625293 1.80937e-020)
(0.783701 0.00613588 1.74714e-020)
(0.78266 0.00599534 1.68446e-020)
(0.781666 0.00583625 1.6213e-020)
(0.780724 0.00566524 1.55764e-020)
(0.779837 0.00549048 -1.498e-020)
(0.779002 0.00532129 1.42875e-020)
(0.778213 0.00516655 1.36351e-020)
(0.777459 0.00503237 1.29776e-020)
(0.776727 0.00491814 1.23153e-020)
(0.776007 0.00481509 1.16486e-020)
(0.775299 0.00471341 -1.10158e-020)
(0.774609 0.00461088 1.03039e-020)
(0.77394 0.00451697 9.62652e-021)
(0.773289 0.00445023 8.946e-021)
(0.772642 0.0044318 8.26271e-021)
(0.771975 0.00448532 7.57723e-021)
(0.771255 0.004641 -6.90105e-021)
(0.77043 0.00492857 6.20344e-021)
(0.769431 0.00535457 5.51813e-021)
(0.76817 0.00589337 4.83682e-021)
(0.766548 0.00647971 4.16209e-021)
(0.764472 0.00699126 3.49621e-021)
(0.761687 0.00718731 -2.78647e-021)
(0.758975 0.00655336 2.19366e-021)
(0.753402 0.00402494 1.55101e-021)
(0.750516 -0.0032927 9.27347e-022)
(0.768885 -0.00669962 3.15193e-022)
(0.999771 0.00220818 3.54548e-020)
(0.999544 0.00474781 0)
(0.999315 0.00565508 0)
(0.999062 0.00594907 0)
(0.998751 0.00598134 0)
(0.998386 0.00591851 0)
(0.997975 0.00583508 -3.06102e-020)
(0.997528 0.005759 0)
(0.997059 0.00569853 0)
(0.996581 0.0056484 -3.06354e-020)
(0.996101 0.00560613 0)
(0.995619 0.00557435 0)
(0.995126 0.00556107 -3.0377e-020)
(0.994621 0.00557611 0)
(0.994118 0.00562315 -2.98833e-020)
(0.993609 0.00569742 -2.95961e-020)
(0.993105 0.00578169 -2.95447e-020)
(0.992629 0.00586464 -3.01756e-020)
(0.992171 0.00594963 -3.11222e-020)
(0.991719 0.00603666 -3.21232e-020)
(0.991265 0.00612973 -3.31477e-020)
(0.990809 0.00622853 -3.41779e-020)
(0.990358 0.00632923 0)
(0.989916 0.00643182 -3.63034e-020)
(0.989483 0.00653706 -3.74725e-020)
(0.989054 0.00664134 -3.86648e-020)
(0.988633 0.00674551 -3.98594e-020)
(0.988215 0.00685734 -4.10712e-020)
(0.987798 0.00697644 -8.52806e-020)
(0.987374 0.0070936 -4.42282e-020)
(0.986951 0.00720737 0)
(0.986533 0.0073219 -4.73756e-020)
(0.98612 0.00744225 -4.89627e-020)
(0.98571 0.0075741 -5.06122e-020)
(0.985305 0.00772529 -1.0478e-019)
(0.984897 0.0079003 -5.43804e-020)
(0.984471 0.00809179 -5.66172e-020)
(0.983995 0.00827767 -5.88331e-020)
(0.983486 0.0084396 -6.0926e-020)
(0.982967 0.00857857 0)
(0.982444 0.00870373 -1.29517e-019)
(0.981917 0.00882014 -6.65149e-020)
(0.981386 0.00892939 -6.81554e-020)
(0.980853 0.00903277 -6.96811e-020)
(0.980321 0.00913089 -7.10908e-020)
(0.979788 0.0092254 -7.23811e-020)
(0.979247 0.0093195 -1.46959e-019)
(0.978697 0.00941674 0)
(0.978145 0.00951359 -7.53291e-020)
(0.977594 0.00960552 -7.6186e-020)
(0.977045 0.00969629 -7.70022e-020)
(0.976497 0.00979129 -7.77915e-020)
(0.975946 0.00988914 -7.85476e-020)
(0.975391 0.00999142 -7.92787e-020)
(0.974823 0.010109 -8.00516e-020)
(0.974211 0.0102417 -8.0897e-020)
(0.973533 0.0103696 0)
(0.972805 0.0104804 -8.2558e-020)
(0.972061 0.0105785 -8.3296e-020)
(0.971316 0.0106783 -8.40059e-020)
(0.970567 0.0107967 -8.47195e-020)
(0.969799 0.0109275 -8.5448e-020)
(0.969007 0.0110436 -8.61363e-020)
(0.968202 0.011136 -8.67561e-020)
(0.967398 0.0112102 0)
(0.966598 0.0112748 -8.78685e-020)
(0.965799 0.0113352 -8.83764e-020)
(0.965002 0.0113905 -8.88483e-020)
(0.964206 0.0114402 -8.92844e-020)
(0.963412 0.0114868 -8.96845e-020)
(0.962619 0.0115293 -9.0048e-020)
(0.961827 0.011569 -9.03774e-020)
(0.961036 0.0116066 -9.06733e-020)
(0.960247 0.0116422 -9.09364e-020)
(0.959458 0.0116762 -9.11675e-020)
(0.958671 0.011708 -9.13676e-020)
(0.957884 0.0117371 -9.15363e-020)
(0.957102 0.0117642 -9.16766e-020)
(0.956323 0.0117907 -9.17888e-020)
(0.955546 0.0118172 -9.1874e-020)
(0.95477 0.011844 -9.19325e-020)
(0.953995 0.0118714 0)
(0.953221 0.0118997 -9.19726e-020)
(0.952449 0.0119297 -2.96029e-023)
(0.951681 0.0119624 -2.99038e-023)
(0.950918 0.0120005 -9.18482e-020)
(0.950164 0.0120486 -9.17589e-020)
(0.94942 0.0121123 -9.1649e-020)
(0.948678 0.0121958 -9.15239e-020)
(0.947923 0.0122848 -9.14052e-020)
(0.947151 0.0123546 9.12595e-020)
(0.946373 0.0123981 -9.11631e-020)
(0.945599 0.0124229 -9.10148e-020)
(0.944832 0.0124386 -9.0837e-020)
(0.944071 0.0124506 -9.06333e-020)
(0.943316 0.012463 -9.04101e-020)
(0.942564 0.012477 -3.38903e-023)
(0.941813 0.0124924 -8.98986e-020)
(0.941067 0.0125093 -8.96212e-020)
(0.940324 0.0125275 -8.93295e-020)
(0.939582 0.0125471 -8.90198e-020)
(0.938841 0.0125691 -8.86928e-020)
(0.938097 0.0125959 -3.5088e-023)
(0.937345 0.0126294 -8.79918e-020)
(0.936578 0.0126689 -8.76155e-020)
(0.935793 0.0127103 -8.72223e-020)
(0.934992 0.0127468 -8.68166e-020)
(0.93417 0.0127723 -8.63991e-020)
(0.933324 0.0127854 -8.59683e-020)
(0.932458 0.0127885 -3.73319e-023)
(0.93158 0.0127848 -8.50598e-020)
(0.930698 0.012777 -8.458e-020)
(0.929816 0.0127667 -8.4083e-020)
(0.928935 0.0127549 -8.35691e-020)
(0.928059 0.012742 -8.30385e-020)
(0.927186 0.0127283 -3.9721e-023)
(0.926319 0.0127141 -8.19293e-020)
(0.925456 0.0126992 -8.13516e-020)
(0.924597 0.0126836 -8.07588e-020)
(0.923746 0.0126673 -8.01513e-020)
(0.922903 0.0126505 -7.95292e-020)
(0.922069 0.012634 -4.16129e-023)
(0.92124 0.0126177 -7.82433e-020)
(0.920417 0.0126018 -7.75804e-020)
(0.919599 0.012586 -7.69046e-020)
(0.918786 0.0125703 -7.62163e-020)
(0.917976 0.0125547 -7.55157e-020)
(0.917171 0.0125393 -4.30764e-023)
(0.91637 0.0125242 -7.40785e-020)
(0.915573 0.0125096 -7.33424e-020)
(0.91478 0.012496 -7.25948e-020)
(0.913992 0.0124843 -7.18359e-020)
(0.913208 0.012476 -7.10658e-020)
(0.912429 0.0124741 -4.36403e-023)
(0.911651 0.0124832 -6.9493e-020)
(0.910868 0.0125104 -6.86913e-020)
(0.910066 0.0125623 -6.78815e-020)
(0.909234 0.0126379 -6.70676e-020)
(0.908335 0.0127177 -6.62545e-020)
(0.907328 0.0127718 -4.15443e-023)
(0.906219 0.0127844 -6.45823e-020)
(0.905056 0.0127601 -6.37271e-020)
(0.903879 0.0127125 -6.28646e-020)
(0.90271 0.0126543 -6.19932e-020)
(0.901558 0.0125935 -6.11124e-020)
(0.900422 0.0125329 -6.02218e-020)
(0.899302 0.0124736 -4.67579e-023)
(0.898198 0.0124158 -5.8412e-020)
(0.897108 0.0123596 -5.74928e-020)
(0.896032 0.0123046 -5.65643e-020)
(0.89497 0.0122502 -5.56266e-020)
(0.89392 0.0121956 -5.46797e-020)
(0.892883 0.0121401 -4.81272e-023)
(0.891859 0.012083 -5.2759e-020)
(0.890847 0.012024 -5.17853e-020)
(0.889848 0.0119629 -5.08029e-020)
(0.888862 0.0118992 -4.98119e-020)
(0.887889 0.0118327 -4.88122e-020)
(0.886929 0.0117631 -4.90216e-023)
(0.885982 0.0116902 -4.6787e-020)
(0.885049 0.0116136 -4.57616e-020)
(0.88413 0.0115325 -4.47277e-020)
(0.883224 0.0114461 -4.36852e-020)
(0.882337 0.0113549 -4.26343e-020)
(0.881467 0.0112595 -4.96727e-023)
(0.880615 0.0111601 -4.05074e-020)
(0.879779 0.0110566 -3.94315e-020)
(0.878961 0.0109499 -3.83473e-020)
(0.878159 0.0108422 -3.72549e-020)
(0.87737 0.0107356 -3.61545e-020)
(0.876587 0.010629 -4.91965e-023)
(0.875803 0.0105105 -3.39304e-020)
(0.875024 0.0103562 -3.28065e-020)
(0.874264 0.010151 -3.16747e-020)
(0.873546 0.00989845 -3.0535e-020)
(0.872886 0.0096109 -2.93873e-020)
(0.872292 0.0093004 -2.82309e-020)
(0.871769 0.00898034 -5.50079e-023)
(0.871319 0.00866643 -2.58902e-020)
(0.870934 0.00837573 -2.47052e-020)
(0.870596 0.00812098 -2.35105e-020)
(0.870291 0.00790323 -2.23063e-020)
(0.870001 0.00769748 -2.10935e-020)
(0.869732 0.00747707 -4.60059e-023)
(0.869502 0.00723748 -1.86464e-020)
(0.869318 0.006994 -1.7413e-020)
(0.869184 0.00677364 -1.61726e-020)
(0.869093 0.00660923 -1.49251e-020)
(0.869034 0.00653712 -1.36704e-020)
(0.868983 0.00661008 -1.4746e-023)
(0.868881 0.00689366 -1.11393e-020)
(0.868638 0.00742954 -9.86671e-021)
(0.868136 0.00819137 -8.59986e-021)
(0.86722 0.00912134 -7.35146e-021)
(0.865686 0.0101956 -6.1341e-021)
(0.862966 0.011524 9.48517e-023)
(0.85909 0.0127777 -3.80602e-021)
(0.849829 0.0115591 -2.70886e-021)
(0.846084 0.00697088 -1.67704e-021)
(0.857876 0.00177394 -5.92756e-022)
(0.999765 0.00261334 -3.56751e-020)
(0.999512 0.00502136 0)
(0.999289 0.00577681 0)
(0.999033 0.00603134 0)
(0.998748 0.00607866 0)
(0.998431 0.00604692 0)
(0.998082 0.00599361 2.18827e-020)
(0.997708 0.00593959 0)
(0.997318 0.00588995 -4.37786e-020)
(0.99692 0.00584469 2.18627e-020)
(0.996517 0.0058021 -4.37032e-020)
(0.996111 0.00576085 -4.36399e-020)
(0.9957 0.00572264 2.1759e-020)
(0.99528 0.00569523 0)
(0.994854 0.00568413 2.15775e-020)
(0.994415 0.00568888 2.14666e-020)
(0.993969 0.00570125 2.13579e-020)
(0.993531 0.0057201 2.13306e-020)
(0.993097 0.00574455 2.13211e-020)
(0.992664 0.00576962 2.1309e-020)
(0.99223 0.00579702 2.12951e-020)
(0.991798 0.00582633 2.12787e-020)
(0.991372 0.00585475 0)
(0.990959 0.005881 2.12457e-020)
(0.990558 0.00590978 2.12329e-020)
(0.990161 0.0059455 2.12184e-020)
(0.989768 0.00598542 2.12021e-020)
(0.989382 0.00602518 2.12726e-020)
(0.989011 0.00606778 2.16923e-020)
(0.988641 0.0061198 2.21889e-020)
(0.988274 0.00617556 0)
(0.987912 0.00623359 2.3165e-020)
(0.987557 0.00629482 2.36636e-020)
(0.987211 0.00636099 2.42057e-020)
(0.986878 0.00643524 2.48418e-020)
(0.986558 0.00652066 2.56257e-020)
(0.98624 0.00662087 2.65364e-020)
(0.985905 0.00673521 2.73259e-020)
(0.985557 0.00685107 2.79443e-020)
(0.985205 0.00695927 0)
(0.984855 0.00705759 2.89999e-020)
(0.984508 0.00714723 2.94886e-020)
(0.984164 0.00722997 2.99504e-020)
(0.983823 0.00730675 3.03799e-020)
(0.983485 0.00737898 3.07762e-020)