/*--------------------------------*- C++ -*----------------------------------*\
| =========                 |                                                 |
| \\      /  F ield         | OpenFOAM: The Open Source CFD Toolbox           |
|  \\    /   O peration     | Version:  5.x                                   |
|   \\  /    A nd           | Web:      www.OpenFOAM.org                      |
|    \\/     M anipulation  |                                                 |
\*---------------------------------------------------------------------------*/
/*   Windows 32 and 64 bit porting by blueCAPE: http://www.bluecape.com.pt   *\
|  Based on Windows porting (2.0.x v4) by Symscape: http://www.symscape.com   |
\*---------------------------------------------------------------------------*/
FoamFile
{
    version     2.0;
    format      ascii;
    class       volScalarField;
    location    "31";
    object      p;
}
// * * * * * * * * * * * * * * * * * * * * * * * * * * * * * * * * * * * * * //

dimensions      [0 2 -2 0 0 0 0];

internalField   nonuniform List<scalar> 
4000
(
-13.4289
-13.4337
-13.4355
-13.4352
-13.4337
-13.4316
-13.429
-13.4259
-13.4225
-13.4187
-13.4145
-13.4099
-13.4049
-13.3994
-13.3935
-13.3871
-13.3802
-13.3728
-13.365
-13.3566
-13.3476
-13.3381
-13.3281
-13.3174
-13.3061
-13.2943
-13.2819
-13.2689
-13.2554
-13.2414
-13.2271
-13.2125
-13.1976
-13.1826
-13.1673
-13.1517
-13.1359
-13.1194
-13.1029
-13.0855
-13.0684
-13.0471
-13.0238
-12.9961
-12.9679
-12.9367
-12.9061
-12.8731
-12.8409
-12.8062
-12.7725
-12.7362
-12.701
-12.6631
-12.6265
-12.5871
-12.549
-12.5082
-12.4686
-12.4261
-12.3851
-12.3412
-12.2988
-12.2536
-12.21
-12.1636
-12.119
-12.0712
-12.0252
-11.976
-11.9285
-11.8777
-11.8288
-11.7763
-11.7258
-11.6717
-11.6195
-11.5636
-11.5098
-11.4523
-11.3971
-11.3381
-11.2815
-11.2211
-11.1632
-11.1014
-11.0421
-10.9789
-10.9183
-10.8536
-10.7916
-10.7257
-10.6625
-10.5952
-10.531
-10.4625
-10.3969
-10.3268
-10.2597
-10.1878
-10.1189
-10.0451
-9.97427
-9.89837
-9.82547
-9.74738
-9.67233
-9.59196
-9.51492
-9.43258
-9.35364
-9.26947
-9.18897
-9.10327
-9.02143
-8.93456
-8.85158
-8.76344
-8.67925
-8.58971
-8.50417
-8.41334
-8.32667
-8.23467
-8.14694
-8.05372
-7.96467
-7.86996
-7.77932
-7.68269
-7.59024
-7.49265
-7.40031
-7.30353
-7.21114
-7.11305
-7.01884
-6.91867
-6.82286
-6.72168
-6.62535
-6.52315
-6.4252
-6.32098
-6.22111
-6.11517
-6.01386
-5.90648
-5.8038
-5.69495
-5.59083
-5.48039
-5.37465
-5.26228
-5.15452
-5.03999
-4.9302
-4.81376
-4.70236
-4.58433
-4.47145
-4.35198
-4.23789
-4.11755
-4.0031
-3.88297
-3.76919
-3.64984
-3.53653
-3.41789
-3.30605
-3.19031
-3.08229
-2.97217
-2.87074
-2.76609
-2.66729
-2.56359
-2.46483
-2.36022
-2.26051
-2.15434
-2.05371
-1.9483
-1.85027
-1.74857
-1.65231
-1.54534
-1.43428
-1.30951
-1.18747
-1.06098
-0.942882
-0.820946
-0.704327
-0.579364
-0.455933
-0.325381
-0.193943
-0.0648976
-13.4373
-13.4373
-13.4373
-13.4364
-13.4346
-13.4324
-13.4297
-13.4267
-13.4233
-13.4195
-13.4153
-13.4108
-13.4057
-13.4003
-13.3944
-13.388
-13.3812
-13.3739
-13.3661
-13.3577
-13.3488
-13.3393
-13.3292
-13.3186
-13.3074
-13.2955
-13.2831
-13.2702
-13.2567
-13.2427
-13.2284
-13.2138
-13.199
-13.1839
-13.1686
-13.1531
-13.1373
-13.1209
-13.1045
-13.0877
-13.0705
-13.0495
-13.0256
-12.998
-12.9693
-12.9386
-12.9077
-12.875
-12.8425
-12.8082
-12.7741
-12.7382
-12.7025
-12.6651
-12.6279
-12.589
-12.5505
-12.5101
-12.4699
-12.4278
-12.3861
-12.3427
-12.2996
-12.255
-12.2111
-12.1655
-12.1203
-12.0732
-12.0266
-11.9781
-11.93
-11.8799
-11.8302
-11.7785
-11.7272
-11.6737
-11.6208
-11.5656
-11.5109
-11.4541
-11.398
-11.3398
-11.2824
-11.2228
-11.1641
-11.1032
-11.043
-10.9807
-10.9191
-10.8554
-10.7924
-10.7274
-10.6633
-10.5972
-10.532
-10.4646
-10.3981
-10.3292
-10.2611
-10.1904
-10.1204
-10.0478
-9.97587
-9.90108
-9.82695
-9.74989
-9.6735
-9.59412
-9.51582
-9.4345
-9.35433
-9.27106
-9.18921
-9.10436
-9.02129
-8.93541
-8.8514
-8.76437
-8.67913
-8.59067
-8.50401
-8.41415
-8.32639
-8.23547
-8.14676
-8.05467
-7.96461
-7.87106
-7.77947
-7.68361
-7.58966
-7.49242
-7.39923
-7.30315
-7.21011
-7.11266
-7.01742
-6.91766
-6.82061
-6.72066
-6.62414
-6.52344
-6.42475
-6.32124
-6.22022
-6.11507
-6.01279
-5.90634
-5.80274
-5.69484
-5.58983
-5.48047
-5.37395
-5.26266
-5.15393
-5.04011
-4.92909
-4.81344
-4.701
-4.58391
-4.46993
-4.35126
-4.23583
-4.11593
-3.99998
-3.88056
-3.7658
-3.64754
-3.53263
-3.41384
-3.30045
-3.18524
-3.07607
-2.96667
-2.86576
-2.76321
-2.66452
-2.5632
-2.46378
-2.36003
-2.25895
-2.15247
-2.04979
-1.94608
-1.84904
-1.75415
-1.66036
-1.55367
-1.43415
-1.30507
-1.18132
-1.05774
-0.940396
-0.822901
-0.706695
-0.584757
-0.458371
-0.327171
-0.192385
-0.0633768
-13.4425
-13.4406
-13.4396
-13.4384
-13.4366
-13.4344
-13.4317
-13.4287
-13.4252
-13.4214
-13.4172
-13.4125
-13.4075
-13.4019
-13.396
-13.3896
-13.3828
-13.3755
-13.3677
-13.3593
-13.3504
-13.3409
-13.3309
-13.3202
-13.3089
-13.297
-13.2846
-13.2716
-13.2581
-13.2442
-13.2299
-13.2153
-13.2005
-13.1855
-13.1703
-13.1547
-13.139
-13.1228
-13.1066
-13.0901
-13.0731
-13.0526
-13.0284
-13.001
-12.972
-12.9417
-12.9106
-12.8785
-12.8457
-12.8118
-12.7773
-12.7416
-12.7055
-12.6683
-12.6308
-12.5923
-12.5534
-12.5134
-12.473
-12.4309
-12.3885
-12.3449
-12.3013
-12.2572
-12.2136
-12.169
-12.1237
-12.0773
-12.0303
-11.9824
-11.9338
-11.8842
-11.8339
-11.7827
-11.7309
-11.6779
-11.6242
-11.5694
-11.514
-11.4577
-11.4009
-11.3432
-11.2851
-11.2262
-11.1669
-11.1067
-11.0459
-10.9842
-10.922
-10.8588
-10.7953
-10.7309
-10.6663
-10.6009
-10.5352
-10.4688
-10.402
-10.3341
-10.2654
-10.1955
-10.125
-10.0533
-9.98074
-9.90673
-9.83172
-9.75536
-9.67794
-9.59934
-9.51996
-9.43967
-9.35815
-9.27577
-9.19235
-9.10851
-9.02389
-8.93938
-8.85395
-8.76843
-8.6816
-8.59459
-8.50623
-8.41784
-8.32825
-8.23893
-8.14847
-8.05807
-7.9661
-7.87437
-7.78068
-7.68571
-7.58869
-7.49337
-7.39955
-7.30587
-7.2093
-7.11315
-7.01685
-6.92073
-6.82296
-6.72646
-6.62829
-6.53016
-6.42833
-6.32577
-6.22135
-6.11823
-6.01343
-5.90945
-5.80345
-5.69808
-5.59074
-5.48431
-5.3758
-5.26776
-5.15628
-5.04428
-4.92986
-4.81653
-4.7013
-4.58686
-4.46993
-4.3536
-4.2342
-4.11522
-3.99442
-3.87624
-3.75714
-3.63962
-3.51981
-3.40243
-3.2858
-3.17393
-3.06428
-2.96127
-2.86136
-2.75963
-2.66126
-2.56346
-2.46213
-2.35895
-2.25565
-2.14972
-2.04626
-1.94413
-1.84993
-1.76628
-1.67912
-1.5708
-1.43782
-1.2968
-1.17574
-1.06079
-0.950535
-0.838281
-0.72102
-0.597277
-0.466161
-0.329856
-0.192387
-0.0637151
-13.449
-13.447
-13.4453
-13.4434
-13.4412
-13.4386
-13.4357
-13.4325
-13.4289
-13.4249
-13.4205
-13.4158
-13.4107
-13.4051
-13.3991
-13.3927
-13.3859
-13.3786
-13.3707
-13.3623
-13.3534
-13.3439
-13.3338
-13.3231
-13.3117
-13.2997
-13.2871
-13.274
-13.2604
-13.2464
-13.2321
-13.2175
-13.2027
-13.1877
-13.1724
-13.1569
-13.1413
-13.1254
-13.1093
-13.0933
-13.0763
-13.0563
-13.0323
-13.0051
-12.9763
-12.9464
-12.9157
-12.884
-12.8514
-12.8176
-12.783
-12.7473
-12.7109
-12.6736
-12.6359
-12.5975
-12.5589
-12.5194
-12.4791
-12.4369
-12.3939
-12.3492
-12.3049
-12.2601
-12.2172
-12.1735
-12.1295
-12.0835
-12.0374
-11.9896
-11.9415
-11.8915
-11.8414
-11.7895
-11.7376
-11.6838
-11.6299
-11.5743
-11.5189
-11.462
-11.4054
-11.3472
-11.2894
-11.2301
-11.1713
-11.1108
-11.0507
-10.9885
-10.9267
-10.863
-10.7999
-10.7351
-10.6712
-10.6055
-10.5404
-10.4741
-10.4085
-10.3403
-10.2723
-10.2019
-10.1322
-10.0602
-9.98861
-9.91382
-9.83925
-9.76157
-9.68459
-9.60473
-9.52612
-9.44455
-9.36393
-9.28004
-9.19749
-9.11215
-9.02883
-8.94284
-8.85879
-8.77146
-8.68583
-8.59692
-8.51012
-8.41965
-8.33111
-8.2396
-8.15052
-8.05767
-7.96624
-7.87054
-7.7768
-7.6785
-7.58319
-7.49064
-7.40326
-7.30871
-7.20822
-7.11022
-7.01996
-6.92541
-6.8335
-6.73694
-6.64162
-6.54027
-6.43742
-6.32737
-6.22279
-6.1169
-6.01443
-5.90826
-5.80486
-5.69713
-5.59256
-5.48451
-5.3803
-5.27193
-5.16286
-5.04527
-4.93155
-4.81557
-4.70309
-4.58639
-4.47222
-4.35309
-4.2338
-4.10721
-3.98426
-3.86049
-3.74127
-3.61843
-3.49937
-3.37805
-3.26324
-3.15119
-3.04932
-2.95768
-2.86286
-2.76185
-2.66099
-2.56713
-2.46526
-2.3595
-2.25248
-2.14729
-2.05312
-1.95493
-1.86536
-1.7887
-1.69793
-1.58089
-1.4327
-1.27864
-1.16382
-1.0692
-0.978419
-0.874406
-0.754563
-0.624582
-0.482301
-0.335192
-0.193822
-0.0652852
-13.4563
-13.4548
-13.4529
-13.4507
-13.4482
-13.4455
-13.4423
-13.4389
-13.4351
-13.431
-13.4265
-13.4217
-13.4165
-13.4109
-13.4049
-13.3984
-13.3915
-13.3842
-13.3763
-13.3679
-13.359
-13.3494
-13.3392
-13.3284
-13.3169
-13.3048
-13.292
-13.2788
-13.265
-13.2509
-13.2365
-13.2219
-13.2071
-13.1921
-13.1768
-13.1613
-13.146
-13.1307
-13.1153
-13.0991
-13.0817
-13.0612
-13.0373
-13.0104
-12.982
-12.9525
-12.9224
-12.8913
-12.8592
-12.8258
-12.7913
-12.7559
-12.7194
-12.6822
-12.6443
-12.6062
-12.5677
-12.5292
-12.4893
-12.4478
-12.4039
-12.3589
-12.313
-12.2675
-12.2236
-12.1811
-12.1379
-12.0935
-12.0483
-12.0019
-11.9544
-11.9053
-11.8548
-11.8024
-11.7489
-11.6941
-11.6387
-11.5824
-11.5256
-11.4685
-11.4108
-11.3529
-11.2943
-11.2356
-11.1762
-11.1167
-11.0558
-10.9945
-10.9316
-10.8686
-10.8044
-10.7408
-10.6763
-10.6125
-10.5474
-10.4826
-10.4161
-10.3488
-10.2793
-10.2101
-10.1396
-10.0693
-9.99666
-9.92285
-9.84594
-9.76879
-9.68982
-9.61157
-9.53126
-9.45122
-9.36843
-9.28585
-9.20092
-9.117
-9.03155
-8.94747
-8.86101
-8.77507
-8.68655
-8.59906
-8.50951
-8.42058
-8.32882
-8.23848
-8.1459
-8.05364
-7.95638
-7.85881
-7.76068
-7.6651
-7.57139
-7.48826
-7.40921
-7.31566
-7.20822
-7.11199
-7.02068
-6.92792
-6.83577
-6.74594
-6.651
-6.55167
-6.44189
-6.32741
-6.21667
-6.11236
-6.00699
-5.90376
-5.79855
-5.69394
-5.58674
-5.48224
-5.37809
-5.27518
-5.16425
-5.04764
-4.93011
-4.81566
-4.69957
-4.58385
-4.46591
-4.34713
-4.22219
-4.09324
-3.96404
-3.84152
-3.72118
-3.60297
-3.4823
-3.36044
-3.24022
-3.12692
-3.02335
-2.93079
-2.84925
-2.76192
-2.66598
-2.58108
-2.49385
-2.38773
-2.26169
-2.13907
-2.05182
-1.96378
-1.88043
-1.80456
-1.70792
-1.58627
-1.44461
-1.28176
-1.15812
-1.07622
-0.998567
-0.894889
-0.770947
-0.638504
-0.49151
-0.3414
-0.201067
-0.0698379
-13.4648
-13.4635
-13.4617
-13.4595
-13.457
-13.4541
-13.4509
-13.4474
-13.4434
-13.4392
-13.4346
-13.4297
-13.4244
-13.4187
-13.4127
-13.4062
-13.3993
-13.3919
-13.384
-13.3755
-13.3665
-13.3568
-13.3465
-13.3356
-13.324
-13.3117
-13.2989
-13.2855
-13.2716
-13.2574
-13.243
-13.2283
-13.2135
-13.1985
-13.1832
-13.1677
-13.1526
-13.1377
-13.1223
-13.106
-13.0877
-13.0667
-13.0423
-13.0154
-12.9869
-12.9574
-12.9274
-12.8965
-12.8648
-12.8317
-12.7974
-12.762
-12.7257
-12.6884
-12.6505
-12.612
-12.5738
-12.5356
-12.4969
-12.4566
-12.4141
-12.3697
-12.3226
-12.2755
-12.2295
-12.1864
-12.1433
-12.1005
-12.0562
-12.0115
-11.9646
-11.9172
-11.8676
-11.8169
-11.7635
-11.7086
-11.6518
-11.5944
-11.5365
-11.4783
-11.4201
-11.3612
-11.3025
-11.2431
-11.1845
-11.1249
-11.0653
-11.0032
-10.941
-10.8768
-10.8135
-10.7492
-10.6866
-10.6236
-10.5619
-10.4969
-10.4313
-10.362
-10.2928
-10.2222
-10.1534
-10.0831
-10.0126
-9.93678
-9.85986
-9.78001
-9.70169
-9.62138
-9.54238
-9.46009
-9.37819
-9.29312
-9.20916
-9.12321
-9.03916
-8.95322
-8.86776
-8.77927
-8.69124
-8.60115
-8.51228
-8.42171
-8.33209
-8.23898
-8.14573
-8.04848
-7.95013
-7.84937
-7.7532
-7.65898
-7.57068
-7.49201
-7.41775
-7.32323
-7.20508
-7.10068
-7.01248
-6.92429
-6.83721
-6.74851
-6.65593
-6.55186
-6.44203
-6.32648
-6.21498
-6.10584
-5.99962
-5.89447
-5.79401
-5.69091
-5.58658
-5.47943
-5.37545
-5.27085
-5.16394
-5.05137
-4.93782
-4.8208
-4.70134
-4.57772
-4.45389
-4.32852
-4.20381
-4.07645
-3.95053
-3.82852
-3.71278
-3.59844
-3.48222
-3.35419
-3.22899
-3.1172
-3.01711
-2.92193
-2.83831
-2.75625
-2.66059
-2.59312
-2.52293
-2.41974
-2.27507
-2.13867
-2.05053
-1.9703
-1.88591
-1.80968
-1.71979
-1.60277
-1.45804
-1.29856
-1.17402
-1.09124
-1.00478
-0.88703
-0.751663
-0.614959
-0.479085
-0.344477
-0.208938
-0.0709676
-13.4739
-13.4728
-13.4712
-13.4692
-13.4668
-13.4639
-13.4606
-13.4569
-13.4529
-13.4486
-13.4439
-13.4388
-13.4334
-13.4276
-13.4215
-13.4149
-13.4079
-13.4004
-13.3924
-13.3839
-13.3747
-13.365
-13.3546
-13.3436
-13.3319
-13.3195
-13.3066
-13.293
-13.2791
-13.2647
-13.2502
-13.2355
-13.2206
-13.2056
-13.1904
-13.1751
-13.1601
-13.1454
-13.1303
-13.1138
-13.0953
-13.0736
-13.0488
-13.0217
-12.9932
-12.9637
-12.9335
-12.9025
-12.8706
-12.8375
-12.8033
-12.768
-12.7318
-12.6945
-12.6564
-12.6176
-12.5786
-12.5395
-12.5006
-12.4609
-12.4202
-12.3771
-12.3315
-12.2837
-12.2367
-12.1915
-12.1482
-12.105
-12.0615
-12.017
-11.9714
-11.9245
-11.8762
-11.8265
-11.7743
-11.7202
-11.6634
-11.6059
-11.5469
-11.4889
-11.4293
-11.3708
-11.3104
-11.2518
-11.1919
-11.134
-11.0737
-11.0138
-10.95
-10.8873
-10.8225
-10.7604
-10.697
-10.6375
-10.5764
-10.5149
-10.4479
-10.3805
-10.3097
-10.2409
-10.1707
-10.1035
-10.033
-9.96024
-9.88137
-9.80325
-9.72311
-9.64501
-9.56348
-9.48144
-9.39584
-9.31094
-9.22444
-9.13934
-9.05333
-8.968
-8.88018
-8.79164
-8.70127
-8.61135
-8.52039
-8.43136
-8.34201
-8.25118
-8.15526
-8.05689
-7.95645
-7.85767
-7.7603
-7.66474
-7.57034
-7.48691
-7.4128
-7.33059
-7.22042
-7.10987
-7.01568
-6.92846
-6.84166
-6.7543
-6.6562
-6.54624
-6.43659
-6.32778
-6.2147
-6.1018
-5.99179
-5.88957
-5.79285
-5.69709
-5.59729
-5.49172
-5.38093
-5.27181
-5.16425
-5.05545
-4.94273
-4.82671
-4.70466
-4.57664
-4.4464
-4.31864
-4.19314
-4.06762
-3.94237
-3.82386
-3.71287
-3.6075
-3.49686
-3.36409
-3.2286
-3.11188
-3.01071
-2.91875
-2.83154
-2.74299
-2.65716
-2.60471
-2.54445
-2.44223
-2.29739
-2.15652
-2.06216
-1.97771
-1.87816
-1.79694
-1.71858
-1.60693
-1.4711
-1.33386
-1.22238
-1.1162
-0.99722
-0.859067
-0.71539
-0.57853
-0.447838
-0.321312
-0.191056
-0.0616186
-13.4839
-13.4828
-13.4812
-13.4793
-13.4769
-13.4741
-13.4708
-13.467
-13.4629
-13.4584
-13.4535
-13.4483
-13.4428
-13.4369
-13.4306
-13.4239
-13.4167
-13.4091
-13.4009
-13.3922
-13.3829
-13.373
-13.3625
-13.3514
-13.3395
-13.327
-13.3139
-13.3002
-13.2861
-13.2716
-13.2569
-13.242
-13.227
-13.2119
-13.1966
-13.1814
-13.1665
-13.1519
-13.1368
-13.1204
-13.1015
-13.0793
-13.054
-13.0267
-12.9982
-12.9688
-12.9385
-12.9076
-12.8756
-12.8428
-12.8088
-12.7739
-12.738
-12.7013
-12.6637
-12.6253
-12.5864
-12.5472
-12.5076
-12.4674
-12.4263
-12.384
-12.3394
-12.2929
-12.2458
-12.1996
-12.1548
-12.1107
-12.0665
-12.0214
-11.9757
-11.9287
-11.8806
-11.8305
-11.779
-11.7247
-11.6688
-11.6106
-11.5522
-11.4932
-11.4349
-11.3759
-11.3173
-11.2578
-11.1986
-11.1385
-11.0788
-11.0174
-10.9554
-10.8922
-10.8299
-10.7672
-10.7057
-10.645
-10.5852
-10.5232
-10.4587
-10.3914
-10.3227
-10.2529
-10.1829
-10.1128
-10.0421
-9.96932
-9.89345
-9.81566
-9.73726
-9.65915
-9.57824
-9.49483
-9.40933
-9.32376
-9.23682
-9.15084
-9.06376
-8.97773
-8.8893
-8.80099
-8.70993
-8.62024
-8.52912
-8.43908
-8.34694
-8.25571
-8.16042
-8.06433
-7.96559
-7.86847
-7.76933
-7.6719
-7.57579
-7.49115
-7.41185
-7.3293
-7.22823
-7.123
-7.02362
-6.93013
-6.83649
-6.74473
-6.64675
-6.54443
-6.43531
-6.32281
-6.20521
-6.09478
-5.98809
-5.89114
-5.79688
-5.70451
-5.60582
-5.5053
-5.39983
-5.29309
-5.17887
-5.06743
-4.9503
-4.83409
-4.71076
-4.58193
-4.44717
-4.3179
-4.18922
-4.06676
-3.94339
-3.82807
-3.71528
-3.61048
-3.49614
-3.36404
-3.23213
-3.12306
-3.02312
-2.93525
-2.84028
-2.74621
-2.66285
-2.60436
-2.53862
-2.44826
-2.3176
-2.18599
-2.0819
-1.98379
-1.87091
-1.789
-1.72125
-1.62123
-1.48477
-1.35902
-1.25151
-1.12845
-0.987299
-0.835637
-0.684332
-0.546305
-0.419959
-0.289719
-0.159519
-0.0429317
-13.4941
-13.493
-13.4916
-13.4897
-13.4874
-13.4846
-13.4812
-13.4774
-13.4732
-13.4686
-13.4636
-13.4583
-13.4526
-13.4466
-13.4401
-13.4332
-13.4259
-13.4181
-13.4098
-13.4009
-13.3915
-13.3814
-13.3707
-13.3593
-13.3473
-13.3346
-13.3213
-13.3074
-13.293
-13.2783
-13.2633
-13.2483
-13.233
-13.2177
-13.2023
-13.1869
-13.1719
-13.1573
-13.142
-13.1252
-13.1059
-13.0831
-13.0573
-13.0296
-13.0008
-12.9712
-12.9407
-12.9096
-12.8776
-12.8449
-12.8111
-12.7766
-12.741
-12.7047
-12.6676
-12.6299
-12.5915
-12.5527
-12.5132
-12.4733
-12.4321
-12.39
-12.3462
-12.3013
-12.2555
-12.21
-12.1647
-12.1199
-12.0745
-12.0287
-11.9818
-11.9339
-11.8846
-11.834
-11.7817
-11.7277
-11.672
-11.6149
-11.5572
-11.4989
-11.4406
-11.3818
-11.3232
-11.2638
-11.2046
-11.1445
-11.0847
-11.0235
-10.9624
-10.9002
-10.8386
-10.7759
-10.7145
-10.6529
-10.5927
-10.5304
-10.467
-10.4
-10.3325
-10.2621
-10.1919
-10.119
-10.0473
-9.97348
-9.89998
-9.82206
-9.74497
-9.66546
-9.58591
-9.50142
-9.41795
-9.33137
-9.2464
-9.15851
-9.07264
-8.98374
-8.89677
-8.80621
-8.7173
-8.62473
-8.53462
-8.44089
-8.34946
-8.25535
-8.163
-8.06663
-7.97216
-7.87369
-7.77665
-7.67566
-7.58195
-7.49292
-7.41165
-7.32365
-7.23071
-7.13004
-7.0331
-6.93136
-6.83231
-6.73291
-6.63845
-6.5375
-6.43327
-6.31562
-6.1949
-6.08182
-5.98578
-5.89362
-5.80565
-5.70999
-5.61315
-5.51095
-5.41361
-5.30522
-5.19008
-5.07127
-4.95597
-4.83612
-4.71774
-4.58722
-4.45393
-4.31198
-4.17901
-4.05222
-3.93812
-3.82273
-3.71739
-3.61137
-3.50529
-3.37208
-3.24221
-3.13231
-3.04137
-2.94933
-2.85992
-2.76525
-2.68163
-2.59486
-2.51428
-2.42651
-2.32478
-2.20938
-2.11043
-2.00584
-1.87718
-1.77866
-1.72002
-1.63584
-1.51592
-1.39348
-1.26939
-1.12589
-0.97226
-0.818522
-0.666949
-0.523451
-0.39424
-0.266804
-0.14239
-0.0350786
-13.5052
-13.5039
-13.5024
-13.5005
-13.4982
-13.4954
-13.4921
-13.4882
-13.4839
-13.4792
-13.4742
-13.4688
-13.4629
-13.4568
-13.4502
-13.4432
-13.4357
-13.4278
-13.4193
-13.4103
-13.4006
-13.3904
-13.3795
-13.3679
-13.3557
-13.3428
-13.3293
-13.3152
-13.3005
-13.2855
-13.2703
-13.2549
-13.2394
-13.2238
-13.2081
-13.1925
-13.1774
-13.1625
-13.1469
-13.1298
-13.1099
-13.0867
-13.0605
-13.0325
-13.0033
-12.9733
-12.9426
-12.9113
-12.8792
-12.8465
-12.8129
-12.7787
-12.7436
-12.7077
-12.6711
-12.6337
-12.5958
-12.557
-12.5178
-12.4775
-12.4367
-12.3943
-12.3515
-12.307
-12.2627
-12.2173
-12.1726
-12.127
-12.0818
-12.0349
-11.9879
-11.9388
-11.8897
-11.8382
-11.7865
-11.7323
-11.6781
-11.6216
-11.5657
-11.5078
-11.4508
-11.3923
-11.3347
-11.2755
-11.217
-11.157
-11.0977
-11.0369
-10.9768
-10.9154
-10.855
-10.7933
-10.7323
-10.6702
-10.6086
-10.5452
-10.4814
-10.4152
-10.3482
-10.2782
-10.2072
-10.1334
-10.0593
-9.98408
-9.90941
-9.83267
-9.75531
-9.67585
-9.59575
-9.51298
-9.43016
-9.34567
-9.26101
-9.17455
-9.08744
-8.99828
-8.90896
-8.81863
-8.72845
-8.63551
-8.54174
-8.44618
-8.35212
-8.2583
-8.16576
-8.07284
-7.98004
-7.88548
-7.78869
-7.69003
-7.5916
-7.49737
-7.4061
-7.31717
-7.22735
-7.13757
-7.04321
-6.94354
-6.83809
-6.73536
-6.63347
-6.53042
-6.42241
-6.30622
-6.18036
-6.07429
-5.98705
-5.90645
-5.81912
-5.72141
-5.61636
-5.51432
-5.41264
-5.30327
-5.19042
-5.0834
-4.96993
-4.8512
-4.72742
-4.59954
-4.46275
-4.32086
-4.17731
-4.05383
-3.93973
-3.83236
-3.72532
-3.62432
-3.51571
-3.39484
-3.26569
-3.16134
-3.06848
-2.98003
-2.88588
-2.79539
-2.69815
-2.59557
-2.49455
-2.40832
-2.31413
-2.21671
-2.11631
-2.00181
-1.8742
-1.79523
-1.7412
-1.65823
-1.54003
-1.4077
-1.26829
-1.11914
-0.963091
-0.806099
-0.654192
-0.512061
-0.380475
-0.252386
-0.135583
-0.0350008
-13.5164
-13.5151
-13.5136
-13.5118
-13.5095
-13.5067
-13.5034
-13.4994
-13.4951
-13.4904
-13.4852
-13.4797
-13.4738
-13.4676
-13.4609
-13.4538
-13.4462
-13.4381
-13.4295
-13.4203
-13.4106
-13.4002
-13.3891
-13.3774
-13.3649
-13.3519
-13.3381
-13.3237
-13.3088
-13.2936
-13.278
-13.2623
-13.2465
-13.2305
-13.2145
-13.1986
-13.1832
-13.1681
-13.1524
-13.1348
-13.1148
-13.0913
-13.0648
-13.0364
-13.0069
-12.9765
-12.9457
-12.914
-12.8821
-12.8491
-12.8161
-12.7821
-12.7479
-12.7124
-12.6767
-12.6397
-12.6025
-12.5641
-12.5254
-12.4855
-12.4448
-12.4027
-12.3599
-12.3161
-12.2718
-12.227
-12.1819
-12.1364
-12.09
-12.0427
-11.9939
-11.9444
-11.8935
-11.8421
-11.7891
-11.7359
-11.6811
-11.6262
-11.5696
-11.5134
-11.4556
-11.3987
-11.3403
-11.2828
-11.2235
-11.165
-11.1048
-11.0457
-10.9849
-10.9253
-10.864
-10.8036
-10.7411
-10.6792
-10.6153
-10.5527
-10.488
-10.4244
-10.3571
-10.2888
-10.2159
-10.1422
-10.0649
-9.98961
-9.91327
-9.83843
-9.75991
-9.68162
-9.6007
-9.52043
-9.43792
-9.35629
-9.27195
-9.18787
-9.09971
-9.01091
-8.91845
-8.82905
-8.73694
-8.64416
-8.54519
-8.44798
-8.35039
-8.2578
-8.16534
-8.07662
-7.9868
-7.89692
-7.8006
-7.70221
-7.59879
-7.49786
-7.40175
-7.31508
-7.23217
-7.14823
-7.05576
-6.95446
-6.84518
-6.73681
-6.62759
-6.5179
-6.4033
-6.28046
-6.16203
-6.0712
-5.99533
-5.92057
-5.83417
-5.7319
-5.61664
-5.51033
-5.40319
-5.29341
-5.19232
-5.09618
-4.98626
-4.85973
-4.72948
-4.59825
-4.46318
-4.3267
-4.18722
-4.06179
-3.95268
-3.84348
-3.73571
-3.62675
-3.51962
-3.40519
-3.293
-3.19217
-3.10243
-3.00792
-2.90978
-2.81076
-2.71018
-2.59721
-2.48836
-2.39122
-2.29638
-2.20012
-2.1097
-2.01019
-1.91158
-1.84355
-1.77762
-1.67993
-1.55055
-1.40824
-1.26174
-1.11176
-0.959188
-0.80288
-0.648533
-0.503089
-0.368199
-0.24551
-0.14521
-0.0512769
-13.5286
-13.527
-13.5255
-13.5235
-13.5213
-13.5184
-13.5151
-13.5111
-13.5067
-13.502
-13.4968
-13.4912
-13.4853
-13.4789
-13.4722
-13.465
-13.4573
-13.4492
-13.4405
-13.4312
-13.4213
-13.4108
-13.3996
-13.3877
-13.3751
-13.3618
-13.3478
-13.3332
-13.3181
-13.3026
-13.2868
-13.2708
-13.2546
-13.2384
-13.222
-13.2057
-13.19
-13.1746
-13.1585
-13.1411
-13.1211
-13.0976
-13.0712
-13.0427
-13.0132
-12.9829
-12.9518
-12.9202
-12.888
-12.8552
-12.8217
-12.7881
-12.7534
-12.7184
-12.6822
-12.646
-12.6083
-12.5706
-12.5314
-12.492
-12.4509
-12.4094
-12.3662
-12.323
-12.2783
-12.2338
-12.188
-12.1425
-12.0952
-12.047
-11.9966
-11.946
-11.8942
-11.842
-11.7888
-11.7357
-11.6816
-11.627
-11.5712
-11.5148
-11.4577
-11.4007
-11.3433
-11.2853
-11.2268
-11.1678
-11.1084
-11.0488
-10.9892
-10.9291
-10.8685
-10.8068
-10.7442
-10.6803
-10.6161
-10.552
-10.4888
-10.4254
-10.3601
-10.2909
-10.2182
-10.1426
-10.0656
-9.98827
-9.91186
-9.83502
-9.75777
-9.67942
-9.60094
-9.52089
-9.44006
-9.35811
-9.27545
-9.19115
-9.10516
-9.01539
-8.92303
-8.83076
-8.73993
-8.64343
-8.54423
-8.44283
-8.34512
-8.25104
-8.16037
-8.07233
-7.98824
-7.90156
-7.80909
-7.70918
-7.60389
-7.50139
-7.40876
-7.32182
-7.24342
-7.16214
-7.0691
-6.96023
-6.84622
-6.73112
-6.61958
-6.50395
-6.38754
-6.26491
-6.16021
-6.07876
-6.00708
-5.92785
-5.83656
-5.73098
-5.61169
-5.4961
-5.39044
-5.28994
-5.19619
-5.10129
-4.99204
-4.86113
-4.72915
-4.5935
-4.45794
-4.3218
-4.18395
-4.06383
-3.96011
-3.85349
-3.74331
-3.63287
-3.52622
-3.4218
-3.31801
-3.218
-3.12549
-3.02359
-2.91416
-2.81157
-2.71027
-2.59862
-2.48697
-2.38316
-2.27967
-2.18016
-2.09069
-2.00447
-1.9331
-1.87455
-1.80467
-1.70089
-1.56043
-1.41055
-1.25991
-1.10919
-0.959656
-0.804937
-0.647948
-0.499776
-0.365966
-0.260043
-0.169397
-0.0621695
-13.5409
-13.5393
-13.5377
-13.5357
-13.5334
-13.5306
-13.5272
-13.5233
-13.5189
-13.514
-13.5088
-13.5033
-13.4973
-13.491
-13.4842
-13.477
-13.4693
-13.4611
-13.4523
-13.443
-13.433
-13.4224
-13.4111
-13.3991
-13.3864
-13.3729
-13.3588
-13.344
-13.3287
-13.313
-13.297
-13.2808
-13.2645
-13.248
-13.2313
-13.2146
-13.1985
-13.1827
-13.1664
-13.1488
-13.1292
-13.1062
-13.0794
-13.0507
-13.0204
-12.9895
-12.9576
-12.9254
-12.8924
-12.8593
-12.8255
-12.7913
-12.7566
-12.7213
-12.6855
-12.649
-12.612
-12.5741
-12.5355
-12.4959
-12.4551
-12.413
-12.3701
-12.3263
-12.282
-12.2369
-12.1916
-12.1453
-12.0978
-12.048
-11.9971
-11.9454
-11.8938
-11.8416
-11.7895
-11.7366
-11.6835
-11.6293
-11.5743
-11.5181
-11.4616
-11.4047
-11.3476
-11.2898
-11.2314
-11.1724
-11.113
-11.0534
-10.994
-10.934
-10.8735
-10.8115
-10.7483
-10.6837
-10.6187
-10.5541
-10.4914
-10.429
-10.3648
-10.2948
-10.2207
-10.1444
-10.0676
-9.9902
-9.91294
-9.83559
-9.7581
-9.68036
-9.60258
-9.52321
-9.44213
-9.35999
-9.27735
-9.19278
-9.10716
-9.01905
-8.92895
-8.83828
-8.7476
-8.65156
-8.55153
-8.44796
-8.34593
-8.24798
-8.15549
-8.06868
-7.98752
-7.90589
-7.81833
-7.71745
-7.60846
-7.51133
-7.42605
-7.33749
-7.25638
-7.18073
-7.08654
-6.97042
-6.8425
-6.72442
-6.60861
-6.49568
-6.3793
-6.26558
-6.16826
-6.09329
-6.02133
-5.93638
-5.83747
-5.72905
-5.6029
-5.48376
-5.38592
-5.29685
-5.20019
-5.1015
-4.99332
-4.86961
-4.73521
-4.60182
-4.46772
-4.33325
-4.18992
-4.07066
-3.96467
-3.86004
-3.75456
-3.64974
-3.54773
-3.44747
-3.34549
-3.25137
-3.15462
-3.0468
-2.92433
-2.81783
-2.71265
-2.59657
-2.47728
-2.37277
-2.27357
-2.17872
-2.08623
-2.00432
-1.93868
-1.8846
-1.81415
-1.70616
-1.55896
-1.40918
-1.26437
-1.11934
-0.973676
-0.822891
-0.661593
-0.506406
-0.373947
-0.26823
-0.16982
-0.0636247
-13.554
-13.5523
-13.5505
-13.5485
-13.5462
-13.5434
-13.54
-13.536
-13.5315
-13.5267
-13.5216
-13.5161
-13.5102
-13.504
-13.4972
-13.49
-13.4823
-13.4741
-13.4653
-13.4559
-13.4458
-13.4351
-13.4237
-13.4116
-13.3987
-13.3852
-13.3708
-13.3559
-13.3404
-13.3245
-13.3082
-13.2918
-13.2751
-13.2582
-13.2411
-13.2239
-13.207
-13.1904
-13.1733
-13.1561
-13.1368
-13.1143
-13.0874
-13.0584
-13.0275
-12.9961
-12.9635
-12.9305
-12.8968
-12.8632
-12.8287
-12.7942
-12.7589
-12.7238
-12.6879
-12.6521
-12.6154
-12.5783
-12.5399
-12.5009
-12.46
-12.4182
-12.375
-12.3315
-12.2868
-12.242
-12.1962
-12.1503
-12.1024
-12.0531
-12.0018
-11.9508
-11.899
-11.8477
-11.7958
-11.7441
-11.6912
-11.6379
-11.5825
-11.5268
-11.4698
-11.4135
-11.356
-11.2987
-11.24
-11.1814
-11.1215
-11.0623
-11.0023
-10.9426
-10.8813
-10.8195
-10.7554
-10.6909
-10.625
-10.5608
-10.4971
-10.4347
-10.3686
-10.2981
-10.2223
-10.1461
-10.0689
-9.99254
-9.9156
-9.83926
-9.76162
-9.6842
-9.60544
-9.52575
-9.44295
-9.36031
-9.27623
-9.19211
-9.10523
-9.01828
-8.92836
-8.83941
-8.74872
-8.65937
-8.56573
-8.46869
-8.36446
-8.26216
-8.1627
-8.07366
-7.98899
-7.90589
-7.81452
-7.71532
-7.61292
-7.52747
-7.44953
-7.36204
-7.27482
-7.18846
-7.08478
-6.95333
-6.8277
-6.70883
-6.59822
-6.48478
-6.37928
-6.27496
-6.18923
-6.11851
-6.04253
-5.94288
-5.83257
-5.71726
-5.5987
-5.49024
-5.39533
-5.30248
-5.19789
-5.09229
-4.99069
-4.87402
-4.75232
-4.61782
-4.47457
-4.32974
-4.20979
-4.10375
-4.00226
-3.88912
-3.77667
-3.66843
-3.56767
-3.46
-3.35607
-3.2577
-3.16784
-3.06435
-2.95392
-2.8356
-2.71992
-2.58821
-2.46955
-2.36079
-2.26813
-2.17184
-2.08014
-1.99315
-1.93009
-1.87745
-1.80497
-1.69404
-1.55298
-1.41019
-1.26975
-1.12669
-0.984762
-0.835597
-0.673044
-0.516039
-0.383259
-0.272213
-0.163116
-0.0575781
-13.5666
-13.5652
-13.5632
-13.5612
-13.5591
-13.5565
-13.5531
-13.5492
-13.5447
-13.54
-13.5348
-13.5294
-13.5235
-13.5173
-13.5106
-13.5034
-13.4956
-13.4874
-13.4785
-13.4691
-13.4589
-13.4481
-13.4367
-13.4244
-13.4115
-13.3977
-13.3833
-13.3682
-13.3525
-13.3363
-13.3199
-13.3031
-13.2862
-13.2689
-13.2513
-13.2334
-13.2157
-13.1981
-13.1808
-13.1629
-13.1445
-13.122
-13.096
-13.0663
-13.0357
-13.0033
-12.971
-12.937
-12.9036
-12.869
-12.8348
-12.7993
-12.7648
-12.729
-12.6941
-12.658
-12.6223
-12.5847
-12.547
-12.507
-12.4666
-12.4236
-12.381
-12.3365
-12.2926
-12.2469
-12.2019
-12.1548
-12.1081
-12.0585
-12.0093
-11.9578
-11.9074
-11.8551
-11.804
-11.7509
-11.6989
-11.6442
-11.5901
-11.5331
-11.4774
-11.4194
-11.363
-11.304
-11.2464
-11.1862
-11.1276
-11.0664
-11.007
-10.9447
-10.8839
-10.8197
-10.7566
-10.6904
-10.6259
-10.5591
-10.4948
-10.4273
-10.3596
-10.2862
-10.2131
-10.1369
-10.0625
-9.98534
-9.91023
-9.832
-9.75544
-9.6754
-9.59667
-9.51365
-9.43137
-9.34674
-9.26588
-9.18116
-9.09765
-9.00967
-8.92373
-8.8337
-8.74642
-8.65603
-8.56769
-8.47221
-8.37475
-8.27212
-8.17451
-8.07942
-7.99195
-7.90203
-7.8117
-7.71369
-7.62033
-7.53341
-7.45858
-7.38511
-7.30437
-7.2089
-7.0844
-6.95515
-6.82987
-6.7098
-6.59431
-6.48429
-6.38066
-6.2824
-6.19723
-6.12829
-6.05044
-5.95161
-5.83831
-5.70796
-5.58405
-5.49047
-5.40244
-5.31081
-5.20523
-5.09985
-4.98804
-4.87411
-4.75391
-4.62871
-4.48219
-4.33733
-4.21796
-4.11596
-4.01584
-3.91218
-3.8016
-3.69891
-3.59593
-3.48834
-3.37541
-3.2737
-3.17565
-3.07288
-2.95797
-2.83763
-2.71079
-2.58839
-2.4749
-2.37401
-2.27554
-2.17773
-2.07858
-1.9871
-1.91721
-1.86118
-1.78746
-1.67829
-1.54572
-1.41159
-1.27728
-1.12792
-0.967208
-0.812865
-0.660596
-0.521816
-0.396352
-0.280122
-0.164765
-0.0569882
-13.5789
-13.5776
-13.5754
-13.5734
-13.5718
-13.5696
-13.5666
-13.5629
-13.5588
-13.5542
-13.5491
-13.5437
-13.5379
-13.5316
-13.5248
-13.5175
-13.5096
-13.5012
-13.4922
-13.4826
-13.4723
-13.4614
-13.4497
-13.4373
-13.4243
-13.4104
-13.3958
-13.3806
-13.3648
-13.3484
-13.3317
-13.3148
-13.2976
-13.2799
-13.2618
-13.2433
-13.225
-13.2069
-13.1884
-13.1705
-13.1517
-13.1302
-13.1043
-13.0753
-13.0439
-13.0116
-12.9783
-12.9445
-12.91
-12.8753
-12.84
-12.8049
-12.7691
-12.7337
-12.6975
-12.6614
-12.6242
-12.5866
-12.5475
-12.5076
-12.4659
-12.4238
-12.3803
-12.3366
-12.2918
-12.247
-12.2009
-12.1548
-12.107
-12.0588
-12.009
-11.959
-11.9077
-11.8567
-11.8042
-11.752
-11.698
-11.644
-11.5881
-11.5325
-11.4754
-11.4189
-11.3609
-11.3034
-11.2441
-11.1855
-11.125
-11.0651
-11.0031
-10.9416
-10.8781
-10.8154
-10.7504
-10.686
-10.6195
-10.5536
-10.4853
-10.4172
-10.3464
-10.2756
-10.202
-10.1291
-10.0537
-9.97918
-9.90222
-9.8261
-9.74731
-9.66926
-9.58822
-9.50785
-9.42426
-9.34237
-9.2589
-9.17647
-9.09066
-9.0056
-8.91769
-8.83092
-8.74158
-8.65414
-8.56338
-8.47169
-8.37463
-8.27741
-8.17811
-8.08338
-7.98947
-7.89946
-7.80735
-7.71633
-7.62426
-7.53708
-7.45145
-7.37102
-7.2938
-7.2032
-7.08795
-6.96679
-6.8395
-6.71538
-6.60001
-6.49095
-6.38903
-6.29457
-6.21038
-6.13159
-6.04306
-5.93643
-5.82432
-5.70663
-5.59675
-5.50281
-5.40858
-5.3055
-5.19616
-5.08874
-4.97858
-4.86513
-4.74549
-4.62207
-4.48718
-4.35201
-4.23426
-4.12994
-4.03437
-3.93878
-3.83391
-3.71882
-3.59994
-3.48313
-3.37686
-3.27833
-3.17931
-3.07132
-2.95337
-2.8289
-2.70688
-2.59186
-2.48389
-2.38099
-2.27949
-2.17833
-2.0803
-1.98993
-1.9141
-1.84284
-1.75919
-1.65239
-1.53067
-1.40613
-1.26803
-1.09825
-0.926075
-0.779509
-0.648489
-0.524522
-0.402994
-0.284989
-0.165427
-0.0551737
-13.5901
-13.5892
-13.5865
-13.5843
-13.5827
-13.5807
-13.578
-13.5747
-13.5708
-13.5664
-13.5615
-13.5562
-13.5504
-13.5442
-13.5373
-13.53
-13.522
-13.5135
-13.5044
-13.4947
-13.4842
-13.4731
-13.4612
-13.4487
-13.4354
-13.4214
-13.4065
-13.3911
-13.3749
-13.3583
-13.3412
-13.3239
-13.3061
-13.2881
-13.2696