/*--------------------------------*- C++ -*----------------------------------*\
| =========                 |                                                 |
| \\      /  F ield         | OpenFOAM: The Open Source CFD Toolbox           |
|  \\    /   O peration     | Version:  5.x                                   |
|   \\  /    A nd           | Web:      www.OpenFOAM.org                      |
|    \\/     M anipulation  |                                                 |
\*---------------------------------------------------------------------------*/
/*   Windows 32 and 64 bit porting by blueCAPE: http://www.bluecape.com.pt   *\
|  Based on Windows porting (2.0.x v4) by Symscape: http://www.symscape.com   |
\*---------------------------------------------------------------------------*/
FoamFile
{
    version     2.0;
    format      ascii;
    class       volScalarField;
    location    "1000";
    object      omega;
}
// * * * * * * * * * * * * * * * * * * * * * * * * * * * * * * * * * * * * * //

dimensions      [0 0 -1 0 0 0 0];

internalField   nonuniform List<scalar> 
4000
(
9.0549e+009
1.11431e+010
1.27597e+010
1.41303e+010
1.53692e+010
1.65209e+010
1.76073e+010
1.86389e+010
1.96207e+010
2.05542e+010
2.1439e+010
2.2274e+010
2.30573e+010
2.37875e+010
2.44633e+010
2.50843e+010
2.56504e+010
2.61626e+010
2.66221e+010
2.70307e+010
2.73908e+010
2.77047e+010
2.79752e+010
2.82049e+010
2.83968e+010
2.85538e+010
2.8677e+010
2.87686e+010
2.88323e+010
2.88704e+010
2.88847e+010
2.88775e+010
2.88504e+010
2.8805e+010
2.87429e+010
2.86661e+010
2.85767e+010
2.84775e+010
2.83723e+010
2.81984e+010
2.79558e+010
2.76483e+010
2.72821e+010
2.68643e+010
2.64046e+010
2.5914e+010
2.54171e+010
2.49205e+010
2.4431e+010
2.39559e+010
2.35013e+010
2.30729e+010
2.26756e+010
2.23125e+010
2.19858e+010
2.16964e+010
2.14441e+010
2.12285e+010
2.10486e+010
2.09035e+010
2.07927e+010
2.07161e+010
2.06738e+010
2.06665e+010
2.06951e+010
2.07605e+010
2.08646e+010
2.101e+010
2.11966e+010
2.1424e+010
2.16917e+010
2.19989e+010
2.2345e+010
2.27296e+010
2.31521e+010
2.36122e+010
2.41097e+010
2.46435e+010
2.52119e+010
2.5813e+010
2.64435e+010
2.70972e+010
2.77629e+010
2.84203e+010
2.90377e+010
2.95775e+010
3.00876e+010
3.06587e+010
3.14391e+010
3.2429e+010
3.31441e+010
3.37958e+010
3.4371e+010
3.4925e+010
3.55114e+010
3.61623e+010
3.69041e+010
3.77646e+010
3.87756e+010
3.99739e+010
4.14012e+010
4.31016e+010
4.51182e+010
4.74851e+010
5.02183e+010
5.33032e+010
5.66848e+010
6.0264e+010
6.39033e+010
6.74331e+010
7.0689e+010
7.35291e+010
7.58076e+010
7.74393e+010
7.83822e+010
7.85391e+010
7.80263e+010
7.7043e+010
7.60256e+010
7.49813e+010
7.39029e+010
7.27636e+010
7.15505e+010
7.02699e+010
6.89214e+010
6.75032e+010
6.60143e+010
6.44553e+010
6.28289e+010
6.11394e+010
5.93868e+010
5.75734e+010
5.57066e+010
5.37987e+010
5.18628e+010
4.99126e+010
4.79605e+010
4.60181e+010
4.4095e+010
4.21988e+010
4.03351e+010
3.85074e+010
3.67172e+010
3.49646e+010
3.3248e+010
3.15647e+010
2.9911e+010
2.82825e+010
2.66736e+010
2.50781e+010
2.34881e+010
2.18932e+010
2.02794e+010
1.8624e+010
1.68823e+010
1.49558e+010
1.26909e+010
1.03852e+010
1.03338e+010
1.12227e+010
1.17257e+010
1.20401e+010
1.22492e+010
1.2391e+010
1.24855e+010
1.25443e+010
1.25748e+010
1.25816e+010
1.2568e+010
1.25359e+010
1.24865e+010
1.24198e+010
1.2335e+010
1.22313e+010
1.21065e+010
1.19546e+010
1.17867e+010
1.16055e+010
1.14099e+010
1.12009e+010
1.0906e+010
1.05129e+010
1.00342e+010
9.48336e+009
8.8562e+009
8.15471e+009
7.38242e+009
6.54768e+009
5.66445e+009
4.75198e+009
3.83634e+009
2.95148e+009
2.13543e+009
1.42606e+009
8.62175e+008
4.60304e+008
2.08727e+008
7.50915e+007
1.38053e+007
94517.6
9.82081e+009
1.0243e+010
1.12619e+010
1.21878e+010
1.30548e+010
1.38969e+010
1.47214e+010
1.55259e+010
1.63028e+010
1.70416e+010
1.773e+010
1.83552e+010
1.89046e+010
1.93667e+010
1.97318e+010
1.99926e+010
2.01449e+010
2.01873e+010
2.01215e+010
1.9951e+010
1.96836e+010
1.93308e+010
1.89069e+010
1.84284e+010
1.79122e+010
1.73758e+010
1.68354e+010
1.63062e+010
1.58021e+010
1.53344e+010
1.49121e+010
1.45408e+010
1.42235e+010
1.39613e+010
1.37543e+010
1.36018e+010
1.35027e+010
1.34557e+010
1.3458e+010
1.34563e+010
1.34438e+010
1.34177e+010
1.33761e+010
1.33175e+010
1.32415e+010
1.31483e+010
1.30446e+010
1.29318e+010
1.28119e+010
1.26872e+010
1.25608e+010
1.24358e+010
1.23152e+010
1.22015e+010
1.20969e+010
1.20025e+010
1.19189e+010
1.18458e+010
1.17825e+010
1.17283e+010
1.16821e+010
1.16434e+010
1.16121e+010
1.15891e+010
1.15755e+010
1.1573e+010
1.15841e+010
1.16126e+010
1.16606e+010
1.17294e+010
1.18199e+010
1.19327e+010
1.20683e+010
1.22268e+010
1.24081e+010
1.26137e+010
1.28475e+010
1.3116e+010
1.34256e+010
1.37831e+010
1.42003e+010
1.46933e+010
1.52764e+010
1.59542e+010
1.67103e+010
1.74794e+010
1.81489e+010
1.86911e+010
1.92556e+010
1.9781e+010
2.0082e+010
2.03952e+010
2.07901e+010
2.12472e+010
2.17513e+010
2.2308e+010
2.29376e+010
2.36681e+010
2.45314e+010
2.55607e+010
2.67896e+010
2.82509e+010
2.99724e+010
3.19712e+010
3.42467e+010
3.67683e+010
3.94696e+010
4.22443e+010
4.49346e+010
4.73959e+010
4.94621e+010
5.09688e+010
5.19309e+010
5.23162e+010
5.21509e+010
5.16362e+010
5.08311e+010
5.00388e+010
4.9627e+010
4.97381e+010
5.04409e+010
5.17077e+010
5.34257e+010
5.53962e+010
5.73534e+010
5.902e+010
6.01438e+010
6.05709e+010
6.02771e+010
5.93232e+010
5.78247e+010
5.59154e+010
5.372e+010
5.13437e+010
4.88753e+010
4.63865e+010
4.39309e+010
4.15464e+010
3.92584e+010
3.70827e+010
3.50282e+010
3.30981e+010
3.12913e+010
2.96037e+010
2.80279e+010
2.65539e+010
2.51701e+010
2.38624e+010
2.26154e+010
2.14163e+010
2.02491e+010
1.90967e+010
1.79539e+010
1.6779e+010
1.55209e+010
1.4151e+010
1.26194e+010
1.27322e+010
1.41963e+010
1.38043e+010
1.31763e+010
1.25101e+010
1.18122e+010
1.11315e+010
1.04867e+010
9.88501e+009
9.32831e+009
8.817e+009
8.35113e+009
7.93065e+009
7.55562e+009
7.22611e+009
6.94167e+009
6.70094e+009
6.50111e+009
6.33785e+009
6.21052e+009
6.11723e+009
6.05599e+009
6.01621e+009
5.95446e+009
5.85824e+009
5.72139e+009
5.53859e+009
5.30295e+009
5.00792e+009
4.64854e+009
4.22264e+009
3.73229e+009
3.18522e+009
2.59601e+009
1.98817e+009
1.39262e+009
8.55829e+008
4.52562e+008
1.98996e+008
6.69355e+007
1.82991e+007
4.22606e+006
1.74493e+006
1.02215e+010
9.59384e+009
1.04118e+010
1.12075e+010
1.19827e+010
1.27566e+010
1.3526e+010
1.42819e+010
1.50107e+010
1.56971e+010
1.63249e+010
1.68778e+010
1.73407e+010
1.77004e+010
1.79473e+010
1.8076e+010
1.80863e+010
1.79826e+010
1.77723e+010
1.74689e+010
1.70923e+010
1.66647e+010
1.62091e+010
1.57474e+010
1.52994e+010
1.48821e+010
1.45086e+010
1.41879e+010
1.3925e+010
1.37203e+010
1.35707e+010
1.34716e+010
1.34181e+010
1.34031e+010
1.34189e+010
1.34575e+010
1.35115e+010
1.35742e+010
1.36356e+010
1.36785e+010
1.36987e+010
1.3693e+010
1.36587e+010
1.35942e+010
1.34986e+010
1.33721e+010
1.3217e+010
1.30388e+010
1.28425e+010
1.26334e+010
1.24178e+010
1.22025e+010
1.19946e+010
1.1801e+010
1.16282e+010
1.14821e+010
1.13675e+010
1.12876e+010
1.12436e+010
1.12343e+010
1.1256e+010
1.13028e+010
1.13666e+010
1.14385e+010
1.15094e+010
1.15717e+010
1.162e+010
1.16512e+010
1.16646e+010
1.16619e+010
1.1647e+010
1.16254e+010
1.1603e+010
1.15851e+010
1.15764e+010
1.15823e+010
1.16118e+010
1.16801e+010
1.17995e+010
1.19855e+010
1.2261e+010
1.26591e+010
1.32101e+010
1.39169e+010
1.47429e+010
1.55938e+010
1.63255e+010
1.68626e+010
1.73248e+010
1.78303e+010
1.82376e+010
1.86616e+010
1.91415e+010
1.96809e+010
2.0287e+010
2.09806e+010
2.17896e+010
2.27446e+010
2.38772e+010
2.52191e+010
2.68013e+010
2.86518e+010
3.07881e+010
3.32098e+010
3.58893e+010
3.87606e+010
4.17146e+010
4.46046e+010
4.72456e+010
4.94663e+010
5.11623e+010
5.22594e+010
5.27821e+010
5.28362e+010
5.24825e+010
5.18342e+010
5.10318e+010
5.01423e+010
4.9293e+010
4.86881e+010
4.85163e+010
4.89316e+010
4.99926e+010
5.16101e+010
5.35487e+010
5.54979e+010
5.71284e+010
5.81574e+010
5.84297e+010
5.79263e+010
5.67205e+010
5.49453e+010
5.2756e+010
5.0295e+010
4.7684e+010
4.50218e+010
4.23836e+010
3.98237e+010
3.73782e+010
3.50692e+010
3.29086e+010
3.09006e+010
2.90444e+010
2.73354e+010
2.57658e+010
2.43251e+010
2.30014e+010
2.17782e+010
2.06382e+010
1.95658e+010
1.854e+010
1.75425e+010
1.65682e+010
1.5576e+010
1.45147e+010
1.3421e+010
1.29998e+010
1.43649e+010
1.42274e+010
1.32924e+010
1.24032e+010
1.15372e+010
1.07336e+010
1.0024e+010
9.41734e+009
8.90853e+009
8.48831e+009
8.14831e+009
7.88097e+009
7.67929e+009
7.53649e+009
7.44581e+009
7.40029e+009
7.39251e+009
7.41514e+009
7.46189e+009
7.52528e+009
7.59624e+009
7.66605e+009
7.72482e+009
7.76152e+009
7.76613e+009
7.73043e+009
7.64523e+009
7.50103e+009
7.28833e+009
6.99931e+009
6.62559e+009
6.15917e+009
5.58901e+009
4.9046e+009
4.11363e+009
3.24964e+009
2.37105e+009
1.5536e+009
8.67276e+008
3.71128e+008
1.26083e+008
3.28828e+007
8.99754e+006
1.00051e+010
9.02029e+009
9.72706e+009
1.04535e+010
1.11856e+010
1.19271e+010
1.26699e+010
1.34012e+010
1.41051e+010
1.47652e+010
1.53647e+010
1.5888e+010
1.63213e+010
1.66541e+010
1.68797e+010
1.69967e+010
1.70087e+010
1.69213e+010
1.67443e+010
1.64968e+010
1.62021e+010
1.58845e+010
1.55668e+010
1.52691e+010
1.50069e+010
1.47907e+010
1.46268e+010
1.45166e+010
1.44581e+010
1.44459e+010
1.44726e+010
1.45295e+010
1.46082e+010
1.47019e+010
1.48045e+010
1.49096e+010
1.5012e+010
1.51073e+010
1.51894e+010
1.5244e+010
1.52671e+010
1.5255e+010
1.52042e+010
1.51119e+010
1.4976e+010
1.47957e+010
1.45712e+010
1.43057e+010
1.40048e+010
1.36748e+010
1.33218e+010
1.29534e+010
1.25773e+010
1.22013e+010
1.18332e+010
1.14811e+010
1.11531e+010
1.08577e+010
1.0603e+010
1.03973e+010
1.02477e+010
1.01601e+010
1.01378e+010
1.01805e+010
1.02831e+010
1.04365e+010
1.06275e+010
1.084e+010
1.10562e+010
1.1259e+010
1.14338e+010
1.15701e+010
1.16604e+010
1.17005e+010
1.16898e+010
1.16306e+010
1.15275e+010
1.13954e+010
1.12666e+010
1.11795e+010
1.11863e+010
1.13553e+010
1.17532e+010
1.24162e+010
1.32923e+010
1.42455e+010
1.50939e+010
1.57142e+010
1.61757e+010
1.66872e+010
1.71675e+010
1.76656e+010
1.82139e+010
1.88318e+010
1.95423e+010
2.03721e+010
2.13507e+010
2.25087e+010
2.3875e+010
2.54765e+010
2.7338e+010
2.94769e+010
3.18922e+010
3.45581e+010
3.74169e+010
4.03716e+010
4.32871e+010
4.59901e+010
4.82996e+010
5.01019e+010
5.13865e+010
5.21836e+010
5.25386e+010
5.2559e+010
5.23334e+010
5.19353e+010
5.14388e+010
5.08703e+010
5.02576e+010
4.96908e+010
4.93225e+010
4.93299e+010
4.98446e+010
5.08917e+010
5.23644e+010
5.40374e+010
5.56043e+010
5.67405e+010
5.71941e+010
5.68582e+010
5.57622e+010
5.40299e+010
5.18226e+010
4.92993e+010
4.65998e+010
4.3837e+010
4.10972e+010
3.84421e+010
3.59128e+010
3.35344e+010
3.132e+010
2.92739e+010
2.73947e+010
2.56774e+010
2.41136e+010
2.26929e+010
2.1403e+010
2.02276e+010
1.91481e+010
1.81464e+010
1.72e+010
1.62893e+010
1.54098e+010
1.45213e+010
1.36e+010
1.30508e+010
1.3874e+010
1.41556e+010
1.31698e+010
1.21849e+010
1.13419e+010
1.0613e+010
1.00052e+010
9.51802e+009
9.14268e+009
8.86469e+009
8.66896e+009
8.54225e+009
8.47332e+009
8.45262e+009
8.4718e+009
8.52347e+009
8.6008e+009
8.69787e+009
8.81027e+009
8.93241e+009
9.05823e+009
9.18204e+009
9.29806e+009
9.40028e+009
9.47396e+009
9.51168e+009
9.5086e+009
9.4607e+009
9.36268e+009
9.21003e+009
8.99631e+009
8.71316e+009
8.34882e+009
7.88829e+009
7.30853e+009
6.5767e+009
5.67053e+009
4.6012e+009
3.43164e+009
2.27139e+009
1.25633e+009
5.5571e+008
1.95021e+008
4.51056e+007
9.72554e+009
8.54311e+009
9.17828e+009
9.86172e+009
1.05703e+010
1.12949e+010
1.20256e+010
1.27468e+010
1.34424e+010
1.40957e+010
1.46911e+010
1.52144e+010
1.56542e+010
1.60031e+010
1.62577e+010
1.64206e+010
1.64973e+010
1.6494e+010
1.64234e+010
1.63042e+010
1.61562e+010
1.59992e+010
1.58518e+010
1.57301e+010
1.56462e+010
1.56067e+010
1.5614e+010
1.56659e+010
1.57576e+010
1.58815e+010
1.6029e+010
1.61916e+010
1.63595e+010
1.65246e+010
1.66808e+010
1.68233e+010
1.69487e+010
1.70557e+010
1.71438e+010
1.71992e+010
1.72195e+010
1.72017e+010
1.71422e+010
1.70369e+010
1.68822e+010
1.66756e+010
1.64158e+010
1.61035e+010
1.57428e+010
1.53397e+010
1.49009e+010
1.44343e+010
1.39474e+010
1.34474e+010
1.29406e+010
1.24327e+010
1.1929e+010
1.14347e+010
1.09553e+010
1.0497e+010
1.00667e+010
9.67229e+009
9.32227e+009
9.02523e+009
8.78953e+009
8.62208e+009
8.52717e+009
8.5054e+009
8.55256e+009
8.65948e+009
8.81346e+009
8.99955e+009
9.20112e+009
9.40118e+009
9.58542e+009
9.74345e+009
9.87523e+009
9.9679e+009
1.00161e+010
1.00385e+010
1.0087e+010
1.02562e+010
1.06502e+010
1.13457e+010
1.23454e+010
1.34939e+010
1.45154e+010
1.52478e+010
1.57515e+010
1.62406e+010
1.6766e+010
1.73142e+010
1.79178e+010
1.86011e+010
1.93954e+010
2.03292e+010
2.14321e+010
2.27325e+010
2.42562e+010
2.60255e+010
2.80573e+010
3.03541e+010
3.28949e+010
3.56329e+010
3.84925e+010
4.13598e+010
4.40835e+010
4.64794e+010
4.84123e+010
4.98796e+010
5.09148e+010
5.15625e+010
5.18919e+010
5.20075e+010
5.20062e+010
5.19507e+010
5.1861e+010
5.1699e+010
5.14012e+010
5.0989e+010
5.06073e+010
5.04558e+010
5.06973e+010
5.14049e+010
5.25349e+010
5.39252e+010
5.53038e+010
5.63448e+010
5.67557e+010
5.63766e+010
5.5223e+010
5.34159e+010
5.1117e+010
4.84928e+010
4.56908e+010
4.28302e+010
4.00017e+010
3.72694e+010
3.46761e+010
3.22471e+010
2.99955e+010
2.7925e+010
2.60336e+010
2.43154e+010
2.27617e+010
2.13618e+010
2.0103e+010
1.89685e+010
1.79385e+010
1.6994e+010
1.61097e+010
1.52675e+010
1.44656e+010
1.36527e+010
1.30004e+010
1.33155e+010
1.38973e+010
1.31144e+010
1.20638e+010
1.12391e+010
1.05982e+010
1.01099e+010
9.75543e+009
9.51538e+009
9.37031e+009
9.30174e+009
9.29379e+009
9.33352e+009
9.41106e+009
9.51873e+009
9.65028e+009
9.80039e+009
9.96467e+009
1.01405e+010
1.03236e+010
1.05087e+010
1.06908e+010
1.08643e+010
1.10232e+010
1.11611e+010
1.12627e+010
1.13191e+010
1.13256e+010
1.12792e+010
1.11787e+010
1.10249e+010
1.0818e+010
1.0559e+010
1.02467e+010
9.87461e+009
9.43136e+009
8.88919e+009
8.19691e+009
7.28462e+009
6.10729e+009
4.67525e+009
3.11596e+009
1.75057e+009
8.34506e+008
2.05223e+008
9.42285e+009
8.11229e+009
8.68887e+009
9.33992e+009
1.00308e+010
1.07433e+010
1.1467e+010
1.21849e+010
1.28813e+010
1.35401e+010
1.41469e+010
1.46893e+010
1.51582e+010
1.55484e+010
1.58592e+010
1.60951e+010
1.62622e+010
1.63679e+010
1.64261e+010
1.64537e+010
1.64667e+010
1.64806e+010
1.65096e+010
1.65651e+010
1.66555e+010
1.67843e+010
1.69515e+010
1.71528e+010
1.73811e+010
1.76268e+010
1.78794e+010
1.81281e+010
1.83634e+010
1.85764e+010
1.87607e+010
1.89134e+010
1.90339e+010
1.91232e+010
1.91881e+010
1.92164e+010
1.92087e+010
1.91649e+010
1.90829e+010
1.89587e+010
1.8787e+010
1.85637e+010
1.8285e+010
1.79481e+010
1.7555e+010
1.71113e+010
1.66245e+010
1.61033e+010
1.5556e+010
1.49911e+010
1.44153e+010
1.38341e+010
1.32516e+010
1.26708e+010
1.20946e+010
1.15255e+010
1.09664e+010
1.04204e+010
9.89129e+009
9.3842e+009
8.905e+009
8.46017e+009
8.05631e+009
7.69942e+009
7.39418e+009
7.14362e+009
6.9492e+009
6.81036e+009
6.72387e+009
6.6835e+009
6.68162e+009
6.71346e+009
6.77779e+009
6.87029e+009
6.9999e+009
7.1921e+009
7.48277e+009
8.00781e+009
8.89429e+009
1.01201e+010
1.15723e+010
1.30962e+010
1.4383e+010
1.5219e+010
1.57356e+010
1.61919e+010
1.67244e+010
1.73005e+010
1.79408e+010
1.86697e+010
1.95258e+010
2.05366e+010
2.17292e+010
2.31284e+010
2.47532e+010
2.6621e+010
2.87405e+010
3.10978e+010
3.36559e+010
3.63563e+010
3.91167e+010
4.18113e+010
4.42809e+010
4.63654e+010
4.79896e+010
4.92358e+010
5.01147e+010
5.06695e+010
5.10151e+010
5.12669e+010
5.15039e+010
5.17676e+010
5.20472e+010
5.22438e+010
5.22389e+010
5.2013e+010
5.17067e+010
5.15384e+010
5.16861e+010
5.22412e+010
5.31713e+010
5.4346e+010
5.55271e+010
5.63801e+010
5.6616e+010
5.60728e+010
5.47512e+010
5.27791e+010
5.03295e+010
4.75732e+010
4.46594e+010
4.17075e+010
3.88069e+010
3.60202e+010
3.33881e+010
3.09344e+010
2.86704e+010
2.65986e+010
2.47157e+010
2.30148e+010
2.14864e+010
2.01194e+010
1.89002e+010
1.78108e+010
1.68318e+010
1.59417e+010
1.51126e+010
1.43354e+010
1.35921e+010
1.29165e+010
1.28206e+010
1.34272e+010
1.30449e+010
1.20071e+010
1.11565e+010
1.05646e+010
1.0166e+010
9.92153e+009
9.80056e+009
9.77656e+009
9.82616e+009
9.9297e+009
1.00726e+010
1.02447e+010
1.04391e+010
1.06508e+010
1.08761e+010
1.11112e+010
1.1355e+010
1.1605e+010
1.18572e+010
1.21071e+010
1.23495e+010
1.25785e+010
1.27873e+010
1.29683e+010
1.31077e+010
1.31944e+010
1.32221e+010
1.3186e+010
1.30838e+010
1.2916e+010
1.26861e+010
1.24006e+010
1.20677e+010
1.16945e+010
1.12863e+010
1.08412e+010
1.03394e+010
9.72693e+009
8.90557e+009
7.72897e+009
6.08811e+009
4.19102e+009
2.44441e+009
8.05267e+008
9.11999e+009
7.70884e+009
8.23244e+009
8.85465e+009
9.52757e+009
1.02279e+010
1.09455e+010
1.16627e+010
1.23647e+010
1.3036e+010
1.36636e+010
1.42366e+010
1.47473e+010
1.51922e+010
1.55718e+010
1.58911e+010
1.61571e+010
1.63765e+010
1.65629e+010
1.67312e+010
1.68951e+010
1.7068e+010
1.72616e+010
1.74846e+010
1.77426e+010
1.80373e+010
1.83663e+010
1.87236e+010
1.90996e+010
1.9482e+010
1.98566e+010
2.02083e+010
2.05225e+010
2.0787e+010
2.09935e+010
2.11385e+010
2.1224e+010
2.12558e+010
2.12444e+010
2.11988e+010
2.11208e+010
2.1015e+010
2.08817e+010
2.07177e+010
2.05164e+010
2.027e+010
1.99716e+010
1.96156e+010
1.92011e+010
1.87315e+010
1.82139e+010
1.76572e+010
1.70705e+010
1.64633e+010
1.58448e+010
1.52213e+010
1.45971e+010
1.39751e+010
1.33571e+010
1.27445e+010
1.21385e+010
1.15398e+010
1.09499e+010
1.03712e+010
9.80676e+009
9.26072e+009
8.73744e+009
8.24111e+009
7.77537e+009
7.34345e+009
6.9483e+009
6.5926e+009
6.27858e+009
6.00723e+009
5.77738e+009
5.5883e+009
5.43872e+009
5.32785e+009
5.26159e+009
5.25144e+009
5.34291e+009
5.62069e+009
6.35378e+009
7.93659e+009
1.02576e+010
1.26739e+010
1.45009e+010
1.55284e+010
1.60159e+010
1.64292e+010
1.69129e+010
1.74921e+010
1.81476e+010
1.88974e+010
1.97879e+010
2.08436e+010
2.20867e+010
2.35385e+010
2.52117e+010
2.71162e+010
2.925e+010
3.15858e+010
3.40782e+010
3.66656e+010
3.92632e+010
4.17412e+010
4.39464e+010
4.5772e+010
4.7151e+010
4.82556e+010
4.90427e+010
4.95713e+010
5.00059e+010
5.04485e+010
5.09419e+010
5.15084e+010
5.21135e+010
5.25753e+010
5.27435e+010
5.26291e+010
5.24086e+010
5.23145e+010
5.25048e+010
5.30623e+010
5.39342e+010
5.49448e+010
5.59004e+010
5.65203e+010
5.65089e+010
5.57129e+010
5.4144e+010
5.1946e+010
4.93101e+010
4.64097e+010
4.33901e+010
4.03651e+010
3.7418e+010
3.46064e+010
3.19662e+010
2.95178e+010
2.72698e+010
2.52226e+010
2.33714e+010
2.17085e+010
2.02233e+010
1.89034e+010
1.77341e+010
1.66983e+010
1.5774e+010
1.49361e+010
1.4167e+010
1.3448e+010
1.27781e+010
1.24317e+010
1.28324e+010
1.28461e+010
1.19867e+010
1.1101e+010
1.0508e+010
1.01576e+010
9.98657e+009
9.95363e+009
1.00254e+010
1.01734e+010
1.03745e+010
1.06112e+010
1.08715e+010
1.11481e+010
1.14366e+010
1.17337e+010
1.20369e+010
1.23439e+010
1.26541e+010
1.29652e+010
1.3275e+010
1.358e+010
1.38759e+010
1.41579e+010
1.44199e+010
1.46541e+010
1.48465e+010
1.4984e+010
1.5058e+010
1.50612e+010
1.49882e+010
1.48364e+010
1.46066e+010
1.43043e+010
1.39392e+010
1.35254e+010
1.30802e+010
1.2621e+010
1.21593e+010
1.16936e+010
1.1185e+010
1.05156e+010
9.43045e+009
7.77067e+009
5.5846e+009
2.6764e+009
8.82919e+009
7.32468e+009
7.79543e+009
8.38772e+009
9.03931e+009
9.7245e+009
1.04338e+010
1.11494e+010
1.18576e+010
1.25436e+010
1.31956e+010
1.38034e+010
1.43606e+010
1.48644e+010
1.53157e+010
1.57189e+010
1.60813e+010
1.64089e+010
1.6713e+010
1.70055e+010
1.72983e+010
1.76037e+010
1.79322e+010
1.82933e+010
1.8691e+010
1.91245e+010
1.95906e+010
2.00821e+010
2.05886e+010
2.10967e+010
2.15899e+010
2.20501e+010
2.24586e+010
2.27986e+010
2.30565e+010
2.3223e+010
2.32952e+010
2.32774e+010
2.31804e+010
2.30457e+010
2.28808e+010
2.26951e+010
2.24928e+010
2.22731e+010
2.20295e+010
2.1752e+010
2.14303e+010
2.10565e+010
2.06261e+010
2.01392e+010
1.96011e+010
1.90219e+010
1.84093e+010
1.77726e+010
1.71229e+010
1.64685e+010
1.58146e+010
1.51642e+010
1.45189e+010
1.38799e+010
1.32479e+010
1.26236e+010
1.20068e+010
1.1398e+010
1.0799e+010
1.02127e+010
9.64254e+009
9.09248e+009
8.56614e+009
8.06642e+009
7.59548e+009
7.15542e+009
6.7483e+009
6.37707e+009
6.04063e+009
5.73826e+009
5.46867e+009
5.22815e+009
5.02281e+009
4.85425e+009
4.7453e+009
4.7767e+009
5.12428e+009
6.12901e+009
8.16713e+009
1.14779e+010
1.44787e+010
1.603e+010
1.65415e+010
1.68721e+010
1.73052e+010
1.78418e+010
1.8489e+010
1.92319e+010
2.01233e+010
2.11888e+010
2.244e+010
2.38978e+010
2.55721e+010
2.74616e+010
2.95514e+010
3.18075e+010
3.41807e+010
3.66111e+010
3.90117e+010
4.12594e+010
4.32301e+010
4.48438e+010
4.60382e+010
4.70827e+010
4.78363e+010
4.83771e+010
4.89434e+010
4.95907e+010
5.03408e+010
5.12251e+010
5.21738e+010
5.28336e+010
5.3e+010
5.28647e+010
5.27163e+010
5.27729e+010
5.31247e+010
5.37648e+010
5.46432e+010
5.56391e+010
5.62419e+010
5.66232e+010
5.6282e+010
5.51393e+010
5.32518e+010
5.07889e+010
4.79541e+010
4.49183e+010
4.18155e+010
3.87479e+010
3.5789e+010
3.2988e+010
3.03749e+010
2.79651e+010
2.57637e+010
2.3769e+010
2.19749e+010
2.0372e+010
1.8948e+010
1.76904e+010
1.65855e+010
1.56125e+010
1.47457e+010
1.39672e+010
1.32578e+010
1.25928e+010
1.21054e+010
1.22218e+010
1.2452e+010
1.19096e+010
1.10647e+010
1.04366e+010
1.00883e+010
9.95153e+009
9.97263e+009
1.01114e+010
1.03348e+010
1.06157e+010
1.09328e+010
1.12721e+010
1.16248e+010
1.1986e+010
1.23526e+010
1.27221e+010
1.30927e+010
1.34629e+010
1.38299e+010
1.4192e+010
1.45478e+010
1.48948e+010
1.52303e+010
1.55523e+010
1.58584e+010
1.61426e+010
1.63923e+010
1.65908e+010
1.67281e+010
1.67943e+010
1.67808e+010
1.66805e+010
1.64896e+010
1.62085e+010
1.58431e+010
1.54053e+010
1.49134e+010
1.43938e+010
1.38781e+010
1.33985e+010
1.29791e+010
1.26051e+010
1.21419e+010
1.13696e+010
9.98604e+009
6.78746e+009
8.55906e+009
6.9585e+009
7.37325e+009
7.93121e+009
8.55574e+009
9.22065e+009
9.91689e+009
1.06272e+010
1.13386e+010
1.20372e+010
1.27119e+010
1.33533e+010
1.39552e+010
1.4515e+010
1.50335e+010
1.55139e+010
1.59621e+010
1.63854e+010
1.67907e+010
1.71858e+010
1.75809e+010
1.79873e+010
1.84167e+010
1.88775e+010
1.93681e+010
1.98897e+010
2.04387e+010
2.10065e+010
2.15821e+010
2.21521e+010
2.27008e+010
2.32108e+010
2.36651e+010
2.40483e+010
2.4348e+010
2.45551e+010
2.46638e+010
2.46724e+010
2.45835e+010
2.44375e+010
2.42527e+010
2.40392e+010
2.38044e+010
2.35517e+010
2.32782e+010
2.29758e+010
2.26343e+010
2.22452e+010
2.18029e+010
2.13049e+010
2.07531e+010
2.01611e+010
1.95364e+010
1.88835e+010
1.82149e+010
1.75413e+010
1.68693e+010
1.62022e+010
1.55409e+010
1.48857e+010
1.42374e+010
1.3598e+010
1.29665e+010
1.23418e+010
1.1724e+010
1.11152e+010
1.05186e+010
9.93821e+009
9.37788e+009
8.84112e+009
8.3297e+009
7.84428e+009
7.3849e+009
6.96083e+009
6.56987e+009
6.21098e+009
5.88308e+009
5.57519e+009
5.30504e+009
5.06807e+009
4.87245e+009
4.75197e+009
4.81162e+009
5.33076e+009
6.79615e+009
9.61236e+009
1.3611e+010
1.64447e+010
1.72382e+010
1.74726e+010
1.78401e+010
1.83448e+010
1.89487e+010
1.96612e+010
2.05221e+010
2.15677e+010
2.27897e+010
2.42109e+010
2.58348e+010
2.76536e+010
2.96468e+010
3.17791e+010
3.40011e+010
3.62492e+010
3.84406e+010
4.04699e+010
4.22437e+010
4.37098e+010
4.48332e+010
4.57776e+010
4.64885e+010
4.71154e+010
4.78078e+010
4.86128e+010
4.95762e+010
5.07075e+010
5.18751e+010
5.25963e+010
5.2711e+010
5.2668e+010
5.27112e+010
5.30074e+010
5.35919e+010
5.43804e+010
5.53671e+010
5.61118e+010
5.63284e+010
5.65016e+010
5.57619e+010
5.41982e+010
5.19506e+010
4.92176e+010
4.62031e+010
4.30618e+010
3.99122e+010
3.68413e+010
3.39105e+010
3.11592e+010
2.86099e+010
2.62729e+010
2.41494e+010
2.22352e+010
2.05228e+010
1.90011e+010
1.76575e+010
1.64794e+010
1.54501e+010
1.45455e+010
1.37453e+010
1.30296e+010
1.2371e+010
1.18109e+010
1.16651e+010
1.19086e+010
1.16957e+010
1.10132e+010
1.03692e+010
9.98548e+009
9.84308e+009
9.88204e+009
1.0056e+010
1.03278e+010
1.06662e+010
1.10466e+010
1.14519e+010
1.18719e+010
1.22999e+010
1.27322e+010
1.31667e+010
1.36013e+010
1.40337e+010
1.44617e+010
1.48826e+010
1.52942e+010
1.56938e+010
1.60779e+010
1.64441e+010
1.67927e+010
1.71265e+010
1.74444e+010
1.77392e+010
1.79911e+010
1.81891e+010
1.83223e+010
1.83797e+010
1.8351e+010
1.82275e+010
1.80034e+010
1.76787e+010
1.72599e+010
1.67574e+010
1.61927e+010
1.56019e+010
1.50304e+010
1.4537e+010
1.41828e+010
1.39806e+010
1.38754e+010
1.36032e+010
1.12879e+010
8.31996e+009
6.61496e+009
6.96702e+009
7.48432e+009
8.07499e+009
8.71278e+009
9.3892e+009
1.00878e+010
1.07965e+010
1.15022e+010
1.21943e+010
1.28636e+010
1.35041e+010
1.41124e+010
1.46886e+010
1.52346e+010
1.57539e+010
1.62546e+010
1.67413e+010
1.72169e+010
1.76893e+010
1.81656e+010
1.8652e+010
1.91822e+010
1.97221e+010
2.02845e+010
2.08632e+010
2.14504e+010
2.20356e+010
2.26064e+010
2.31492e+010
2.36503e+010
2.40967e+010
2.44781e+010
2.47874e+010
2.50202e+010
2.51747e+010
2.52498e+010
2.52469e+010
2.51837e+010
2.50705e+010
2.49111e+010
2.471e+010
2.44722e+010
2.41998e+010
2.38896e+010
2.35361e+010
2.31345e+010
2.26838e+010
2.21834e+010
2.16271e+010
2.10285e+010
2.04091e+010
1.97589e+010
1.90893e+010
1.84133e+010
1.77381e+010
1.70674e+010
1.64021e+010
1.57415e+010
1.50869e+010
1.44417e+010
1.38062e+010
1.31766e+010
1.25514e+010
1.1932e+010
1.13212e+010
1.07225e+010
1.01398e+010
9.57676e+009
9.03621e+009
8.5192e+009
8.01742e+009
7.55274e+009
7.12032e+009
6.71876e+009
6.34854e+009
6.0102e+009
5.70381e+009
5.42909e+009
5.19031e+009
5.00091e+009
4.90734e+009
5.07572e+009
5.94412e+009
8.12044e+009
1.18622e+010
1.62118e+010
1.79646e+010
1.81993e+010
1.84723e+010
1.8929e+010
1.94992e+010
2.01815e+010
2.10009e+010
2.19831e+010
2.31452e+010
2.44946e+010
2.60282e+010
2.77339e+010
2.95889e+010
3.15572e+010
3.35898e+010
3.56278e+010
3.76008e+010
3.94273e+010
4.10332e+010
4.23663e+010
4.34315e+010
4.43024e+010
4.50381e+010
4.57397e+010
4.64985e+010
4.73942e+010
4.84407e+010
4.95385e+010
5.05161e+010
5.12398e+010
5.17317e+010
5.21376e+010
5.25925e+010
5.32246e+010
5.40177e+010
5.48776e+010
5.57037e+010
5.6109e+010
5.61633e+010
5.57988e+010
5.4563e+010
5.25948e+010
5.00489e+010
4.71281e+010
4.40119e+010
4.07978e+010
3.76559e+010
3.46367e+010
3.17844e+010
2.91282e+010
2.66832e+010
2.44549e+010
2.2441e+010
2.0635e+010
1.90282e+010
1.761e+010
1.63661e+010
1.52772e+010
1.43262e+010
1.34948e+010
1.2765e+010
1.21117e+010
1.15403e+010
1.12109e+010
1.13043e+010
1.13125e+010
1.08789e+010
1.02976e+010
9.87175e+009
9.69627e+009
9.72146e+009
9.89787e+009
1.01871e+010
1.05564e+010
1.09773e+010
1.14286e+010
1.18991e+010
1.23815e+010
1.28698e+010
1.33611e+010
1.38535e+010
1.43449e+010
1.48323e+010
1.53128e+010
1.57834e+010
1.62403e+010
1.66796e+010
1.70989e+010
1.74958e+010
1.78693e+010
1.82238e+010
1.8565e+010
1.88947e+010
1.91892e+010
1.94371e+010
1.96274e+010
1.97494e+010
1.97922e+010
1.97451e+010
1.95966e+010
1.93383e+010
1.89745e+010
1.85092e+010
1.79456e+010
1.73169e+010
1.66631e+010
1.60446e+010
1.55493e+010
1.52948e+010
1.54558e+010
1.61341e+010
1.58176e+010
8.09444e+009
6.33373e+009
6.59346e+009
7.06059e+009
7.60985e+009
8.21304e+009
8.86155e+009
9.54011e+009
1.02377e+010
1.0942e+010
1.16431e+010
1.23316e+010
1.30014e+010
1.36484e+010
1.42712e+010
1.48706e+010
1.54476e+010
1.60116e+010
1.65642e+010
1.71041e+010
1.76358e+010
1.81595e+010
1.86732e+010
1.92694e+010
1.98176e+010
2.03859e+010
2.0965e+010
2.15441e+010
2.21138e+010
2.26647e+010
2.31871e+010
2.36719e+010
2.41109e+010
2.44979e+010
2.4829e+010
2.51022e+010
2.53166e+010
2.54699e+010
2.556e+010
2.55935e+010
2.55667e+010
2.54747e+010
2.53154e+010
2.50932e+010
2.48146e+010
2.44847e+010
2.41064e+010
2.36813e+010
2.32149e+010
2.27162e+010
2.21712e+010
2.15623e+010
2.09717e+010
2.03479e+010
1.97025e+010
1.90485e+010
1.83922e+010
1.77371e+010
1.7084e+010
1.64333e+010
1.57856e+010
1.51435e+010
1.45094e+010
1.38807e+010
1.3255e+010
1.26323e+010
1.20151e+010
1.14067e+010
1.08106e+010
1.02304e+010
9.66926e+009
9.13023e+009
8.61519e+009
8.12719e+009
7.66762e+009
7.23754e+009
6.83809e+009
6.47118e+009
6.13628e+009
5.83325e+009
5.56438e+009
5.33581e+009
5.16678e+009
5.1345e+009
5.51945e+009
6.96071e+009
1.0092e+010
1.48508e+010
1.8395e+010
1.90024e+010
1.91861e+010
1.95776e+010
2.00947e+010
2.07177e+010
2.14711e+010
2.23801e+010
2.34596e+010
2.47115e+010
2.61262e+010
2.76866e+010
2.93671e+010
3.11314e+010
3.29335e+010
3.47233e+010
3.64495e+010
3.80558e+010
3.94888e+010
4.07122e+010
4.17269e+010
4.25796e+010
4.33291e+010
4.40387e+010
4.47847e+010
4.56297e+010
4.65787e+010
4.75636e+010
4.85052e+010
4.93941e+010
5.02904e+010
5.11814e+010
5.20734e+010
5.29946e+010
5.38901e+010
5.46605e+010
5.51772e+010
5.52513e+010
5.49049e+010
5.39357e+010
5.22233e+010
4.99109e+010
4.71616e+010
4.41563e+010
4.10371e+010
3.79059e+010
3.4876e+010
3.19918e+010
2.9289e+010
2.67887e+010
2.4501e+010
2.2428e+010
2.05657e+010
1.89063e+010
1.74403e+010
1.61554e+010
1.50344e+010
1.4059e+010
1.3211e+010
1.24705e+010
1.18243e+010
1.12639e+010
1.08518e+010
1.07428e+010
1.07981e+010
1.06154e+010
1.01955e+010
9.78516e+009
9.55762e+009
9.5421e+009
9.69077e+009
9.96336e+009
1.03311e+010
1.07636e+010
1.12375e+010
1.17381e+010
1.22567e+010
1.27852e+010
1.33195e+010
1.38568e+010
1.43953e+010
1.49325e+010
1.54659e+010
1.59926e+010
1.65087e+010
1.7009e+010
1.74906e+010
1.79521e+010
1.83888e+010
1.87925e+010
1.91638e+010
1.95197e+010
1.98794e+010
2.021e+010
2.04959e+010
2.07271e+010
2.08953e+010
2.09927e+010
2.10127e+010
2.09434e+010
2.07603e+010
2.04592e+010
2.00667e+010
1.95462e+010
1.89276e+010
1.82448e+010
1.75436e+010
1.68851e+010
1.63919e+010
1.63597e+010
1.74173e+010
1.94775e+010
7.89398e+009
6.12541e+009
6.2694e+009
6.67301e+009
7.17266e+009
7.73323e+009
8.34486e+009
8.99394e+009
9.67017e+009
1.03623e+010
1.10609e+010
1.17571e+010
1.24448e+010
1.31195e+010
1.3777e+010
1.44187e+010
1.50454e+010
1.56614e+010
1.62684e+010
1.68631e+010
1.7445e+010
1.80115e+010
1.85635e+010
1.91503e+010
1.97242e+010
2.02927e+010
2.08616e+010
2.14264e+010
2.19803e+010
2.25175e+010
2.30324e+010
2.35204e+010
2.39765e+010
2.43967e+010
2.47775e+010
2.51154e+010
2.54062e+010
2.56444e+010
2.58196e+010
2.59165e+010
2.59285e+010
2.58492e+010
2.56762e+010