/*--------------------------------*- C++ -*----------------------------------*\
| =========                 |                                                 |
| \\      /  F ield         | OpenFOAM: The Open Source CFD Toolbox           |
|  \\    /   O peration     | Version:  5.x                                   |
|   \\  /    A nd           | Web:      www.OpenFOAM.org                      |
|    \\/     M anipulation  |                                                 |
\*---------------------------------------------------------------------------*/
/*   Windows 32 and 64 bit porting by blueCAPE: http://www.bluecape.com.pt   *\
|  Based on Windows porting (2.0.x v4) by Symscape: http://www.symscape.com   |
\*---------------------------------------------------------------------------*/
FoamFile
{
    version     2.0;
    format      ascii;
    class       surfaceScalarField;
    location    "1000";
    object      phi;
}
// * * * * * * * * * * * * * * * * * * * * * * * * * * * * * * * * * * * * * //

dimensions      [0 3 -1 0 0 0 0];

internalField   nonuniform List<scalar> 
7780
(
-298.753
298.753
-678.002
379.249
-1043.07
365.065
-1396.02
352.955
-1747.15
351.13
-2102.09
354.936
-2465.91
363.827
-2843.24
377.323
-3238.36
395.121
-3655.25
416.892
-4097.42
442.167
-4567.8
470.383
-5068.65
500.852
-5601.44
532.788
-6166.77
565.333
-6764.35
597.576
-7393
628.649
-8050.64
657.642
-8734.32
683.677
-9440.22
705.904
-10163.3
723.033
-10897.3
734.085
-11635.4
738.026
-12369.2
733.874
-13090.5
721.256
-13790.6
700.07
-14460.9
670.333
-15093.4
632.469
-15680.4
587.08
-16215.3
534.871
-16692.3
476.94
-17107.2
414.927
-17457.2
350.017
-17740.1
282.853
-17954.4
214.295
-18099.3
144.911
-18174.3
75.0176
-18181.2
6.90411
-18121.4
-59.8247
-17995.9
-125.434
-17807.7
-188.208
-17560.6
-247.147
-17258.4
-302.14
-16906.5
-351.897
-16510.7
-395.81
-16077.8
-432.937
-15614.2
-463.544
-15126.6
-487.654
-14621.5
-505.051
-14105.3
-516.202
-13584.1
-521.197
-13063.9
-520.268
-12549.8
-514.083
-12046.5
-503.287
-11558
-488.526
-11087.6
-470.392
-10638.1
-449.514
-10211.6
-426.474
-9809.8
-401.797
-9433.82
-375.976
-9084.37
-349.451
-8761.78
-322.594
-8466.03
-295.742
-8196.76
-269.269
-7953.23
-243.536
-7734.38
-218.849
-7538.99
-195.389
-7365.62
-173.374
-7212.6
-153.021
-7078.02
-134.577
-6959.66
-118.361
-6855.05
-104.611
-6761.56
-93.4902
-6676.27
-85.2903
-6595.56
-80.7036
-6514.56
-81.0067
-6426.29
-88.2685
-6321.9
-104.385
-6191.23
-130.671
-6021.33
-169.906
-5794.31
-227.017
-5487.58
-306.726
-5076.84
-410.744
-4541.47
-535.373
-3868.56
-672.9
-3061.42
-807.142
-2146.67
-914.752
-1137.35
-1009.32
-11.1697
-1126.18
1247.39
-1258.56
2630.48
-1383.09
4094.62
-1464.14
5570.51
-1475.89
7024.29
-1453.78
8462.84
-1438.55
9901.07
-1438.23
11355.3
-1454.26
12843.1
-1487.77
14383.1
-1540.01
15995.6
-1612.47
17702
-1706.46
19524.7
-1822.69
21485.6
-1960.86
23604.9
-2119.31
25899.3
-2294.4
28379
-2479.68
31043.7
-2664.71
33877.4
-2833.68
36846.1
-2968.71
39888.1
-3041.98
42916.6
-3028.48
45840.9
-2924.33
48538.1
-2697.24
50870.1
-2331.99
52767.2
-1897.08
54093.9
-1326.67
54796.8
-702.942
54892.7
-95.927
54307.5
585.207
53041.1
1266.43
51166.2
1874.91
48762.5
2403.72
45946.2
2816.25
42856.4
3089.79
39638.1
3218.31
36429.5
3208.6
33339.9
3089.6
30440.7
2899.24
27774.3
2666.4
25356.4
2417.88
23183.9
2172.44
21243.9
1940.09
19517.7
1726.16
17982.3
1535.41
16613
1369.25
15387.1
1225.91
14283.6
1103.55
13283.2
1000.36
12368.7
914.489
11524.6
844.131
10737.2
787.366
9994.83
742.397
9287.36
707.469
8606.79
680.566
7946.7
660.089
7302.25
644.448
6670.57
631.685
6049.36
621.212
5437.1
612.259
4833.71
603.385
4236.97
596.738
3644.8
592.178
3057
587.797
2462.53
594.472
1843.58
618.949
1184.19
659.392
564.823
619.362
66.5347
498.288
-552.137
618.672
-1386.74
834.605
-2299.78
913.036
-3220.94
921.164
-4127.13
906.186
-5005.32
878.191
-5848.31
842.994
-6651.43
803.117
-7411.55
760.119
-8126.11
714.564
-8792.64
666.529
-9408.49
615.842
-9970.62
562.133
-10475.5
504.925
-10919.4
443.901
-11298.7
379.254
-11610.3
311.563
-11851.4
241.106
-12019.1
167.688
-12109.9
90.8181
-12125.2
15.3701
-12067.7
-57.5106
-11935.6
-132.142
-11733.4
-202.218
-11465.6
-267.725
-11138.1
-327.565
-10757
-381.07
-10330.1
-426.884
-9866.19
-463.935
-9374.74
-491.453
-8865.48
-509.26
-8348.59
-516.894
-7835
-513.588
-7335.16
-499.835
-6859.24
-475.924
-6418.72
-440.522
-6023.07
-395.65
-5671.47
-351.603
-5364.28
-307.188
-5104.79
-259.492
-4954.51
-150.28
-40.0071
-371.433
670.186
-708.129
715.945
-1038.86
695.797
-1372.88
686.97
-1708.74
686.992
-2050.27
696.471
-2401.8
715.356
-2768.07
743.594
-3153.63
780.681
-3562.65
825.909
-3998.77
878.286
-4464.97
936.586
-4963.46
999.337
-5495.52
1064.85
-6061.47
1131.29
-6660.58
1196.68
-7291.17
1259.24
-7950.87
1317.34
-8636.65
1369.46
-9344.15
1413.41
-10067.4
1446.27
-10799.2
1465.9
-11531.7
1470.48
-12256.5
1458.7
-12965.2
1429.96
-13649.1
1383.99
-14300
1321.21
-14909.9
1242.38
-15471.6
1148.73
-15978.5
1041.81
-16425.2
923.681
-16807.7
797.38
-17123.5
665.79
-17371
530.411
-17549.4
392.726
-17658.8
254.244
-17700.1
116.307
-17675
-18.1744
-17584
-150.81
-17427.3
-282.159
-17207.7
-407.794
-16929
-525.799
-16595.6
-635.622
-16212.8
-734.651
-15786.6
-822
-15324.1
-895.489
-14833.1
-954.523
-14321
-999.706
-13794.8
-1031.25
-13262
-1049.06
-12729
-1054.19
-12201.6
-1047.65
-11685.3
-1030.34
-11184.8
-1003.78
-10704
-969.376
-10245.8
-928.607
-9812.39
-882.909
-9405.37
-833.496
-9025.6
-781.567
-8673.4
-728.178
-8348.59
-674.254
-8050.63
-620.559
-7778.84
-567.534
-7532.53
-515.577
-7310.75
-465.319
-7112.21
-417.388
-6935.46
-372.14
-6778.97
-329.865
-6641.08
-290.903
-6520.07
-255.594
-6414.06
-224.363
-6321
-197.673
-6238.38
-176.11
-6163.05
-160.625
-6091.2
-152.557
-6018.68
-153.521
-5940.89
-166.058
-5851.03
-194.247
-5738.29
-243.409
-5587.91
-320.291
-5381.25
-433.674
-5097.01
-590.964
-4711.22
-796.534
-4203.08
-1043.51
-3565.51
-1310.48
-2798.32
-1574.33
-1892.56
-1820.51
-850.165
-2051.72
298.745
-2275.09
1508.28
-2468.1
2734.52
-2609.33
3963.41
-2693.03
5212.78
-2725.26
6490.76
-2731.76
7790.37
-2738.16
9109.89
-2757.75
10454.1
-2798.51
11833.7
-2867.37
13264.1
-2970.37
14764.3
-3112.66
16356.2
-3298.41
18064.1
-3530.58
19913.6
-3810.3
21929.8
-4135.59
24136
-4500.6
26549.4
-4893.09
29177.4
-5292.7
32012.9
-5669.13
35023.7
-5979.5
38162.4
-6180.66
41344.4
-6210.54
44434.4
-6014.27
47348.1
-5610.96
49941.4
-4925.34
52042.7
-3998.32
53668.4
-2952.4
54696.7
-1731.2
55009.2
-408.468
54696.8
897.605
53764.6
2198.62
52153.7
3485.83
49917.4
4640
47158.6
5575.07
44015.5
6232.88
40644.2
6589.66
37199.2
6653.53
33832.7
6456.18
30664.3
6067.6
27760.3
5570.37
25150.5
5027.7
22833.7
4489.29
20788.9
3984.87
18989.6
3525.4
17409.3
3115.75
16019.8
2758.77
14792.6
2453.07
13701.4
2194.77
12722.6
1979.17
11835.6
1801.51
11022.3
1657.35
10267.3
1542.38
9557.21
1452.53
8880.72
1383.96
8228.59
1332.7
7593.67
1295.01
6970.82
1267.3
6356.56
1245.94
5749.32
1228.45
5148.61
1212.97
4553.93
1198.07
3965.33
1185.34
3382.16
1175.35
2802.61
1167.35
2226.66
1170.42
1646.81
1198.8
1086.14
1220.06
560.66
1144.84
-150.381
1209.33
-1100.86
1569.15
-2048.59
1782.34
-2971.33
1835.77
-3878.89
1828.72
-4758.07
1785.36
-5602.44
1722.57
-6408.4
1648.96
-7174.23
1568.95
-7898.55
1484.43
-8579.55
1395.57
-9214.82
1301.8
-9801.31
1202.32
-10335.5
1096.3
-10813.7
983.134
-11232.2
862.433
-11587.2
734.216
-11874.6
598.941
-12090.6
457.104
-12232.4
309.492
-12302.1
160.562
-12299.1
12.4087
-12220.2
-136.496
-12065.1
-287.183
-11837
-430.298
-11539.9
-564.874
-11180.7
-686.797
-10767
-794.748
-10307.6
-886.29
-9811.59
-959.915
-9289.66
-1013.38
-8754.08
-1044.85
-8216.43
-1054.54
-7687.41
-1042.6
-7178.16
-1009.08
-6699.08
-955.014
-6259.18
-880.415
-5867.37
-787.465
-5535.64
-683.333
-5269.97
-572.857
-5050.31
-479.149
-4896.25
-304.336
-73.5387
-341.67
1011.86
-647.055
1021.33
-950.06
998.802
-1256.79
993.703
-1567.24
997.438
-1885.92
1015.15
-2216.98
1046.42
-2565.2
1091.81
-2934.94
1150.42
-3330.17
1221.14
-3754.23
1302.34
-4209.7
1392.06
-4698.31
1487.94
-5220.73
1587.27
-5776.62
1687.18
-6364.5
1784.56
-6982.29
1877.03
-7628.31
1963.36
-8299.61
2040.76
-8990.66
2104.45
-9695.11
2150.73
-10405.9
2176.66
-11115.5
2180.13
-11816.5
2159.73
-12500.9
2114.28
-13160.5
2043.58
-13787.5
1948.26
-14374.7
1829.57
-14915.5
1689.55
-15404.7
1530.97
-15837.8
1356.82
-16210.8
1170.4
-16520.5
975.464
-16765
774.881
-16943.1
570.845
-17054.2
365.375
-17098.3
160.391
-17074.6
-41.8566
-16985.4
-240.042
-16831.8
-435.79
-16615.3
-624.306
-16338.2
-802.822
-16004.5
-969.336
-15618.7
-1120.44
-15186.1
-1254.6
-14713.1
-1368.56
-14207.6
-1460.01
-13677.4
-1529.87
-13129.8
-1578.91
-12571.6
-1607.19
-12009.8
-1615.96
-11450.9
-1606.61
-10900.5
-1580.71
-10364.1
-1540.21
-9846.37
-1487.09
-9351.66
-1423.32
-8883.76
-1350.8
-8445.75
-1271.51
-8039.92
-1187.4
-7667.83
-1100.28
-7330.24
-1011.84
-7027.07
-923.729
-6757.35
-837.254
-6519.14
-753.787
-6310.05
-674.408
-6127.58
-599.852
-5969.14
-530.582
-5832.13
-466.874
-5714.04
-409
-5612.36
-357.27
-5524.68
-312.046
-5448.75
-273.597
-5382.6
-242.267
-5324.28
-218.938
-5271.57
-205.272
-5221.88
-203.209
-5171.78
-216.153
-5115.04
-250.99
-5044.74
-313.712
-4951.28
-413.746
-4819.27
-565.687
-4627.1
-783.139
-4348.27
-1075.36
-3952.08
-1439.71
-3406.04
-1856.52
-2696.85
-2283.51
-1840.55
-2676.81
-872.093
-3020.17
168.681
-3315.87
1253.55
-3552.96
2361.72
-3717.5
3485.72
-3817.03
4630.1
-3869.64
5796.02
-3897.67
6980.51
-3922.65
8185
-3962.24
9416.81
-4030.33
10688.3
-4138.89
12016.2
-4298.27
13420.7
-4517.12
14925.1
-4802.85
16555.7
-5161.09
18340
-5594.65
20305.6
-6101.22
22477
-6672
24871.5
-7287.58
27493.6
-7914.78
30331.6
-8507.11
33344.5
-8992.46
36456.4
-9292.53
39566.2
-9320.37
42553.4
-9001.45
45287.7
-8345.22
47687.4
-7325.06
49661.6
-5972.55
51111.9
-4402.72
52030.6
-2649.84
52428.9
-806.77
52241
1085.49
51438.2
3001.39
50043.9
4880.13
48081.9
6602.05
45608.1
8048.83
42718.3
9122.71
39541.7
9766.26
36220.6
9974.65
32897.3
9779.4
29709.9
9255.06
26757.8
8522.47
24088
7697.52
21714.4
6862.84
19628.8
6070.44
17806.6
5347.64
16217.1
4705.22
14830.4
4145.49
13617.6
3665.88
12551.6
3260.77
11607.7
2923.12
10763.6
2645.55
9999.92
2421.04
9299.32
2242.97
8646.83
2105.02
8029.46
2001.32
7436.08
1926.08
6857.75
1873.34
6287.68
1837.37
5721.03
1812.6
5155.62
1793.86
4590.91
1777.67
4027
1761.98
3465.62
1746.72
2907.05
1733.92
2350.8
1723.6
1797.27
1723.95
1250.53
1745.54
733.117
1737.47
108.776
1769.18
-845.474
2163.58
-1830.23
2553.9
-2730.97
2683.08
-3591.78
2696.58
-4416.14
2653.09
-5208.09
2577.32
-5969.5
2483.97
-6701.09
2380.55
-7402.77
2270.63
-8072.7
2154.36
-8708.22
2031.09
-9306.13
1899.72
-9862.75
1758.94
-10373.9
1607.5
-10835.2
1444.42
-11242.3
1269.48
-11591.6
1083.54
-11880.3
887.687
-12105.6
682.379
-12265.1
469.007
-12353.8
249.251
-12366
24.6109
-12304.2
-198.307
-12172.6
-418.763
-11970.8
-632.088
-11700.7
-834.997
-11364.3
-1023.2
-10966.7
-1192.37
-10514.9
-1338.12
-10016.9
-1457.84
-9482.44
-1547.89
-8922.37
-1604.91
-8350.88
-1626.03
-7783.59
-1609.89
-7236.07
-1556.61
-6722.02
-1469.06
-6251.77
-1350.66
-5835.94
-1203.3
-5484.33
-1034.94
-5197.12
-860.07
-4973.01
-703.262
-4806.65
-470.691
-112.8
-308.533
1320.39
-583.697
1296.49
-858.458
1273.56
-1136.03
1271.27
-1418.5
1279.9
-1710.64
1307.29
-2016.69
1352.47
-2341.07
1416.19
-2687.72
1497.07
-3059.97
1593.4
-3460.53
1702.9
-3891.33
1822.86
-4353.49
1950.1
-4847.14
2080.92
-5371.57
2211.6
-5924.81
2337.81
-6506.04
2458.26
-7114.97
2572.29
-7747.69
2673.47
-8399.03
2755.8
-9063.94
2815.63
-9736.66
2849.38
-10410.8
2854.25
-11079.3
2828.26
-11734.8
2769.73
-12369.3
2678.09
-12975
2554.01
-13544.6
2399.19
-14071.5
2216.4
-14550
2009.46
-14976
1782.83
-15346.3
1540.7
-15657.5
1286.64
-15907.2
1024.57
-16093.7
757.43
-16216.1
487.758
-16273.9
218.13
-16266.3
-49.4555
-16193.7
-312.587
-16058.3
-571.245
-15860.7
-821.902
-15602.7
-1060.81
-15287.4
-1284.57
-14919.1
-1488.79
-14503.1
-1670.59
-14045.4
-1826.24
-13552.2
-1953.21
-13031.4
-2050.71
-12490.5
-2119.74
-11936.3
-2161.45
-11375.2
-2177.03
-10813.3
-2168.55
-10255.5
-2138.48
-9706.47
-2089.25
-9170.19
-2023.38
-8650.18
-1943.33
-8149.43
-1851.54
-7670.64
-1750.3
-7216.36
-1641.67
-6788.93
-1527.71
-6390.42
-1410.35
-6022.87
-1291.28
-5687.74
-1172.39
-5385.88
-1055.65
-5117.55
-942.738
-4882.23
-835.168
-4678.62
-734.195
-4504.72
-640.773
-4358.14
-555.583
-4236.16
-479.252
-4135.89
-412.317
-4054.38
-355.105
-3988.79
-307.851
-3936.71
-271.024
-3896.63
-245.35
-3867.59
-232.252
-3848.52
-235.224
-3836.58
-262.923
-3833.85
-316.445
-3833.89
-413.708
-3824.77
-574.807
-3783.55
-824.356
-3676.47
-1182.44
-3465.76
-1650.41
-3107.94
-2214.34
-2565.52
-2825.93
-1844.42
-3397.91
-998.279
-3866.32
-82.9835
-4231.16
871.354
-4507.3
1852.24
-4698.38
2852.45
-4817.25
3871.01
-4888.2
4907.12
-4933.79
5960.58
-4976.11
7035.13
-5036.78
8139.52
-5134.72
9287.23
-5286.6
10495.1
-5506.16
11782.3
-5804.27
13171.4
-6192.01
14688.7
-6678.33
16360.9
-7266.88
18213.2
-7953.49
20265.9
-8724.73
22532.4
-9554.07
25012.5
-10394.9
27686.2
-11180.9
30497.4
-11803.7
33346.4
-12141.5
36135.4
-12109.3
38780.1
-11646.2
41173.3
-10738.4
43240.8
-9392.51
44927.9
-7659.71
46161.8
-5636.55
46935.4
-3423.47
47256.1
-1127.47
47099.1
1242.51
46437.9
3662.61
45262.1
6055.87
43587.4
8276.78
41464.1
10172.1
38972.2
11614.6
36211.5
12527
33292.8
12893.4
30326.9
12745.4
27425
12156.9
24692.5
11255
22195.6
10194.4
19961.8
9096.62
17991.2
8041.07
16265.2
7073.67
14758.1
6212.32
13442.7
5460.84
12292.8
4815.76
11283.8
4269.79
10393.1
3813.82
9600.44
3438.24
8887.61
3133.87
8238.52
2892.06
7638.92
2704.62
7076.22
2564.02
6539.4
2462.9
6019.02
2393.71
5507.34
2349.05
4998.55
2321.39
4488.93
2303.48
3976.69
2289.92
3461.96
2276.7
2945.69
2262.98
2428.57
2251.05
1909.31
2242.86
1385.21
2248.05
869.673
2261.08
304.809
2302.33
-557.425
2631.42
-1551.89
3158.04
-2411.48
3413.5
-3200.78
3472.38
-3950.94
3446.74
-4672.88
3375.02
-5373.16
3277.6
-6054.58
3165.4
-6717.6
3043.57
-7360.83
2913.85
-7981.81
2775.34
-8577.57
2626.85
-9144.37
2466.52
-9677.79
2292.37
-10172.9
2102.58
-10624.6
1896.09
-11028.4
1673.31
-11380.4
1435.52
-11675.7
1183.04
-11909.5
916.218
-12077.6
637.039
-12176.3
347.945
-12204.3
52.6677
-12160.3
-242.348
-12047.1
-531.944
-11867.5
-811.693
-11625.4
-1077.05
-11325.5
-1323.17
-10971.6
-1546.24
-10566.6
-1743.12
-10114.5
-1909.93
-9619.47
-2042.94
-9086.01
-2138.37
-8520.54
-2191.5
-7934.45
-2195.99
-7346.13
-2144.93
-6778.27
-2036.92
-6252.62
-1876.31
-5788.32
-1667.6
-5400.42
-1422.84
-5090.52
-1169.96
-4859.87
-933.92
-4665.35
-665.209
-159.85
-258.825
1579.21
-502.053
1539.72
-744.665
1516.18
-989.248
1515.86
-1239.95
1530.61
-1500.9
1568.24
-1776.15
1627.72
-2069.26
1709.31
-2383.52
1811.33
-2721.62
1931.49
-3085.7
2066.98
-3477.2
2214.37
-3896.87
2369.77
-4344.69
2528.73
-4820.03
2686.95
-5321.9
2839.67
-5850.72
2987.08
-6405.48
3127.05
-6982.75
3250.75
-7579.61
3352.65
-8192.43
3428.45
-8816.49
3473.45
-9445.82
3483.58
-10073.3
3455.78
-10691.6
3387.94
-11292.5
3279.02
-11868.1
3129.61
-12410.7
2941.86
-12913.7
2719.35
-13371.2
2466.95
-13778.8
2190.44
-14133.8
1895.72
-14434.8
1587.6
-14680.3
1270.1
-14869.3
946.46
-15001
619.454
-15074.6
291.686
-15088.9
-35.1452
-15042.2
-359.24
-14935.3
-678.136
-14768.2
-989.084
-14541.4
-1287.57
-14257.2
-1568.8
-13918.9
-1827.05
-13531.9
-2057.61
-13102.2
-2255.99
-12636.5
-2418.87
-12143
-2544.22
-11629.5
-2633.21
-11103.6
-2687.39
-10571.7
-2708.9
-10039.3
-2700.92
-9510.9
-2666.92
-8989.91
-2610.25
-8479.11
-2534.17
-7980.76
-2441.69
-7496.8
-2335.51
-7029
-2218.1
-6578.93
-2091.74
-6148.1
-1958.53
-5737.96
-1820.5
-5349.5
-1679.74
-4983.42
-1538.47
-4640.53
-1398.54
-4321.4
-1261.86
-4026.32
-1130.25
-3755.31
-1005.21
-3508.14
-887.936
-3284.11
-779.618
-3082.07
-681.287
-2900.69
-593.702
-2738.45
-517.349
-2593.78
-452.514
-2465.49
-399.316
-2353.06
-357.777
-2257.21
-328.11
-2181.48
-310.951
-2132.92
-311.478
-2118.69
-330.679
-2149.02
-383.374
-2235.22
-488.616
-2372.56
-687.008
-2521.49
-1033.52
-2607.76
-1564.14
-2541.81
-2280.3
-2270.52
-3097.22
-1781.29
-3887.14
-1117.41
-4530.2
-358.44
-4990.13
446.605
-5312.35
1282.05
-5533.83
2142.62
-5677.82
3024.21
-5769.79
3924.32
-5833.89
4842.97
-5894.76
5783.7
-5977.52
6754.18
-6105.2
7766.01
-6298.43
8834.14
-6574.28
9976.04
-6946.17
11212.1
-7428.02
12564.4
-8030.64
14053.9
-8756.39
15698.6
-9598.21
17512.1
-10538.3
19502.4
-11544.3
21663.1
-12555.6
23965.5
-13483.2
26336.8
-14174.9
28692.5
-14497.3
30980.3
-14397.1
33138.7
-13804.6
35081.2
-12680.9
36736.7
-11047.9
38062.8
-8985.82
39032.5
-6606.32
39644.7
-4035.63
39914.4
-1397.23
39830.3
1326.62
39352.9
4140.03
38433.7
6975.1
37078.6
9631.89
35348.3
11902.3
33318.2
13644.8
31065
14780.1
28672.2
15286.1
26230
15187.6
23818.3
14568.6
21518.4
13554.9
19398.8
12313.9
17485
11010.5
15776.1
9749.95
14263.2
8586.56
12930.4
7545.1
11758.7
6632.59
10728.2
5846.17
9820.08
5177.95
9016.22
4617.68
8300.13
4154.34
7656.72
3777.27
7072.36
3476.42
6534.75
3242.24
6032.79
3065.98
5556.62
2939.07
5097.43
2852.91
4647.46
2799.02
4200.29
2768.56
3751.39
2752.38
3298.71
2742.59
2840.99
2734.43
2378.73
2725.24
1912.87
2716.91
1435.34
2720.38
955.1
2728.29
450.918
2765.26
-271.932
3025.18
-1230.92
3590.4
-2071.73
3998.85
-2789.54
4131.31
-3455.52
4138.35
-4093.69
4084.92
-4716.59
3997.92
-5330.27
3891.28
-5936.3
3771.43
-6534.05
3641.32
-7121.77
3501.57
-7697.24
3350.81
-8256.81
3186.42
-8795.67
3005.38
-9308.26
2804.95
-9788.74
2583.06
-10231.8
2339.1
-10632.7
2074.29
-10985.9
1788.7
-11284.6
1481.74
-11523.3
1154.88
-11697.2
810.991
-11803
453.689
-11838.4
88.0339
-11801.6
-279.116
-11695.7
-637.859
-11525
-982.319
-11295.3
-1306.83
-11012.5
-1605.97
-10683.1
-1875.6
-10313.9
-2112.34
-9910.21
-2313.6
-9475.41
-2477.75
-9011.07
-2602.7
-8517.7
-2684.87
-7994.31
-2719.37
-7439.91
-2699.33
-6863.05
-2613.78
-6288.93
-2450.43
-5751.86
-2204.67
-5294.34
-1880.36
-4937.92
-1526.38
-4680.44
-1191.4
-4469.98
-875.662
-219.013
-209.591
1788.8
-414.983
1745.11
-620.527
1721.72
-827.687
1723.02
-1041.43
1744.35
-1264.91
1791.73
-1501.79
1864.6
-1754.79
1962.3
-2026.46
2083
-2318.8
2223.84
-2633.51
2381.69
-2971.72
2552.57
-3334.12
2732.17
-3720.99
2915.6
-4132.29
3098.26
-4568.08
3275.46
-5029.03
3448.04
-5513.84
3611.86
-6021
3757.91
-6549.03
3880.68
-7095.05
3974.47
-7654.84
4033.24
-8222.87
4051.61
-8792.32
4025.22
-9355.67
3951.29
-9905.13
3828.48
-10433
3657.47
-10932
3440.84
-11395.7
3183.07
-11818.8
2890.07
-12197.3
2568.9
-12528.3
2226.74
-12810.6
1869.96
-13044.1
1503.55
-13229
1131.35
-13365.6
756.075
-13453.5
379.526
-13490.9
2.33256
-13475.8
-374.39
-13406.4
-747.504
-13281.3
-1114.25
-13099.1
-1469.73
-12860.1
-1807.83
-12565.9
-2121.23
-12220.6
-2402.89
-11830
-2646.63
-11401.3
-2847.51
-10943.6
-3001.91
-10466.2
-3110.66
-9977.64
-3175.92
-9485.21
-3201.33
-8994.61
-3191.52
-8510.26
-3151.27
-8035.27
-3085.23
-7571.71
-2997.73
-7120.9
-2892.49
-6683.71
-2772.69
-6260.74
-2641.08
-5852.42
-2500.06
-5459.18
-2351.78
-5081.43
-2198.25
-4719.74
-2041.43
-4374.88
-1883.32
-4047.45
-1725.97
-3737.84
-1571.46
-3446.34
-1421.76
-3172.8
-1278.75
-2916.57
-1144.16
-2676.77
-1019.41
-2452.52
-905.541
-2242.69
-803.534
-2045.91
-714.128
-1860.85
-637.574
-1686.21
-573.956
-1520.49
-523.493
-1361.94
-486.658
-1209.15
-463.745
-1065.7
-454.932
-935.598
-460.778
-835.272
-483.699
-790.113
-533.775
-842.452
-634.669
-1038
-837.969
-1359.72
-1242.42
-1669.91
-1970.1
-1772.48
-2994.65
-1593.5
-4066.13
-1179.24
-4944.45
-618.896
-5550.48
17.4854
-5948.73
695.001
-6211.34
1404.8
-6387.61
2140.21
-6505.2
2896.99
-6590.67
3673.65
-6671.42
4471.49
-6775.36
5295.37
-6929.08
6153.25
-7156.31
7055.07
-7476.1
8015.04
-7906.14
9049.88
-8462.86
10175
-9155.71
11402.5
-9983.94
12742.9
-10938.6
14203.8
-11999.2
15788.1
-13128.7
17487
-14254.4
19256.6
-15252.9
21048.1
-15966.4
22822.3
-16271.4
24553.4
-16128.3
26172.8
-15424
27610.3
-14118.5
28818.4
-12256
29769.5
-9936.94
30453
-7289.76
30881.2
-4463.9
31083.1
-1599.07
31043.8
1365.87
30718.1
4465.79
30050.9
7642.25
29041.9
10640.9
27741.2
13202.9
26218.9
15167.1
24550.3
16448.7
22782.8
17053.6
20970.2
17000.2
19178.8
16360.1
17457.8
15275.9
15846.8
13924.9
14371.8
12485.4
13034.2
11087.6
11829.9
9790.88
10751.9
8623.02
9790.67
7593.85
8934.78
6702.07
8172.36
5940.37
7491.6
5298.45
6881.03
4764.91
6329.77
4328.53
5827.65
3978.55
5365.15
3704.74
4933.5
3497.63
4524.6
3347.97
4131.02
3246.49
3745.78
3184.26
3363.16
3151.18
2979.61
3135.93
2591.61
3130.59
2196.58
3129.46
1795.66
3126.16
1382.58
3129.99
961.024
3141.94
528.856
3160.46
-48.8711
3342.99
-897.618
3873.93
-1723.22
4416.01
-2378.89
4654.52
-2957.63
4710.06
-3505.02
4685.74
-4039.84
4619.73
-4571.32
4529.4
-5102.74
4422.7
-5635.6
4304.29
-6170.49
4176.21
-6705.64
4036.72
-7237.65
3882.82
-7761.71
3710.48
-8272.18
3515.85
-8763.05
3295.83
-9228.35
3048.36
-9662.67
2773.42
-10060
2471.64
-10412.6
2141.32
-10713.6
1782.72
-10957
1398.25
-11137.3
991.343
-11250.2
566.533
-11292
129.891
-11260.9
-310.289
-11158.8
-739.897
-10990.6
-1150.51
-10762.8
-1534.64
-10483.3
-1885.51
-10161
-2197.9
-9805.11
-2468.22
-9424.02
-2694.7
-9024.91
-2876.85
-8612.77
-3014.85
-8189.34
-3108.3
-7752.07
-3156.64
-7294.63
-3156.77
-6808.24
-3100.18
-6286.67
-2972
-5736.09
-2755.24
-5200.26
-2416.2
-4756.64
-1970
-4425.4
-1522.64
-4207.85
-1093.21
-288.319
-160.505
1949.31
-323.469
1908.08
-487.524
1885.77
-653.277
1888.77
-825.221
1916.29
-1005.46
1971.96
-1196.94
2056.09
-1401.55
2166.91
-1621.24
2302.69
-1857.55
2460.15
-2111.76
2635.9
-2384.86
2825.67
-2677.68
3024.99
-2990.93
3228.85
-3325.14
3432.47
-3681.18
3631.51
-4059.48
3826.34
-4459.18
4011.55
-4880.5
4179.23
-5322.85
4323.03
-5783.85
4435.46
-6259.85
4509.25
-6745.61
4537.37
-7234.7
4514.31
-7720.5
4437.09
-8195.99
4303.97
-8654.08
4115.57
-9088.04
3874.8
-9492.01
3587.04
-9861.33
3259.38
-10192.6
2900.21
-10484.3
2518.44
-10736.3
2121.87
-10949.2
1716.47
-11124.2
1306.38
-11262.1
894.028
-11363
480.402
-11425.6
64.9572
-11447.5
-352.493
-11425.3
-769.696
-11355.2
-1184.44
-11233.1
-1591.77
-11056.4
-1984.59
-10823.8
-2353.76
-10537.5
-2689.25
-10202.6
-2981.54
-9827.25
-3222.81
-9420.81
-3408.35
-8993.23
-3538.24
-8554.17
-3614.98
-8111.97
-3643.54
-7673.35
-3630.13
-7243.26
-3581.37
-6824.83
-3503.67
-6419.58
-3402.98
-6028.09
-3283.98
-5650.4
-3150.38
-5286.27
-3005.2
-4935.4
-2850.94
-4597.44
-2689.73
-4272.22
-2523.47
-3959.88
-2353.77
-3660.86
-2182.34
-3375.57
-2011.26
-3104.19
-1842.84
-2846.66
-1679.29
-2602.73
-1522.68
-2372.07
-1374.83
-2154.27
-1237.21
-1948.81
-1111
-1755.13
-997.208
-1572.49
-896.775
-1399.62
-810.435
-1234.88
-738.697
-1076.5
-681.88
-922.587
-640.568
-771.16
-615.172
-620.638
-605.454
-469.91
-611.506
-318.664
-634.946
-172.63
-679.808
-54.0252
-753.274
-28.2996
-863.694
-197.572
-1073.15
-611.983
-1555.69
-1077.64
-2528.99
-1275.6
-3868.17
-1156.37
-5063.67
-834.354
-5872.5
-392.042
-6391.04
110.74
-6714.13
656.457
-6933.33
1235.71
-7084.45
1841.69
-7196.65
2469.17
-7298.9
3115.57
-7421.75
3781.86
-7595.38
4470.88
-7845.33
5187.49
-8192.71
5940.28
-8658.93
6738.17
-9260.76
7588.09
-10005.6
8494.76
-10890.6
9462.15
-11906
10493.2
-13030.2
11583.7
-14219.2
12713.4
-15384.1
13863.9
-16403.3
15024.5
-17127
16176.9
-17423.8
17299.3
-17250.7
18350.1
-16474.8
19284.3
-15052.7
20076.2
-13047.9
20703.4
-10564.1
21153.2
-7739.53
21434.9
-4745.59
21566.7
-1730.96
21510.7
1421.96
21236.4
4740.09
20736
8142.56
20030.7
11346.3
19159.9
14073.7
18180.9
16146.1
17134.3
17495.3
16039.7
18148.2
14944.5
18095.4
13852.9
17451.7
12790.4
16338.3
11767.3
14948.1
10801.7
13451.1
9900.39
11988.9
9064.39
10626.9
8294.84
9392.57
7591.04
8297.65
6950.26
7342.85
6368.29
6522.33
5839.94
5826.79
5359.41
5245.44
4920.61
4767.33
4517.33
4381.82
4143.38
4078.69
3792.68
3848.33
3459.33
3681.31
3137.59
3568.24
2822.68
3499.17
2510.94
3462.92
2197.61
3449.26
1879.17
3449.03
1557.57
3451.06
1225.73
3458
878.348
3477.37
527.259
3493.03
86.3872
3601.33
-613.871
4043.25
-1397.22
4657.28
-2004.2
5022.98
-2495.06
5145.38
-2943.61
5158.61
-3379.34
5121.47
-3814.1
5054.49
-4253.97
4969.27
-4702.92
4871.64
-5162.83
4764.2
-5633.41
4646.79
-6112.49
4515.8
-6595.73
4366.06
-7077.7
4192.45
-7552.55
3990.69
-8014.38
3757.66
-8457.47
3491.45
-8876.05
3192
-9262.08
2857.67
-9608
2487.24
-9907.38
2082.1
-10153.8
1644.65
-10341
1178.58
-10463.3
688.794
-10515.3
181.935
-10493.9
-331.726
-10400.1
-833.665
-10238.2
-1312.45
-10014.7
-1758.11
-9738.32
-2161.9
-9419.22
-2517
-9068.6
-2818.84
-8697.87
-3065.43
-8317.45
-3257.27
-7935.66
-3396.64
-7557.5
-3486.46
-7184.6
-3529.54
-6814.38
-3526.98
-6436.99
-3477.57
-6035.23
-3373.77
-5590.92
-3199.55
-5089.75
-2917.37
-4587.13
-2472.62
-4150.23
-1959.54
-3862.24
-1381.2
-374.486
-110.753
2060.06
-227.845
2025.17
-347.009
2004.94
-467.836
2009.59
-593.601
2042.06
-725.426
2103.79
-865.5
2196.16
-1015.05
2316.46
-1175.38
2463.02
-1347.57
2632.34
-1532.58
2820.92
-1731.33
3024.42
-1944.71
3238.37
-2173.81
3457.95
-2419.53
3678.19
-2683.16
3895.13
-2964.79
4107.97
-3264.63
4311.4
-3584.27
4498.87
-3923.58
4662.34
-4280.48
4792.37
-4651.66
4880.42
-5032.35
4918.07
-5417.86
4899.82
-5802.73
4821.96
-6180.2
4681.44
-6544.01
4479.38
-6888.19
4218.98
-7207.42
3906.28
-7497.74
3549.7
-7756.78
3159.25
-7984.19
2745.85
-8181.62
2319.3
-8352.13
1886.98
-8499.33
1453.57
-8626.47
1021.17
-8735.28
589.206
-8824.98
154.657
-8891.14
-286.329
-8927.64
-733.199
-8927.62
-1184.46
-8884.07
-1635.32
-8790.65
-2078
-8643.34
-2501.07
-8441.81
-2890.78
-8189.81
-3233.54
-7894.22
-3518.41
-7563.75
-3738.82
-7208.78
-3893.21
-6839.61
-3984.15
-6465.41
-4017.74
-6094.01
-4001.53
-5731.21
-3944.17
-5381.07
-3853.81
-5045.13
-3738.92
-4723.73
-3605.38
-4416.52
-3457.59
-4122.81
-3298.92
-3841.66
-3132.08
-3571.86
-2959.54
-3312.13
-2783.2
-3061.62
-2604.28
-2820.49
-2423.48
-2589.23
-2242.52
-2368.11
-2063.96
-2157.27
-1890.13
-1956.73
-1723.22
-1766.33
-1565.22
-1585.71
-1417.83
-1414.31
-1282.41
-1251.51
-1160
-1096.68
-1051.61
-949.116
-957.995
-807.998
-879.815
-672.165
-817.713
-540.259
-772.474
-410.682
-744.748
-281.663
-734.474
-151.372
-741.796
-17.8656
-768.453
118.7
-816.373
252.541
-887.116
367.801
-978.954
402.321
-1107.67
215.221
-1368.59
-291.965
-2021.8
-845.22
-3314.92
-1054.75
-4854.14
-975.582
-5951.67
-753.981
-6612.64
-440.423
-7027.68
-70.6986
-7303.06
340.862
-7496.01
783.716
-7639.51
1249.21
-7764.4
1730.87
-7903.42
2225.48
-8089.98
2731.67
-8351.53
3249.72
-8710.75
3779.69
-9188.9
4320.66
-9801.73
4870.98
-10555.9
5428.6
-11448.2
5991.05
-12468.5
6553.48
-13592.7
7106.8
-14772.5
7640.9
-15918.2
8156.12
-16918.6
8663.81
-17634.7
9177.08
-17937
9658.23
-17731.9
10113.5
-16930
10544.3
-15483.4
10940.5
-13444.2
11281.9
-10905.5
11543.3
-8000.94
11706.1
-4908.37
11755.5
-1780.38
11626.7
1550.81
11333.4
5033.33
10949.1
8526.83
10529.6
11765.9
10106.1
14497.2
9698.97
16553.2
9297.66
17896.6
8945.36
18500.5
8584.39
18456.3
8202.62
17833.5
7813.73
16727.2
7403.03
15358.7
6972.39
13881.7
6531.01
12430.3
6087.54
11070.3
5651.11
9829.01
5229.14
8719.62
4826.67
7745.32
4446.64
6902.36
4090.23
6183.2
3757.19
5578.48
3446.18
5078.34
3155.17
4672.83
2881.39
4352.47
2621.37
4108.34
2371.79
3930.9
2130.17
3809.86
1893.8
3735.54
1658.21
3698.52
1420.26
3687.21
1181.51
3687.79
935.373
3697.19
672.589
3720.78
408.016
3741.94
97.0167
3804.03
-432.093
4130.44
-1125.06
4736.21
-1684.72
5216.94
-2091.49
5429.76
-2440.58
5494.47
-2771.54
5489.56
-3098.3
5448.23
-3430.38
5386.58
-3774.37
5313.26
-4135.11
5232.39
-4514.8
5143.89
-4911.81
5043.79
-5322.89
4926.88
-5743.3
4786.47
-6167.55
4616.71
-6589.9
4413.04
-7004.51
4172.28
-7405.83
3892.76
-7788.24
3574.42
-8145.07
3214.5
-8470.67
2812.84
-8759.09
2370.52
-9003.6
1889.16
-9197.48
1372.46
-9334.04
825.353
-9405.83
253.729
-9406.41
-331.149
-9334.35
-905.723
-9192.41
-1454.39
-8986.21
-1964.31
-8724.11
-2424
-8416.84
-2824.27
-8076.81
-3158.87
-7717.4
-3424.83
-7351.92
-3622.75
-6992.1
-3756.46
-6647.11
-3831.45
-6322.65
-3854.01
-6018.98
-3830.65
-5731.17
-3765.37
-5445.8
-3659.14
-5140.07
-3505.28
-4779.52
-3277.92
-4345.96
-2906.18
-3883.08
-2422.42
-3460.9
-1803.38
-547.37
-59.9575
2120.02
-128.698
2093.91
-201.169
2077.41
-274.302
2082.73
-350.42
2118.18
-430.006
2183.37
-514.258
2280.41
-603.931
2406.14
-699.669
2558.76
-802.09
2734.76
-911.867
2930.69
-1029.74
3142.29
-1156.57
3365.19
-1293.47
3594.86
-1441.51
3826.23
-1601.85
4055.48
-1774.26
4280.37
-1960.51
4497.65
-2163.19
4701.55
-2382.33
4881.48
-2616.63
5026.67
-2864.43
5128.21
-3123.12
5176.76
-3386.04
5162.74
-3649.78
5085.7
-3910.05
4941.7
-4161.74
4731.07
-4399.7
4456.93
-4619.4
4125.98
-4817.59
3747.89
-4992.8
3334.46
-5145.46
2898.51
-5278.1
2451.94
-5394.95
2003.83
-5500.98
1559.6
-5600.83
1121.02
-5697.99
686.362
-5794.13
250.803
-5886.98
-193.485
-5969.94
-650.233
-6034.79
-1119.61
-6071.65
-1598.46
-6070.86
-2078.79
-6024.32
-2547.61
-5927.75
-2987.35
-5781.56
-3379.74
-5590.44
-3709.53
-5362.25
-3967
-5106.75
-4148.71
-4834.37
-4256.53
-4554.23
-4297.88
-4273.45
-4282.31
-3997.95
-4219.67
-3733.33
-4118.42
-3481.23
-3991.02
-3241.95
-3844.67
-3015.16
-3684.38
-2800.28
-3513.79
-2596.63
-3335.74
-2403.07
-3153.1
-2218.09
-2968.18
-2039.93
-2782.44
-1867.6
-2595.8
-1701.18
-2408.94
-1540.75
-2224.39
-1386.4
-2044.48
-1238.14
-1871.48
-1095.88
-1707.47
-959.453
-1554.26
-828.505
-1413.36
-702.604
-1285.91
-581.391
-1172.82
-464.579
-1074.81
-351.671
-992.723
-241.893
-927.491
-134.313
-880.054
-27.8109
-851.251
78.4395
-840.724
184.057
-847.414
288.207
-872.603
389.873
-918.039
487.815
-985.058
582.556
-1073.69
660.428
-1185.54
643.395
-1351.56
351.715
-1730.12
-293.6
-2669.6
-860.01
-4287.73
-1057.44
-5754.24
-1056.74
-6613.33
-941.338
-7143.09
-754.165
-7490.23
-518.636
-7731.54
-248.704
-7909.44
45.473
-8058.57
353.434
-8211.38
666.072
-8402.62
976.969
-8662.43
1281.4
-9015.19
1573.69
-9481.19
1846.66
-10074.7
2092.3
-10801.6
2301.62
-11657.6
2463.41
-12630.2
2565.21
-13694.5
2595.6
-14802.9
2552.33
-15874.9
2442.52
-16808.7
2292.89
-17485.1
2133.49
-17777.6
1970.31
-17568.7