/*--------------------------------*- C++ -*----------------------------------*\
| =========                 |                                                 |
| \\      /  F ield         | OpenFOAM: The Open Source CFD Toolbox           |
|  \\    /   O peration     | Version:  5.x                                   |
|   \\  /    A nd           | Web:      www.OpenFOAM.org                      |
|    \\/     M anipulation  |                                                 |
\*---------------------------------------------------------------------------*/
/*   Windows 32 and 64 bit porting by blueCAPE: http://www.bluecape.com.pt   *\
|  Based on Windows porting (2.0.x v4) by Symscape: http://www.symscape.com   |
\*---------------------------------------------------------------------------*/
FoamFile
{
    version     2.0;
    format      ascii;
    class       volVectorField;
    location    "1000";
    object      U;
}
// * * * * * * * * * * * * * * * * * * * * * * * * * * * * * * * * * * * * * //

dimensions      [0 1 -1 0 0 0 0];

internalField   nonuniform List<vector> 
4000
(
(-2.26379e+006 3.47147e+006 1.51321e-012)
(-9.92493e+006 5.51128e+006 0)
(-1.73901e+007 5.27062e+006 0)
(-2.43622e+007 4.97936e+006 0)
(-3.13485e+007 4.88404e+006 0)
(-3.83363e+007 4.88816e+006 0)
(-4.54542e+007 4.97255e+006 -1.59608e-013)
(-5.27897e+007 5.12063e+006 0)
(-6.04318e+007 5.32301e+006 0)
(-6.84621e+007 5.57148e+006 -6.56968e-014)
(-7.69547e+007 5.85705e+006 0)
(-8.59731e+007 6.17066e+006 0)
(-9.55684e+007 6.5024e+006 6.15033e-015)
(-1.05777e+008 6.84219e+006 0)
(-1.16618e+008 7.17973e+006 5.00455e-014)
(-1.28093e+008 7.50511e+006 7.16006e-014)
(-1.40188e+008 7.80955e+006 9.3086e-014)
(-1.5287e+008 8.08533e+006 1.14583e-013)
(-1.66087e+008 8.32427e+006 1.36159e-013)
(-1.79774e+008 8.512e+006 1.57839e-013)
(-1.93845e+008 8.63603e+006 1.79593e-013)
(-2.08187e+008 8.68648e+006 2.01356e-013)
(-2.22671e+008 8.65365e+006 0)
(-2.37145e+008 8.52751e+006 2.44459e-013)
(-2.51444e+008 8.30554e+006 2.65489e-013)
(-2.654e+008 7.99106e+006 2.85906e-013)
(-2.78845e+008 7.58527e+006 3.05541e-013)
(-2.91612e+008 7.09763e+006 3.24212e-013)
(-3.03547e+008 6.53888e+006 3.41726e-013)
(-3.14508e+008 5.91883e+006 3.57899e-013)
(-3.24369e+008 5.25093e+006 0)
(-3.33033e+008 4.55047e+006 3.85595e-013)
(-3.40437e+008 3.82931e+006 3.96901e-013)
(-3.46533e+008 3.09155e+006 4.06419e-013)
(-3.5129e+008 2.34465e+006 4.14123e-013)
(-3.54679e+008 1.58842e+006 4.19944e-013)
(-3.56678e+008 823847 4.23788e-013)
(-3.57331e+008 81697.8 4.25749e-013)
(-3.56655e+008 -608341 4.24393e-013)
(-3.54667e+008 -1.30022e+006 0)
(-3.51416e+008 -1.95151e+006 4.16157e-013)
(-3.46968e+008 -2.57702e+006 4.09459e-013)
(-3.41397e+008 -3.15841e+006 4.01116e-013)
(-3.34793e+008 -3.69232e+006 3.91233e-013)
(-3.27268e+008 -4.16465e+006 3.79973e-013)
(-3.1896e+008 -4.56967e+006 3.67816e-013)
(-3.09992e+008 -4.91188e+006 3.54546e-013)
(-3.00497e+008 -5.18856e+006 0)
(-2.90603e+008 -5.39832e+006 3.25334e-013)
(-2.8044e+008 -5.5432e+006 3.09731e-013)
(-2.7013e+008 -5.62148e+006 2.93697e-013)
(-2.59795e+008 -5.63521e+006 2.77427e-013)
(-2.49544e+008 -5.59201e+006 2.6106e-013)
(-2.39475e+008 -5.49691e+006 2.44731e-013)
(-2.29669e+008 -5.35528e+006 2.28558e-013)
(-2.20198e+008 -5.17137e+006 2.12646e-013)
(-2.11122e+008 -4.95002e+006 0)
(-2.02488e+008 -4.69945e+006 1.81949e-013)
(-1.9433e+008 -4.42672e+006 1.67307e-013)
(-1.86674e+008 -4.13913e+006 1.53206e-013)
(-1.79536e+008 -3.84373e+006 1.39697e-013)
(-1.72926e+008 -3.54749e+006 1.26832e-013)
(-1.6685e+008 -3.25673e+006 1.14653e-013)
(-1.61302e+008 -2.97575e+006 1.03167e-013)
(-1.56263e+008 -2.70549e+006 0)
(-1.51712e+008 -2.44696e+006 8.22716e-014)
(-1.47635e+008 -2.20378e+006 7.29495e-014)
(-1.44013e+008 -1.97924e+006 6.43971e-014)
(-1.40817e+008 -1.77338e+006 5.6572e-014)
(-1.37993e+008 -1.58632e+006 4.93614e-014)
(-1.35485e+008 -1.41886e+006 4.26729e-014)
(-1.33261e+008 -1.27503e+006 3.65256e-014)
(-1.31315e+008 -1.16085e+006 3.09875e-014)
(-1.29615e+008 -1.08093e+006 2.59665e-014)
(-1.28053e+008 -1.04138e+006 2.10847e-014)
(-1.2646e+008 -1.05892e+006 1.58424e-014)
(-1.24723e+008 -1.15611e+006 1.00336e-014)
(-1.22863e+008 -1.34417e+006 3.87791e-015)
(-1.20881e+008 -1.62358e+006 -2.68668e-015)
(-1.18439e+008 -2.02184e+006 -1.10041e-014)
(-1.14781e+008 -2.63733e+006 -2.35404e-014)
(-1.09233e+008 -3.62542e+006 0)
(-1.0186e+008 -5.06199e+006 -6.71269e-014)
(-9.31895e+007 -6.75138e+006 -9.86493e-014)
(-8.268e+007 -8.21997e+006 -1.42105e-013)
(-6.77138e+007 -9.11791e+006 -2.11517e-013)
(-4.68335e+007 -9.92003e+006 -3.24497e-013)
(-2.68386e+007 -1.11516e+007 -5.1024e-013)
(-6.6418e+006 -1.2605e+007 -8.5488e-013)
(1.55042e+007 -1.42493e+007 -7.39798e-013)
(3.87224e+007 -1.60128e+007 0)
(6.56451e+007 -1.72845e+007 -2.61564e-013)
(9.41957e+007 -1.74768e+007 -1.74173e-013)
(1.21732e+008 -1.70514e+007 -1.12533e-013)
(1.48962e+008 -1.65625e+007 -6.31283e-014)
(1.7614e+008 -1.62487e+007 -2.05816e-014)
(2.0351e+008 -1.61745e+007 1.77973e-014)
(2.31369e+008 -1.63474e+007 5.362e-014)
(2.60048e+008 -1.67631e+007 8.79703e-014)
(2.8991e+008 -1.74176e+007 1.21657e-013)
(3.21347e+008 -1.83075e+007 1.55341e-013)
(3.54771e+008 -1.94226e+007 1.89593e-013)
(3.906e+008 -2.07467e+007 2.2493e-013)
(4.29228e+008 -2.22573e+007 2.61823e-013)
(4.71001e+008 -2.39052e+007 3.00682e-013)
(5.16183e+008 -2.56158e+007 3.41833e-013)
(5.64841e+008 -2.72635e+007 3.85539e-013)
(6.16822e+008 -2.86944e+007 4.31841e-013)
(6.71708e+008 -2.97358e+007 4.80514e-013)
(7.28418e+008 -3.00435e+007 5.31477e-013)
(7.85669e+008 -2.95696e+007 5.83155e-013)
(8.41873e+008 -2.81467e+007 6.34381e-013)
(8.94611e+008 -2.53403e+007 6.85299e-013)
(9.41772e+008 -2.17669e+007 7.32725e-013)
(9.81419e+008 -1.73363e+007 7.75036e-013)
(1.01111e+009 -1.10386e+007 8.14491e-013)
(1.02962e+009 -5.15077e+006 8.43234e-013)
(1.0366e+009 939247 8.63001e-013)
(1.03132e+009 7.83066e+006 8.65919e-013)
(1.01333e+009 1.47748e+007 8.55666e-013)
(9.83283e+008 2.10407e+007 8.33257e-013)
(9.4256e+008 2.63949e+007 8.01579e-013)
(8.93043e+008 3.05603e+007 7.62255e-013)
(8.37104e+008 3.34487e+007 7.15906e-013)
(7.77405e+008 3.50202e+007 6.64648e-013)
(7.16613e+008 3.53554e+007 6.11121e-013)
(6.57046e+008 3.47218e+007 5.578e-013)
(6.00401e+008 3.33869e+007 5.06375e-013)
(5.47763e+008 3.15648e+007 4.57931e-013)
(4.99677e+008 2.94625e+007 4.13151e-013)
(4.56257e+008 2.72236e+007 3.72369e-013)
(4.1737e+008 2.49208e+007 3.35673e-013)
(3.82722e+008 2.26506e+007 3.02869e-013)
(3.51917e+008 2.05334e+007 2.73398e-013)
(3.24483e+008 1.85944e+007 2.46793e-013)
(2.99975e+008 1.68368e+007 2.22693e-013)
(2.77987e+008 1.52685e+007 2.00736e-013)
(2.58139e+008 1.38921e+007 1.80575e-013)
(2.40085e+008 1.27054e+007 1.61892e-013)
(2.23515e+008 1.17006e+007 1.4439e-013)
(2.08154e+008 1.08648e+007 1.27798e-013)
(1.93762e+008 1.0184e+007 1.11869e-013)
(1.80132e+008 9.64065e+006 9.6366e-014)
(1.67097e+008 9.21505e+006 8.10645e-014)
(1.54518e+008 8.8909e+006 6.57612e-014)
(1.42291e+008 8.64861e+006 5.02362e-014)
(1.30344e+008 8.46887e+006 3.42689e-014)
(1.18627e+008 8.34487e+006 1.76404e-014)
(1.07107e+008 8.26059e+006 2.70612e-017)
(9.57706e+007 8.20657e+006 -1.89599e-014)
(8.45907e+007 8.20496e+006 -3.98197e-014)
(7.35429e+007 8.2408e+006 -6.35479e-014)
(6.26102e+007 8.35476e+006 -9.15567e-014)
(5.16295e+007 8.63787e+006 -1.2632e-013)
(4.06381e+007 9.18298e+006 -1.75227e-013)
(3.02965e+007 1.03238e+007 -2.53534e-013)
(1.5912e+007 9.4369e+006 -4.0732e-013)
(7.52467e+006 5.58425e+006 -8.25238e-013)
(5.68705e+006 5.74266e+006 -6.75448e-013)
(-1.16552e+007 1.04641e+007 -2.98996e-013)
(-3.10721e+007 1.14518e+007 -1.52981e-013)
(-4.91023e+007 1.12426e+007 -6.96972e-014)
(-6.66668e+007 1.07996e+007 -1.16125e-014)
(-8.35785e+007 1.02492e+007 3.38673e-014)
(-9.97537e+007 9.65956e+006 7.19227e-014)
(-1.15136e+008 9.06266e+006 1.05018e-013)
(-1.29686e+008 8.46846e+006 1.34463e-013)
(-1.43373e+008 7.87869e+006 1.6102e-013)
(-1.56171e+008 7.28934e+006 1.85146e-013)
(-1.68041e+008 6.69437e+006 2.07091e-013)
(-1.78932e+008 6.08656e+006 2.26941e-013)
(-1.88779e+008 5.45743e+006 2.44714e-013)
(-1.97517e+008 4.80043e+006 2.60501e-013)
(-2.05093e+008 4.11651e+006 2.74408e-013)
(-2.11444e+008 3.40992e+006 2.8629e-013)
(-2.16516e+008 2.67223e+006 2.96305e-013)
(-2.20219e+008 1.8897e+006 3.04411e-013)
(-2.22502e+008 1.07935e+006 3.10264e-013)
(-2.23379e+008 304272 3.14079e-013)
(-2.2288e+008 -449404 3.14277e-013)
(-2.21012e+008 -1.2075e+006 3.12313e-013)
(-2.17795e+008 -1.92301e+006 3.08894e-013)
(-2.13321e+008 -2.59007e+006 3.04358e-013)
(-2.07691e+008 -3.2091e+006 2.98245e-013)
(-2.01015e+008 -3.76325e+006 2.90999e-013)
(-1.93424e+008 -4.24263e+006 2.82751e-013)
(-1.8508e+008 -4.63401e+006 2.73701e-013)
(-1.76153e+008 -4.93143e+006 2.64156e-013)
(-1.6682e+008 -5.13032e+006 2.54392e-013)
(-1.57267e+008 -5.22406e+006 2.44739e-013)
(-1.47695e+008 -5.2137e+006 2.3554e-013)
(-1.38292e+008 -5.10432e+006 2.26976e-013)
(-1.29233e+008 -4.88999e+006 2.19184e-013)
(-1.20779e+008 -4.56396e+006 2.12808e-013)
(-1.13227e+008 -4.18124e+006 2.08434e-013)
(-1.0618e+008 -3.82676e+006 2.0309e-013)
(-9.88098e+007 -3.3739e+006 1.94014e-013)
(-9.52407e+007 -2.81011e+006 2.02037e-013)
(-1.04479e+008 -1.22879e+006 2.50305e-013)
(-7.38893e+007 -417921 1.42168e-013)
(-4.00054e+006 9.27733e+006 6.75058e-013)
(-1.09449e+007 1.02618e+007 0)
(-1.74347e+007 9.86375e+006 0)
(-2.40722e+007 9.66376e+006 0)
(-3.07221e+007 9.65236e+006 0)
(-3.74325e+007 9.77581e+006 0)
(-4.42968e+007 1.00311e+007 -1.30208e-013)
(-5.13981e+007 1.04145e+007 0)
(-5.8836e+007 1.09213e+007 0)
(-6.66924e+007 1.15443e+007 -5.50914e-014)
(-7.50481e+007 1.22719e+007 0)
(-8.3966e+007 1.30892e+007 0)
(-9.34988e+007 1.39771e+007 6.60829e-015)
(-1.03679e+008 1.49133e+007 0)
(-1.14523e+008 1.58728e+007 4.54389e-014)
(-1.26024e+008 1.68287e+007 6.47336e-014)
(-1.38159e+008 1.77552e+007 8.40902e-014)
(-1.5088e+008 1.86261e+007 1.03608e-013)
(-1.64143e+008 1.94111e+007 1.23456e-013)
(-1.77872e+008 2.00893e+007 1.43613e-013)
(-1.91964e+008 2.06237e+007 1.64014e-013)
(-2.06296e+008 2.09815e+007 1.84614e-013)
(-2.20704e+008 2.11311e+007 0)
(-2.35032e+008 2.10468e+007 2.26026e-013)
(-2.4912e+008 2.07162e+007 2.46512e-013)
(-2.62793e+008 2.01327e+007 2.66514e-013)
(-2.75884e+008 1.92971e+007 2.85877e-013)
(-2.88236e+008 1.82186e+007 3.04428e-013)
(-2.99697e+008 1.69116e+007 3.21947e-013)
(-3.10131e+008 1.53957e+007 3.38212e-013)
(-3.19419e+008 1.37013e+007 0)
(-3.27467e+008 1.18784e+007 3.67235e-013)
(-3.34212e+008 9.96262e+006 3.7965e-013)
(-3.3962e+008 7.97726e+006 3.90464e-013)
(-3.43676e+008 5.94949e+006 3.99673e-013)
(-3.46371e+008 3.89768e+006 4.07327e-013)
(-3.47689e+008 1.83393e+006 4.13218e-013)
(-3.47678e+008 -158453 4.16554e-013)
(-3.46416e+008 -2.13933e+006 4.14539e-013)
(-3.43819e+008 -4.09581e+006 0)
(-3.39949e+008 -5.97063e+006 4.05706e-013)
(-3.34907e+008 -7.72131e+006 3.98997e-013)
(-3.28707e+008 -9.35211e+006 3.90816e-013)
(-3.21519e+008 -1.08181e+007 3.81229e-013)
(-3.13389e+008 -1.21102e+007 3.70666e-013)
(-3.04507e+008 -1.3191e+007 3.60321e-013)
(-2.94969e+008 -1.40697e+007 3.49007e-013)
(-2.84985e+008 -1.47504e+007 0)
(-2.74652e+008 -1.52335e+007 3.22521e-013)
(-2.64114e+008 -1.55246e+007 3.07831e-013)
(-2.53541e+008 -1.56315e+007 2.92446e-013)
(-2.43026e+008 -1.55658e+007 2.76627e-013)
(-2.32693e+008 -1.53458e+007 2.60557e-013)
(-2.22637e+008 -1.49925e+007 2.44386e-013)
(-2.12943e+008 -1.45264e+007 2.28243e-013)
(-2.03676e+008 -1.39681e+007 2.12249e-013)
(-1.94885e+008 -1.33393e+007 0)
(-1.86609e+008 -1.26557e+007 1.81114e-013)
(-1.78866e+008 -1.19314e+007 1.66148e-013)
(-1.71666e+008 -1.1178e+007 1.51685e-013)
(-1.65009e+008 -1.04054e+007 1.37799e-013)
(-1.58889e+008 -9.62177e+006 1.24563e-013)
(-1.53295e+008 -8.83402e+006 1.12051e-013)
(-1.48208e+008 -8.04976e+006 1.00303e-013)
(-1.4361e+008 -7.28009e+006 0)
(-1.39473e+008 -6.53689e+006 7.9241e-014)
(-1.35779e+008 -5.82551e+006 7.00533e-014)
(-1.32508e+008 -5.15519e+006 6.16813e-014)
(-1.29627e+008 -4.53546e+006 5.40575e-014)
(-1.27082e+008 -3.97142e+006 4.70856e-014)
(-1.24825e+008 -3.47185e+006 4.07033e-014)
(-1.22837e+008 -3.04825e+006 3.49263e-014)
(-1.21112e+008 -2.70828e+006 2.97577e-014)
(-1.19607e+008 -2.45086e+006 2.50845e-014)
(-1.18218e+008 -2.28157e+006 2.07348e-014)
(-1.16803e+008 -2.24381e+006 1.65613e-014)
(-1.15264e+008 -2.42709e+006 1.23909e-014)
(-1.13629e+008 -2.88962e+006 7.97974e-015)
(-1.11878e+008 -3.60839e+006 3.13074e-015)
(-1.09691e+008 -4.60592e+006 -2.57421e-015)
(-1.06452e+008 -6.07993e+006 -9.86925e-015)
(-1.01617e+008 -8.38092e+006 0)
(-9.50375e+007 -1.17109e+007 -3.45666e-014)
(-8.6697e+007 -1.57522e+007 -5.61878e-014)
(-7.59543e+007 -1.98399e+007 -8.76077e-014)
(-6.15896e+007 -2.34434e+007 -1.33634e-013)
(-4.34792e+007 -2.69169e+007 -1.97465e-013)
(-2.36686e+007 -3.05582e+007 -2.83857e-013)
(-2.9601e+006 -3.43106e+007 -3.55512e-013)
(1.91509e+007 -3.76231e+007 -2.97098e-013)
(4.21738e+007 -4.02679e+007 0)
(6.52795e+007 -4.17621e+007 -1.49142e-013)
(8.87226e+007 -4.20484e+007 -1.02854e-013)
(1.12708e+008 -4.18484e+007 -6.31416e-014)
(1.37167e+008 -4.17343e+007 -2.72273e-014)
(1.62017e+008 -4.19186e+007 6.28627e-015)
(1.8728e+008 -4.24964e+007 3.82527e-014)
(2.13101e+008 -4.35373e+007 6.92863e-014)
(2.39731e+008 -4.50987e+007 9.99086e-014)
(2.67496e+008 -4.72383e+007 1.30597e-013)
(2.96785e+008 -5.00069e+007 1.61812e-013)
(3.28031e+008 -5.34385e+007 1.94015e-013)
(3.61705e+008 -5.75349e+007 2.27673e-013)
(3.98291e+008 -6.22476e+007 2.63254e-013)
(4.38234e+008 -6.74788e+007 3.01202e-013)
(4.81942e+008 -7.3043e+007 3.41946e-013)
(5.29616e+008 -7.86437e+007 3.85883e-013)
(5.81217e+008 -8.38389e+007 4.33189e-013)
(6.36656e+008 -8.80292e+007 4.83801e-013)
(6.94385e+008 -9.05428e+007 5.37696e-013)
(7.5413e+008 -9.05857e+007 5.92727e-013)
(8.14121e+008 -8.76004e+007 6.47532e-013)
(8.68793e+008 -8.1626e+007 7.01481e-013)
(9.22184e+008 -7.09853e+007 7.501e-013)
(9.66431e+008 -5.75162e+007 7.93638e-013)
(9.98065e+008 -4.16518e+007 8.37195e-013)
(1.02621e+009 -2.28503e+007 8.72381e-013)
(1.03755e+009 -3.33979e+006 8.99352e-013)
(1.03448e+009 1.66099e+007 8.92881e-013)
(1.02437e+009 3.62494e+007 8.68599e-013)
(1.00004e+009 5.47672e+007 8.33191e-013)
(9.63349e+008 7.08406e+007 7.91738e-013)
(9.15969e+008 8.33079e+007 7.44818e-013)
(8.59973e+008 9.14998e+007 6.91417e-013)
(7.98239e+008 9.52514e+007 6.34474e-013)
(7.33745e+008 9.48461e+007 5.7717e-013)
(6.68877e+008 9.10123e+007 5.2224e-013)
(6.06954e+008 8.49041e+007 4.71098e-013)
(5.49453e+008 7.75586e+007 4.24097e-013)
(4.97273e+008 6.98024e+007 3.81501e-013)
(4.50728e+008 6.22394e+007 3.43597e-013)
(4.09553e+008 5.52049e+007 3.10188e-013)
(3.73273e+008 4.8815e+007 2.80708e-013)
(3.41364e+008 4.31483e+007 2.54338e-013)
(3.1336e+008 3.82545e+007 2.30581e-013)
(2.88697e+008 3.40968e+007 2.09009e-013)
(2.66852e+008 3.06034e+007 1.89281e-013)
(2.47353e+008 2.76996e+007 1.71092e-013)
(2.29783e+008 2.53148e+007 1.54164e-013)
(2.13778e+008 2.33834e+007 1.3824e-013)
(1.99028e+008 2.18432e+007 1.23079e-013)
(1.85252e+008 2.06361e+007 1.08476e-013)
(1.72225e+008 1.97057e+007 9.42245e-014)
(1.59761e+008 1.89953e+007 8.01333e-014)
(1.47685e+008 1.84543e+007 6.60557e-014)
(1.35901e+008 1.80323e+007 5.18042e-014)
(1.24335e+008 1.76825e+007 3.72071e-014)
(1.12891e+008 1.73795e+007 2.21546e-014)
(1.01612e+008 1.70975e+007 6.38338e-015)
(9.04949e+007 1.68244e+007 -1.03742e-014)
(7.94077e+007 1.65951e+007 -2.82915e-014)
(6.85417e+007 1.63975e+007 -4.81491e-014)
(5.78775e+007 1.62573e+007 -7.07937e-014)
(4.68392e+007 1.63566e+007 -9.66001e-014)
(3.64291e+007 1.6811e+007 -1.2887e-013)
(2.66134e+007 1.73736e+007 -1.72841e-013)
(1.48912e+007 1.646e+007 -2.45155e-013)
(6.72605e+006 1.53025e+007 -3.20384e-013)
(-6.94426e+006 2.16351e+007 -2.18758e-013)
(-2.69013e+007 2.56301e+007 -1.198e-013)
(-4.47222e+007 2.64312e+007 -6.40095e-014)
(-6.2191e+007 2.65139e+007 -2.18313e-014)
(-7.90503e+007 2.60354e+007 1.39285e-014)
(-9.5206e+007 2.52556e+007 4.57957e-014)
(-1.1061e+008 2.43037e+007 7.49803e-014)
(-1.25227e+008 2.32171e+007 1.02117e-013)
(-1.39051e+008 2.2035e+007 1.275e-013)
(-1.52063e+008 2.07666e+007 1.5128e-013)
(-1.6424e+008 1.941e+007 1.73526e-013)
(-1.75538e+008 1.79564e+007 1.94243e-013)
(-1.85891e+008 1.63944e+007 2.13334e-013)
(-1.95223e+008 1.47152e+007 2.30583e-013)
(-2.03467e+008 1.29174e+007 2.45695e-013)
(-2.10572e+008 1.10083e+007 2.584e-013)
(-2.16482e+008 8.99349e+006 2.69159e-013)
(-2.21121e+008 6.8697e+006 2.79381e-013)
(-2.24367e+008 4.63664e+006 2.88829e-013)
(-2.26102e+008 2.35342e+006 2.96336e-013)
(-2.26735e+008 126874 3.01861e-013)
(-2.2584e+008 -2.06125e+006 3.00834e-013)
(-2.23575e+008 -4.3247e+006 2.97849e-013)
(-2.19928e+008 -6.45229e+006 2.94677e-013)
(-2.14943e+008 -8.43622e+006 2.91828e-013)
(-2.08747e+008 -1.02257e+007 2.87682e-013)
(-2.01476e+008 -1.18119e+007 2.81645e-013)
(-1.93291e+008 -1.31604e+007 2.7394e-013)
(-1.84355e+008 -1.42417e+007 2.65118e-013)
(-1.74858e+008 -1.50339e+007 2.55664e-013)
(-1.64987e+008 -1.55303e+007 2.45889e-013)
(-1.55009e+008 -1.57192e+007 2.36033e-013)
(-1.45111e+008 -1.55759e+007 2.26501e-013)
(-1.35478e+008 -1.51078e+007 2.17531e-013)
(-1.26286e+008 -1.43244e+007 2.09067e-013)
(-1.17844e+008 -1.32189e+007 2.0197e-013)
(-1.10407e+008 -1.18623e+007 1.97684e-013)
(-1.03381e+008 -1.04339e+007 1.92059e-013)
(-9.64953e+007 -8.89545e+006 1.79962e-013)
(-9.41196e+007 -7.43786e+006 1.84727e-013)
(-1.0322e+008 -4.68193e+006 2.32323e-013)
(-7.32145e+007 -1.15028e+006 1.34244e-013)
(-4.11534e+006 1.67895e+007 -9.28708e-013)
(-9.86272e+006 1.7672e+007 0)
(-1.5938e+007 1.73127e+007 0)
(-2.20126e+007 1.71897e+007 0)
(-2.81382e+007 1.72262e+007 0)
(-3.43705e+007 1.74926e+007 0)
(-4.08053e+007 1.79902e+007 2.38218e-013)
(-4.75254e+007 1.87244e+007 0)
(-5.46294e+007 1.9682e+007 0)
(-6.21945e+007 2.08441e+007 1.02387e-013)
(-7.02973e+007 2.21838e+007 0)
(-7.89932e+007 2.36686e+007 0)
(-8.83266e+007 2.52599e+007 -1.09906e-014)
(-9.83186e+007 2.69135e+007 0)
(-1.08974e+008 2.85825e+007 -8.19845e-014)
(-1.2027e+008 3.02158e+007 -1.17186e-013)
(-1.32167e+008 3.17687e+007 -1.52514e-013)
(-1.44624e+008 3.32017e+007 -1.88438e-013)
(-1.57616e+008 3.44861e+007 -2.255e-013)
(-1.71048e+008 3.55562e+007 -2.63568e-013)
(-1.84791e+008 3.63333e+007 -3.02366e-013)
(-1.98735e+008 3.67642e+007 -3.4174e-013)
(-2.12706e+008 3.68087e+007 0)
(-2.26578e+008 3.64405e+007 -4.2123e-013)
(-2.4019e+008 3.56436e+007 -4.60535e-013)
(-2.53384e+008 3.44148e+007 -4.98856e-013)
(-2.66003e+008 3.27673e+007 -5.35641e-013)
(-2.77896e+008 3.07221e+007 -5.70272e-013)
(-2.88929e+008 2.83113e+007 -1.83076e-012)
(-2.98981e+008 2.55773e+007 -6.30916e-013)
(-3.0796e+008 2.25733e+007 0)
(-3.15791e+008 1.93681e+007 -6.86425e-013)
(-3.22393e+008 1.60417e+007 -7.1237e-013)
(-3.27715e+008 1.26323e+007 -7.35412e-013)
(-3.31738e+008 9.17457e+006 -2.29555e-012)
(-3.34459e+008 5.70833e+006 -7.7238e-013)
(-3.35852e+008 2.25979e+006 -7.85868e-013)
(-3.35885e+008 -1.13385e+006 -7.92895e-013)
(-3.34635e+008 -4.44941e+006 -7.86426e-013)
(-3.32102e+008 -7.73441e+006 0)
(-3.28312e+008 -1.08797e+007 -2.32585e-012)
(-3.23317e+008 -1.38443e+007 -7.50315e-013)
(-3.17148e+008 -1.66029e+007 -7.33257e-013)
(-3.09933e+008 -1.90973e+007 -7.14036e-013)
(-3.0173e+008 -2.13047e+007 -6.93536e-013)
(-2.92676e+008 -2.31627e+007 -6.744e-013)
(-2.82907e+008 -2.46347e+007 -1.99121e-012)
(-2.72599e+008 -2.57472e+007 0)
(-2.61888e+008 -2.65064e+007 -6.1205e-013)
(-2.50913e+008 -2.69155e+007 -5.87427e-013)
(-2.39802e+008 -2.69988e+007 -5.61514e-013)
(-2.28709e+008 -2.67798e+007 -5.34777e-013)
(-2.17738e+008 -2.62839e+007 -5.07558e-013)
(-2.07003e+008 -2.55501e+007 -4.80103e-013)
(-1.96602e+008 -2.46161e+007 -4.52602e-013)
(-1.86621e+008 -2.35202e+007 -4.25204e-013)
(-1.7714e+008 -2.22972e+007 0)
(-1.68228e+008 -2.09785e+007 -3.71108e-013)
(-1.59932e+008 -1.95992e+007 -3.44556e-013)
(-1.5229e+008 -1.81899e+007 -3.18418e-013)
(-1.4532e+008 -1.67785e+007 -2.92783e-013)
(-1.39033e+008 -1.53872e+007 -2.67786e-013)
(-1.33421e+008 -1.40304e+007 -2.43591e-013)
(-1.28451e+008 -1.27207e+007 -2.20326e-013)
(-1.2407e+008 -1.14739e+007 0)
(-1.20228e+008 -1.03019e+007 -1.77018e-013)
(-1.16881e+008 -9.21054e+006 -1.57339e-013)
(-1.13989e+008 -8.19719e+006 -1.39119e-013)
(-1.11497e+008 -7.26094e+006 -1.22343e-013)
(-1.0934e+008 -6.40783e+006 -1.06826e-013)
(-1.07462e+008 -5.65377e+006 -9.24351e-014)
(-1.05836e+008 -5.01765e+006 -7.92389e-014)
(-1.04443e+008 -4.51074e+006 -6.73393e-014)
(-1.03236e+008 -4.13539e+006 -5.6518e-014)
(-1.02153e+008 -3.90095e+006 -4.61643e-014)
(-1.01135e+008 -3.8517e+006 -3.55783e-014)
(-1.00178e+008 -4.12303e+006 -2.44047e-014)
(-9.91623e+007 -4.84695e+006 -1.27791e-014)
(-9.80408e+007 -6.08777e+006 -5.65019e-016)
(-9.6636e+007 -7.90048e+006 1.39719e-014)
(-9.46399e+007 -1.04946e+007 3.35666e-014)
(-9.16736e+007 -1.42156e+007 0)
(-8.72925e+007 -1.93528e+007 9.41804e-014)
(-8.09914e+007 -2.56823e+007 -5.8009e-014)
(-7.20084e+007 -3.24582e+007 -1.0276e-013)
(-5.91173e+007 -3.9213e+007 2.66454e-013)
(-4.24962e+007 -4.5576e+007 3.67715e-013)
(-2.40349e+007 -5.14666e+007 4.85633e-013)
(-4.91399e+006 -5.67215e+007 5.78446e-013)
(1.50568e+007 -6.09963e+007 5.18451e-013)
(3.58406e+007 -6.3954e+007 -6.73785e-013)
(5.69688e+007 -6.57246e+007 3.002e-013)
(7.84899e+007 -6.66124e+007 2.20275e-013)
(1.00432e+008 -6.7041e+007 1.47301e-013)
(1.22746e+008 -6.73968e+007 7.81916e-014)
(1.45408e+008 -6.79808e+007 1.17799e-014)
(1.68509e+008 -6.90166e+007 1.07914e-013)
(1.9224e+008 -7.07044e+007 -1.15679e-013)
(2.16876e+008 -7.32223e+007 -1.77859e-013)
(2.42767e+008 -7.67137e+007 -2.39738e-013)
(2.70323e+008 -8.1293e+007 -3.01888e-013)
(3.00011e+008 -8.7042e+007 -3.64933e-013)
(3.32343e+008 -9.4e+007 4.64462e-013)
(3.67842e+008 -1.02129e+008 -4.96466e-013)
(4.07001e+008 -1.11287e+008 -5.66479e-013)
(4.50231e+008 -1.21166e+008 -6.40425e-013)
(4.97712e+008 -1.31262e+008 -7.1923e-013)
(5.49363e+008 -1.40777e+008 -8.03563e-013)
(6.04862e+008 -1.48657e+008 -8.93907e-013)
(6.62651e+008 -1.53879e+008 1.09097e-012)
(7.21353e+008 -1.54763e+008 -1.09274e-012)
(7.79315e+008 -1.49947e+008 -1.19769e-012)
(8.32471e+008 -1.39633e+008 -1.30447e-012)
(8.80773e+008 -1.22628e+008 -1.40563e-012)
(9.21781e+008 -9.97207e+007 -1.49993e-012)
(9.53077e+008 -7.35335e+007 1.78865e-012)
(9.74859e+008 -4.33458e+007 -1.6852e-012)
(9.86558e+008 -1.1552e+007 -1.75709e-012)
(9.8814e+008 2.08289e+007 -1.74203e-012)
(9.78494e+008 5.3622e+007 -1.67481e-012)
(9.57554e+008 8.57134e+007 -1.58739e-012)
(9.2581e+008 1.14919e+008 1.68324e-012)
(8.83977e+008 1.39082e+008 -1.39e-012)
(8.33302e+008 1.56542e+008 -1.27886e-012)
(7.75866e+008 1.66516e+008 -1.16563e-012)
(7.14436e+008 1.69035e+008 -1.05651e-012)
(6.51378e+008 1.64811e+008 -9.56083e-013)
(5.8941e+008 1.55413e+008 9.40548e-013)
(5.31197e+008 1.42935e+008 -7.84672e-013)
(4.77969e+008 1.29139e+008 -7.11936e-013)
(4.30227e+008 1.15351e+008 -6.4669e-013)
(3.8811e+008 1.02382e+008 -5.88643e-013)
(3.51267e+008 9.05777e+007 -5.37602e-013)
(3.19088e+008 8.00528e+007 5.05015e-013)
(2.91032e+008 7.08527e+007 -4.49568e-013)
(2.66538e+008 6.29456e+007 -4.10574e-013)
(2.45074e+008 5.62467e+007 -3.74113e-013)
(2.26151e+008 5.06455e+007 -3.39702e-013)
(2.09321e+008 4.60241e+007 -3.06937e-013)
(1.94194e+008 4.22694e+007 2.84761e-013)
(1.80428e+008 3.92735e+007 -2.44934e-013)
(1.67708e+008 3.69322e+007 -2.15114e-013)
(1.55784e+008 3.51479e+007 -1.85737e-013)
(1.44434e+008 3.38222e+007 -1.56573e-013)
(1.33442e+008 3.28566e+007 -1.27448e-013)
(1.2269e+008 3.21579e+007 -9.81146e-014)
(1.12074e+008 3.16358e+007 8.92677e-014)
(1.01467e+008 3.1217e+007 -3.78686e-014)
(9.09175e+007 3.08477e+007 -6.27459e-015)
(8.04341e+007 3.04977e+007 2.69753e-014)
(6.98688e+007 3.01911e+007 6.23435e-014)
(5.94714e+007 2.99285e+007 1.01145e-013)
(4.9298e+007 2.97092e+007 -1.06752e-013)
(3.87036e+007 2.97645e+007 1.94373e-013)
(2.83764e+007 3.02486e+007 2.54119e-013)
(1.91397e+007 2.99027e+007 3.32427e-013)
(9.84575e+006 2.82378e+007 4.54091e-013)
(-3.47844e+006 3.35466e+007 3.91183e-013)
(-2.33545e+007 4.27742e+007 -1.82145e-013)
(-4.10711e+007 4.58731e+007 1.73129e-013)
(-5.75756e+007 4.65225e+007 1.10257e-013)
(-7.33426e+007 4.58966e+007 5.18394e-014)
(-8.84197e+007 4.45516e+007 -4.46184e-015)
(-1.02874e+008 4.28216e+007 -5.90963e-014)
(-1.16741e+008 4.08786e+007 1.62141e-013)
(-1.30042e+008 3.88272e+007 -1.62911e-013)
(-1.42753e+008 3.66851e+007 -2.11587e-013)
(-1.54832e+008 3.44451e+007 -2.57782e-013)
(-1.66233e+008 3.20922e+007 -3.01278e-013)
(-1.76899e+008 2.96083e+007 -3.418e-013)
(-1.86764e+008 2.69688e+007 4.16771e-013)
(-1.95737e+008 2.41465e+007 -4.11959e-013)
(-2.03722e+008 2.11245e+007 -4.40083e-013)
(-2.10643e+008 1.7919e+007 -4.63723e-013)
(-2.1649e+008 1.45631e+007 -4.86294e-013)
(-2.21223e+008 1.10697e+007 -5.09043e-013)
(-2.24732e+008 7.43863e+006 -5.2922e-013)
(-2.26959e+008 3.70485e+006 5.86471e-013)
(-2.27819e+008 -83622.7 -5.57336e-013)
(-2.27146e+008 -3.84477e+006 -5.51808e-013)
(-2.2531e+008 -7.60913e+006 -5.42613e-013)
(-2.22094e+008 -1.12122e+007 -5.30956e-013)
(-2.17621e+008 -1.46118e+007 -5.18613e-013)
(-2.11913e+008 -1.77136e+007 5.44622e-013)
(-2.05e+008 -2.04638e+007 -4.96659e-013)
(-1.97041e+008 -2.27815e+007 -4.83362e-013)
(-1.88153e+008 -2.46384e+007 -4.68442e-013)
(-1.78529e+008 -2.59684e+007 -4.5241e-013)
(-1.6834e+008 -2.67222e+007 -4.36212e-013)
(-1.5778e+008 -2.68976e+007 4.3848e-013)
(-1.47218e+008 -2.65198e+007 -4.06212e-013)
(-1.36868e+008 -2.5613e+007 -3.93619e-013)
(-1.26994e+008 -2.41934e+007 -3.8282e-013)
(-1.17927e+008 -2.22498e+007 -3.75144e-013)
(-1.10018e+008 -1.98199e+007 -3.72613e-013)
(-1.02655e+008 -1.70683e+007 3.5205e-013)
(-9.53271e+007 -1.42137e+007 -3.54171e-013)
(-9.26003e+007 -1.18776e+007 -3.70485e-013)
(-1.0139e+008 -7.62724e+006 -4.70963e-013)
(-7.19103e+007 -1.86395e+006 -2.80131e-013)
(-3.9146e+006 2.36496e+007 1.36806e-012)
(-8.73981e+006 2.32732e+007 0)
(-1.44522e+007 2.2773e+007 0)
(-1.98689e+007 2.26844e+007 0)
(-2.54516e+007 2.2791e+007 0)
(-3.11283e+007 2.32259e+007 0)
(-3.70584e+007 2.39729e+007 -4.15202e-013)
(-4.32931e+007 2.50478e+007 0)
(-4.99363e+007 2.64266e+007 0)
(-5.70483e+007 2.80828e+007 -1.75486e-013)
(-6.4695e+007 2.99783e+007 0)
(-7.29178e+007 3.20664e+007 0)
(-8.17496e+007 3.42912e+007 3.27449e-014)
(-9.1198e+007 3.65889e+007 0)
(-1.01262e+008 3.88922e+007 1.6626e-013)
(-1.11906e+008 4.11257e+007 2.33234e-013)
(-1.23084e+008 4.32416e+007 3.01535e-013)
(-1.3482e+008 4.523e+007 3.7285e-013)
(-1.47071e+008 4.70063e+007 4.47205e-013)
(-1.59723e+008 4.84453e+007 5.24005e-013)
(-1.72685e+008 4.94772e+007 6.0289e-013)
(-1.85853e+008 5.00413e+007 6.83477e-013)
(-1.99104e+008 5.00911e+007 0)
(-2.12304e+008 4.9595e+007 8.47157e-013)
(-2.25316e+008 4.85251e+007 9.28331e-013)
(-2.37984e+008 4.68753e+007 1.00752e-012)
(-2.50154e+008 4.46584e+007 1.08339e-012)
(-2.61671e+008 4.19043e+007 1.15456e-012)
(-2.72401e+008 3.86633e+007 2.40957e-012)
(-2.82225e+008 3.50013e+007 1.2778e-012)
(-2.91034e+008 3.09857e+007 0)
(-2.98768e+008 2.66903e+007 1.3861e-012)
(-3.05371e+008 2.21858e+007 1.44104e-012)
(-3.10774e+008 1.75374e+007 1.49188e-012)
(-3.14942e+008 1.27991e+007 3.03549e-012)
(-3.1786e+008 8.02513e+006 1.57546e-012)
(-3.19511e+008 3.26777e+006 1.60783e-012)
(-3.19858e+008 -1.4488e+006 1.62476e-012)
(-3.18931e+008 -6.06837e+006 1.60683e-012)
(-3.1675e+008 -1.0621e+007 0)
(-3.13336e+008 -1.50178e+007 3.06771e-012)
(-3.08719e+008 -1.91929e+007 1.51977e-012)
(-3.02936e+008 -2.30961e+007 1.48081e-012)
(-2.96079e+008 -2.66513e+007 1.4375e-012)
(-2.88212e+008 -2.98139e+007 1.39027e-012)
(-2.7948e+008 -3.25116e+007 1.34246e-012)
(-2.70004e+008 -3.46927e+007 2.56784e-012)
(-2.59896e+008 -3.63641e+007 0)
(-2.49354e+008 -3.75444e+007 1.2098e-012)
(-2.3849e+008 -3.82406e+007 1.15957e-012)
(-2.2743e+008 -3.84766e+007 1.1069e-012)
(-2.16322e+008 -3.82847e+007 1.05288e-012)
(-2.0526e+008 -3.77024e+007 9.98476e-013)
(-1.94341e+008 -3.67712e+007 9.443e-013)
(-1.83644e+008 -3.55334e+007 8.90828e-013)
(-1.73246e+008 -3.40309e+007 8.38419e-013)
(-1.63211e+008 -3.23089e+007 0)
(-1.53588e+008 -3.04169e+007 7.37709e-013)
(-1.44429e+008 -2.83966e+007 6.8955e-013)
(-1.3578e+008 -2.6291e+007 6.42801e-013)
(-1.27683e+008 -2.41423e+007 5.97398e-013)
(-1.20175e+008 -2.19915e+007 5.53287e-013)
(-1.13298e+008 -1.98689e+007 5.10386e-013)
(-1.07069e+008 -1.78116e+007 4.68617e-013)
(-1.01495e+008 -1.5847e+007 0)
(-9.65728e+007 -1.4e+007 3.88466e-013)
(-9.22868e+007 -1.22914e+007 3.50396e-013)
(-8.86094e+007 -1.07325e+007 3.13997e-013)
(-8.54928e+007 -9.32547e+006 2.79444e-013)
(-8.28731e+007 -8.07326e+006 2.46782e-013)
(-8.06931e+007 -6.98467e+006 2.16133e-013)
(-7.89152e+007 -6.0672e+006 1.87809e-013)
(-7.74974e+007 -5.32589e+006 1.62e-013)
(-7.63662e+007 -4.77386e+006 1.38375e-013)
(-7.5442e+007 -4.43387e+006 1.16205e-013)
(-7.47212e+007 -4.32528e+006 9.5113e-014)
(-7.42625e+007 -4.48112e+006 7.53575e-014)
(-7.39761e+007 -5.08844e+006 5.69441e-014)
(-7.39277e+007 -6.35848e+006 3.91266e-014)
(-7.40214e+007 -8.48442e+006 1.97072e-014)
(-7.40965e+007 -1.17881e+007 -2.38789e-015)
(-7.38984e+007 -1.65876e+007 0)
(-7.28811e+007 -2.31839e+007 -6.18385e-014)
(-7.0152e+007 -3.17866e+007 9.02693e-014)
(-6.44767e+007 -4.19109e+007 1.0431e-013)
(-5.5245e+007 -5.2239e+007 -2.79801e-013)
(-4.18298e+007 -6.18092e+007 -4.02437e-013)
(-2.57671e+007 -6.98897e+007 -5.32789e-013)
(-8.79473e+006 -7.64082e+007 -6.50237e-013)
(8.80321e+006 -8.14101e+007 -6.20843e-013)
(2.71917e+007 -8.48512e+007 6.0765e-013)
(4.59696e+007 -8.6945e+007 -3.56572e-013)
(6.51255e+007 -8.8112e+007 -2.37225e-013)
(8.46321e+007 -8.88028e+007 -1.20074e-013)
(1.04466e+008 -8.94379e+007 -3.87108e-015)
(1.24655e+008 -9.04026e+007 1.11622e-013)
(1.45319e+008 -9.20257e+007 6.73421e-014)
(1.66676e+008 -9.45885e+007 3.40931e-013)
(1.89018e+008 -9.83276e+007 4.55461e-013)
(2.1268e+008 -1.03451e+008 5.70858e-013)
(2.38051e+008 -1.10142e+008 6.88105e-013)
(2.65595e+008 -1.18538e+008 8.08674e-013)
(2.95826e+008 -1.28709e+008 4.64289e-014)
(3.29241e+008 -1.4059e+008 1.06781e-012)