# vtk DataFile Version 2.0
track0
ASCII
DATASET POLYDATA
POINTS 11930 float
-0.0205 0.001 1e-005
-0.0203851 0.00100536 1.50242e-005
-0.0202701 0.00101047 1.96639e-005
-0.0201551 0.00101535 2.39718e-005
-0.0200401 0.00102 2.79432e-005
-0.0198624 0.00102682 3.35514e-005
-0.0196933 0.00103276 3.80982e-005
-0.0195242 0.00103809 4.16133e-005
-0.0193551 0.00104281 4.41059e-005
-0.019186 0.00104692 4.55851e-005
-0.0190172 0.00105042 4.60595e-005
-0.0187132 0.00105593 4.60595e-005
-0.0184093 0.00106079 4.60595e-005
-0.0181054 0.00106513 4.60595e-005
-0.0178014 0.00106895 4.60595e-005
-0.0174976 0.00107224 4.60595e-005
-0.0172058 0.00107511 4.60595e-005
-0.016914 0.0010779 4.60595e-005
-0.0166222 0.00108062 4.60595e-005
-0.0163305 0.00108328 4.60595e-005
-0.0160387 0.00108587 4.60595e-005
-0.0157586 0.00108826 4.60595e-005
-0.0154784 0.00109057 4.60595e-005
-0.0151983 0.00109281 4.60595e-005
-0.0149182 0.00109497 4.60595e-005
-0.0146381 0.00109704 4.60595e-005
-0.0143692 0.00109891 4.60595e-005
-0.0141002 0.00110069 4.60595e-005
-0.0138313 0.00110238 4.60595e-005
-0.0135624 0.00110401 4.60595e-005
-0.0132934 0.00110555 4.60595e-005
-0.0130353 0.00110696 4.60595e-005
-0.0127771 0.00110832 4.60595e-005
-0.0125189 0.00110963 4.60595e-005
-0.0122607 0.00111091 4.60595e-005
-0.0120025 0.00111215 4.60595e-005
-0.0117547 0.00111331 4.60595e-005
-0.0115068 0.00111444 4.60595e-005
-0.0112589 0.00111556 4.60595e-005
-0.0110111 0.00111666 4.60595e-005
-0.0107632 0.00111774 4.60595e-005
-0.0105252 0.00111875 4.60595e-005
-0.0102873 0.00111976 4.60595e-005
-0.0100493 0.00112075 4.60595e-005
-0.00981133 0.00112173 4.60595e-005
-0.00957337 0.00112269 4.60595e-005
-0.00934491 0.00112361 4.60595e-005
-0.00911645 0.00112451 4.60595e-005
-0.00888799 0.0011254 4.60595e-005
-0.00865954 0.00112628 4.60595e-005
-0.00843108 0.00112715 4.60595e-005
-0.00821175 0.00112799 4.60595e-005
-0.00799242 0.00112881 4.60595e-005
-0.00777309 0.00112962 4.60595e-005
-0.00755376 0.00113043 4.60595e-005
-0.00733443 0.00113124 4.60595e-005
-0.00712387 0.001132 4.60595e-005
-0.0069133 0.00113276 4.60595e-005
-0.00670273 0.00113352 4.60595e-005
-0.00649216 0.00113428 4.60595e-005
-0.0062816 0.00113503 4.60595e-005
-0.00607944 0.00113575 4.60595e-005
-0.00587729 0.00113646 4.60595e-005
-0.00567514 0.00113718 4.60595e-005
-0.00547298 0.00113789 4.60595e-005
-0.00527083 0.0011386 4.60595e-005
-0.00507675 0.00113928 4.60595e-005
-0.00488267 0.00113996 4.60595e-005
-0.0046886 0.00114064 4.60595e-005
-0.00449452 0.00114131 4.60595e-005
-0.00430044 0.00114199 4.60595e-005
-0.00411412 0.00114264 4.60595e-005
-0.0039278 0.00114329 4.60595e-005
-0.00374147 0.00114393 4.60595e-005
-0.00355515 0.00114458 4.60595e-005
-0.00336883 0.00114523 4.60595e-005
-0.00318995 0.00114586 4.60595e-005
-0.00301107 0.00114648 4.60595e-005
-0.00283219 0.0011471 4.60595e-005
-0.00265331 0.00114772 4.60595e-005
-0.00247443 0.00114835 4.60595e-005
-0.0023027 0.00114896 4.60595e-005
-0.00213097 0.00114956 4.60595e-005
-0.00195924 0.00115016 4.60595e-005
-0.0017875 0.00115076 4.60595e-005
-0.00161577 0.00115137 4.60595e-005
-0.0014509 0.00115196 4.60595e-005
-0.00128603 0.00115255 4.60595e-005
-0.00112116 0.00115313 4.60595e-005
-0.000956289 0.00115372 4.60595e-005
-0.000791418 0.00115432 4.60595e-005
-0.000633135 0.0011549 4.60595e-005
-0.000474851 0.00115548 4.60595e-005
-0.000316567 0.00115606 4.60595e-005
-0.000158284 0.00115665 4.60595e-005
0 0.00115724 4.60595e-005
0.000105677 0.00115765 4.60595e-005
0.000211355 0.00115805 4.60595e-005
0.000317032 0.00115845 4.60595e-005
0.00042271 0.00115885 4.60595e-005
0.000528387 0.00115926 4.60595e-005
0.000634886 0.00115968 4.60595e-005
0.000741385 0.0011601 4.60595e-005
0.000847885 0.00116052 4.60595e-005
0.000954384 0.00116095 4.60595e-005
0.00106088 0.00116138 4.60595e-005
0.00116821 0.00116183 4.60595e-005
0.00127554 0.00116228 4.60595e-005
0.00138286 0.00116272 4.60595e-005
0.00149019 0.00116317 4.60595e-005
0.00159752 0.00116363 4.60595e-005
0.00170568 0.0011641 4.60595e-005
0.00181384 0.00116457 4.60595e-005
0.001922 0.00116504 4.60595e-005
0.00203016 0.00116551 4.60595e-005
0.00213833 0.00116599 4.60595e-005
0.00224733 0.00116647 4.60595e-005
0.00235633 0.00116696 4.60595e-005
0.00246533 0.00116745 4.60595e-005
0.00257434 0.00116794 4.60595e-005
0.00268334 0.00116843 4.60595e-005
0.00279319 0.00116892 4.60595e-005
0.00290304 0.00116943 4.60595e-005
0.00301289 0.00116993 4.60595e-005
0.00312274 0.00117044 4.60595e-005
0.00323259 0.00117094 4.60595e-005
0.00334329 0.00117144 4.60595e-005
0.003454 0.00117195 4.60595e-005
0.0035647 0.00117247 4.60595e-005
0.0036754 0.00117299 4.60595e-005
0.00378611 0.00117351 4.60595e-005
0.00389767 0.00117401 4.60595e-005
0.00400924 0.00117454 4.60595e-005
0.0041208 0.00117506 4.60595e-005
0.00423237 0.00117559 4.60595e-005
0.00434393 0.00117612 4.60595e-005
0.00445636 0.00117662 4.60595e-005
0.00456879 0.00117716 4.60595e-005
0.00468123 0.00117769 4.60595e-005
0.00479366 0.00117822 4.60595e-005
0.00490609 0.00117875 4.60595e-005
0.0050194 0.00117926 4.60595e-005
0.0051327 0.0011798 4.60595e-005
0.00524601 0.00118034 4.60595e-005
0.00535931 0.00118087 4.60595e-005
0.00547262 0.00118141 4.60595e-005
0.00558681 0.00118192 4.60595e-005
0.005701 0.00118246 4.60595e-005
0.00581518 0.001183 4.60595e-005
0.00592937 0.00118353 4.60595e-005
0.00604356 0.00118407 4.60595e-005
0.00615863 0.00118459 4.60595e-005
0.00627371 0.00118512 4.60595e-005
0.00638878 0.00118566 4.60595e-005
0.00650386 0.0011862 4.60595e-005
0.00661893 0.00118673 4.60595e-005
0.0067349 0.00118725 4.60595e-005
0.00685087 0.00118779 4.60595e-005
0.00696684 0.00118832 4.60595e-005
0.00708281 0.00118886 4.60595e-005
0.00719878 0.00118939 4.60595e-005
0.00731565 0.00118991 4.60595e-005
0.00743252 0.00119044 4.60595e-005
0.00754939 0.00119097 4.60595e-005
0.00766626 0.0011915 4.60595e-005
0.00778313 0.00119203 4.60595e-005
0.00790091 0.00119254 4.60595e-005
0.00801869 0.00119307 4.60595e-005
0.00813647 0.0011936 4.60595e-005
0.00825425 0.00119412 4.60595e-005
0.00837203 0.00119464 4.60595e-005
0.00849073 0.00119516 4.60595e-005
0.00860942 0.00119568 4.60595e-005
0.00872812 0.0011962 4.60595e-005
0.00884682 0.00119672 4.60595e-005
0.00896551 0.00119723 4.60595e-005
0.00908513 0.00119774 4.60595e-005
0.00920475 0.00119826 4.60595e-005
0.00932437 0.00119877 4.60595e-005
0.00944398 0.00119928 4.60595e-005
0.0095636 0.00119979 4.60595e-005
0.00968415 0.0012003 4.60595e-005
0.0098047 0.00120081 4.60595e-005
0.00992525 0.00120132 4.60595e-005
0.0100458 0.00120182 4.60595e-005
0.0101663 0.00120232 4.60595e-005
0.0102878 0.00120282 4.60595e-005
0.0104093 0.00120332 4.60595e-005
0.0105308 0.00120382 4.60595e-005
0.0106523 0.00120432 4.60595e-005
0.0107738 0.00120481 4.60595e-005
0.0108962 0.0012053 4.60595e-005
0.0110186 0.00120579 4.60595e-005
0.0111411 0.00120628 4.60595e-005
0.0112635 0.00120677 4.60595e-005
0.0113859 0.00120725 4.60595e-005
0.0115093 0.00120773 4.60595e-005
0.0116327 0.00120822 4.60595e-005
0.0117561 0.00120869 4.60595e-005
0.0118795 0.00120917 4.60595e-005
0.0120028 0.00120964 4.60595e-005
0.0121272 0.00121011 4.60595e-005
0.0122515 0.00121058 4.60595e-005
0.0123759 0.00121105 4.60595e-005
0.0125002 0.00121152 4.60595e-005
0.0126245 0.00121198 4.60595e-005
0.0127498 0.00121243 4.60595e-005
0.0128752 0.00121289 4.60595e-005
0.0130005 0.00121335 4.60595e-005
0.0131258 0.0012138 4.60595e-005
0.0132511 0.00121425 4.60595e-005
0.0133774 0.00121469 4.60595e-005
0.0135036 0.00121514 4.60595e-005
0.0136299 0.00121558 4.60595e-005
0.0137562 0.00121601 4.60595e-005
0.0138825 0.00121645 4.60595e-005
0.0140098 0.00121687 4.60595e-005
0.014137 0.0012173 4.60595e-005
0.0142643 0.00121773 4.60595e-005
0.0143915 0.00121815 4.60595e-005
0.0145188 0.00121856 4.60595e-005
0.0146471 0.00121897 4.60595e-005
0.0147753 0.00121938 4.60595e-005
0.0149036 0.00121979 4.60595e-005
0.0150318 0.00122019 4.60595e-005
0.0151601 0.00122058 4.60595e-005
0.0152893 0.00122097 4.60595e-005
0.0154186 0.00122136 4.60595e-005
0.0155478 0.00122175 4.60595e-005
0.0156771 0.00122213 4.60595e-005
0.0158063 0.0012225 4.60595e-005
0.0159366 0.00122287 4.60595e-005
0.0160668 0.00122324 4.60595e-005
0.0161971 0.0012236 4.60595e-005
0.0163274 0.00122395 4.60595e-005
0.0164576 0.0012243 4.60595e-005
0.0165889 0.00122465 4.60595e-005
0.0167201 0.00122499 4.60595e-005
0.0168514 0.00122532 4.60595e-005
0.0169827 0.00122565 4.60595e-005
0.0171139 0.00122598 4.60595e-005
0.0171826 0.00122614 4.60595e-005
0.0172512 0.0012263 4.60595e-005
0.0173199 0.00122647 4.60595e-005
0.0173885 0.00122663 4.60595e-005
0.0174556 0.00122678 4.60595e-005
0.0175195 0.00122693 4.60595e-005
0.0175835 0.00122707 4.60595e-005
0.0176475 0.00122721 4.60595e-005
0.0177114 0.00122735 4.60595e-005
0.0177754 0.00122749 4.60595e-005
0.0179087 0.00122778 4.60595e-005
0.018042 0.00122806 4.60595e-005
0.0181753 0.00122833 4.60595e-005
0.0183087 0.0012286 4.60595e-005
0.018442 0.00122886 4.60595e-005
0.0185763 0.00122911 4.60595e-005
0.0187107 0.00122935 4.60595e-005
0.018845 0.00122958 4.60595e-005
0.0189794 0.00122981 4.60595e-005
0.0191137 0.00123003 4.60595e-005
0.0192491 0.00123024 4.60595e-005
0.0193845 0.00123044 4.60595e-005
0.0195199 0.00123064 4.60595e-005
0.0196553 0.00123083 4.60595e-005
0.0197907 0.001231 4.60595e-005
0.0199272 0.00123117 4.60595e-005
0.0200636 0.00123133 4.60595e-005
0.0202001 0.00123148 4.60595e-005
0.0203365 0.00123162 4.60595e-005
0.020473 0.00123175 4.60595e-005
0.0206105 0.00123187 4.60595e-005
0.020748 0.00123199 4.60595e-005
0.0208855 0.00123209 4.60595e-005
0.021023 0.00123218 4.60595e-005
0.0211606 0.00123226 4.60595e-005
0.0212991 0.00123234 4.60595e-005
0.0214377 0.0012324 4.60595e-005
0.0215763 0.00123245 4.60595e-005
0.0217149 0.00123249 4.60595e-005
0.0218535 0.00123252 4.60595e-005
0.0219931 0.00123254 4.60595e-005
0.0221328 0.00123255 4.60595e-005
0.0222724 0.00123254 4.60595e-005
0.0224121 0.00123253 4.60595e-005
0.0225517 0.0012325 4.60595e-005
0.0226925 0.00123247 4.60595e-005
[...]
POINT_DATA 11930
 FIELD attributes 2
p 1 11930 float
-1547.58 -1535 -1521.22 -1507.58 -1494.09 -1473.49 -1458.85 -1444.13 -1429.34 -1414.47 -1393.73 -1345.65 -1297.64 -1249.69 -1201.81 -1159.36 -1127.72 -1102.25 -1076.8 -1051.36 -1034.54 -1022.75 -1013.26 -1003.76 -994.274 -986.656 -979.88 -971.966 -964.052 -956.137 -947.105 -938.667 -930.024 -921.376 -912.745 -904.319 -896.357 -889.166 -882.065 -875.113 -869.058 -863.284 -858.087 -853.01 -848.087 -843.749 -839.592 -835.659 -831.796 -828.021 -824.49 -821.087 -817.812 -814.59 -811.441 -808.448 -805.543 -802.764 -800.051 -797.421 -794.936 -792.506 -790.188 -787.944 -785.787 -783.755 -781.749 -779.829 -777.973 -776.196 -774.512 -772.832 -771.215 -769.657 -768.171 -766.756 -765.322 -763.936 -762.603 -761.338 -760.131 -758.883 -757.679 -756.529 -755.452 -754.43 -753.344 -752.286 -751.271 -750.33 -749.437 -748.462 -747.537 -746.698 -745.977 -745.32 -744.597 -743.934 -743.377 -742.951 -742.605 -742.103 -741.639 -741.228 -740.904 -740.647 -740.224 -739.901 -739.692 -739.593 -739.603 -739.441 -739.362 -739.356 -739.411 -739.542 -739.64 -739.725 -739.801 -739.868 -739.92 -740.189 -740.355 -740.462 -740.509 -740.442 -740.83 -741.047 -741.185 -741.24 -741.088 -741.556 -741.797 -741.96 -742.037 -741.832 -742.323 -742.545 -742.697 -742.777 -742.528 -742.979 -743.146 -743.263 -743.33 -743.064 -743.44 -743.562 -743.656 -743.725 -743.493 -743.796 -743.895 -743.983 -744.065 -743.899 -744.131 -744.209 -744.287 -744.365 -744.269 -744.425 -744.485 -744.545 -744.606 -744.568 -744.662 -744.712 -744.761 -744.811 -744.823 -744.883 -744.934 -744.985 -745.037 -745.088 -745.137 -745.193 -745.249 -745.306 -745.382 -745.432 -745.493 -745.554 -745.615 -745.7 -745.762 -745.828 -745.894 -745.961 -746.047 -746.128 -746.202 -746.276 -746.35 -746.431 -746.536 -746.619 -746.703 -746.787 -746.864 -746.992 -747.088 -747.184 -747.28 -747.356 -747.508 -747.619 -747.729 -747.84 -747.92 -748.091 -748.215 -748.339 -748.463 -748.55 -748.733 -748.867 -749.002 -749.137 -749.233 -749.423 -749.569 -749.715 -749.861 -749.973 -750.166 -750.324 -750.481 -750.638 -750.769 -750.966 -751.137 -751.308 -751.479 -751.634 -751.837 -752.026 -752.215 -752.403 -752.586 -752.697 -752.804 -752.911 -753.017 -753.122 -753.221 -753.32 -753.419 -753.519 -753.636 -753.84 -754.059 -754.279 -754.499 -754.77 -754.958 -755.19 -755.422 -755.655 -755.968 -756.144 -756.389 -756.633 -756.878 -757.226 -757.399 -757.657 -757.915 -758.172 -758.549 -758.728 -758.999 -759.271 -759.543 -759.938 -760.13 -760.415 -760.701 -760.986 -761.392 -761.606 -761.906 -762.205 -762.505 -762.912 -763.157 -763.47 -763.783 -764.096 -764.496 -764.776 -765.102 -765.429 -765.756 -766.142 -766.461 -766.803 -767.144 -767.486 -767.855 -768.218 -768.574 -768.93 -769.286 -769.635 -770.038 -770.406 -770.775 -771.142 -771.472 -771.908 -772.292 -772.672 -773.042 -773.358 -773.815 -774.218 -774.608 -774.98 -775.291 -775.768 -776.191 -776.592 -776.961 -777.271 -777.764 -778.208 -778.618 -778.983 -779.293 -779.798 -780.26 -780.677 -781.033 -781.344 -781.851 -782.328 -782.747 -783.093 -783.405 -783.91 -784.395 -784.816 -785.156 -785.476 -785.975 -786.466 -786.89 -787.231 -787.564 -788.059 -788.554 -788.976 -789.316 -789.656 -790.133 -790.61 -791.028 -791.382 -791.736 -792.197 -792.658 -793.077 -793.451 -793.826 -794.28 -794.734 -795.153 -795.536 -795.92 -796.364 -796.808 -797.22 -797.601 -797.982 -798.403 -798.825 -799.231 -799.623 -800.014 -800.422 -800.83 -801.238 -801.646 -802.053 -802.458 -802.864 -803.27 -803.672 -804.074 -804.459 -804.845 -805.244 -805.652 -806.062 -806.443 -806.828 -807.224 -807.624 -808.027 -808.396 -808.77 -809.156 -809.549 -809.945 -810.294 -810.657 -811.035 -811.423 -811.824 -812.168 -812.528 -812.897 -813.27 -813.655 -813.978 -814.328 -814.684 -815.043 -815.423 -815.741 -816.085 -816.43 -816.775 -817.14 -817.454 -817.783 -818.111 -818.44 -818.778 -819.074 -819.375 -819.677 -819.979 -820.28 -820.547 -820.815 -821.083 -821.351 -821.618 -821.851 -822.086 -822.322 -822.558 -822.793 -822.991 -823.188 -823.386 -823.583 -823.779 -823.851 -823.922 -823.994 -824.065 -824.134 -824.215 -824.296 -824.377 -824.458 -824.536 -824.639 -824.74 -824.841 -824.941 -825.033 -825.088 -825.138 -825.188 -825.237 -825.274 -825.282 -825.284 -825.285 -825.286 -825.268 -825.228 -825.181 -825.134 -825.088 -825.022 -824.937 -824.855 -824.773 -824.691 -824.597 -824.482 -824.368 -824.254 -824.135 -824.004 -823.849 -823.697 -823.546 -823.39 -823.227 -823.038 -822.851 -822.666 -822.477 -822.285 -822.065 -821.845 -821.625 -821.401 -821.176 -820.925 -820.675 -820.416 -820.154 -819.892 -819.608 -819.324 -819.028 -818.724 -818.42 -818.099 -817.777 -817.443 -817.094 -816.745 -816.382 -816.019 -815.645 -815.25 -814.856 -814.45 -814.044 -813.626 -813.186 -812.744 -812.293 -811.839 -811.372 -810.889 -810.396 -809.896 -809.387 -808.868 -808.339 -807.791 -807.239 -806.67 -806.095 -805.517 -804.91 -804.301 -803.665 -803.029 -802.394 -801.73 -801.051 -800.351 -799.65 -798.949 -798.23 -797.475 -796.704 -795.934 -795.164 -794.386 -793.792 -793.192 -792.591 -791.99 -791.418 -791.17 -790.923 -790.675 -790.428 -790.176 -789.264 -788.347 -787.43 -786.514 -785.579 -784.602 -783.603 -782.605 -781.607 -780.571 -779.529 -778.444 -777.36 -776.276 -775.135 -774.019 -772.851 -771.677 -770.487 -769.251 -768.043 -766.805 -765.539 -764.234 -762.903 -761.601 -760.289 -758.928 -757.504 -756.075 -754.676 -753.277 -751.814 -750.285 -748.756 -747.258 -745.759 -744.196 -742.566 -740.936 -739.336 -737.736 -736.068 -734.336 -732.604 -730.901 -729.175 -727.399 -725.59 -723.753 -721.947 -720.09 -718.209 -716.322 -714.381 -712.466 -710.48 -708.495 -706.51 -704.485 -702.436 -700.345 -698.255 -696.165 -694.063 -693.138 -692.199 -691.261 -690.323 -689.413 -688.158 -686.904 -685.65 -684.396 -683.124 -680.855 -678.57 -676.286 -674.003 -671.671 -669.326 -666.94 -664.554 -662.157 -659.702 -657.263 -654.797 -652.311 -649.782 -647.228 -644.689 -642.15 -639.559 -636.907 -634.256 -631.618 -628.982 -626.289 -623.543 -620.796 -618.063 -615.324 -612.527 -609.699 -606.859 -604.032 -601.168 -598.279 -595.387 -592.457 -589.532 -586.554 -583.576 -580.599 -577.606 -575.74 -573.856 -571.971 -570.086 -568.271 -567.082 -565.892 -564.703 -563.513 -562.316 -559.181 -556.043 -552.904 -549.767 -546.6 -543.399 -540.182 -536.966 -533.739 -530.486 -527.209 -523.927 -520.636 -517.316 -513.99 -510.638 -507.288 -503.916 -500.52 -497.124 -493.702 -490.28 -486.828 -483.368 -479.905 -476.416 -472.909 -469.391 -465.874 -462.347 -458.788 -455.207 -451.627 -448.047 -444.465 -443.449 -442.428 -441.408 -440.387 -439.381 -436.76 -434.14 -431.52 -428.901 -426.267 -422.576 -418.881 -415.187 -411.492 -407.768 -404.024 -400.277 -396.528 -392.76 -388.981 -385.184 -381.387 -377.577 -373.748 -369.918 -366.069 -362.22 -358.346 -354.469 -350.59 -346.691 -342.777 -338.854 -334.931 -331.005 -327.051 -323.081 -319.112 -315.143 -311.173 -311.065 -310.956 -310.848 -310.739 -310.631 -306.726 -302.822 -298.918 -295.015 -291.093 -287.04 -282.984 -278.93 -274.866 -270.784 -266.689 -262.594 -258.497 -254.376 -250.254 -246.118 -241.983 -237.83 -233.67 -229.509 -225.334 -221.15 -216.952 -212.756 -208.557 -204.341 -200.107 -195.873 -191.64 -187.406 -186.95 -186.492 -186.034 -185.576 -185.121 -181.309 -177.497 -173.686 -169.875 -166.047 -161.745 -157.442 -153.14 -148.829 -144.502 -140.167 -135.832 -131.494 -127.137 -122.778 -118.411 -114.045 -109.659 -105.27 -100.88 -96.4814 -92.0696 -87.6523 -83.2355 -78.8176 -75.9702 -73.1149 -70.2599 -67.4051 -64.6311 -63.0274 -61.4237 -59.8201 -58.2165 -56.6073 -52.1403 -47.6736 -43.2074 -38.7401 -34.2526 -29.7614 -25.2708 -20.7809 -16.2746 -11.7644 -7.24991 -2.73598 1.78839 6.31558 10.8448 15.3788 19.9196 24.4659 29.0118 33.5575 36.7477 39.9443 43.1407 46.3368 49.4362 50.8214 52.2066 53.5917 54.9768 56.3655 60.9439 65.5208 70.0971 74.6742 79.2628 83.8535 88.4425 93.0281 97.6213 102.217 106.815 111.412 116.014 120.612 125.211 129.813 134.417 139.021 143.625 148.228 149.811 151.393 152.976 154.559 156.119 159.149 162.178 165.207 168.235 171.266 175.879 180.484 185.089 189.693 194.3 198.906 203.512 208.111 212.705 217.301 221.897 226.49 231.08 235.668 240.251 243.202 246.148 249.093 252.038 254.912 256.559 258.205 259.851 261.498 263.142 267.713 272.279 276.844 281.406 285.964 290.519 295.073 299.615 304.146 308.68 313.21 317.736 322.251 326.765 331.271 334.19 337.099 340.007 342.915 345.76 347.356 348.951 350.547 352.142 353.732 358.208 362.676 367.144 371.605 376.058 380.503 384.949 389.378 393.791 398.207 402.615 407.013 411.399 415.785 420.164 421.919 423.664 425.41 427.155 428.879 431.493 434.108 436.722 439.335 441.937 446.269 450.589 454.907 459.208 463.505 467.79 472.075 476.339 480.585 484.833 488.837 492.818 496.795 500.772 504.659 504.91 505.161 505.412 505.662 505.912 510.091 514.268 518.445 522.617 526.77 530.906 535.042 539.157 543.251 547.347 551.426 555.49 559.539 563.588 567.629 568.791 569.945 571.098 572.251 573.398 576.252 579.106 581.959 584.809 587.64 591.606 595.566 599.513 603.428 607.345 611.245 615.135 619 622.864 626.711 628.317 629.912 631.503 633.094 634.68 636.9 639.12 641.34 643.555 645.755 649.524 653.281 657.028 660.74 664.45 668.141 671.824 675.471 679.117 682.737 684.301 685.853 687.401 688.949 690.505 692.541 694.576 696.612 698.642 700.659 704.205 707.72 711.21 714.611 718.006 721.38 724.785 728.299 731.818 735.39 736.923 738.171 739.327 740.482 741.662 743.432 745.203 746.972 748.631 749.922 752.168 754.959 758.072 762.738 767.529 772.201 776.178 778.633 781.092 783.303 783.417 783.556 783.735 783.913 784.093 785.98 787.868 789.758 792.156 794.88 797.838 800.78 803.589 806.398 809.151 809.608 810.055 810.484 810.914 811.35 813.642 815.933 818.223 820.436 822.602 825.209 827.814 830.317 832.815 835.252 835.79 836.316 836.818 837.321 837.838 839.735 841.63 843.522 845.341 847.111 849.371 851.628 853.713 855.736 857.695 858.309 858.894 859.432 859.97 860.539 861.831 863.119 864.404 865.602 866.734 868.347 869.953 871.361 872.556 873.742 874.359 874.891 875.326 875.759 876.246 876.689 877.131 877.57 877.948 878.256 878.861 879.368 879.735 879.767 879.79 879.675 879.345 878.794 878.237 877.599 877.491 877.348 877.185 877.022 876.854 875.859 874.851 873.831 872.674 871.227 869.375 867.511 865.209 862.493 859.764 856.776 853.384 849.75 846.108 842.303 841.439 840.462 839.467 838.472 837.413 833.706 829.988 826.258 822.479 818.25 812.547 806.557 800.282 793.255 786.135 778.543 770.94 762.756 754.11 745.395 736.157 725.734 715.032 704.328 693.136 688.527 683.911 679.293 674.673 669.444 661.848 654.248 646.643 639.034 631.384 617.551 601.819 586.056 569.318 549.967 529.644 509.895 492.319 478.343 464.416 449.742 435.069 407.597 367.792 327.954 286.322 253.509 237.093 228.361 231.276 233.999 177.24 119.874 62.2135 0