/*--------------------------------*- C++ -*----------------------------------*\
| =========                 |                                                 |
| \\      /  F ield         | OpenFOAM: The Open Source CFD Toolbox           |
|  \\    /   O peration     | Version:  5.x                                   |
|   \\  /    A nd           | Web:      www.OpenFOAM.org                      |
|    \\/     M anipulation  |                                                 |
\*---------------------------------------------------------------------------*/
/*   Windows 32 and 64 bit porting by blueCAPE: http://www.bluecape.com.pt   *\
|  Based on Windows porting (2.0.x v4) by Symscape: http://www.symscape.com   |
\*---------------------------------------------------------------------------*/
FoamFile
{
    version     2.0;
    format      ascii;
    class       volScalarField;
    location    "0";
    object      yPlus;
}
// * * * * * * * * * * * * * * * * * * * * * * * * * * * * * * * * * * * * * //

dimensions      [0 0 0 0 0 0 0];

internalField   uniform 0;

boundaryField
{
    walls
    {
        type            calculated;
        value           nonuniform List<scalar> 
400
(
9.13099
9.13556
9.14012
9.14468
9.14925
9.15381
9.15838
9.16294
9.16751
9.17207
9.17664
9.1812
9.18576
9.19033
9.19489
9.19946
9.20402
9.20859
9.21315
9.21771
9.22228
9.22684
9.23141
9.23597
9.24054
9.2451
9.24966
9.25423
9.25879
9.26336
9.26792
9.27249
9.27705
9.28162
9.28618
9.29074
9.29531
9.29987
9.30444
9.309
9.31357
9.31813
9.32269
9.32726
9.33182
9.33639
9.34095
9.34552
9.35008
9.35465
9.35921
9.36377
9.36834
9.3729
9.37747
9.38203
9.3866
9.39116
9.39572
9.40029
9.40485
9.40942
9.41398
9.41855
9.42311
9.42767
9.43224
9.4368
9.44137
9.44593
9.4505
9.45506
9.45963
9.46419
9.46875
9.47332
9.47788
9.48245
9.48701
9.49158
9.49614
9.5007
9.50527
9.50983
9.5144
9.51896
9.52353
9.52809
9.53265
9.53722
9.54178
9.54635
9.55091
9.55548
9.56004
9.56461
9.56917
9.57373
9.5783
9.58286
9.58743
9.59199
9.59656
9.60112
9.60568
9.61025
9.61481
9.61938
9.62394
9.62851
9.63307
9.63764
9.6422
9.64676
9.65133
9.65589
9.66046
9.66502
9.66959
9.67415
9.67871
9.68328
9.68784
9.69241
9.69697
9.70154
9.7061
9.71066
9.71523
9.71979
9.72436
9.72892
9.73349
9.73805
9.74262
9.74718
9.75174
9.75631
9.76087
9.76544
9.77
9.77457
9.77913
9.78369
9.78826
9.79282
9.79739
9.80195
9.80652
9.81108
9.81564
9.82021
9.82477
9.82934
9.8339
9.83847
9.84303
9.8476
9.85216
9.85672
9.86129
9.86585
9.87042
9.87498
9.87955
9.88411
9.88867
9.89324
9.8978
9.90237
9.90693
9.9115
9.91606
9.92062
9.92519
9.92975
9.93432
9.93888
9.94345
9.94801
9.95258
9.95714
9.9617
9.96627
9.97083
9.9754
9.97996
9.98453
9.98909
9.99365
9.99822
10.0028
10.0073
10.0119
10.0165
10.021
10.0256
10.0302
10.0347
10.0393
9.13054
9.1351
9.13966
9.14423
9.14879
9.15336
9.15792
9.16248
9.16705
9.17161
9.17618
9.18074
9.1853
9.18987
9.19443
9.199
9.20356
9.20813
9.21269
9.21725
9.22182
9.22638
9.23095
9.23551
9.24007
9.24464
9.2492
9.25377
9.25833
9.26289
9.26746
9.27202
9.27659
9.28115
9.28572
9.29028
9.29484
9.29941
9.30397
9.30854
9.3131
9.31766
9.32223
9.32679
9.33136
9.33592
9.34048
9.34505
9.34961
9.35418
9.35874
9.36331
9.36787
9.37243
9.377
9.38156
9.38613
9.39069
9.39525
9.39982
9.40438
9.40895
9.41351
9.41808
9.42264
9.4272
9.43177
9.43633
9.4409
9.44546
9.45002
9.45459
9.45915
9.46372
9.46828
9.47284
9.47741
9.48197
9.48654
9.4911
9.49567
9.50023
9.50479
9.50936
9.51392
9.51849
9.52305
9.52761
9.53218
9.53674
9.54131
9.54587
9.55043
9.555
9.55956
9.56413
9.56869
9.57326
9.57782
9.58238
9.58695
9.59151
9.59608
9.60064
9.6052
9.60977
9.61433
9.6189
9.62346
9.62802
9.63259
9.63715
9.64172
9.64628
9.65085
9.65541
9.65997
9.66454
9.6691
9.67367
9.67823
9.68279
9.68736
9.69192
9.69649
9.70105
9.70562
9.71018
9.71474
9.71931
9.72387
9.72844
9.733
9.73756
9.74213
9.74669
9.75126
9.75582
9.76038
9.76495
9.76951
9.77408
9.77864
9.78321
9.78777
9.79233
9.7969
9.80146
9.80603
9.81059
9.81515
9.81972
9.82428
9.82885
9.83341
9.83797
9.84254
9.8471
9.85167
9.85623
9.8608
9.86536
9.86992
9.87449
9.87905
9.88362
9.88818
9.89274
9.89731
9.90187
9.90644
9.911
9.91556
9.92013
9.92469
9.92926
9.93382
9.93839
9.94295
9.94751
9.95208
9.95664
9.96121
9.96577
9.97033
9.9749
9.97946
9.98403
9.98859
9.99316
9.99772
10.0023
10.0068
10.0114
10.016
10.0205
10.0251
10.0297
10.0342
10.0388
)
;
    }
    inlet
    {
        type            calculated;
        value           uniform 0;
    }
    outlet
    {
        type            calculated;
        value           uniform 0;
    }
    frontAndBack
    {
        type            empty;
    }
}


// ************************************************************************* //
