# vtk DataFile Version 2.0
track0
ASCII
DATASET POLYDATA
POINTS 11980 float
-0.0205 0.001 1e-005
-0.0202034 0.00100022 1e-005
-0.0199069 0.00100067 1e-005
-0.0196103 0.00100132 1e-005
-0.0193137 0.00100219 1e-005
-0.0190172 0.00100326 1e-005
-0.0187132 0.00100466 1e-005
-0.0184093 0.00100588 1e-005
-0.0181054 0.0010071 1e-005
-0.0178015 0.00100832 1e-005
-0.0174976 0.00100953 1e-005
-0.0172058 0.00101083 1e-005
-0.016914 0.00101193 1e-005
-0.0166222 0.00101303 1e-005
-0.0163305 0.00101413 1e-005
-0.0160387 0.00101522 1e-005
-0.0157586 0.00101636 1e-005
-0.0154784 0.00101744 1e-005
-0.0151983 0.00101856 1e-005
-0.0149182 0.00101971 1e-005
-0.0146381 0.0010209 1e-005
-0.0143744 0.00102208 1e-005
-0.0141106 0.00102327 1e-005
-0.0138469 0.00102449 1e-005
-0.0135832 0.00102574 1e-005
-0.0133604 0.00102682 1e-005
-0.013347 0.00102688 1e-005
-0.0133336 0.00102695 1e-005
-0.0133202 0.00102702 1e-005
-0.0133068 0.00102708 1e-005
-0.0132934 0.00102715 1e-005
-0.0130353 0.00102844 1e-005
-0.0127771 0.00102974 1e-005
-0.0125189 0.00103106 1e-005
-0.0122607 0.00103239 1e-005
-0.0120025 0.00103374 1e-005
-0.0117547 0.00103505 1e-005
-0.0115068 0.00103636 1e-005
-0.0112589 0.00103768 1e-005
-0.0110111 0.00103901 1e-005
-0.0107632 0.00104034 1e-005
-0.0105252 0.00104161 1e-005
-0.0102873 0.00104289 1e-005
-0.0100493 0.00104417 1e-005
-0.00981133 0.00104544 1e-005
-0.00957337 0.00104672 1e-005
-0.00934491 0.00104794 1e-005
-0.00911645 0.00104916 1e-005
-0.00888799 0.00105038 1e-005
-0.00865954 0.00105159 1e-005
-0.00843108 0.00105281 1e-005
-0.00821175 0.00105396 1e-005
-0.00799242 0.00105512 1e-005
-0.00777309 0.00105627 1e-005
-0.00755376 0.00105742 1e-005
-0.00733443 0.00105856 1e-005
-0.00712387 0.00105965 1e-005
-0.0069133 0.00106074 1e-005
-0.00670273 0.00106182 1e-005
-0.00649216 0.0010629 1e-005
-0.0062816 0.00106398 1e-005
-0.00607944 0.001065 1e-005
-0.00587729 0.00106603 1e-005
-0.00567514 0.00106704 1e-005
-0.00547298 0.00106806 1e-005
-0.00527083 0.00106907 1e-005
-0.00507675 0.00107003 1e-005
-0.00488267 0.00107099 1e-005
-0.0046886 0.00107195 1e-005
-0.00449452 0.0010729 1e-005
-0.00430044 0.00107385 1e-005
-0.00411412 0.00107475 1e-005
-0.0039278 0.00107566 1e-005
-0.00374147 0.00107656 1e-005
-0.00355515 0.00107745 1e-005
-0.00336883 0.00107835 1e-005
-0.00318995 0.00107919 1e-005
-0.00301107 0.00108004 1e-005
-0.00283219 0.00108089 1e-005
-0.00265331 0.00108173 1e-005
-0.00247443 0.00108258 1e-005
-0.0023027 0.00108337 1e-005
-0.00213097 0.00108418 1e-005
-0.00195924 0.00108498 1e-005
-0.0017875 0.00108577 1e-005
-0.00161577 0.00108657 1e-005
-0.0014509 0.00108732 1e-005
-0.00128603 0.00108808 1e-005
-0.00112116 0.00108884 1e-005
-0.000956289 0.00108959 1e-005
-0.000791418 0.00109034 1e-005
-0.000633135 0.00109106 1e-005
-0.000474851 0.00109179 1e-005
-0.000316567 0.0010925 1e-005
-0.000158284 0.00109322 1e-005
0 0.00109393 1e-005
0.000105677 0.0010944 1e-005
0.000211355 0.00109487 1e-005
0.000317032 0.00109534 1e-005
0.00042271 0.00109581 1e-005
0.000528387 0.00109627 1e-005
0.000634886 0.00109672 1e-005
0.000741385 0.00109718 1e-005
0.000847885 0.00109763 1e-005
0.000954384 0.00109808 1e-005
0.00106088 0.00109853 1e-005
0.00116821 0.00109897 1e-005
0.00127554 0.00109941 1e-005
0.00138286 0.00109985 1e-005
0.00149019 0.00110028 1e-005
0.00159752 0.00110071 1e-005
0.00170568 0.00110113 1e-005
0.00181384 0.00110154 1e-005
0.001922 0.00110195 1e-005
0.00203016 0.00110235 1e-005
0.00213833 0.00110274 1e-005
0.00224733 0.00110312 1e-005
0.00235633 0.0011035 1e-005
0.00246533 0.00110387 1e-005
0.00257434 0.00110423 1e-005
0.00268334 0.00110458 1e-005
0.00279319 0.00110493 1e-005
0.00290304 0.00110527 1e-005
0.00301289 0.0011056 1e-005
0.00312274 0.00110592 1e-005
0.00323259 0.00110624 1e-005
0.00334329 0.00110654 1e-005
0.003454 0.00110685 1e-005
0.0035647 0.00110715 1e-005
0.0036754 0.00110743 1e-005
0.00378611 0.00110772 1e-005
0.00389767 0.00110799 1e-005
0.00400924 0.00110825 1e-005
0.0041208 0.00110851 1e-005
0.00423237 0.00110877 1e-005
0.00434393 0.00110901 1e-005
0.00445636 0.00110925 1e-005
0.00456879 0.00110948 1e-005
0.00468123 0.0011097 1e-005
0.00479366 0.00110992 1e-005
0.00490609 0.00111013 1e-005
0.0050194 0.00111032 1e-005
0.0051327 0.00111052 1e-005
0.00524601 0.00111071 1e-005
0.00535932 0.00111088 1e-005
0.00547262 0.00111106 1e-005
0.00558681 0.00111122 1e-005
0.005701 0.00111138 1e-005
0.00581518 0.00111153 1e-005
0.00592937 0.00111167 1e-005
0.00604356 0.0011118 1e-005
0.00615863 0.00111193 1e-005
0.00627371 0.00111205 1e-005
0.00638878 0.00111216 1e-005
0.00650386 0.00111227 1e-005
0.00661893 0.00111237 1e-005
0.0067349 0.00111246 1e-005
0.00685087 0.00111254 1e-005
0.00696684 0.00111262 1e-005
0.00708281 0.00111269 1e-005
0.00719878 0.00111275 1e-005
0.00726192 0.00111278 1e-005
0.00732505 0.00111281 1e-005
0.00738819 0.00111284 1e-005
0.00745133 0.00111286 1e-005
0.00751263 0.00111288 1e-005
0.00756673 0.00111289 1e-005
0.00762083 0.00111291 1e-005
0.00767493 0.00111292 1e-005
0.00772903 0.00111293 1e-005
0.00778313 0.00111294 1e-005
0.00790091 0.00111296 1e-005
0.00801869 0.00111297 1e-005
0.00813647 0.00111297 1e-005
0.00825425 0.00111296 1e-005
0.00837203 0.00111295 1e-005
0.00849073 0.00111292 1e-005
0.00860942 0.00111289 1e-005
0.00872812 0.00111286 1e-005
0.00884682 0.00111281 1e-005
0.00896551 0.00111276 1e-005
0.00908513 0.00111269 1e-005
0.00920475 0.00111262 1e-005
0.00932437 0.00111254 1e-005
0.00944398 0.00111246 1e-005
0.0095636 0.00111237 1e-005
0.00968415 0.00111226 1e-005
0.0098047 0.00111215 1e-005
0.00992525 0.00111203 1e-005
0.0100458 0.0011119 1e-005
0.0101663 0.00111177 1e-005
0.0102878 0.00111161 1e-005
0.0104093 0.00111146 1e-005
0.0105308 0.0011113 1e-005
0.0106523 0.00111114 1e-005
0.0107738 0.00111096 1e-005
0.0108962 0.00111076 1e-005
0.0110186 0.00111057 1e-005
0.0111411 0.00111037 1e-005
0.0112635 0.00111016 1e-005
0.0113859 0.00110994 1e-005
0.0115093 0.0011097 1e-005
0.0116327 0.00110946 1e-005
0.0117561 0.00110921 1e-005
0.0118795 0.00110896 1e-005
0.0120028 0.0011087 1e-005
0.0121272 0.00110841 1e-005
0.0122515 0.00110813 1e-005
0.0123759 0.00110784 1e-005
0.0125002 0.00110754 1e-005
0.0126245 0.00110723 1e-005
0.0127498 0.0011069 1e-005
0.0128752 0.00110657 1e-005
0.0130005 0.00110624 1e-005
0.0131258 0.00110589 1e-005
0.0132511 0.00110554 1e-005
0.0133774 0.00110516 1e-005
0.0135036 0.00110479 1e-005
0.0136299 0.00110441 1e-005
0.0137562 0.00110402 1e-005
0.0138825 0.00110362 1e-005
0.0140098 0.00110319 1e-005
0.014137 0.00110277 1e-005
0.0142643 0.00110234 1e-005
0.0143915 0.0011019 1e-005
0.0145188 0.00110146 1e-005
0.0146471 0.00110099 1e-005
0.0147753 0.00110052 1e-005
0.0149036 0.00110004 1e-005
0.0150318 0.00109955 1e-005
0.0151601 0.00109905 1e-005
0.0152893 0.00109854 1e-005
0.0154186 0.00109802 1e-005
0.0155478 0.00109749 1e-005
0.0156771 0.00109696 1e-005
0.0158063 0.00109641 1e-005
0.0159366 0.00109585 1e-005
0.0160668 0.00109528 1e-005
0.0161971 0.0010947 1e-005
0.0163274 0.00109412 1e-005
0.0164576 0.00109352 1e-005
0.0165889 0.00109291 1e-005
0.0167201 0.0010923 1e-005
0.0168514 0.00109167 1e-005
0.0169827 0.00109103 1e-005
0.0171139 0.00109039 1e-005
0.0172462 0.00108973 1e-005
0.0173785 0.00108907 1e-005
0.0175108 0.00108839 1e-005
0.0176431 0.0010877 1e-005
0.0177754 0.00108701 1e-005
0.0179087 0.00108631 1e-005
0.018042 0.00108559 1e-005
0.0181753 0.00108487 1e-005
0.0183087 0.00108413 1e-005
0.018442 0.00108339 1e-005
0.0185763 0.00108264 1e-005
0.0187107 0.00108187 1e-005
0.018845 0.00108109 1e-005
0.0189794 0.0010803 1e-005
0.0191137 0.00107951 1e-005
0.0192491 0.00107872 1e-005
0.0193845 0.00107791 1e-005
0.0195199 0.00107708 1e-005
0.0196553 0.00107623 1e-005
0.0197907 0.0010754 1e-005
0.0199272 0.00107455 1e-005
0.0200636 0.00107369 1e-005
0.0202001 0.00107281 1e-005
0.0203365 0.00107192 1e-005
0.020473 0.00107103 1e-005
0.0206105 0.00107014 1e-005
0.020748 0.00106923 1e-005
0.0208855 0.0010683 1e-005
0.021023 0.00106736 1e-005
0.0211606 0.00106642 1e-005
0.0212991 0.00106549 1e-005
0.0214377 0.00106453 1e-005
0.0215763 0.00106354 1e-005
0.0217149 0.00106255 1e-005
0.0218535 0.00106157 1e-005
0.0219931 0.00106058 1e-005
0.0221328 0.00105958 1e-005
0.0222724 0.00105854 1e-005
0.0224121 0.0010575 1e-005
0.0225517 0.00105647 1e-005
0.0226925 0.00105544 1e-005
0.0228332 0.00105438 1e-005
0.022974 0.00105329 1e-005
0.0231147 0.0010522 1e-005
0.0232555 0.00105112 1e-005
0.0233973 0.00105004 1e-005
0.0235391 0.00104893 1e-005
0.023681 0.0010478 1e-005
0.0238228 0.00104666 1e-005
0.0239647 0.00104552 1e-005
0.0241076 0.00104439 1e-005
0.0242505 0.00104324 1e-005
0.0243935 0.00104205 1e-005
0.0245364 0.00104086 1e-005
0.0246794 0.00103968 1e-005
0.0248234 0.0010385 1e-005
0.0249675 0.00103729 1e-005
0.0251115 0.00103605 1e-005
0.0252556 0.00103481 1e-005
0.0253996 0.00103358 1e-005
0.0255448 0.00103235 1e-005
0.02569 0.00103109 1e-005
0.0258351 0.0010298 1e-005
0.0259803 0.00102851 1e-005
0.0261255 0.00102723 1e-005
0.0262718 0.00102595 1e-005
0.0264181 0.00102464 1e-005
0.0265644 0.0010233 1e-005
0.0267107 0.00102196 1e-005
0.026857 0.00102063 1e-005
0.0270044 0.00101929 1e-005
0.0271519 0.00101793 1e-005
0.0272993 0.00101654 1e-005
0.0274468 0.00101515 1e-005
0.0275942 0.00101376 1e-005
0.0277428 0.00101237 1e-005
0.0278914 0.00101095 1e-005
0.0280399 0.00100952 1e-005
0.0281885 0.00100808 1e-005
0.0283371 0.00100663 1e-005
0.0284869 0.00100519 1e-005
0.0286366 0.00100371 1e-005
0.0287863 0.00100222 1e-005
0.0289361 0.00100073 1e-005
0.0290858 0.000999228 1e-005
0.0292367 0.000997726 1e-005
0.0293876 0.000996194 1e-005
0.0295385 0.000994651 1e-005
0.0296894 0.0009931 1e-005
0.0298403 0.000991542 1e-005
0.0299924 0.000989981 1e-005
0.0301445 0.00098839 1e-005
0.0302966 0.00098679 1e-005
0.0304486 0.000985182 1e-005
0.0306007 0.000983566 1e-005
0.030754 0.000981944 1e-005
0.0309072 0.000980295 1e-005
0.0310605 0.000978637 1e-005
0.0312138 0.00097697 1e-005
0.031367 0.000975294 1e-005
0.0315215 0.000973608 1e-005
[...]
POINT_DATA 11980
 FIELD attributes 1
U 3 11980 float
10.0004 	0.00731845 	0 10.0024 	0.015169 	0 10.0045 	0.0221881 	0 10.0065 	0.029163 	0 10.0085 	0.036094 	0 10.0135 	0.0463094 	0 10.0163 	0.0402081 	0 10.0207 	0.0401657 	0 10.0252 	0.0401234 	0 10.0296 	0.0400812 	0 10.0356 	0.0445406 	0 10.0385 	0.0378986 	0 10.0424 	0.0378531 	0 10.0464 	0.0378075 	0 10.0504 	0.0377619 	0 10.0545 	0.040862 	0 10.0567 	0.0387827 	0 10.0592 	0.0400908 	0 10.0616 	0.0414004 	0 10.0641 	0.0427117 	0 10.0662 	0.0451693 	0 10.0677 	0.0452795 	0 10.0691 	0.0464815 	0 10.0704 	0.0476846 	0 10.0718 	0.0488889 	0 10.0729 	0.049907 	0 10.073 	0.0499686 	0 10.073 	0.0500303 	0 10.0731 	0.0500919 	0 10.0732 	0.0501536 	0 10.0732 	0.0502059 	0 10.0738 	0.0508313 	0 10.0743 	0.0514508 	0 10.0748 	0.0520707 	0 10.0753 	0.0526912 	0 10.0758 	0.0531478 	0 10.0757 	0.053442 	0 10.0754 	0.0536309 	0 10.075 	0.0538198 	0 10.0747 	0.0540089 	0 10.0742 	0.0539596 	0 10.0737 	0.0541028 	0 10.0727 	0.0540777 	0 10.0716 	0.0540526 	0 10.0705 	0.0540274 	0 10.069 	0.0537331 	0 10.0686 	0.0538111 	0 10.067 	0.0536755 	0 10.0653 	0.0535398 	0 10.0637 	0.0534041 	0 10.0612 	0.0529819 	0 10.0612 	0.053033 	0 10.0592 	0.0528355 	0 10.0572 	0.052638 	0 10.0552 	0.0524404 	0 10.0516 	0.0519436 	0 10.0522 	0.0519925 	0 10.0499 	0.0517676 	0 10.0476 	0.0515427 	0 10.0453 	0.0513178 	0 10.0407 	0.0507854 	0 10.0422 	0.0508526 	0 10.0397 	0.0506211 	0 10.0372 	0.0503896 	0 10.0347 	0.050158 	0 10.029 	0.0496054 	0 10.0314 	0.0496961 	0 10.0288 	0.0494734 	0 10.0262 	0.0492506 	0 10.0235 	0.0490278 	0 10.0167 	0.0484762 	0 10.0203 	0.0485989 	0 10.0176 	0.0483852 	0 10.0149 	0.0481715 	0 10.0122 	0.0479577 	0 10.0041 	0.0473967 	0 10.009 	0.0475472 	0 10.0063 	0.0473748 	0 10.0036 	0.0472023 	0 10.0008 	0.0470298 	0 9.99162 	0.0465181 	0 9.99781 	0.0467231 	0 9.99514 	0.0465512 	0 9.99247 	0.0463793 	0 9.98979 	0.0462073 	0 9.97939 	0.0456443 	0 9.98694 	0.0458447 	0 9.98435 	0.0457833 	0 9.98175 	0.0457219 	0 9.97916 	0.0456605 	0 9.96758 	0.0452602 	0 9.97658 	0.0455121 	9.22903e-022 9.97457 	0.0453201 	5.95672e-021 9.97256 	0.045128 	1.09907e-020 9.97054 	0.0449359 	1.60249e-020 9.95847 	0.0442931 	1.36199e-020 9.96867 	0.044373 	9.34357e-020 9.96684 	0.0440395 	8.6708e-020 9.96501 	0.043706 	7.99764e-020 9.96317 	0.0433724 	7.3241e-020 9.95089 	0.0426785 	-1.48535e-020 9.96092 	0.0426365 	-4.02537e-020 9.95913 	0.0423469 	-4.47885e-020 9.95734 	0.0420572 	-4.93218e-020 9.95556 	0.0417674 	-5.38536e-020 9.94348 	0.0412019 	-2.12762e-020 9.95305 	0.0410065 	-1.87126e-020 9.95113 	0.0404571 	-1.3031e-020 9.94921 	0.0399076 	-7.34981e-021 9.94728 	0.0393581 	-1.66902e-021 9.93545 	0.0385836 	6.9558e-021 9.94461 	0.0382687 	-5.72949e-021 9.9425 	0.0374666 	-2.41946e-020 9.94039 	0.0366644 	-4.26618e-020 9.93827 	0.0358621 	-6.11309e-020 9.92655 	0.0347983 	-8.71267e-020 9.93513 	0.0345436 	-1.22709e-019 9.93268 	0.0337259 	-1.10433e-019 9.93022 	0.032908 	-9.81508e-020 9.92775 	0.0320898 	-8.58606e-020 9.91604 	0.0308931 	-2.97133e-020 9.92388 	0.0307617 	3.36046e-020 9.92104 	0.0300218 	4.69741e-020 9.91818 	0.0292817 	6.03343e-020 9.91533 	0.0285414 	7.36852e-020 9.9037 	0.0273205 	3.65283e-020 9.91071 	0.0272338 	-4.51881e-020 9.90748 	0.0265321 	-5.1196e-020 9.90425 	0.0258301 	-5.71897e-020 9.90101 	0.0251278 	-6.31693e-020 9.88957 	0.0239169 	-3.39304e-022 9.89562 	0.0237933 	5.88231e-020 9.892 	0.0230984 	4.94863e-020 9.88836 	0.0224032 	4.01353e-020 9.88472 	0.0217078 	3.07702e-020 9.87353 	0.0205432 	-2.85687e-020 9.87844 	0.0203543 	-8.22428e-020 9.87437 	0.0196661 	-1.04225e-019 9.87028 	0.0189776 	-1.26202e-019 9.86619 	0.0182889 	-1.48174e-019 9.85536 	0.0172039 	-1.3583e-019 9.8589 	0.0169447 	-1.5418e-019 9.85435 	0.0162677 	-1.41853e-019 9.84979 	0.0155905 	-1.29522e-019 9.84523 	0.0149131 	-1.17186e-019 9.83491 	0.0139247 	-8.31276e-020 9.83682 	0.0136023 	-6.97221e-020 9.83179 	0.0129424 	-5.14043e-020 9.82676 	0.0122823 	-3.30881e-020 9.82172 	0.0116219 	-1.47736e-020 9.81216 	0.0107346 	1.94442e-021 9.81214 	0.0103442 	0 9.80665 	0.00969744 	0 9.80116 	0.00905035 	0 9.79566 	0.00840298 	0 9.78714 	0.00761247 	0 9.78483 	0.00714007 	-1.66156e-020 9.77889 	0.00650021 	-3.53912e-020 9.77294 	0.00586004 	-5.41684e-020 9.76698 	0.00521956 	-7.29472e-020 9.75986 	0.00452562 	-9.22242e-020 9.7578 	0.00424738 	-9.52286e-020 9.75435 	0.00390537 	-9.56266e-020 9.7509 	0.00356326 	-9.60232e-020 9.74744 	0.00322105 	-9.64183e-020 9.74408 	0.0028887 	-9.68005e-020 9.74109 	0.0025937 	-9.76561e-020 9.73809 	0.00229862 	-9.85119e-020 9.73508 	0.00200346 	-9.93681e-020 9.73208 	0.00170824 	-1.00225e-019 9.72613 	0.00128127 	-1.00213e-019 9.72195 	0.000773281 	-7.53915e-020 9.71504 	0.000144373 	-4.6582e-020 9.70812 	-0.000484916 	-1.77817e-020 9.7012 	-0.00111459 	1.10093e-020 9.68493 	-0.00215281 	4.92558e-020 9.68619 	-0.00240454 	5.01168e-020 9.67886 	-0.00302654 	5.12515e-020 9.67151 	-0.00364894 	5.23841e-020 9.66415 	-0.00427176 	5.35145e-020 9.64121 	-0.00555289 	5.68324e-020 9.64779 	-0.00557835 	4.47591e-020 9.64004 	-0.00619363 	3.26831e-020 9.63228 	-0.00680936 	2.0606e-020 9.62452 	-0.00742554 	8.52777e-021 9.59523 	-0.00890646 	-1.10124e-021 9.60682 	-0.00874812 	-8.02212e-021 9.59869 	-0.00935713 	-1.95472e-020 9.59054 	-0.00996661 	-3.10711e-020 9.58239 	-0.0105766 	-4.25938e-020 9.54723 	-0.012206 	-5.41324e-020 9.56344 	-0.0119136 	-5.38082e-020 9.55494 	-0.0125184 	-6.11201e-020 9.54644 	-0.0131236 	-6.84289e-020 9.53792 	-0.0137294 	-7.57348e-020 9.49749 	-0.0154533 	-9.46815e-020 9.51782 	-0.0150776 	-1.50842e-019 9.50899 	-0.0156784 	-1.41445e-019 9.50014 	-0.0162798 	-1.3206e-019 9.49129 	-0.0168817 	-1.22688e-019 9.44626 	-0.0186406 	-4.13518e-020 9.47014 	-0.0182328 	-2.63246e-020 9.461 	-0.0188292 	-1.84325e-020 9.45184 	-0.0194262 	-1.05397e-020 9.44267 	-0.0200237 	-2.64611e-021 9.39377 	-0.0217598 	0 9.42061 	-0.0213679 	0 9.41118 	-0.0219608 	0 9.40174 	-0.0225544 	0 9.39228 	-0.0231485 	0 9.34026 	-0.0248117 	0 9.36946 	-0.024482 	1.52176e-021 9.35977 	-0.0250735 	8.86706e-021 9.35006 	-0.0256656 	1.62116e-020 9.34035 	-0.0262584 	2.35554e-020 9.28596 	-0.0278017 	4.15323e-020 9.31692 	-0.027583 	1.60984e-019 9.30699 	-0.0281736 	1.6389e-019 9.29705 	-0.028765 	1.66811e-019 9.2871 	-0.029357 	1.69745e-019 9.23105 	-0.0307293 	4.17228e-020 9.26301 	-0.0306681 	2.2264e-020 9.2531 	-0.0312534 	1.56345e-020 9.24295 	-0.0318428 	9.07149e-021 9.22975 	-0.0324694 	3.91124e-021 9.17574 	-0.0335877 	1.76321e-020 9.20417 	-0.0337614 	1.04448e-019 9.19831 	-0.0342999 	1.15499e-019 9.18798 	-0.0348865 	1.16705e-019 9.1706 	-0.0355203 	1.00729e-019 9.1202 	-0.0363731 	4.02059e-021 9.14527 	-0.0367638 	-9.87554e-020 9.14287 	-0.0373029 	-1.29993e-019 9.13237 	-0.0378863 	-1.40182e-019 9.11152 	-0.0384768 	-1.28481e-019 9.06458 	-0.0390842 	-6.15762e-020 9.08648 	-0.0396723 	-1.7791e-019 9.08698 	-0.0402548 	-2.19178e-019 9.07635 	-0.0408347 	-2.21416e-019 9.05269 	-0.0413375 	-1.73061e-019 9.00905 	-0.0417214 	-4.70481e-020 9.02799 	-0.0424865 	-2.49124e-020 9.03087 	-0.0431496 	-1.08258e-020 9.02012 	-0.043726 	-3.5747e-021 8.99426 	-0.044103 	0 8.95373 	-0.044286 	0 8.96993 	-0.045208 	0 8.97473 	-0.0459832 	0 8.96388 	-0.0465561 	0 8.93638 	-0.0467758 	2.05112e-021 8.89875 	-0.0467804 	5.35131e-021 8.91242 	-0.0478395 	2.2044e-021 8.91872 	-0.0487525 	0 8.90779 	-0.0493219 	0 8.87915 	-0.0493592 	2.43843e-021 8.84422 	-0.0492075 	5.74272e-021 8.85559 	-0.0503849 	2.59527e-021 8.86301 	-0.0514559 	1.1542e-021 8.85203 	-0.052022 	7.73812e-021 8.82267 	-0.0518578 	2.44483e-020 8.79023 	-0.0515709 	4.2858e-020 8.79951 	-0.0528484 	1.6789e-019 8.80776 	-0.0540921 	2.86972e-019 8.79674 	-0.0546549 	2.90404e-019 8.76704 	-0.0542762 	1.68397e-019 8.73689 	-0.0538746 	4.33659e-020 8.74427 	-0.0552356 	2.52197e-020 8.7516 	-0.0565981 	7.07468e-021 8.74035 	-0.0571178 	3.13011e-022 8.7123 	-0.0566203 	3.49256e-021 8.68426 	-0.0561225 	6.67196e-021 8.68994 	-0.057551 	3.65299e-021 8.69557 	-0.058981 	6.34798e-022 8.68468 	-0.0594703 	2.01284e-021 8.65855 	-0.0588951 	-1.9072e-021 8.63243 	-0.0583195 	-5.82628e-021 8.63657 	-0.0598018 	-4.90952e-020 8.64066 	-0.0612856 	-9.23678e-020 8.63018 	-0.0617452 	-9.37335e-020 8.6058 	-0.061108 	-5.41424e-020 8.58144 	-0.0604704 	-1.45495e-020 8.58422 	-0.0619959 	8.43833e-020 8.58694 	-0.0635229 	1.83311e-019 8.5769 	-0.0639537 	1.91858e-019 8.55412 	-0.0632672 	1.09468e-019 8.53136 	-0.0625802 	2.70782e-020 8.53293 	-0.0641408 	1.57353e-020 8.53444 	-0.0657029 	4.38913e-021 8.52486 	-0.0661064 	4.43762e-022 8.50354 	-0.0653816 	5.0465e-021 8.48223 	-0.0646561 	9.65102e-021 8.48273 	-0.0662429 	4.14058e-021 8.48317 	-0.0678313 	-1.37482e-021 8.47409 	-0.0682086 	-2.07699e-020 8.45407 	-0.0674563 	-7.07134e-020 8.43408 	-0.0667034 	-1.20659e-019 8.43364 	-0.0683018 	-2.51398e-019 8.43315 	-0.0699017 	-3.82132e-019 8.42457 	-0.0702539 	-3.67009e-019 8.40574 	-0.0694901 	-2.17155e-019 8.38693 	-0.0687258 	-6.73029e-020 8.38567 	-0.0703233 	5.64319e-020 8.38433 	-0.0719187 	1.79823e-019 8.37598 	-0.072217 	1.77444e-019 8.35853 	-0.0714936 	9.03522e-020 8.34079 	-0.0707345 	3.50127e-022 8.3388 	-0.0723269 	-8.89817e-020 8.33591 	-0.0737417 	-1.67205e-019 8.32771 	-0.0740459 	-1.76491e-019 8.31245 	-0.0734863 	-1.14287e-019 8.29568 	-0.0727409 	-3.6738e-020 8.29305 	-0.0743243 	-2.5509e-020 8.2889 	-0.0755571 	-1.43791e-020 8.28084 	-0.0758687 	-3.50263e-021 8.26747 	-0.0754775 	1.39374e-020 8.25159 	-0.074752 	3.44971e-020 8.24839 	-0.0763235 	1.27307e-020 8.24322 	-0.0773761 	-2.40536e-021 8.23531 	-0.0776967 	-8.19853e-021 8.22359 	-0.0774757 	-3.00712e-021 8.20851 	-0.0767755 	1.18978e-020 8.20481 	-0.0783341 	-4.59538e-021 8.19884 	-0.0792108 	-1.54764e-020 8.19106 	-0.0795419 	-2.18681e-020 8.18077 	-0.0794907 	-3.4076e-020 8.16643 	-0.0788197 	-5.57058e-020 8.16228 	-0.080365 	5.27026e-020 8.15569 	-0.0810716 	8.71985e-020 8.14804 	-0.0814148 	8.9663e-020 8.13898 	-0.0815317 	7.01451e-020 8.12531 	-0.0808932 	-2.26753e-020 8.12078 	-0.0824254 	6.88751e-020 8.11372 	-0.0829686 	8.61665e-020 8.10619 	-0.0833253 	8.9438e-020 8.09821 	-0.0836076 	8.6532e-020 8.08515 	-0.083004 	1.03538e-020 8.08027 	-0.0845238 	-5.66427e-022 8.07289 	-0.0849107 	-4.8481e-022 8.06546 	-0.0852822 	-2.51418e-022 8.05802 	-0.085654 	-1.80471e-023 8.04592 	-0.0851599 	1.83582e-020 8.04045 	-0.0865188 	0 8.03314 	-0.0869062 	0 8.02582 	-0.087294 	0 8.01848 	-0.0876819 	0 8.00758 	-0.0873685 	1.53564e-020 8.00163 	-0.0885585 	0 7.99442 	-0.0889634 	0 7.9872 	-0.0893686 	0 7.97995 	-0.0897741 	0 7.97012 	-0.0896376 	0 7.96381 	-0.0906667 	0 7.95669 	-0.0910903 	0 7.94955 	-0.0915143 	0 7.94239 	-0.0919385 	0 7.93348 	-0.0919748 	-8.6711e-021 7.92692 	-0.0928508 	0 7.91988 	-0.0932944 	0 7.91282 	-0.0937383 	0 7.90574 	-0.0941824 	0 7.89763 	-0.0943875 	-1.09705e-020 7.89091 	-0.0951182 	0 7.88394 	-0.0955828 	0 7.87695 	-0.0960477 	0 7.86995 	-0.0965128 	0 7.86254 	-0.0968826 	-4.46375e-021 7.85787 	-0.0973236 	-6.00495e-021 7.85312 	-0.0976586 	-1.31247e-020 7.84836 	-0.0979936 	-2.0245e-020 7.8436 	-0.0983288 	-2.73658e-020 7.83895 	-0.0986549 	-3.42925e-020 7.8367 	-0.0988093 	-3.7344e-020 7.83444 	-0.0989636 	-4.03954e-020 7.83218 	-0.099118 	-4.34467e-020 7.82992 	-0.0992724 	-4.64979e-020 7.82791 	-0.0993779 	-4.95512e-020 7.82079 	-0.0999333 	-4.83963e-020 7.81375 	-0.100445 	-4.77773e-020 7.80669 	-0.100957 	-4.71557e-020 7.7996 	-0.101469 	-4.65316e-020 7.79353 	-0.101781 	-4.81817e-020 7.78616 	-0.102498 	-3.77465e-020 7.77916 	-0.103033 	-2.72998e-020 7.77215 	-0.10357 	-1.68518e-020 7.76511 	-0.104106 	-6.40238e-021 7.75986 	-0.104297 	0 7.75222 	-0.105171 	-2.8199e-021 7.74526 	-0.105732 	-7.63287e-021 7.73828 	-0.106294 	-1.24451e-020 7.73128 	-0.106856 	-1.72567e-020 7.72682 	-0.106933 	-2.20331e-020 7.71892 	-0.10796 	-5.07424e-020 7.712 	-0.108548 	-7.04929e-020 7.70505 	-0.109137 	-9.0245e-020 7.69808 	-0.109725 	-1.09999e-019 7.69438 	-0.109694 	-1.03308e-019 7.68621 	-0.110872 	-8.12305e-020 7.67931 	-0.111488 	-7.01302e-020 7.67238 	-0.112105 	-5.90237e-020 7.66543 	-0.112722 	-4.7911e-020 7.66249 	-0.112589 	-6.89234e-020 7.65404 	-0.113914 	-8.21533e-020 7.64715 	-0.11456 	-6.36795e-020 7.64024 	-0.115207 	-4.52105e-020 7.63368 	-0.115785 	-2.54853e-020 7.63108 	-0.115626 	7.82836e-021 7.62263 	-0.116981 	1.22238e-020 7.61548 	-0.117772 	8.75642e-021 7.60858 	-0.118449 	3.70814e-021 7.60279 	-0.118918 	0 7.60013 	-0.11881 	0 7.5917 	-0.120179 	0 7.58424 	-0.121128 	0 7.57734 	-0.121836 	0 7.5723 	-0.122202 	0 7.56957 	-0.122146 	0 7.56116 	-0.12353 	0 7.55339 	-0.124634 	-7.71731e-021 7.54648 	-0.125375 	-2.54424e-020 7.54217 	-0.125644 	-4.32167e-020 7.53936 	-0.125641 	-6.10203e-020 7.53096 	-0.127041 	-4.18445e-020 7.52288 	-0.128298 	-2.16906e-020 7.51595 	-0.129073 	1.70746e-021 7.51235 	-0.12925 	9.212e-021 7.50945 	-0.1293 	1.33351e-020 7.50105 	-0.130719 	4.59214e-020 7.49264 	-0.132125 	7.82126e-020 7.48576 	-0.132923 	9.68303e-020 7.48277 	-0.133026 	8.18985e-020 7.47978 	-0.133129 	6.69655e-020 7.47138 	-0.134568 	4.29685e-020 7.46293 	-0.136008 	1.89631e-020 7.45649 	-0.13682 	2.00832e-021 7.4534 	-0.136977 	1.13782e-020 7.45031 	-0.137133 	2.07487e-020 7.4419 	-0.138594 	8.42064e-020 7.43343 	-0.140055 	1.47667e-019 7.42739 	-0.140897 	1.48313e-019 7.42419 	-0.141107 	8.54673e-020 7.42098 	-0.141316 	2.26197e-020 7.41255 	-0.1428 	1.40285e-020 7.40407 	-0.144285 	5.44075e-021 7.3984 	-0.145158 	5.629e-021 7.39507 	-0.145421 	1.47795e-020 7.39174 	-0.145684 	2.39309e-020 7.38328 	-0.147192 	8.59426e-020 7.37477 	-0.148701 	1.47957e-019 7.36946 	-0.149606 	1.48637e-019 7.366 	-0.149922 	8.72658e-020 7.36254 	-0.150239 	2.58927e-020 7.35404 	-0.151773 	1.7546e-020 7.34563 	-0.153284 	9.19899e-021 7.34065 	-0.154198 	7.5646e-022 7.33693 	-0.154616 	0 7.33332 	-0.154985 	0 7.32478 	-0.156546 	0 7.31709 	-0.157953 	0 7.31199 	-0.158908 	0 7.3078 	-0.159504 	0 7.30404 	-0.159926 	0 7.29545 	-0.161515 	0 7.28845 	-0.162822 	0 7.28324 	-0.163818 	0 7.27857 	-0.16459 	6.83548e-021 7.27464 	-0.165065 	2.27754e-020 7.26598 	-0.166682 	5.23554e-021 7.25966 	-0.167892 	6.04469e-021 7.25432 	-0.16893 	1.46626e-020 7.24917 	-0.169876 	2.40466e-020 7.24507 	-0.170403 	3.69508e-020 7.23634 	-0.172049 	1.23548e-019 7.23067 	-0.173166 	1.33743e-019 7.22518 	-0.174245 	1.38365e-019 7.21966 	-0.175323 	1.42965e-019 7.21528 	-0.175942 	4.6027e-020 7.20702 	-0.177525 	1.34144e-019 7.20142 	-0.178644 	1.2231e-019 7.19578 	-0.179764 	1.10454e-019 7.19011 	-0.180884 	9.85761e-020 7.18522 	-0.181683 	3.81271e-020 7.17762 	-0.183166 	3.14808e-020 7.17187 	-0.184327 	3.19528e-020 7.16607 	-0.185488 	3.24298e-020 7.16024 	-0.18665 	3.29119e-020 7.15483 	-0.187626 	4.80492e-020 7.14788 	-0.189013 	5.40052e-020 7.14196 	-0.190215 	5.15225e-020 7.136 	-0.191417 	4.90244e-020 7.12999 	-0.19262 	4.65106e-020 7.12407 	-0.193773 	3.96832e-020 7.12157 	-0.194277 	3.33029e-020 7.11935 	-0.194732 	3.11745e-020 7.11712 	-0.195187 	2.90479e-020 7.11489 	-0.195642 	2.6923e-020 7.1127 	-0.196086 	2.4851e-020 7.10869 	-0.196875 	2.06338e-020 7.10466 	-0.197665 	1.64199e-020 7.10062 	-0.198454 	1.22093e-020 7.09656 	-0.199243 	8.00195e-021 7.09321 	-0.199955 	3.77476e-022 7.08636 	-0.201314 	-2.41953e-022 7.0799 	-0.202596 	-1.73982e-022 7.0734 	-0.203877 	-1.05988e-022 7.06685 	-0.205159 	-3.797e-023 7.06214 	-0.206245 	0 7.05442 	-0.207765 	-6.98425e-021 7.04776 	-0.209086 	-2.08092e-020 7.04105 	-0.210407 	-3.46284e-020 7.0343 	-0.211729 	-4.84419e-020 7.03058 	-0.212737 	-5.95138e-020 7.02194 	-0.214416 	-4.6823e-020 7.01507 	-0.215776 	-3.15609e-020 7.00815 	-0.217137 	-1.62929e-020 7.00121 	-0.218495 	-1.05613e-021 6.99845 	-0.219427 	6.30351e-021 6.98917 	-0.221213 	-1.33679e-022 6.98179 	-0.222664 	1.11269e-020 6.97465 	-0.224062 	2.51269e-020 6.96872 	-0.225336 	4.12644e-020 6.96573 	-0.226312 	6.25039e-020 6.95623 	-0.22813 	4.04045e-020 6.94786 	-0.229745 	2.18827e-020 6.9405 	-0.23118 	6.51874e-021 6.93559 	-0.232369 	-1.71458e-021 6.93235 	-0.233388 	-5.06184e-021 6.92263 	-0.235237 	-5.68999e-020 6.91326 	-0.237016 	-9.97872e-020 6.90565 	-0.238487 	-1.03382e-019 6.90177 	-0.23959 	-6.71328e-020 6.89828 	-0.24065 	-2.63601e-020 6.88832 	-0.242529 	-6.77096e-020 6.87829 	-0.244408 	-1.09067e-019 6.87094 	-0.245893 	-1.09405e-019 6.86722 	-0.246993 	-6.59684e-020 6.86347 	-0.248094 	-2.2531e-020 6.85327 	-0.250002 	-6.61036e-020 6.84299 	-0.251909 	-1.09682e-019 6.83589 	-0.253435 	-1.06882e-019 6.83191 	-0.254574 	-5.76181e-020 6.82789 	-0.255712 	-8.35074e-021 6.81743 	-0.257648 	-5.54318e-021 6.8069 	-0.259584 	-2.73776e-021 6.80004 	-0.26115 	0 6.79578 	-0.262325 	0 6.79148 	-0.2635 	0 6.78076 	-0.265462 	0 6.77076 	-0.267348 	0 6.76403 	-0.26892 	0 6.7588 	-0.27024 	0 6.75422 	-0.271449 	0 6.74322 	-0.273437 	0 6.73437 	-0.275216 	-1.69969e-021 6.72735 	-0.276816 	-4.85119e-021 6.72094 	-0.278311 	-4.66246e-021 6.71606 	-0.279553 	3.61537e-021 6.70478 	-0.281565 	-5.472e-020 6.69709 	-0.283234 	-5.82106e-020 6.68979 	-0.284861 	-5.5048e-020 6.68243 	-0.286488 	-5.18638e-020 6.67697 	-0.287804 	-2.28746e-021 6.66643 	-0.289742 	-8.13549e-021 6.65889 	-0.291394 	6.48996e-022 6.6513 	-0.293046 	9.4348e-021 6.64364 	-0.294698 	1.82219e-020 6.63692 	-0.296194 	2.09779e-020 6.62759 	-0.298013 	4.11484e-020 6.61975 	-0.299689 	4.14089e-020 6.61185 	-0.301364 	4.16521e-020 6.60389 	-0.303039 	4.18781e-020 6.59587 	-0.304714 	4.20364e-020 6.59585 	-0.304718 	4.20385e-020 6.59583 	-0.304722 	4.20343e-020 6.59581 	-0.304726 	4.20301e-020 6.59579 	-0.30473 	4.20258e-020 6.59578 	-0.304734 	4.20216e-020 6.5872 	-0.306423 	3.97912e-020 6.57856 	-0.308113 	3.75657e-020 6.56985 	-0.309802 	3.53452e-020 6.56108 	-0.311491 	3.31298e-020 6.55334 	-0.313052 	2.26383e-020 6.54383 	-0.314909 	2.92534e-020 6.53483 	-0.316621 	2.30455e-020 6.52575 	-0.318333 	1.68493e-020 6.51661 	-0.320045 	1.06649e-020 6.50964 	-0.321499 	-1.4653e-020 6.49918 	-0.323517 	-7.4055e-021 6.48981 	-0.325247 	-9.34773e-021 6.48037 	-0.326976 	-1.13294e-020 6.4716 	-0.328622 	-1.26273e-020 6.46474 	-0.330043 	-1.20507e-020 6.4539 	-0.332072 	-1.07148e-020 6.44353 	-0.333969 	-7.35767e-021 6.43373 	-0.335712 	-1.65321e-021 6.4258 	-0.337237 	3.78069e-021 6.4186 	-0.338674 	9.10664e-021 6.40737 	-0.340712 	4.75118e-021 6.39607 	-0.34275 	3.99671e-022 6.38624 	-0.344481 	0 6.37875 	-0.345931 	0 6.37119 	-0.347381 	0 6.35958 	-0.349426 	0 6.34789 	-0.35147 	0 6.33826 	-0.35323 	0 6.33041 	-0.354691 	0 6.3225 	-0.356152 	0 6.31049 	-0.358201 	0 6.29871 	-0.360216 	5.19137e-022 6.28931 	-0.361963 	5.14655e-021 6.28077 	-0.363505 	9.78692e-021 6.27249 	-0.364973 	1.44345e-020 6.26007 	-0.367025 	1.07194e-020 6.24926 	-0.368894 	9.74171e-021 6.23949 	-0.370644 	1.05621e-020 6.22979 	-0.372361 	1.16127e-020 6.22113 	-0.373834 	1.43007e-020 6.20861 	-0.375852 	-2.54516e-021 6.19852 	-0.377603 	-8.70344e-021 6.18835 	-0.379353 	-1.48489e-020 6.17812 	-0.381102 	-2.09815e-020 6.16842 	-0.38272 	-1.91246e-020 6.1598 	-0.384101 	-1.57509e-020 6.15221 	-0.385368 	-1.33487e-020 6.14459 	-0.386635 	-1.09483e-020 6.13692 	-0.387902 	-8.5496e-021 6.12959 	-0.389107 	-6.2691e-021 6.1267 	-0.389601 	-6.06645e-021 6.1238 	-0.390094 	-5.86538e-021 6.1209 	-0.390587 	-5.6659e-021 6.11799 	-0.39108 	-5.468e-021 6.11512 	-0.391529 	-2.05265e-021 6.10485 	-0.393327 	5.12541e-021 6.09438 	-0.395073 	5.82071e-021 6.08384 	-0.396818 	6.54104e-021 6.07323 	-0.398563 	7.28654e-021 6.06277 	-0.400105 	-1.99242e-020 6.05254 	-0.402079 	-6.08942e-020 6.04168 	-0.403816 	-7.0303e-020 6.03074 	-0.405553 	-7.97475e-020 6.0198 	-0.407229 	-7.5773e-020 6.00904 	-0.408661 	-1.75918e-020 5.99851 	-0.410665 	-1.51819e-020 5.9876 	-0.412538 	-1.02018e-020 5.97626 	-0.414263 	-2.31519e-021 5.96509 	-0.415763 	7.89004e-021 5.95392 	-0.417184 	1.88998e-020 5.94299 	-0.419172 	3.62799e-020 5.93198 	-0.421158 	5.36684e-020 5.92048 	-0.422846 	5.48062e-020 5.90898 	-0.424254 	3.92365e-020 5.8974 	-0.425662 	2.3669e-020 5.88606