/*--------------------------------*- C++ -*----------------------------------*\
| =========                 |                                                 |
| \\      /  F ield         | OpenFOAM: The Open Source CFD Toolbox           |
|  \\    /   O peration     | Version:  5.x                                   |
|   \\  /    A nd           | Web:      www.OpenFOAM.org                      |
|    \\/     M anipulation  |                                                 |
\*---------------------------------------------------------------------------*/
/*   Windows 32 and 64 bit porting by blueCAPE: http://www.bluecape.com.pt   *\
|  Based on Windows porting (2.0.x v4) by Symscape: http://www.symscape.com   |
\*---------------------------------------------------------------------------*/
FoamFile
{
    version     2.0;
    format      ascii;
    class       volScalarField;
    location    "2833";
    object      p;
}
// * * * * * * * * * * * * * * * * * * * * * * * * * * * * * * * * * * * * * //

dimensions      [0 2 -2 0 0 0 0];

internalField   nonuniform List<scalar> 
4000
(
0.0259137
0.0204487
0.0176909
0.0161314
0.0148762
0.0138597
0.0130582
0.0123898
0.0118261
0.0113346
0.0108951
0.0105005
0.0101474
0.00983034
0.00954377
0.00928164
0.00903887
0.00881296
0.00860233
0.00840487
0.00821849
0.00804235
0.00787509
0.00771528
0.00756185
0.00741395
0.00727086
0.00713185
0.00699624
0.00686362
0.0067336
0.0066058
0.00647985
0.00635547
0.0062325
0.0061108
0.00599027
0.00587089
0.00575258
0.00563527
0.00551882
0.00540312
0.00528811
0.00517372
0.00505997
0.00494722
0.00483483
0.00472208
0.00460933
0.00449689
0.00438484
0.00427326
0.00416217
0.00405161
0.00394157
0.00383206
0.00372309
0.0036147
0.00350693
0.00339983
0.00329345
0.00318784
0.00308304
0.00297908
0.00287601
0.00277386
0.00267269
0.00257255
0.00247346
0.00237546
0.00227863
0.00218304
0.0020888
0.00199605
0.00190501
0.00181602
0.00172958
0.00164688
0.00156887
0.00149067
0.00140841
0.00132442
0.00124012
0.00115579
0.00107164
0.000987852
0.000904555
0.000821834
0.000739757
0.000658382
0.000577759
0.000497932
0.000418941
0.000340824
0.000263616
0.000187355
0.00011207
3.78022e-005
-3.54286e-005
-0.000107571
-0.000178659
-0.000248771
-0.000317841
-0.00038581
-0.000452654
-0.000518355
-0.000582886
-0.000646225
-0.000708349
-0.000769237
-0.000828868
-0.000887228
-0.000944299
-0.00100007
-0.00105451
-0.00110762
-0.00115938
-0.00120977
-0.00125878
-0.0013064
-0.00135261
-0.0013974
-0.00144076
-0.00148266
-0.00152311
-0.00156209
-0.00159958
-0.00163558
-0.00167006
-0.00170302
-0.00173446
-0.00176435
-0.0017927
-0.0018195
-0.00184473
-0.00186839
-0.00189047
-0.00191097
-0.00192989
-0.00194721
-0.00196294
-0.00197705
-0.00198957
-0.00200046
-0.00200975
-0.00201742
-0.00202347
-0.0020279
-0.00203071
-0.00203189
-0.00203145
-0.00202937
-0.00202567
-0.00202035
-0.0020134
-0.00200485
-0.00199469
-0.00198291
-0.00196954
-0.00195455
-0.00193796
-0.00191977
-0.00189999
-0.00187861
-0.00185566
-0.00183113
-0.00180502
-0.00177734
-0.00174811
-0.00171735
-0.00168504
-0.0016512
-0.00161583
-0.00157895
-0.00154057
-0.00150069
-0.00145932
-0.00141647
-0.00137213
-0.00132631
-0.00127902
-0.00123024
-0.00117999
-0.00112826
-0.00107503
-0.00102029
-0.000964017
-0.000906184
-0.000846726
-0.000785622
-0.000722702
-0.000658112
-0.000591124
-0.000523078
-0.000450126
-0.000380958
-0.000293895
-0.000240176
-9.47072e-005
-0.000165702
0.018133
0.0175464
0.0165756
0.0156099
0.0146767
0.0138489
0.013143
0.0125368
0.0119955
0.0115035
0.0110573
0.0106535
0.0102943
0.0099715
0.00968007
0.00941338
0.00916531
0.00893469
0.00872016
0.0085189
0.0083289
0.00814961
0.00797896
0.00781572
0.00765909
0.0075082
0.00736249
0.00722101
0.00708304
0.00694839
0.00681668
0.00668744
0.00656022
0.00643472
0.00631076
0.00618814
0.0060668
0.00594674
0.00582788
0.00571012
0.00559326
0.00547712
0.00536157
0.00524636
0.00513118
0.00501566
0.00490044
0.00478632
0.00467307
0.00456049
0.00444854
0.00433719
0.00422643
0.00411625
0.00400663
0.00389755
0.003789
0.00368104
0.00357369
0.00346701
0.00336106
0.00325588
0.0031515
0.00304798
0.00294533
0.00284359
0.0027428
0.002643
0.00254425
0.0024466
0.0023501
0.00225479
0.00216075
0.00206806
0.00197679
0.00188695
0.00179842
0.00171048
0.00162209
0.00153443
0.00144856
0.00136357
0.00127903
0.00119489
0.00111117
0.00102789
0.000945134
0.000862954
0.000781406
0.000700539
0.000620401
0.000541033
0.000462476
0.000384766
0.000307937
0.000232028
0.000157073
8.31359e-005
1.02469e-005
-6.13308e-005
-0.000131792
-0.000201536
-0.00027037
-0.000338153
-0.000404845
-0.000470411
-0.000534816
-0.000598033
-0.000660039
-0.000720813
-0.000780338
-0.000838597
-0.000895572
-0.000951246
-0.0010056
-0.00105863
-0.00111031
-0.00116064
-0.00120959
-0.00125714
-0.0013033
-0.00134804
-0.00139135
-0.00143321
-0.00147362
-0.00151256
-0.00155002
-0.00158598
-0.00162044
-0.00165339
-0.00168481
-0.0017147
-0.00174304
-0.00176984
-0.00179507
-0.00181874
-0.00184083
-0.00186135
-0.00188029
-0.00189763
-0.00191338
-0.00192753
-0.00194007
-0.00195101
-0.00196033
-0.00196805
-0.00197415
-0.00197863
-0.0019815
-0.00198274
-0.00198236
-0.00198035
-0.00197672
-0.00197147
-0.00196461
-0.00195614
-0.00194607
-0.00193438
-0.00192109
-0.0019062
-0.00188971
-0.00187162
-0.00185194
-0.00183068
-0.00180784
-0.00178343
-0.00175747
-0.00172994
-0.00170086
-0.00167023
-0.00163806
-0.00160436
-0.00156914
-0.00153242
-0.00149419
-0.00145447
-0.00141326
-0.00137057
-0.0013264
-0.00128076
-0.00123364
-0.00118506
-0.00113501
-0.00108348
-0.00103048
-0.000975985
-0.000919974
-0.000862424
-0.000803275
-0.000742524
-0.000679977
-0.000615875
-0.000549253
-0.000482129
-0.000408831
-0.00034297
-0.000248642
-0.000215529
-4.82108e-005
-0.000200465
0.0156911
0.0162256
0.0155392
0.0147985
0.0140778
0.0134058
0.0127845
0.0122446
0.011759
0.01131
0.0108945
0.0105194
0.0101829
0.00988269
0.00961109
0.00935574
0.00911459
0.00889085
0.00868443
0.00848921
0.00830318
0.00813035
0.00796586
0.00780795
0.00765603
0.00750943
0.00736774
0.00722971
0.00709457
0.00696243
0.0068327
0.00670502
0.00657889
0.00645412
0.00633065
0.00620828
0.00608711
0.0059673
0.00584878
0.0057314
0.00561489
0.00549925
0.00538454
0.00527009
0.00515556
0.00504136
0.0049278
0.00481486
0.00470232
0.00459018
0.0044785
0.00436735
0.00425674
0.00414667
0.00403712
0.00392803
0.00381945
0.00371142
0.00360401
0.00349731
0.00339136
0.00328621
0.00318192
0.00307851
0.00297601
0.00287445
0.00277386
0.00267427
0.00257574
0.00247829
0.00238197
0.00228681
0.00219284
0.00210007
0.00200852
0.00191809
0.00182858
0.00173931
0.00164941
0.00156071
0.00147445
0.00138916
0.00130427
0.00121984
0.00113589
0.00105244
0.00096955
0.00088727
0.000805657
0.00072476
0.000644623
0.000565283
0.000486774
0.000409132
0.000332387
0.00025657
0.000181711
0.000107849
3.49976e-005
-3.67334e-005
-0.000107469
-0.000177279
-0.000245957
-0.000313491
-0.000379894
-0.000445148
-0.00050923
-0.000572118
-0.000633791
-0.000694229
-0.000753418
-0.000811341
-0.000867981
-0.000923316
-0.00097733
-0.00103001
-0.00108135
-0.00113133
-0.00117994
-0.00122716
-0.00127297
-0.00131735
-0.00136031
-0.00140181
-0.00144186
-0.00148044
-0.00151754
-0.00155314
-0.00158725
-0.00161984
-0.00165091
-0.00168044
-0.00170843
-0.00173488
-0.00175976
-0.00178307
-0.00180482
-0.00182499
-0.00184357
-0.00186057
-0.00187597
-0.00188977
-0.00190198
-0.00191258
-0.00192158
-0.00192897
-0.00193475
-0.00193891
-0.00194145
-0.00194238
-0.00194168
-0.00193936
-0.00193543
-0.00192989
-0.00192274
-0.00191398
-0.00190362
-0.00189165
-0.00187808
-0.00186291
-0.00184615
-0.00182779
-0.00180785
-0.00178633
-0.00176325
-0.00173859
-0.00171237
-0.0016846
-0.00165527
-0.0016244
-0.00159201
-0.00155809
-0.00152266
-0.00148573
-0.00144729
-0.00140737
-0.00136597
-0.00132311
-0.00127877
-0.00123298
-0.00118574
-0.00113705
-0.00108691
-0.00103533
-0.000982303
-0.000927831
-0.000871895
-0.000814488
-0.000755561
-0.000695142
-0.000633011
-0.000569558
-0.000503397
-0.000437779
-0.00036301
-0.000305103
-0.000211635
-0.000191699
-4.64015e-005
-0.000180187
0.0134766
0.0140783
0.0139885
0.0136897
0.013275
0.0128138
0.0123397
0.0118755
0.0114532
0.0110711
0.0107206
0.0104047
0.01011
0.00983644
0.00958182
0.00934077
0.00910826
0.00889006
0.00869327
0.00851003
0.00833282
0.00816445
0.00800189
0.00784544
0.00769441
0.00754781
0.007407
0.00726781
0.00713062
0.00699832
0.0068691
0.00674222
0.00661654
0.00649219
0.00636922
0.00624714
0.00612628
0.00600689
0.00588898
0.00577254
0.00565675
0.00554106
0.00542571
0.00531031
0.0051949
0.00507977
0.00496506
0.00485105
0.00473772
0.00462503
0.00451301
0.00440166
0.00429098
0.004181
0.00407159
0.00396262
0.00385412
0.00374615
0.0036388
0.00353219
0.00342636
0.00332134
0.00321718
0.0031139
0.00301154
0.0029101
0.00280959
0.00271006
0.00261156
0.00251412
0.00241776
0.00232248
0.0022283
0.00213521
0.00204319
0.00195218
0.00186209
0.00177275
0.00168401
0.00159625
0.00150961
0.00142365
0.00133825
0.00125343
0.0011692
0.00108555
0.00100252
0.000920163
0.000838511
0.000757602
0.00067747
0.000598142
0.000519644
0.000442004
0.00036525
0.000289407
0.000214493
0.00014049
6.73972e-005
-5.08581e-006
-7.67458e-005
-0.000147024
-0.000216005
-0.000283809
-0.00035044
-0.000415884
-0.000480132
-0.000543167
-0.000604968
-0.000665522
-0.000724817
-0.000782838
-0.000839573
-0.000895003
-0.000949108
-0.00100188
-0.00105331
-0.00110339
-0.00115208
-0.00119939
-0.00124529
-0.00128977
-0.00133281
-0.00137441
-0.00141455
-0.00145323
-0.00149043
-0.00152614
-0.00156035
-0.00159304
-0.0016242
-0.00165384
-0.00168194
-0.00170849
-0.00173349
-0.00175691
-0.00177877
-0.00179906
-0.00181776
-0.00183487
-0.00185039
-0.00186431
-0.00187664
-0.00188737
-0.0018965
-0.00190401
-0.00190992
-0.00191421
-0.00191689
-0.00191795
-0.00191739
-0.00191522
-0.00191143
-0.00190604
-0.00189903
-0.00189041
-0.00188019
-0.00186837
-0.00185495
-0.00183993
-0.00182332
-0.00180512
-0.00178534
-0.00176398
-0.00174105
-0.00171655
-0.0016905
-0.0016629
-0.00163375
-0.00160306
-0.00157084
-0.0015371
-0.00150185
-0.00146509
-0.00142685
-0.00138712
-0.00134592
-0.00130325
-0.00125912
-0.00121355
-0.00116654
-0.00111809
-0.00106823
-0.00101694
-0.00096425
-0.000910152
-0.000854647
-0.000797743
-0.000739412
-0.000679711
-0.000618445
-0.000556082
-0.000491221
-0.00042765
-0.000356201
-0.000299993
-0.000213846
-0.000189977
-6.12142e-005
-0.000161848
0.0125409
0.0128801
0.012879
0.0127289
0.0124701
0.0121506
0.0118036
0.0114502
0.0111103
0.0107884
0.0104814
0.0101934
0.0099227
0.00966462
0.00941896
0.00919526
0.00898889
0.00879585
0.00861502
0.00844375
0.00828056
0.00811959
0.00796298
0.00781127
0.00766339
0.00751974
0.00738545
0.00725538
0.00712493
0.00699553
0.00686889
0.00674445
0.00661942
0.00649527
0.00637216
0.00624897
0.00612744
0.00600817
0.00589052
0.00577372
0.00565717
0.00554089
0.00542472
0.00530866
0.00519351
0.00507911
0.00496516
0.00485187
0.00473914
0.00462698
0.00451546
0.00440466
0.0042946
0.00418521
0.00407623
0.00396745
0.00385905
0.0037511
0.00364374
0.00353718
0.00343147
0.00332662
0.00322267
0.00311965
0.00301758
0.00291643
0.00281617
0.00271686
0.00261858
0.00252137
0.00242522
0.00233012
0.00223606
0.00214298
0.00205088
0.00195972
0.00186941
0.00177987
0.00169094
0.00160278
0.00151559
0.00142928
0.0013437
0.00125878
0.00117448
0.0010908
0.00100778
0.000925455
0.000843868
0.000763042
0.000683003
0.000603774
0.000525383
0.000447856
0.000371226
0.000295517
0.000220754
0.000146951
7.41291e-005
2.2965e-006
-6.84564e-005
-0.000138062
-0.000206565
-0.000273961
-0.000340221
-0.000405322
-0.000469243
-0.000531959
-0.000593451
-0.000653704
-0.000712704
-0.000770429
-0.000826866
-0.000882003
-0.000935825
-0.00098832
-0.00103947
-0.00108926
-0.00113768
-0.0011847
-0.00123031
-0.0012745
-0.00131727
-0.00135859
-0.00139846
-0.00143686
-0.00147378
-0.00150921
-0.00154314
-0.00157555
-0.00160644
-0.0016358
-0.00166363
-0.0016899
-0.00171463
-0.00173779
-0.00175938
-0.0017794
-0.00179783
-0.00181469
-0.00182995
-0.00184362
-0.00185569
-0.00186616
-0.00187504
-0.00188232
-0.00188798
-0.00189204
-0.00189448
-0.00189531
-0.00189453
-0.00189213
-0.00188813
-0.00188251
-0.00187529
-0.00186647
-0.00185605
-0.00184402
-0.0018304
-0.00181519
-0.00179839
-0.00178001
-0.00176006
-0.00173853
-0.00171543
-0.00169078
-0.00166456
-0.0016368
-0.0016075
-0.00157667
-0.00154431
-0.00151043
-0.00147505
-0.00143818
-0.00139982
-0.00135999
-0.00131869
-0.00127594
-0.00123175
-0.00118613
-0.00113909
-0.00109065
-0.00104081
-0.000989596
-0.000937016
-0.000883088
-0.000827828
-0.000771262
-0.000713387
-0.000654286
-0.000593824
-0.000532483
-0.000469069
-0.000407182
-0.000339031
-0.00028351
-0.00020527
-0.000177248
-6.64177e-005
-0.000141827
0.0117775
0.0119851
0.0119973
0.0119145
0.0117501
0.0115293
0.0112752
0.0110046
0.0107326
0.010467
0.0102096
0.00996424
0.00973056
0.00950795
0.00929528
0.00909583
0.00890967
0.00873421
0.00855705
0.00838158
0.00821957
0.00806388
0.00791445
0.00777004
0.00763008
0.00749442
0.00736265
0.00723714
0.00711383
0.00698721
0.00686203
0.00673933
0.00661455
0.0064927
0.00637524
0.00625664
0.00613609
0.00601642
0.0058984
0.00578092
0.00566446
0.00554897
0.00543359
0.00531771
0.0052007
0.00508361
0.00496832
0.00485465
0.00474192
0.00462988
0.00451847
0.0044078
0.004298
0.00418945
0.00408147
0.00397325
0.00386522
0.00375751
0.00365047
0.00354434
0.00343905
0.00333457
0.00323097
0.0031283
0.00302658
0.00292578
0.0028258
0.00272682
0.00262889
0.00253202
0.00243609
0.00234112
0.0022471
0.00215395
0.00206174
0.00197046
0.00188001
0.00179044
0.00170167
0.00161374
0.00152669
0.00144045
0.00135491
0.00127002
0.00118575
0.00110211
0.00101912
0.000936875
0.000855412
0.000774743
0.00069488
0.000615836
0.000537637
0.000460307
0.000383873
0.000308362
0.000233789
0.000160168
8.75147e-005
1.58247e-005
-5.48734e-005
-0.0001245
-0.00019301
-0.000260379
-0.000326588
-0.000391618
-0.00045545
-0.000518063
-0.000579445
-0.000639583
-0.000698461
-0.000756061
-0.000812365
-0.00086737
-0.000921069
-0.000973445
-0.00102448
-0.00107414
-0.00112243
-0.00116932
-0.00121481
-0.0012589
-0.00130155
-0.00134277
-0.00138253
-0.00142083
-0.00145765
-0.00149298
-0.00152682
-0.00155914
-0.00158994
-0.00161921
-0.00164695
-0.00167314
-0.00169778
-0.00172086
-0.00174238
-0.00176232
-0.00178069
-0.00179748
-0.00181267
-0.00182628
-0.00183829
-0.0018487
-0.00185752
-0.00186475
-0.00187037
-0.00187439
-0.0018768
-0.00187761
-0.0018768
-0.00187439
-0.00187036
-0.00186473
-0.0018575
-0.00184866
-0.00183824
-0.00182621
-0.0018126
-0.00179739
-0.00178061
-0.00176224
-0.0017423
-0.00172079
-0.00169772
-0.00167309
-0.00164691
-0.00161918
-0.00158992
-0.00155913
-0.00152682
-0.00149301
-0.00145769
-0.00142088
-0.0013826
-0.00134284
-0.00130163
-0.00125898
-0.0012149
-0.00116941
-0.00112251
-0.00107424
-0.0010246
-0.00097361
-0.000921303
-0.000867703
-0.000812839
-0.000756755
-0.000699475
-0.000641104
-0.000581573
-0.000521342
-0.000459491
-0.000399119
-0.000334041
-0.000279074
-0.000206629
-0.000174684
-7.44493e-005
-0.000131167
0.0111851
0.0113205
0.0113271
0.0112674
0.0111488
0.0109856
0.0107929
0.0105826
0.0103652
0.0101473
0.00993218
0.00972271
0.00951997
0.00932435
0.00913573
0.00895557
0.0087836
0.00861908
0.00845911
0.0083039
0.00815533
0.00801101
0.00787071
0.00773416
0.00760288
0.00747535
0.00734213
0.00720835
0.00708121
0.00695708
0.00683334
0.0067106
0.00658847
0.00647041
0.00635682
0.00624232
0.00612469
0.00600736
0.00589104
0.00577398
0.00565688
0.00554327
0.0054308
0.00531569
0.00519915
0.00508239
0.00496724
0.00485348
0.00474055
0.00462848
0.00451734
0.0044075
0.00429894
0.00419055
0.00408214
0.00397371
0.00386545
0.00375682
0.00364862
0.00354207
0.00343669
0.00333229
0.00322887
0.0031264
0.00302496
0.00292447
0.00282475
0.00272591
0.0026281
0.00253146
0.00243585
0.00234137
0.00224779
0.00215483
0.00206274
0.00197153
0.0018811
0.00179158
0.00170287
0.00161497
0.0015279
0.00144166
0.00135618
0.00127139
0.0011872
0.00110365
0.00102076
0.000938635
0.000857329
0.000776815
0.000697102
0.000618211
0.000540166
0.000462998
0.000386736
0.000311403
0.000237021
0.000163609
9.11891e-005
1.97798e-005
-5.05953e-005
-0.000119904
-0.000188128
-0.000255241
-0.000321206
-0.000385992
-0.000449578
-0.000511953
-0.000573102
-0.00063301
-0.000691659
-0.00074903
-0.000805111
-0.000859897
-0.000913382
-0.000965549
-0.00101637
-0.00106583
-0.0011139
-0.00116057
-0.00120585
-0.00124973
-0.00129218
-0.00133319
-0.00137275
-0.00141084
-0.00144745
-0.00148259
-0.00151623
-0.00154836
-0.00157896
-0.00160803
-0.00163557
-0.00166157
-0.00168601
-0.0017089
-0.00173023
-0.00174999
-0.00176818
-0.00178478
-0.0017998
-0.00181323
-0.00182506
-0.0018353
-0.00184396
-0.00185101
-0.00185646
-0.00186031
-0.00186256
-0.0018632
-0.00186224
-0.00185966
-0.00185547
-0.00184968
-0.0018423
-0.00183332
-0.00182274
-0.00181058
-0.00179683
-0.00178149
-0.00176457
-0.00174607
-0.00172601
-0.00170438
-0.00168119
-0.00165645
-0.00163015
-0.00160232
-0.00157296
-0.00154207
-0.00150967
-0.00147577
-0.00144037
-0.00140349
-0.00136513
-0.00132531
-0.00128405
-0.00124136
-0.00119725
-0.00115174
-0.00110486
-0.00105661
-0.00100702
-0.000956128
-0.000903953
-0.000850539
-0.000795927
-0.000740176
-0.000683337
-0.000625529
-0.000566743
-0.000507405
-0.000446832
-0.000387651
-0.000324931
-0.000270555
-0.000202382
-0.000168336
-7.61713e-005
-0.000122914
0.0106803
0.0107704
0.0107721
0.0107247
0.0106343
0.0105092
0.0103595
0.0101937
0.010019
0.00984075
0.00966211
0.00948562
0.00931257
0.00914372
0.00897927
0.00882002
0.00866588
0.00851649
0.00837018
0.0082266
0.00808701
0.00795061
0.00781717
0.0076863
0.00755784
0.00743154
0.0073054
0.00718114
0.0070593
0.00693859
0.00681846
0.00669968
0.00658285
0.00646452
0.00634409
0.00622539
0.00610913
0.00599374
0.00587776
0.00576093
0.00564265
0.00552766
0.00541425
0.00529909
0.00518587
0.00507472
0.00496357
0.00485178
0.00473979
0.00462792
0.00451592
0.00440404
0.00429503
0.00418808
0.00408028
0.00397217
0.00386462
0.0037577
0.00365077
0.0035443
0.00343881
0.00333418
0.00323072
0.00312832
0.00302688
0.00292644
0.00282714
0.00272906
0.00263215
0.00253587
0.00244019
0.00234531
0.0022512
0.0021578
0.00206528
0.00197382
0.00188327
0.0017936
0.00170485
0.00161694
0.00152988
0.00144368
0.00135822
0.00127338
0.00118908
0.0011053
0.00102209
0.00093977
0.000858483
0.000778068
0.00069849
0.000619754
0.000541876
0.000464879
0.000388792
0.000313635
0.000239431
0.000166197
9.39554e-005
2.2722e-005
-4.74872e-005
-0.000116645
-0.000184706
-0.000251643
-0.000317445
-0.00038206
-0.000445472
-0.000507671
-0.000568644
-0.000628373
-0.000686839
-0.000744026
-0.000799927
-0.00085454
-0.000907854
-0.00095985
-0.0010105
-0.00105978
-0.00110768
-0.00115418
-0.0011993
-0.00124301
-0.00128531
-0.00132617
-0.00136558
-0.00140352
-0.00143999
-0.00147498
-0.00150847
-0.00154046
-0.00157092
-0.00159985
-0.00162725
-0.00165311
-0.00167742
-0.00170018
-0.00172138
-0.00174102
-0.00175908
-0.00177556
-0.00179045
-0.0018037
-0.00181535
-0.00182547
-0.00183402
-0.00184097
-0.00184634
-0.00185011
-0.00185228
-0.00185284
-0.0018518
-0.00184915
-0.0018449
-0.00183905
-0.0018316
-0.00182256
-0.00181193
-0.00179972
-0.00178592
-0.00177053
-0.00175357
-0.00173504
-0.00171494
-0.00169327
-0.00167005
-0.00164528
-0.00161896
-0.00159111
-0.00156173
-0.00153083
-0.00149843
-0.00146452
-0.00142912
-0.00139225
-0.0013539
-0.00131411
-0.00127287
-0.00123021
-0.00118615
-0.0011407
-0.00109389
-0.00104573
-0.000996259
-0.000945506
-0.00089351
-0.000840315
-0.000785978
-0.000730569
-0.000674156
-0.00061687
-0.000558747
-0.00050018
-0.000440665
-0.000382442
-0.000321465
-0.000267597
-0.000202203
-0.000166649
-7.89998e-005
-0.000119126
0.0102385
0.0102973
0.0102945
0.0102552
0.0101839
0.0100861
0.00996854
0.00983717
0.00969711
0.00955228
0.00940522
0.00925794
0.00911162
0.00896703
0.00882451
0.00868459
0.0085473
0.00841258
0.0082798
0.00814873
0.00801981
0.00789271
0.00776727
0.00764332
0.00752071
0.00739928
0.00727801
0.00715728
0.00703763
0.0069188
0.00680051
0.00668274
0.0065654
0.00644816
0.00633176
0.00621635
0.00610127
0.00598608
0.00587091
0.00575591
0.00564147
0.00552604
0.00540951
0.00529435
0.00518126
0.00506916
0.00495704
0.00484505
0.00473327
0.00462185
0.00451038
0.00439898
0.00428893
0.00418066
0.00407208
0.00396367
0.00385657
0.00375134
0.00364683
0.00354199
0.00343746
0.00333375
0.00323106
0.00312908
0.00302793
0.00292756
0.00282799
0.00272863
0.00263076
0.00253455
0.00243874
0.00234333
0.00224871
0.00215525
0.00206268
0.00197111
0.00188054
0.00179078
0.00170178
0.00161364
0.00152642
0.00144036
0.00135532
0.00127095
0.00118686
0.00110329
0.00102043
0.00093847
0.000857398
0.000777113
0.000697638
0.000619
0.000541226
0.00046435
0.000388401
0.000313404
0.000239387
0.000166367
9.43611e-005
2.33767e-005
-4.65943e-005
-0.000115598
-0.000183655
-0.000250638
-0.000316368
-0.000380825
-0.000444065
-0.000506095
-0.000566898
-0.000626456
-0.00068475
-0.000741769
-0.000797507
-0.000851962
-0.000905119
-0.000956954
-0.00100744
-0.00105656
-0.00110429
-0.00115064
-0.00119559
-0.00123913
-0.00128126
-0.00132194
-0.00136116
-0.00139892
-0.00143522
-0.00147003
-0.00150335
-0.00153517
-0.00156547
-0.00159424
-0.00162148
-0.00164717
-0.00167132
-0.00169392
-0.00171497
-0.00173445
-0.00175236
-0.0017687
-0.00178346
-0.0017966
-0.0018082
-0.00181827
-0.00182675
-0.00183361
-0.00183887
-0.00184254
-0.0018446
-0.00184505
-0.0018439
-0.00184114
-0.00183679
-0.00183083
-0.00182329
-0.00181414
-0.00180341
-0.0017911
-0.0017772
-0.00176173
-0.00174468
-0.00172606
-0.00170587
-0.00168412
-0.00166082
-0.00163597
-0.00160957
-0.00158165
-0.0015522
-0.00152123
-0.00148876
-0.00145479
-0.00141934
-0.00138241
-0.00134402
-0.00130417
-0.0012629
-0.00122021
-0.00117612
-0.00113066
-0.00108384
-0.0010357
-0.000986257
-0.000935555
-0.000883636
-0.000830552
-0.000776364
-0.000721153
-0.000665001
-0.000608047
-0.000550358
-0.000492306
-0.000433514
-0.000375934
-0.000316169
-0.000262701
-0.000199296
-0.000163059
-7.87009e-005
-0.000116484
0.00983935
0.00987305
0.0098658
0.00983252
0.00977617
0.00970019
0.00960913
0.00950688
0.00939688
0.00928177
0.00916342
0.00904321
0.00892206
0.00880057
0.0086791
0.008558
0.00843741
0.00831738
0.00819771
0.00807833
0.00795948
0.0078411
0.00772318
0.00760568
0.00748852
0.00737168
0.00725483
0.00713815
0.00702184
0.00690579
0.00678992
0.00667421
0.00655866
0.00644309
0.00632758
0.00621232
0.00609729
0.00598237
0.00586749
0.00575254
0.00563759
0.00552253
0.00540814
0.00529452
0.00518166
0.00506923
0.00495712
0.00484532
0.00473386
0.00462289
0.00451294
0.00440318
0.00429261
0.00418174
0.00407143
0.00396274
0.00385528
0.00374891
0.00364344
0.00353869
0.00343493
0.003332
0.00322963
0.00312788
0.0030269
0.00292666
0.00282718
0.00272805
0.00262972
0.00253289
0.00243721
0.00234246
0.00224861
0.00215584
0.00206419
0.0019732
0.00188268
0.00179292
0.00170383
0.00161553
0.00152803
0.0014412
0.00135501
0.00126976
0.00118552
0.00110222
0.00101992
0.000938371
0.000857384
0.000777104
0.000697624
0.000618989
0.00054124
0.000464411
0.000388533
0.000313638
0.000239755
0.000166912
9.51315e-005
2.4439e-005
-4.51441e-005
-0.000113509
-0.000180719
-0.000247255
-0.00031295
-0.000377378
-0.000440583
-0.000502588
-0.000563368
-0.000622903
-0.000681174
-0.000738171
-0.00079389
-0.000848328
-0.000901465
-0.000953276
-0.00100374
-0.00105283
-0.00110054
-0.00114687
-0.0011918
-0.00123535
-0.00127752
-0.00131831
-0.00135762
-0.00139542
-0.00143172
-0.00146654
-0.00149987
-0.00153169
-0.00156199
-0.00159077
-0.00161801
-0.00164371
-0.00166786
-0.00169048
-0.00171154
-0.00173105
-0.00174898
-0.00176535
-0.00178015
-0.00179343
-0.00180517
-0.00181527
-0.00182374
-0.00183059
-0.00183583
-0.00183948
-0.00184152
-0.00184195
-0.00184078
-0.00183801
-0.00183363
-0.00182767
-0.00182011
-0.00181095
-0.00180021
-0.00178789
-0.00177398
-0.0017585
-0.00174145
-0.00172282
-0.00170263
-0.00168088
-0.00165758
-0.00163273
-0.00160634
-0.00157842
-0.00154898
-0.00151802
-0.00148556
-0.00145161
-0.00141617
-0.00137926
-0.00134089
-0.00130107
-0.00125983
-0.00121717
-0.00117312
-0.0011277
-0.00108093
-0.00103284
-0.000983466
-0.000932841
-0.000881014
-0.000828038
-0.000773981
-0.000718924
-0.000662959
-0.000606227
-0.000548817
-0.000491073
-0.000432726
-0.000375452
-0.000316428
-0.000262904
-0.000200637
-0.000162972
-7.88541e-005
-0.000114068
0.00946865
0.00947931
0.00946725
0.00943857
0.009395
0.00933848
0.00927147
0.00919615
0.00911436
0.00902756
0.00893674
0.00884271
0.008746
0.008647
0.00854599
0.00844327
0.00833904
0.00823347
0.00812662
0.00801859
0.00790963
0.00779983
0.00768931
0.00757816
0.00746643
0.00735419
0.0072414
0.00712818
0.00701468
0.00690094
0.00678698
0.00667281
0.00655848
0.006444
0.00632947
0.00621498
0.00610052
0.00598604
0.00587153
0.00575699
0.00564249
0.00552804
0.00541383
0.00530001
0.00518673
0.00507391
0.00496146
0.00484934
0.00473756
0.0046261
0.00451502
0.00440407
0.00429344
0.00418347
0.00407443
0.00396633
0.00385913
0.00375288
0.00364746
0.00354273
0.00343872
0.00333538
0.00323277
0.00313093
0.00302993
0.00292981
0.0028307
0.00273263
0.00263535
0.00253883
0.00244314
0.00234836
0.00225448
0.00216148
0.00206944
0.00197819
0.00188762
0.00179792
0.00170884
0.00162034
0.00153267
0.00144535
0.00135844
0.00127253
0.00118794
0.00110435
0.00102164
0.000939713
0.000858546
0.000778186
0.000698669
0.000620013
0.000542242
0.000465383
0.000389456
0.000314489
0.000240515
0.00016756
9.56536e-005
2.48227e-005
-4.48997e-005
-0.000113412
-0.0001807
-0.000247046
-0.000312488
-0.00037681
-0.000439971
-0.000501953
-0.000562722
-0.000622252
-0.000680524
-0.000737525
-0.000793251
-0.000847691
-0.000900828
-0.00095264
-0.0010031
-0.0010522
-0.00109991
-0.00114623
-0.00119114
-0.00123464
-0.00127668
-0.0013173
-0.00135656
-0.00139438
-0.00143072
-0.00146559
-0.00149896
-0.00153084
-0.00156121
-0.00159004
-0.00161735
-0.00164311
-0.00166733
-0.00169001
-0.00171114
-0.00173071
-0.00174872
-0.00176514
-0.00178
-0.00179328
-0.00180497
-0.00181506
-0.00182356
-0.00183045
-0.00183574
-0.00183944
-0.00184153
-0.00184202
-0.0018409
-0.00183818
-0.00183386
-0.00182796
-0.00182045
-0.00181135
-0.00180067
-0.0017884
-0.00177455
-0.00175913
-0.00174213
-0.00172356
-0.00170342
-0.00168173
-0.00165848
-0.00163369
-0.00160736
-0.0015795
-0.00155012
-0.00151923
-0.00148683
-0.00145294
-0.00141757
-0.00138072
-0.00134242
-0.00130267
-0.00126149
-0.0012189
-0.00117492
-0.00112957
-0.00108287
-0.00103485
-0.000985551
-0.000935002
-0.00088325
-0.000830352
-0.000776373
-0.000721396
-0.000665514
-0.000608867
-0.000551556
-0.000493918
-0.000435803
-0.00037855
-0.000320266
-0.000266363
-0.000206782
-0.000166051
-8.82905e-005
-0.000124409
0.00911472
0.00910087
0.00908247
0.00905743
0.00902609
0.00898894
0.00894625
0.0088983
0.00884527
0.00878732
0.00872451
0.00865699
0.00858491
0.00850845
0.00842784
0.00834335
0.00825528
0.00816391
0.00806953
0.00797242
0.0078729
0.00777123
0.00766767
0.00756245
0.00745575
0.00734775
0.00723858
0.00712842
0.00701742
0.00690573
0.00679342
0.00668057
0.00656728
0.00645361
0.00633967
0.00622555
0.00611128
0.0059969
0.00588242
0.00576788
0.00565334
0.00553888
0.00542463
0.00531071
0.00519717
0.005084
0.00497119
0.00485873
0.00474662
0.00463488
0.00452358
0.00441265
0.00430213
0.00419211
0.00408278
0.00397425
0.00386658
0.00375976
0.00365375
0.00354847
0.00344397
0.00334034
0.00323754
0.0031355
0.0030343
0.00293396
0.00283452
0.00273594
0.00263823
0.0025414
0.00244551
0.00235066
0.00225669
0.00216361
0.00207146
0.00197998
0.00188915
0.00179926
0.00171018
0.00162177
0.00153413
0.0014471
0.00136077
0.00127533
0.00119082
0.00110715
0.00102432
0.00094228
0.000861024
0.000780568
0.000700939
0.000622162
0.000544268
0.000467276
0.000391208
0.000316086
0.000241941
0.000168807
9.67071e-005
2.56606e-005
-4.43126e-005
-0.000113178
-0.000180903
-0.000247537
-0.000313109
-0.000377533
-0.000440777
-0.000502821
-0.000563644
-0.000623227
-0.000681551
-0.000738604
-0.000794377
-0.000848858
-0.00090203
-0.000953874
-0.00100437
-0.0010535
-0.00110124
-0.00114759
-0.00119251
-0.001236
-0.00127799
-0.0013185
-0.00135763
-0.00139536
-0.00143165
-0.00146647
-0.00149981
-0.00153165
-0.00156198
-0.00159079
-0.00161805
-0.00164379
-0.00166797
-0.00169061
-0.0017117
-0.00173123
-0.00174919
-0.00176557
-0.00178038
-0.00179361
-0.00180525
-0.0018153
-0.00182375
-0.0018306
-0.00183584
-0.00183948
-0.00184151
-0.00184194
-0.00184077
-0.00183799
-0.00183362
-0.00182765
-0.00182009
-0.00181092
-0.00180017
-0.00178783
-0.00177392
-0.00175842
-0.00174135
-0.00172272
-0.00170251
-0.00168075
-0.00165743
-0.00163256
-0.00160616
-0.00157823
-0.00154878
-0.00151782
-0.00148535
-0.00145139
-0.00141594
-0.00137902
-0.00134065
-0.00130082
-0.00125957
-0.0012169
-0.00117284
-0.00112741
-0.00108062
-0.00103252
-0.000983122
-0.00093247
-0.000880606
-0.000827582
-0.00077346
-0.00071832
-0.000662244
-0.000605371
-0.000547768
-0.000489808
-0.000431122
-0.000373638
-0.00031405
-0.000260699
-0.000197744
-0.000161732
-7.92083e-005
-0.000117413
0.00876474
0.00872147
0.00869439
0.00867297
0.00865544
0.00864038
0.00862523
0.00860781
0.00858637
0.00855958
0.00852653
0.00848675
0.00844008
0.00838657
0.00832644
0.00826005
0.00818785
0.00811032
0.00802793
0.00794117
0.00785051
0.0077564
0.00765925
0.0075594
0.0074572
0.00735293
0.00724684
0.00713919
0.00703021
0.00692008
0.00680898
0.00669705
0.00658441
0.00647119
0.00635753
0.00624351
0.00612921
0.0060147
0.00590002
0.00578524
0.00567044
0.00555569
0.00544109
0.00532672
0.00521265
0.00509892
0.00498552
0.00487248
0.00475974
0.00464737
0.00453549
0.0044241
0.00431323
0.0042029
0.00409327
0.0039844
0.00387634
0.00376909
0.00366266
0.00355694
0.00345197
0.00334798
0.00324486
0.00314245
0.00304095
0.00294041
0.00284078
0.00274208
0.00264428
0.00254726
0.0024512
0.00235621
0.0022621
0.00216876
0.00207637
0.00198469
0.00189374
0.00180367
0.0017144
0.00162567
0.00153765
0.00145036
0.00136383
0.0012781
0.00119323
0.00110921
0.00102604
0.000943682
0.000862142
0.000781428
0.000701567
0.000622583
0.0005445
0.00046734
0.000391116
0.000315848
0.000241567