/*--------------------------------*- C++ -*----------------------------------*\
| =========                 |                                                 |
| \\      /  F ield         | OpenFOAM: The Open Source CFD Toolbox           |
|  \\    /   O peration     | Version:  5.x                                   |
|   \\  /    A nd           | Web:      www.OpenFOAM.org                      |
|    \\/     M anipulation  |                                                 |
\*---------------------------------------------------------------------------*/
/*   Windows 32 and 64 bit porting by blueCAPE: http://www.bluecape.com.pt   *\
|  Based on Windows porting (2.0.x v4) by Symscape: http://www.symscape.com   |
\*---------------------------------------------------------------------------*/
FoamFile
{
    version     2.0;
    format      ascii;
    class       surfaceScalarField;
    location    "2833";
    object      phi;
}
// * * * * * * * * * * * * * * * * * * * * * * * * * * * * * * * * * * * * * //

dimensions      [0 3 -1 0 0 0 0];

internalField   nonuniform List<scalar> 
7780
(
4.99612e-005
3.87861e-008
4.98433e-005
1.17919e-007
4.96896e-005
1.53699e-007
4.95176e-005
1.7197e-007
4.93358e-005
1.81781e-007
4.91484e-005
1.8747e-007
4.89581e-005
1.90325e-007
4.87659e-005
1.9211e-007
4.85734e-005
1.92532e-007
4.83811e-005
1.92318e-007
4.81891e-005
1.91953e-007
4.79976e-005
1.9158e-007
4.78064e-005
1.9113e-007
4.76158e-005
1.90582e-007
4.7426e-005
1.89875e-007
4.72369e-005
1.89046e-007
4.70487e-005
1.88183e-007
4.68614e-005
1.87315e-007
4.6675e-005
1.86418e-007
4.64895e-005
1.85499e-007
4.63049e-005
1.84588e-007
4.61213e-005
1.83659e-007
4.59386e-005
1.82709e-007
4.57568e-005
1.81745e-007
4.5576e-005
1.80772e-007
4.53962e-005
1.79792e-007
4.52174e-005
1.78801e-007
4.50396e-005
1.778e-007
4.48628e-005
1.76798e-007
4.46871e-005
1.75793e-007
4.45123e-005
1.74785e-007
4.43385e-005
1.73771e-007
4.41657e-005
1.72756e-007
4.3994e-005
1.71741e-007
4.38233e-005
1.70727e-007
4.36536e-005
1.69715e-007
4.34848e-005
1.68708e-007
4.33171e-005
1.67701e-007
4.31505e-005
1.66694e-007
4.29848e-005
1.65682e-007
4.28201e-005
1.64665e-007
4.26565e-005
1.63643e-007
4.24938e-005
1.62618e-007
4.23323e-005
1.61595e-007
4.21717e-005
1.60585e-007
4.20121e-005
1.59571e-007
4.18535e-005
1.58552e-007
4.1696e-005
1.5754e-007
4.15395e-005
1.56529e-007
4.1384e-005
1.55516e-007
4.12295e-005
1.54498e-007
4.1076e-005
1.53472e-007
4.09236e-005
1.52437e-007
4.07722e-005
1.51391e-007
4.06218e-005
1.50335e-007
4.04726e-005
1.4927e-007
4.03244e-005
1.48195e-007
4.01772e-005
1.47113e-007
4.00312e-005
1.46022e-007
3.98863e-005
1.44924e-007
3.97425e-005
1.43818e-007
3.95998e-005
1.42704e-007
3.94582e-005
1.4158e-007
3.93178e-005
1.40448e-007
3.91784e-005
1.39307e-007
3.90403e-005
1.38157e-007
3.89033e-005
1.36997e-007
3.87675e-005
1.35828e-007
3.86328e-005
1.3465e-007
3.84993e-005
1.33466e-007
3.83671e-005
1.32274e-007
3.8236e-005
1.31079e-007
3.81061e-005
1.29881e-007
3.79774e-005
1.28688e-007
3.78499e-005
1.27507e-007
3.77236e-005
1.26358e-007
3.75983e-005
1.25279e-007
3.74739e-005
1.2433e-007
3.73504e-005
1.23572e-007
3.72274e-005
1.22988e-007
3.71049e-005
1.22492e-007
3.69829e-005
1.22029e-007
3.68613e-005
1.21576e-007
3.67402e-005
1.21117e-007
3.66195e-005
1.20643e-007
3.64994e-005
1.2015e-007
3.63797e-005
1.19637e-007
3.62606e-005
1.19104e-007
3.61421e-005
1.1855e-007
3.60241e-005
1.17978e-007
3.59067e-005
1.17386e-007
3.579e-005
1.16777e-007
3.56738e-005
1.1615e-007
3.55583e-005
1.15507e-007
3.54434e-005
1.14849e-007
3.53293e-005
1.14176e-007
3.52158e-005
1.1349e-007
3.5103e-005
1.12791e-007
3.49909e-005
1.1208e-007
3.48796e-005
1.11351e-007
3.4769e-005
1.10602e-007
3.46591e-005
1.09842e-007
3.455e-005
1.09071e-007
3.44418e-005
1.0829e-007
3.43343e-005
1.075e-007
3.42276e-005
1.06701e-007
3.41217e-005
1.05892e-007
3.40166e-005
1.05076e-007
3.39123e-005
1.04251e-007
3.38089e-005
1.03418e-007
3.37063e-005
1.02577e-007
3.36046e-005
1.01729e-007
3.35037e-005
1.00874e-007
3.34037e-005
1.00012e-007
3.33046e-005
9.91434e-008
3.32063e-005
9.82683e-008
3.31089e-005
9.7387e-008
3.30124e-005
9.64998e-008
3.29168e-005
9.56069e-008
3.28221e-005
9.47088e-008
3.27283e-005
9.38056e-008
3.26354e-005
9.28977e-008
3.25434e-005
9.19853e-008
3.24524e-005
9.10682e-008
3.23622e-005
9.01466e-008
3.2273e-005
8.92204e-008
3.21847e-005
8.82899e-008
3.20973e-005
8.73554e-008
3.20109e-005
8.64172e-008
3.19254e-005
8.54758e-008
3.18409e-005
8.45315e-008
3.17573e-005
8.35844e-008
3.16747e-005
8.26348e-008
3.1593e-005
8.1683e-008
3.15123e-005
8.07293e-008
3.14325e-005
7.97739e-008
3.13537e-005
7.8817e-008
3.12758e-005
7.78584e-008
3.11989e-005
7.68984e-008
3.1123e-005
7.59369e-008
3.1048e-005
7.49742e-008
3.0974e-005
7.40104e-008
3.0901e-005
7.30461e-008
3.08289e-005
7.20815e-008
3.07578e-005
7.11171e-008
3.06876e-005
7.01529e-008
3.06184e-005
6.9189e-008
3.05502e-005
6.82254e-008
3.04829e-005
6.7262e-008
3.04166e-005
6.6299e-008
3.03513e-005
6.53365e-008
3.02869e-005
6.43749e-008
3.02235e-005
6.34149e-008
3.01611e-005
6.24573e-008
3.00996e-005
6.15025e-008
3.0039e-005
6.05505e-008
2.99794e-005
5.96012e-008
2.99207e-005
5.86539e-008
2.9863e-005
5.77083e-008
2.98063e-005
5.67645e-008
2.97505e-005
5.58229e-008
2.96956e-005
5.48842e-008
2.96416e-005
5.39489e-008
2.95886e-005
5.30175e-008
2.95365e-005
5.20903e-008
2.94853e-005
5.11673e-008
2.94351e-005
5.02479e-008
2.93858e-005
4.93329e-008
2.93373e-005
4.84222e-008
2.92898e-005
4.7516e-008
2.92432e-005
4.66146e-008
2.91975e-005
4.57184e-008
2.91527e-005
4.48279e-008
2.91087e-005
4.39432e-008
2.90657e-005
4.30643e-008
2.90235e-005
4.21913e-008
2.89821e-005
4.13241e-008
2.89417e-005
4.04628e-008
2.89021e-005
3.96079e-008
2.88633e-005
3.87597e-008
2.88254e-005
3.79189e-008
2.87883e-005
3.7086e-008
2.8752e-005
3.62618e-008
2.87166e-005
3.54471e-008
2.8682e-005
3.46427e-008
2.86481e-005
3.38497e-008
2.8615e-005
3.30694e-008
2.85827e-005
3.23033e-008
2.85512e-005
3.15533e-008
2.85204e-005
3.08229e-008
2.84902e-005
3.01128e-008
2.84608e-005
2.94337e-008
2.8432e-005
2.877e-008
2.84039e-005
2.81795e-008
2.83763e-005
2.75267e-008
2.83492e-005
2.71413e-008
2.83228e-005
2.63449e-008
2.82961e-005
2.67124e-008
2.82703e-005
2.58793e-008
2.94287e-008
5.00493e-005
-1.05545e-008
5.01077e-005
5.95599e-008
5.01578e-005
1.03583e-007
5.01966e-005
1.33161e-007
5.02256e-005
1.52764e-007
5.02466e-005
1.66543e-007
5.02611e-005
1.75839e-007
5.02706e-005
1.82603e-007
5.02759e-005
1.87202e-007
5.02776e-005
1.90652e-007
5.0276e-005
1.9352e-007
5.02714e-005
1.96169e-007
5.02642e-005
1.98337e-007
5.02547e-005
2.00078e-007
5.02434e-005
2.01218e-007
5.02305e-005
2.01891e-007
5.02163e-005
2.0239e-007
5.02009e-005
2.02762e-007
5.01843e-005
2.02959e-007
5.01668e-005
2.03016e-007
5.01484e-005
2.03004e-007
5.01292e-005
2.0286e-007
5.01093e-005
2.02612e-007
5.00887e-005
2.02282e-007
5.00676e-005
2.01881e-007
5.0046e-005
2.01426e-007
5.00239e-005
2.00903e-007
5.00014e-005
2.00324e-007
4.99785e-005
1.99717e-007
4.99552e-005
1.99079e-007
4.99315e-005
1.98408e-007
4.99076e-005
1.97702e-007
4.98834e-005
1.96972e-007
4.98589e-005
1.96225e-007
4.98342e-005
1.95463e-007
4.98092e-005
1.94696e-007
4.9784e-005
1.93927e-007
4.97585e-005
1.93154e-007
4.97328e-005
1.92372e-007
4.9707e-005
1.91575e-007
4.96809e-005
1.90761e-007
4.96546e-005
1.89934e-007
4.96281e-005
1.89089e-007
4.96015e-005
1.88229e-007
4.95747e-005
1.87367e-007
4.95478e-005
1.86499e-007
4.95207e-005
1.85631e-007
4.94934e-005
1.84768e-007
4.94661e-005
1.83907e-007
4.94385e-005
1.83043e-007
4.94109e-005
1.82174e-007
4.9383e-005
1.813e-007
4.93551e-005
1.80418e-007
4.93269e-005
1.79527e-007
4.92986e-005
1.78626e-007
4.92702e-005
1.77717e-007
4.92416e-005
1.768e-007
4.92128e-005
1.75878e-007
4.91839e-005
1.74952e-007
4.91548e-005
1.7402e-007
4.91255e-005
1.73082e-007
4.90961e-005
1.72139e-007
4.90665e-005
1.71188e-007
4.90367e-005
1.70229e-007
4.90067e-005
1.69262e-007
4.89766e-005
1.68286e-007
4.89463e-005
1.67301e-007
4.89158e-005
1.66309e-007
4.88852e-005
1.6531e-007
4.88543e-005
1.64306e-007
4.88233e-005
1.63296e-007
4.87921e-005
1.62285e-007
4.87607e-005
1.61274e-007
4.87291e-005
1.6027e-007
4.86973e-005
1.59282e-007
4.86654e-005
1.58322e-007
4.86333e-005
1.57413e-007
4.8601e-005
1.5656e-007
4.85689e-005
1.55705e-007
4.8537e-005
1.54868e-007
4.85054e-005
1.54103e-007
4.8474e-005
1.53385e-007
4.84429e-005
1.52697e-007
4.8412e-005
1.52024e-007
4.83813e-005
1.5136e-007
4.83507e-005
1.50698e-007
4.83203e-005
1.50036e-007
4.82901e-005
1.49372e-007
4.82599e-005
1.48705e-007
4.82299e-005
1.48033e-007
4.81999e-005
1.47355e-007
4.817e-005
1.46671e-007
4.81402e-005
1.45982e-007
4.81104e-005
1.45287e-007
4.80807e-005
1.44586e-007
4.8051e-005
1.43879e-007
4.80213e-005
1.43167e-007
4.79916e-005
1.4245e-007
4.7962e-005
1.41736e-007
4.79323e-005
1.40998e-007
4.79027e-005
1.40229e-007
4.78731e-005
1.39458e-007
4.78435e-005
1.38684e-007
4.78138e-005
1.37907e-007
4.77842e-005
1.37126e-007
4.77546e-005
1.36339e-007
4.77249e-005
1.35548e-007
4.76953e-005
1.3475e-007
4.76656e-005
1.33946e-007
4.76358e-005
1.33136e-007
4.76061e-005
1.32319e-007
4.75763e-005
1.31497e-007
4.75465e-005
1.30668e-007
4.75167e-005
1.29833e-007
4.74869e-005
1.28992e-007
4.7457e-005
1.28144e-007
4.74271e-005
1.27291e-007
4.73972e-005
1.26432e-007
4.73672e-005
1.25566e-007
4.73372e-005
1.24695e-007
4.73072e-005
1.23818e-007
4.72772e-005
1.22935e-007
4.72471e-005
1.22046e-007
4.7217e-005
1.21152e-007
4.71869e-005
1.20253e-007
4.71568e-005
1.19347e-007
4.71266e-005
1.18437e-007
4.70965e-005
1.17522e-007
4.70663e-005
1.16602e-007
4.70361e-005
1.15678e-007
4.70059e-005
1.14749e-007
4.69756e-005
1.13816e-007
4.69454e-005
1.12879e-007
4.69151e-005
1.11938e-007
4.68849e-005
1.10993e-007
4.68546e-005
1.10045e-007
4.68243e-005
1.09094e-007
4.6794e-005
1.08139e-007
4.67638e-005
1.0718e-007
4.67335e-005
1.06218e-007
4.67032e-005
1.05253e-007
4.66729e-005
1.04285e-007
4.66427e-005
1.03314e-007
4.66124e-005
1.02341e-007
4.65821e-005
1.01366e-007
4.65519e-005
1.00389e-007
4.65217e-005
9.94104e-008
4.64915e-005
9.84298e-008
4.64613e-005
9.74472e-008
4.64311e-005
9.64626e-008
4.6401e-005
9.54765e-008
4.63709e-005
9.44895e-008
4.63408e-005
9.35023e-008
4.63107e-005
9.25155e-008
4.62807e-005
9.15289e-008
4.62507e-005
9.05423e-008
4.62208e-005
8.95551e-008
4.61908e-005
8.85671e-008
4.6161e-005
8.75785e-008
4.61312e-005
8.65898e-008
4.61014e-005
8.56018e-008
4.60716e-005
8.46148e-008
4.6042e-005
8.36292e-008
4.60123e-005
8.2645e-008
4.59828e-005
8.16624e-008
4.59533e-005
8.06816e-008
4.59238e-005
7.97029e-008
4.58944e-005
7.87266e-008
4.58651e-005
7.77529e-008
4.58358e-005
7.67819e-008
4.58066e-005
7.58138e-008
4.57775e-005
7.4849e-008
4.57484e-005
7.38874e-008
4.57194e-005
7.29293e-008
4.56905e-005
7.19745e-008
4.56617e-005
7.10233e-008
4.56329e-005
7.00761e-008
4.56043e-005
6.91335e-008
4.55757e-005
6.81962e-008
4.55472e-005
6.72647e-008
4.55188e-005
6.63397e-008
4.54904e-005
6.54218e-008
4.54622e-005
6.45121e-008
4.5434e-005
6.36115e-008
4.54059e-005
6.27214e-008
4.53779e-005
6.18438e-008
4.535e-005
6.09808e-008
4.53222e-005
6.01355e-008
4.52944e-005
5.93109e-008
4.52667e-005
5.85121e-008
4.52391e-005
5.77416e-008
4.52115e-005
5.70131e-008
4.5184e-005
5.63116e-008
4.51565e-005
5.57047e-008
4.51289e-005
5.50523e-008
4.51014e-005
5.47156e-008
4.50734e-005
5.43538e-008
4.50456e-005
5.44696e-008
4.50163e-005
5.5191e-008
5.60429e-008
5.00365e-005
-4.70852e-008
5.00887e-005
7.3881e-009
5.01422e-005
5.00626e-008
5.0193e-005
8.23831e-008
5.02393e-005
1.06462e-007
5.02812e-005
1.24605e-007
5.03189e-005
1.38132e-007
5.03534e-005
1.48141e-007
5.03845e-005
1.56087e-007
5.04125e-005
1.62634e-007
5.04381e-005
1.67968e-007
5.04616e-005
1.7267e-007
5.04833e-005
1.76639e-007
5.05034e-005
1.79925e-007
5.05224e-005
1.82307e-007
5.05401e-005
1.84167e-007
5.05566e-005
1.85906e-007
5.05719e-005
1.87438e-007
5.05863e-005
1.88534e-007
5.05999e-005
1.89383e-007
5.06128e-005
1.90166e-007
5.0625e-005
1.90637e-007
5.06367e-005
1.9094e-007
5.06479e-005
1.91109e-007
5.06586e-005
1.91175e-007
5.06688e-005
1.91159e-007
5.06787e-005
1.91017e-007
5.06883e-005
1.90781e-007
5.06975e-005
1.90506e-007
5.07064e-005
1.90176e-007
5.0715e-005
1.8979e-007
5.07233e-005
1.89341e-007
5.07315e-005
1.88848e-007
5.07394e-005
1.88327e-007
5.0747e-005
1.87782e-007
5.07545e-005
1.87234e-007
5.07618e-005
1.86687e-007
5.07688e-005
1.86133e-007
5.07756e-005
1.85562e-007
5.07822e-005
1.84965e-007
5.07886e-005
1.84345e-007
5.07948e-005
1.83706e-007
5.08009e-005
1.83022e-007
5.08068e-005
1.82309e-007
5.08126e-005
1.81599e-007
5.08182e-005
1.8089e-007
5.08236e-005
1.80184e-007
5.08289e-005
1.79478e-007
5.08341e-005
1.78773e-007
5.0839e-005
1.78068e-007
5.08439e-005
1.77361e-007
5.08485e-005
1.7665e-007
5.0853e-005
1.75933e-007
5.08573e-005
1.75205e-007
5.08615e-005
1.74465e-007
5.08655e-005
1.73716e-007
5.08693e-005
1.72962e-007
5.0873e-005
1.72206e-007
5.08765e-005
1.71448e-007
5.08798e-005
1.70688e-007
5.0883e-005
1.69926e-007
5.0886e-005
1.6916e-007
5.08888e-005
1.68389e-007
5.08914e-005
1.67612e-007
5.08938e-005
1.66828e-007
5.08961e-005
1.66037e-007
5.08981e-005
1.65241e-007
5.09e-005
1.6444e-007
5.09017e-005
1.63634e-007
5.09031e-005
1.62825e-007
5.09044e-005
1.62013e-007
5.09055e-005
1.612e-007
5.09064e-005
1.6039e-007
5.09071e-005
1.59589e-007
5.09076e-005
1.58801e-007
5.09078e-005
1.58035e-007
5.0908e-005
1.57294e-007
5.09079e-005
1.56576e-007
5.09078e-005
1.55851e-007
5.09075e-005
1.55124e-007
5.09072e-005
1.54424e-007
5.09069e-005
1.53751e-007
5.09065e-005
1.53099e-007
5.0906e-005
1.52463e-007
5.09055e-005
1.51838e-007
5.0905e-005
1.5122e-007
5.09044e-005
1.50608e-007
5.09038e-005
1.49997e-007
5.09031e-005
1.49388e-007
5.09024e-005
1.48778e-007
5.09016e-005
1.48167e-007
5.09007e-005
1.47553e-007
5.08997e-005
1.46938e-007
5.08987e-005
1.46319e-007
5.08976e-005
1.45698e-007
5.08964e-005
1.45073e-007
5.08951e-005
1.44446e-007
5.08938e-005
1.43817e-007
5.08923e-005
1.43192e-007
5.08907e-005
1.4255e-007
5.08891e-005
1.41881e-007
5.08873e-005
1.41206e-007
5.08855e-005
1.4053e-007
5.08836e-005
1.39852e-007
5.08815e-005
1.39172e-007
5.08794e-005
1.38489e-007
5.08771e-005
1.37802e-007
5.08747e-005
1.37111e-007
5.08723e-005
1.36415e-007
5.08697e-005
1.35715e-007
5.0867e-005
1.3501e-007
5.08642e-005
1.34301e-007
5.08613e-005
1.33588e-007
5.08582e-005
1.3287e-007
5.08551e-005
1.32147e-007
5.08518e-005
1.3142e-007
5.08484e-005
1.30688e-007
5.08449e-005
1.2995e-007
5.08413e-005
1.29207e-007
5.08375e-005
1.2846e-007
5.08336e-005
1.27707e-007
5.08296e-005
1.26949e-007
5.08254e-005
1.26186e-007
5.08212e-005
1.25418e-007
5.08168e-005
1.24647e-007
5.08123e-005
1.23871e-007
5.08076e-005
1.23091e-007
5.08028e-005
1.22307e-007
5.07979e-005
1.2152e-007
5.07929e-005
1.20728e-007
5.07877e-005
1.19933e-007
5.07824e-005
1.19133e-007
5.07769e-005
1.1833e-007
5.07713e-005
1.17523e-007
5.07656e-005
1.16713e-007
5.07597e-005
1.15899e-007
5.07538e-005
1.15082e-007
5.07476e-005
1.14262e-007
5.07414e-005
1.13439e-007
5.0735e-005
1.12613e-007
5.07285e-005
1.11784e-007
5.07218e-005
1.10952e-007
5.0715e-005
1.10117e-007
5.0708e-005
1.0928e-007
5.0701e-005
1.0844e-007
5.06938e-005
1.07599e-007
5.06864e-005
1.06755e-007
5.06789e-005
1.05909e-007
5.06713e-005
1.05062e-007
5.06636e-005
1.04213e-007
5.06557e-005
1.03362e-007
5.06477e-005
1.02511e-007
5.06395e-005
1.01659e-007
5.06312e-005
1.00805e-007
5.06228e-005
9.99512e-008
5.06142e-005
9.90957e-008
5.06056e-005
9.8239e-008
5.05967e-005
9.73813e-008
5.05878e-005
9.65232e-008
5.05787e-005
9.56652e-008
5.05695e-005
9.48076e-008
5.05602e-005
9.39505e-008
5.05507e-005
9.30939e-008
5.05411e-005
9.22378e-008
5.05314e-005
9.13825e-008
5.05216e-005
9.05283e-008
5.05116e-005
8.96754e-008
5.05015e-005
8.88241e-008
5.04913e-005
8.79748e-008
5.04809e-005
8.71275e-008
5.04705e-005
8.62822e-008
5.04599e-005
8.5439e-008
5.04492e-005
8.45978e-008
5.04383e-005
8.37588e-008
5.04274e-005
8.29224e-008
5.04163e-005
8.2089e-008
5.04051e-005
8.1259e-008
5.03938e-005
8.04328e-008
5.03824e-005
7.9611e-008
5.03709e-005
7.87943e-008
5.03592e-005
7.79835e-008
5.03475e-005
7.71793e-008
5.03356e-005
7.63828e-008
5.03236e-005
7.55952e-008
5.03115e-005
7.4818e-008
5.02993e-005
7.40536e-008
5.0287e-005
7.33046e-008
5.02746e-005
7.25746e-008
5.0262e-005
7.1868e-008
5.02493e-005
7.11901e-008
5.02365e-005
7.05472e-008
5.02236e-005
6.99498e-008
5.02105e-005
6.9404e-008
5.01973e-005
6.89365e-008
5.01837e-005
6.85852e-008
5.01701e-005
6.82924e-008
5.01561e-005
6.83694e-008
5.01423e-005
6.82741e-008
5.01283e-005
6.92294e-008
6.90494e-008
5.00312e-005
-7.83252e-008
5.00728e-005
-3.41911e-008
5.0119e-005
3.92751e-009
5.0166e-005
3.53041e-008
5.02119e-005
6.05483e-008
5.02558e-005
8.0728e-008
5.02972e-005
9.67765e-008
5.03358e-005
1.09542e-007
5.03719e-005
1.19987e-007
5.04058e-005
1.28722e-007
5.04377e-005
1.36017e-007
5.04682e-005
1.42259e-007
5.04972e-005
1.47611e-007
5.05251e-005
1.52041e-007
5.05518e-005
1.55529e-007
5.05775e-005
1.58515e-007
5.06021e-005
1.61267e-007
5.06258e-005
1.63768e-007
5.06488e-005
1.65564e-007
5.06713e-005
1.66878e-007
5.06933e-005
1.68171e-007
5.07148e-005
1.69122e-007
5.07359e-005
1.6985e-007
5.07566e-005
1.70398e-007
5.07769e-005
1.7083e-007
5.07969e-005
1.71172e-007
5.08167e-005
1.7127e-007
5.08362e-005
1.7127e-007
5.08554e-005
1.71261e-007
5.08745e-005
1.71153e-007
5.08933e-005
1.70963e-007
5.09119e-005
1.70671e-007
5.09305e-005
1.70335e-007
5.09488e-005
1.69969e-007
5.0967e-005
1.69571e-007
5.09851e-005
1.69176e-007
5.1003e-005
1.68788e-007
5.10207e-005
1.68395e-007
5.10383e-005
1.67982e-007
5.10558e-005
1.67515e-007
5.10731e-005
1.67006e-007
5.10903e-005
1.66475e-007
5.11074e-005
1.65895e-007
5.11245e-005
1.65284e-007
5.11414e-005
1.64674e-007
5.11582e-005
1.64074e-007
5.11749e-005
1.63489e-007
5.11915e-005
1.62909e-007
5.12079e-005
1.62331e-007
5.12242e-005
1.61751e-007
5.12404e-005
1.6117e-007
5.12565e-005
1.60587e-007
5.12724e-005
1.59998e-007
5.12882e-005
1.59393e-007
5.13039e-005
1.58769e-007
5.13195e-005
1.58135e-007
5.1335e-005
1.57497e-007
5.13503e-005
1.56861e-007
5.13655e-005
1.56229e-007
5.13806e-005
1.55598e-007
5.13956e-005
1.54968e-007
5.14104e-005
1.54335e-007
5.14251e-005
1.537e-007
5.14397e-005
1.53061e-007
5.14541e-005
1.52416e-007
5.14683e-005
1.51766e-007
5.14825e-005
1.51111e-007
5.14965e-005
1.50454e-007
5.15103e-005
1.49795e-007
5.1524e-005
1.49132e-007
5.15375e-005
1.48467e-007
5.15509e-005
1.47802e-007
5.15642e-005
1.4714e-007
5.15773e-005
1.46485e-007
5.15902e-005
1.45844e-007
5.16031e-005
1.45218e-007
5.16157e-005
1.44611e-007
5.16283e-005
1.4402e-007
5.16407e-005
1.43429e-007
5.1653e-005
1.42836e-007
5.16652e-005
1.42256e-007
5.16772e-005
1.41693e-007
5.16892e-005
1.41143e-007
5.17011e-005
1.40604e-007
5.17128e-005
1.40073e-007
5.17245e-005
1.39548e-007
5.17361e-005
1.39027e-007
5.17476e-005
1.38509e-007
5.1759e-005
1.37992e-007
5.17703e-005
1.37474e-007
5.17815e-005
1.36956e-007
5.17926e-005
1.36436e-007
5.18036e-005
1.35914e-007
5.18145e-005
1.35389e-007
5.18254e-005
1.34861e-007
5.18361e-005
1.34331e-007
5.18468e-005
1.33797e-007
5.18573e-005
1.3326e-007
5.18678e-005
1.32719e-007
5.18782e-005
1.32171e-007
5.18885e-005
1.31612e-007
5.18986e-005
1.31048e-007
5.19087e-005
1.30481e-007
5.19186e-005
1.2991e-007
5.19284e-005
1.29336e-007
5.19382e-005
1.28758e-007
5.19478e-005
1.28177e-007
5.19573e-005
1.27593e-007
5.19667e-005
1.27005e-007
5.1976e-005
1.26413e-007
5.19852e-005
1.25818e-007
5.19943e-005
1.2522e-007
5.20033e-005
1.24618e-007
5.20121e-005
1.24013e-007
5.20209e-005
1.23404e-007
5.20295e-005
1.2279e-007
5.2038e-005
1.22173e-007
5.20464e-005
1.21551e-007
5.20547e-005
1.20924e-007
5.20629e-005
1.20293e-007
5.20709e-005
1.19658e-007
5.20788e-005
1.19018e-007
5.20867e-005
1.18375e-007
5.20943e-005
1.17728e-007
5.21019e-005
1.17079e-007
5.21094e-005
1.16426e-007
5.21167e-005
1.1577e-007
5.21239e-005
1.15111e-007
5.21309e-005
1.14448e-007
5.21379e-005
1.13783e-007
5.21447e-005
1.13114e-007
5.21514e-005
1.12443e-007
5.2158e-005
1.11768e-007
5.21644e-005
1.1109e-007
5.21707e-005
1.10409e-007
5.21769e-005
1.09725e-007
5.21829e-005
1.09039e-007
5.21888e-005
1.0835e-007
5.21946e-005
1.07659e-007
5.22003e-005
1.06965e-007
5.22058e-005
1.06269e-007
5.22112e-005
1.0557e-007
5.22164e-005
1.04869e-007
5.22215e-005
1.04165e-007
5.22265e-005
1.0346e-007
5.22313e-005
1.02753e-007
5.22361e-005
1.02044e-007
5.22406e-005
1.01334e-007
5.22451e-005
1.00624e-007
5.22494e-005
9.99115e-008
5.22535e-005
9.91983e-008
5.22576e-005
9.84837e-008
5.22614e-005
9.77678e-008
5.22652e-005
9.70506e-008
5.22688e-005
9.63322e-008
5.22723e-005
9.5613e-008
5.22757e-005
9.48931e-008
5.22789e-005
9.4173e-008
5.22819e-005
9.34529e-008
5.22849e-005
9.27331e-008
5.22877e-005
9.20136e-008
5.22903e-005
9.12946e-008
5.22928e-005
9.0576e-008
5.22952e-005
8.9858e-008
5.22975e-005
8.91407e-008
5.22996e-005
8.84243e-008
5.23015e-005
8.77092e-008
5.23033e-005
8.69956e-008
5.2305e-005
8.62838e-008
5.23066e-005
8.55739e-008
5.2308e-005
8.48659e-008
5.23093e-005
8.41598e-008
5.23104e-005
8.34557e-008
5.23114e-005
8.27537e-008
5.23123e-005
8.20541e-008
5.2313e-005
8.13572e-008
5.23136e-005
8.06633e-008
5.23141e-005
7.9973e-008
5.23144e-005
7.9287e-008
5.23146e-005
7.8606e-008
5.23147e-005
7.79307e-008
5.23146e-005
7.7262e-008
5.23144e-005
7.6601e-008
5.2314e-005
7.59489e-008
5.23135e-005
7.53074e-008
5.23129e-005
7.46787e-008
5.23121e-005
7.40659e-008
5.23112e-005
7.34728e-008
5.23102e-005
7.29043e-008
5.2309e-005
7.23658e-008
5.23077e-005
7.18659e-008
5.23062e-005
7.14117e-008
5.23046e-005
7.10231e-008
5.23029e-005
7.06954e-008
5.23009e-005
7.05305e-008
5.22988e-005
7.03642e-008
5.22966e-005
7.05837e-008
5.22943e-005
7.05599e-008
5.22922e-005
7.13791e-008
7.11572e-008
5.00288e-005
-1.07167e-007
5.00651e-005
-7.04236e-008
5.01056e-005
-3.66438e-008
5.01481e-005
-7.17983e-009
5.01908e-005
1.78576e-008
5.02327e-005
3.88533e-008
5.02731e-005
5.63346e-008
5.03118e-005
7.08667e-008
5.03487e-005
8.30752e-008
5.0384e-005
9.34393e-008
5.04178e-005
1.02256e-007
5.04502e-005
1.0982e-007
5.04815e-005
1.16308e-007
5.05117e-005
1.21808e-007
5.05409e-005
1.26385e-007
5.05691e-005
1.30287e-007
5.05966e-005
1.33752e-007
5.06235e-005
1.36863e-007
5.06498e-005
1.3929e-007
5.06756e-005
1.41099e-007
5.07011e-005
1.42702e-007
5.07262e-005
1.44012e-007
5.0751e-005
1.45061e-007
5.07755e-005
1.4588e-007
5.07997e-005
1.46624e-007
5.08235e-005
1.47327e-007
5.08472e-005
1.476e-007
5.08708e-005
1.47656e-007
5.08943e-005
1.47778e-007
5.09176e-005
1.47849e-007
5.09408e-005
1.47795e-007
5.09638e-005
1.47596e-007
5.09868e-005
1.47383e-007
5.10096e-005
1.47141e-007
5.10324e-005
1.46835e-007
5.1055e-005
1.46548e-007
5.10775e-005
1.46276e-007
5.10999e-005
1.45997e-007
5.11222e-005
1.45685e-007
5.11444e-005
1.45307e-007
5.11665e-005
1.4487e-007
5.11886e-005
1.44399e-007
5.12106e-005
1.43886e-007
5.12325e-005
1.43355e-007
5.12544e-005
1.42823e-007
5.12762e-005
1.42312e-007
5.12978e-005
1.41826e-007
5.13194e-005
1.41344e-007
5.13409e-005
1.40863e-007
5.13622e-005
1.40382e-007
5.13835e-005
1.39907e-007
5.14046e-005
1.39434e-007
5.14257e-005
1.38951e-007
5.14466e-005
1.38437e-007
5.14675e-005
1.37895e-007
5.14883e-005
1.37344e-007
5.1509e-005
1.36793e-007
5.15296e-005
1.36251e-007
5.15501e-005
1.35721e-007
5.15705e-005
1.35197e-007
5.15908e-005
1.34676e-007
5.1611e-005
1.34156e-007
5.16311e-005
1.33634e-007
5.1651e-005
1.33109e-007
5.16709e-005
1.32577e-007
5.16906e-005
1.32039e-007
5.17102e-005
1.31501e-007
5.17297e-005
1.30964e-007
5.17491e-005
1.30425e-007
5.17683e-005
1.29883e-007
5.17874e-005
1.29337e-007
5.18064e-005
1.2879e-007
5.18253e-005
1.28245e-007
5.18441e-005
1.27706e-007
5.18628e-005
1.27178e-007
5.18813e-005
1.26663e-007
5.18998e-005
1.26161e-007
5.19181e-005
1.25672e-007
5.19364e-005
1.25187e-007
5.19545e-005
1.24708e-007
5.19725e-005
1.24237e-007
5.19904e-005
1.23776e-007
5.20083e-005
1.23323e-007
5.2026e-005
1.22877e-007
5.20436e-005
1.22436e-007
5.20612e-005
1.22001e-007
5.20786e-005
1.2157e-007
5.2096e-005
1.21143e-007
5.21133e-005
1.20717e-007
5.21305e-005
1.20291e-007
5.21475e-005
1.19864e-007
5.21645e-005
1.19436e-007
5.21815e-005
1.19006e-007
5.21983e-005
1.18573e-007
5.2215e-005
1.18137e-007
5.22316e-005
1.17698e-007
5.22482e-005
1.17257e-007
5.22646e-005
1.16813e-007
5.2281e-005
1.16365e-007
5.22972e-005
1.15912e-007
5.23134e-005
1.15452e-007
5.23295e-005
1.14987e-007
5.23454e-005
1.14518e-007
5.23613e-005
1.14047e-007
5.2377e-005
1.13573e-007
5.23927e-005
1.13096e-007
5.24083e-005
1.12616e-007
5.24237e-005
1.12133e-007
5.24391e-005
1.11648e-007
5.24543e-005
1.11159e-007
5.24695e-005
1.10668e-007
5.24845e-005
1.10174e-007
5.24995e-005
1.09677e-007
5.25143e-005
1.09177e-007
5.2529e-005
1.08673e-007
5.25437e-005
1.08166e-007
5.25582e-005
1.07656e-007
5.25726e-005
1.07141e-007
5.25869e-005
1.06622e-007
5.26011e-005
1.06099e-007
5.26152e-005
1.05572e-007
5.26291e-005
1.05043e-007
5.2643e-005
1.04511e-007
5.26568e-005
1.03976e-007
5.26704e-005
1.03438e-007
5.26839e-005
1.02898e-007
5.26973e-005
1.02356e-007
5.27106e-005
1.0181e-007
5.27238e-005
1.01262e-007
5.27369e-005
1.00712e-007
5.27499e-005
1.00159e-007
5.27627e-005
9.96029e-008
5.27754e-005
9.90448e-008
5.2788e-005
9.84843e-008
5.28005e-005
9.79215e-008
5.28129e-005
9.73564e-008
5.28251e-005
9.67891e-008
5.28373e-005
9.62196e-008
5.28493e-005
9.56479e-008
5.28612e-005
9.5074e-008
5.28729e-005
9.44982e-008
5.28846e-005
9.39202e-008
5.28961e-005
9.33401e-008
5.29075e-005
9.27581e-008
5.29188e-005
9.21745e-008
5.293e-005
9.15897e-008
5.2941e-005
9.10039e-008
5.29519e-005
9.04173e-008
5.29627e-005
8.98299e-008
5.29734e-005
8.92414e-008
5.29839e-005
8.86515e-008
5.29944e-005
8.80601e-008
5.30047e-005
8.74673e-008
5.30148e-005
8.68732e-008
5.30249e-005
8.62783e-008
5.30348e-005
8.5683e-008
5.30446e-005
8.50875e-008
5.30543e-005
8.44921e-008
5.30639e-005
8.38969e-008
5.30733e-005
8.33021e-008
5.30826e-005
8.27077e-008
5.30918e-005
8.21137e-008
5.31008e-005
8.15202e-008
5.31098e-005
8.09274e-008
5.31186e-005
8.03352e-008
5.31273e-005
7.9744e-008
5.31358e-005
7.91539e-008
5.31442e-005
7.85652e-008
5.31525e-005
7.79782e-008
5.31607e-005
7.73929e-008
5.31688e-005
7.68094e-008
5.31767e-005
7.62279e-008
5.31845e-005
7.56482e-008
5.31922e-005
7.50705e-008
5.31998e-005
7.4495e-008
5.32072e-005
7.39219e-008
5.32145e-005
7.33517e-008
5.32217e-005
7.27848e-008
5.32288e-005
7.22219e-008
5.32357e-005
7.16638e-008
5.32425e-005
7.11111e-008
5.32492e-005
7.05648e-008
5.32558e-005
7.00257e-008
5.32623e-005
6.94952e-008
5.32686e-005
6.8975e-008
5.32748e-005
6.84672e-008
5.32809e-005
6.79748e-008
5.32869e-005
6.75015e-008
5.32927e-005
6.70521e-008
5.32984e-005
6.66318e-008
5.33041e-005
6.62493e-008
5.33096e-005
6.591e-008
5.3315e-005
6.56358e-008
5.33202e-005
6.54148e-008
5.33254e-005
6.53352e-008
5.33305e-005
6.52586e-008
5.33356e-005
6.54704e-008
5.33407e-005
6.5507e-008
5.3346e-005
6.60997e-008
6.60381e-008
5.00276e-005
-1.348e-007
5.00605e-005
-1.03329e-007
5.00971e-005
-7.32512e-008
5.01358e-005
-4.58737e-008
5.01753e-005
-2.16262e-008
5.02147e-005
-5.02857e-010
5.02533e-005
1.77187e-008
5.02908e-005
3.33608e-008
5.03271e-005
4.68099e-008
5.03621e-005
5.84069e-008
5.03959e-005
6.84066e-008
5.04287e-005
7.70433e-008
5.04605e-005
8.44918e-008
5.04915e-005
9.08765e-008
5.05216e-005
9.63048e-008
5.05509e-005
1.00952e-007
5.05797e-005
1.04979e-007
5.06081e-005
1.08473e-007
5.0636e-005
1.11368e-007
5.06634e-005
1.13705e-007
5.06904e-005
1.15659e-007
5.07172e-005
1.17267e-007
5.07436e-005
1.1857e-007
5.07699e-005
1.19618e-007
5.0796e-005
1.20555e-007
5.08219e-005
1.21404e-007
5.08476e-005
1.21856e-007
5.08733e-005
1.22039e-007
5.08988e-005
1.22221e-007
5.09243e-005
1.22359e-007
5.09497e-005
1.22374e-007
5.0975e-005
1.22291e-007
5.10002e-005
1.22235e-007
5.10252e-005
1.22096e-007
5.10503e-005
1.21802e-007
5.10753e-005
1.21531e-007
5.11002e-005
1.21331e-007
5.11251e-005
1.21139e-007
5.11499e-005
1.20902e-007
5.11746e-005
1.206e-007
5.11992e-005
1.20232e-007
5.12238e-005
1.19813e-007
5.12483e-005
1.19333e-007
5.12729e-005
1.18828e-007
5.12973e-005
1.18365e-007
5.13217e-005
1.17969e-007
5.13459e-005
1.17595e-007
5.137e-005
1.17204e-007
5.13941e-005
1.16805e-007
5.14181e-005
1.1641e-007
5.1442e-005
1.16024e-007
5.14658e-005
1.15639e-007
5.14895e-005
1.1524e-007
5.15131e-005
1.14791e-007
5.15367e-005
1.14301e-007
5.15602e-005
1.13812e-007
5.15837e-005
1.13328e-007
5.16071e-005
1.12867e-007
5.16304e-005
1.12432e-007
5.16536e-005
1.12007e-007
5.16767e-005
1.11586e-007
5.16996e-005
1.11166e-007
5.17225e-005
1.10744e-007
5.17453e-005
1.10316e-007
5.1768e-005
1.09881e-007
5.17906e-005
1.09443e-007
5.18131e-005
1.09013e-007
5.18355e-005
1.08585e-007
5.18578e-005
1.08152e-007
5.18799e-005
1.07709e-007
5.1902e-005
1.07264e-007
5.1924e-005
1.06817e-007
5.19459e-005
1.06368e-007
5.19676e-005
1.05928e-007
5.19893e-005
1.05496e-007
5.20109e-005
1.05075e-007
5.20324e-005
1.04669e-007
5.20538e-005
1.04273e-007
5.20751e-005
1.03883e-007
5.20963e-005
1.035e-007
5.21174e-005
1.03122e-007
5.21384e-005
1.02751e-007
5.21594e-005
1.02385e-007
5.21802e-005
1.02022e-007
5.2201e-005
1.01663e-007
5.22217e-005
1.0131e-007
5.22423e-005
1.00964e-007
5.22628e-005
1.00623e-007
5.22833e-005
1.00283e-007
5.23036e-005
9.99435e-008
5.23239e-005
9.9603e-008
5.23441e-005
9.92611e-008
5.23641e-005
9.89175e-008
5.23841e-005
9.8572e-008
5.24041e-005
9.82245e-008
5.24239e-005
9.78748e-008
5.24436e-005
9.75227e-008
5.24633e-005
9.7168e-008
5.24828e-005
9.68103e-008
5.25023e-005
9.64485e-008
5.25216e-005
9.60821e-008
5.25409e-005
9.57121e-008
5.25601e-005
9.53393e-008
5.25792e-005
9.49642e-008
5.25982e-005
9.45869e-008
5.26171e-005
9.42071e-008
5.26358e-005
9.38248e-008
5.26545e-005
9.34401e-008
5.26731e-005
9.3053e-008
5.26916e-005
9.26634e-008
5.271e-005
9.22714e-008
5.27283e-005
9.18769e-008
5.27465e-005
9.14798e-008
5.27646e-005
9.10801e-008
5.27826e-005
9.06776e-008
5.28005e-005
9.0272e-008
5.28183e-005
8.98632e-008
5.2836e-005
8.94508e-008
5.28536e-005
8.90351e-008
5.28711e-005
8.86162e-008
5.28884e-005
8.81946e-008
5.29057e-005
8.77707e-008
5.29229e-005
8.73446e-008