/*--------------------------------*- C++ -*----------------------------------*\
| =========                 |                                                 |
| \\      /  F ield         | OpenFOAM: The Open Source CFD Toolbox           |
|  \\    /   O peration     | Version:  5.x                                   |
|   \\  /    A nd           | Web:      www.OpenFOAM.org                      |
|    \\/     M anipulation  |                                                 |
\*---------------------------------------------------------------------------*/
/*   Windows 32 and 64 bit porting by blueCAPE: http://www.bluecape.com.pt   *\
|  Based on Windows porting (2.0.x v4) by Symscape: http://www.symscape.com   |
\*---------------------------------------------------------------------------*/
FoamFile
{
    version     2.0;
    format      ascii;
    class       volVectorField;
    location    "2833";
    object      U;
}
// * * * * * * * * * * * * * * * * * * * * * * * * * * * * * * * * * * * * * //

dimensions      [0 1 -1 0 0 0 0];

internalField   nonuniform List<vector> 
4000
(
(0.999143 0.000750767 2.14123e-023)
(0.997621 0.00243078 0)
(0.994318 0.00350703 0)
(0.990411 0.00388472 0)
(0.986349 0.00403882 0)
(0.982166 0.00409475 0)
(0.9779 0.00410137 -3.10362e-023)
(0.973595 0.00407377 0)
(0.969275 0.00402994 0)
(0.96496 0.00398247 -2.76048e-023)
(0.960656 0.00393588 0)
(0.956365 0.00389207 0)
(0.952087 0.00384985 -2.51445e-023)
(0.947822 0.00380899 0)
(0.943573 0.00376902 -2.39033e-023)
(0.939344 0.00372973 -2.33672e-023)
(0.935137 0.00369163 -2.28702e-023)
(0.930951 0.00365463 -2.24087e-023)
(0.926786 0.00361841 -2.19799e-023)
(0.922644 0.00358303 -2.15783e-023)
(0.918524 0.00354855 -2.11995e-023)
(0.914427 0.00351483 -2.08422e-023)
(0.910351 0.00348203 0)
(0.906299 0.00345026 -2.01774e-023)
(0.90227 0.00341951 -1.98648e-023)
(0.898264 0.00338971 -1.95628e-023)
(0.894282 0.00336075 -1.92699e-023)
(0.890323 0.00333256 -1.89843e-023)
(0.886388 0.00330514 -1.87042e-023)
(0.882477 0.00327837 -1.84291e-023)
(0.878589 0.00325213 0)
(0.874725 0.00322629 -1.78898e-023)
(0.870885 0.00320078 -1.76238e-023)
(0.867068 0.00317557 -1.73591e-023)
(0.863276 0.00315061 -1.70954e-023)
(0.859506 0.00312589 -1.68322e-023)
(0.855761 0.00310137 -1.65696e-023)
(0.852039 0.00307701 -1.63073e-023)
(0.84834 0.00305277 -1.60455e-023)
(0.844664 0.0030286 0)
(0.841013 0.00300447 -1.55216e-023)
(0.837384 0.00298042 -1.52589e-023)
(0.83378 0.00295646 -1.49953e-023)
(0.830198 0.00293279 -1.47304e-023)
(0.826641 0.00290943 -1.44638e-023)
(0.823106 0.00288502 -1.41958e-023)
(0.819595 0.00285988 -1.39263e-023)
(0.816107 0.00283552 0)
(0.812643 0.00281177 -1.33831e-023)
(0.809201 0.00278838 -1.31095e-023)
(0.805782 0.00276517 -1.28348e-023)
(0.802387 0.00274202 -1.25591e-023)
(0.799015 0.00271883 -1.22824e-023)
(0.795667 0.00269555 -1.20047e-023)
(0.792343 0.00267215 -1.17262e-023)
(0.789042 0.0026486 -1.14466e-023)
(0.785765 0.0026249 0)
(0.782513 0.00260103 -1.08851e-023)
(0.779285 0.002577 -1.06033e-023)
(0.776081 0.00255279 -1.03211e-023)
(0.772902 0.00252841 -1.00386e-023)
(0.769747 0.00250385 -9.75604e-024)
(0.766617 0.00247909 -9.47355e-024)
(0.763512 0.00245416 -9.19127e-024)
(0.760432 0.00242903 0)
(0.757377 0.00240372 -8.62792e-024)
(0.754347 0.00237821 -8.34717e-024)
(0.751343 0.00235247 -8.06728e-024)
(0.748365 0.00232658 -7.7884e-024)
(0.745412 0.00230054 -7.51071e-024)
(0.742485 0.00227437 -7.23445e-024)
(0.739584 0.00224808 -6.95986e-024)
(0.736709 0.00222172 -6.68727e-024)
(0.73386 0.00219537 -6.41708e-024)
(0.731036 0.00216916 -6.14979e-024)
(0.728238 0.00214341 -5.88604e-024)
(0.725464 0.00211867 -5.6265e-024)
(0.722712 0.00209632 -5.37197e-024)
(0.719981 0.00207976 -5.12259e-024)
(0.717263 0.00206969 -4.87258e-024)
(0.714559 0.00206297 -4.61712e-024)
(0.711866 0.00205729 0)
(0.709185 0.00205172 -4.09831e-024)
(0.706515 0.0020458 -3.83693e-024)
(0.703856 0.00203932 -3.5747e-024)
(0.701209 0.00203219 -3.31203e-024)
(0.698575 0.00202439 -3.04922e-024)
(0.695953 0.00201592 -2.78652e-024)
(0.693344 0.0020068 -2.52417e-024)
(0.690748 0.00199707 -2.26234e-024)
(0.688166 0.00198675 0)
(0.685597 0.00197587 -1.74099e-024)
(0.683043 0.00196446 -1.48179e-024)
(0.680504 0.00195256 -1.22378e-024)
(0.677979 0.00194019 -9.67098e-025)
(0.67547 0.00192738 -7.11904e-025)
(0.672976 0.00191417 -4.5834e-025)
(0.670497 0.00190057 -2.06612e-025)
(0.668034 0.00188661 4.31578e-026)
(0.665588 0.00187216 2.90393e-025)
(0.663157 0.00185714 5.35448e-025)
(0.660744 0.00184167 7.79108e-025)
(0.658347 0.00182589 1.0209e-024)
(0.655967 0.00180985 1.26043e-024)
(0.653605 0.00179359 1.49756e-024)
(0.65126 0.00177715 1.73215e-024)
(0.648932 0.00176053 1.96406e-024)
(0.646622 0.00174374 2.19314e-024)
(0.64433 0.00172679 2.41929e-024)
(0.642055 0.00170969 2.64237e-024)
(0.639799 0.00169244 2.86227e-024)
(0.637561 0.00167505 3.0789e-024)
(0.635341 0.00165754 3.29215e-024)
(0.633139 0.00163989 3.5019e-024)
(0.630956 0.00162213 3.70804e-024)
(0.628791 0.00160425 3.91049e-024)
(0.626645 0.00158627 4.10913e-024)
(0.624518 0.00156818 4.30387e-024)
(0.62241 0.00155001 4.4946e-024)
(0.62032 0.00153175 4.68121e-024)
(0.61825 0.00151342 4.8636e-024)
(0.616198 0.00149502 5.04168e-024)
(0.614166 0.00147656 5.21534e-024)
(0.612152 0.00145803 5.38447e-024)
(0.610158 0.00143945 5.54899e-024)
(0.608183 0.00142081 5.70879e-024)
(0.606228 0.00140212 5.86376e-024)
(0.604292 0.00138337 6.01382e-024)
(0.602375 0.00136459 6.15886e-024)
(0.600478 0.00134577 6.2988e-024)
(0.5986 0.00132693 6.43354e-024)
(0.596742 0.00130807 6.563e-024)
(0.594903 0.00128921 6.68708e-024)
(0.593084 0.00127033 6.8057e-024)
(0.591284 0.00125146 6.91878e-024)
(0.589504 0.00123258 7.02625e-024)
(0.587743 0.00121372 7.12802e-024)
(0.586002 0.00119487 7.22402e-024)
(0.584281 0.00117604 7.31418e-024)
(0.582579 0.00115722 7.39843e-024)
(0.580897 0.00113841 7.47669e-024)
(0.579234 0.00111964 7.5489e-024)
(0.577591 0.00110089 7.61497e-024)
(0.575968 0.00108218 7.67487e-024)
(0.574364 0.00106352 7.72852e-024)
(0.572779 0.0010449 7.77588e-024)
(0.571214 0.00102633 7.81688e-024)
(0.569668 0.00100781 7.85148e-024)
(0.568142 0.000989336 7.87961e-024)
(0.566635 0.000970921 7.90123e-024)
(0.565147 0.000952563 7.91627e-024)
(0.563679 0.000934266 7.92469e-024)
(0.562229 0.000916041 7.92646e-024)
(0.560799 0.000897899 7.92157e-024)
(0.559388 0.000879853 7.90998e-024)
(0.557996 0.000861907 7.89167e-024)
(0.556623 0.00084406 7.86662e-024)
(0.555269 0.000826305 7.8348e-024)
(0.553934 0.000808634 7.79618e-024)
(0.552617 0.000791042 7.75072e-024)
(0.551319 0.000773536 7.69841e-024)
(0.55004 0.000756125 7.63921e-024)
(0.548779 0.000738824 7.57314e-024)
(0.547536 0.00072164 7.50018e-024)
(0.546312 0.000704577 7.42035e-024)
(0.545106 0.000687638 7.33364e-024)
(0.543918 0.00067077 7.24001e-024)
(0.542749 0.000654025 7.13949e-024)
(0.541597 0.000637407 7.0321e-024)
(0.540463 0.000620915 6.91783e-024)
(0.539346 0.000604551 6.7967e-024)
(0.538248 0.000588326 6.66872e-024)
(0.537166 0.000572249 6.53391e-024)
(0.536102 0.000556326 6.39229e-024)
(0.535056 0.000540559 6.24389e-024)
(0.534026 0.000524945 6.08871e-024)
(0.533013 0.00050948 5.92676e-024)
(0.532017 0.000494163 5.75807e-024)
(0.531038 0.000478997 5.58263e-024)
(0.530075 0.000463987 5.40044e-024)
(0.529129 0.000449143 5.21151e-024)
(0.528199 0.000434475 5.01584e-024)
(0.527285 0.000419994 4.81342e-024)
(0.526386 0.000405712 4.60421e-024)
(0.525504 0.000391641 4.38818e-024)
(0.524636 0.000377792 4.16527e-024)
(0.523784 0.000364179 3.93538e-024)
(0.522947 0.000350821 3.69839e-024)
(0.522125 0.000337742 3.45404e-024)
(0.521317 0.000324988 3.20228e-024)
(0.520523 0.000312574 2.94235e-024)
(0.519742 0.000300634 2.67504e-024)
(0.518974 0.000288984 2.39682e-024)
(0.518217 0.000278318 2.11473e-024)
(0.517478 0.000266995 1.80873e-024)
(0.516733 0.000259628 1.52577e-024)
(0.516038 0.000244062 1.14449e-024)
(0.515255 0.000248392 9.62148e-025)
(0.514719 0.000227694 3.02014e-025)
(0.513583 0.000287568 7.79309e-025)
(1.00018 0.00115668 6.8149e-024)
(1.00081 0.00276741 0)
(1.00147 0.00347813 0)
(1.00184 0.00394639 0)
(1.00201 0.00424029 0)
(1.002 0.00444138 0)
(1.00185 0.00456291 -2.35782e-023)
(1.00158 0.00466927 0)
(1.00123 0.00472805 0)
(1.0008 0.00476023 -2.20707e-023)
(1.0003 0.00478509 0)
(0.99974 0.00480622 0)
(0.999124 0.00482406 -2.05261e-023)
(0.99846 0.0048366 0)
(0.997755 0.00484238 -1.96877e-023)
(0.997019 0.00484363 -1.92981e-023)
(0.996255 0.00484266 -1.89193e-023)
(0.995467 0.00484049 -1.85621e-023)
(0.994656 0.00483645 -1.8229e-023)
(0.993826 0.00483093 -1.79085e-023)
(0.992978 0.00482512 -1.75979e-023)
(0.992114 0.00481766 -1.73072e-023)
(0.991236 0.00480838 0)
(0.990347 0.00479758 -1.67533e-023)
(0.989446 0.00478552 -1.64873e-023)
(0.988535 0.00477236 -1.62275e-023)
(0.987615 0.00475806 -1.59739e-023)
(0.986688 0.00474272 -1.5724e-023)
(0.985753 0.00472667 -1.54764e-023)
(0.984812 0.00470999 -1.52321e-023)
(0.983865 0.00469279 0)
(0.982912 0.00467514 -1.47495e-023)
(0.981955 0.00465718 -1.45097e-023)
(0.980993 0.00463905 -1.42703e-023)
(0.980027 0.00462077 -1.40314e-023)
(0.979057 0.00460243 -1.37926e-023)
(0.978083 0.00458409 -1.35544e-023)
(0.977105 0.00456569 -1.33172e-023)
(0.976124 0.00454714 -1.3081e-023)
(0.97514 0.00452838 0)
(0.974152 0.00450939 -1.26105e-023)
(0.973162 0.00449016 -1.23756e-023)
(0.972169 0.00447058 -1.2141e-023)
(0.971173 0.00445074 -1.19053e-023)
(0.970176 0.00443096 -1.16672e-023)
(0.969176 0.00441158 -1.14269e-023)
(0.968175 0.00439265 -1.11868e-023)
(0.967171 0.00437375 0)
(0.966166 0.00435463 -1.07106e-023)
(0.965159 0.00433523 -1.0473e-023)
(0.96415 0.00431552 -1.02356e-023)
(0.963139 0.00429553 -9.99848e-024)
(0.962126 0.00427524 -9.76163e-024)
(0.961111 0.00425467 -9.5251e-024)
(0.960093 0.00423385 -9.2888e-024)
(0.959074 0.0042128 -9.05266e-024)
(0.958053 0.00419157 0)
(0.95703 0.00417019 -8.5813e-024)
(0.956004 0.00414868 -8.34642e-024)
(0.954977 0.00412704 -8.11234e-024)
(0.953947 0.00410525 -7.87922e-024)
(0.952915 0.00408333 -7.64721e-024)
(0.95188 0.00406125 -7.41643e-024)
(0.950843 0.00403901 -7.18698e-024)
(0.949804 0.0040166 0)
(0.948762 0.003994 -6.73243e-024)
(0.947718 0.00397123 -6.50745e-024)
(0.946672 0.0039483 -6.28415e-024)
(0.945623 0.00392523 -6.0627e-024)
(0.944572 0.00390201 -5.8432e-024)
(0.943518 0.00387869 -5.62572e-024)
(0.942462 0.0038553 -5.41034e-024)
(0.941403 0.00383191 -5.1971e-024)
(0.940342 0.00380864 -4.986e-024)
(0.939277 0.00378569 -4.77688e-024)
(0.938211 0.0037634 -4.5692e-024)
(0.937141 0.00374254 -4.36172e-024)
(0.93607 0.00372349 -4.15072e-024)
(0.934999 0.0037046 -3.93224e-024)
(0.933934 0.00368643 -3.71778e-024)
(0.932874 0.00367032 -3.51546e-024)
(0.931821 0.00365532 0)
(0.930774 0.0036409 -3.12152e-024)
(0.929732 0.00362674 -2.92618e-024)
(0.928695 0.00361261 -2.73173e-024)
(0.927662 0.00359841 -2.53804e-024)
(0.926633 0.0035841 -2.34518e-024)
(0.925608 0.00356964 -2.1533e-024)
(0.924586 0.00355503 -1.96252e-024)
(0.923568 0.00354026 -1.77296e-024)
(0.922552 0.00352532 0)
(0.921538 0.00351022 -1.39796e-024)
(0.920527 0.00349495 -1.21272e-024)
(0.919518 0.00347953 -1.02911e-024)
(0.918511 0.00346395 -8.47219e-025)
(0.917505 0.00344824 -6.6714e-025)
(0.916501 0.00343239 -4.88957e-025)
(0.915498 0.00341642 -3.12809e-025)
(0.914497 0.00340036 -1.38749e-025)
(0.913496 0.00338417 3.26901e-026)
(0.912497 0.00336782 2.01989e-025)
(0.911499 0.00335133 3.69691e-025)
(0.910502 0.00333469 5.35135e-025)
(0.909506 0.00331788 6.98186e-025)
(0.908511 0.00330089 8.58838e-025)
(0.907516 0.00328373 1.01702e-024)
(0.906523 0.0032664 1.17267e-024)
(0.90553 0.0032489 1.32569e-024)
(0.904537 0.00323123 1.47605e-024)
(0.903545 0.00321341 1.62366e-024)
(0.902553 0.00319543 1.76851e-024)
(0.901562 0.0031773 1.91052e-024)
(0.900571 0.00315902 2.04966e-024)
(0.899581 0.00314061 2.18585e-024)
(0.898591 0.00312205 2.31904e-024)
(0.897602 0.00310336 2.44921e-024)
(0.896613 0.00308453 2.57632e-024)
(0.895624 0.00306558 2.70032e-024)
(0.894636 0.0030465 2.82115e-024)
(0.893649 0.0030273 2.93878e-024)
(0.892661 0.00300798 3.05314e-024)
(0.891674 0.00298855 3.1642e-024)
(0.890688 0.002969 3.2719e-024)
(0.889702 0.00294934 3.37621e-024)
(0.888717 0.00292956 3.47711e-024)
(0.887732 0.00290967 3.57454e-024)
(0.886747 0.00288966 3.66847e-024)
(0.885764 0.00286955 3.75885e-024)
(0.88478 0.00284935 3.84567e-024)
(0.883798 0.00282906 3.92888e-024)
(0.882816 0.00280867 4.00847e-024)
(0.881834 0.00278821 4.08437e-024)
(0.880854 0.00276767 4.15656e-024)
(0.879874 0.00274705 4.22501e-024)
(0.878894 0.00272637 4.28969e-024)
(0.877916 0.00270562 4.35058e-024)
(0.876938 0.0026848 4.40766e-024)
(0.875961 0.00266392 4.4609e-024)
(0.874985 0.00264298 4.51027e-024)
(0.87401 0.00262197 4.55575e-024)
(0.873036 0.0026009 4.59731e-024)
(0.872063 0.00257977 4.63495e-024)
(0.87109 0.0025586 4.66865e-024)
(0.870119 0.00253739 4.69841e-024)
(0.869149 0.00251615 4.72419e-024)
(0.86818 0.00249489 4.74598e-024)
(0.867212 0.0024736 4.76376e-024)
(0.866246 0.00245227 4.77751e-024)
(0.86528 0.00243092 4.78721e-024)
(0.864316 0.00240953 4.79287e-024)
(0.863354 0.00238812 4.79446e-024)
(0.862392 0.00236669 4.79199e-024)
(0.861432 0.00234527 4.78547e-024)
(0.860474 0.00232387 4.77488e-024)
(0.859516 0.00230249 4.76022e-024)
(0.858561 0.00228113 4.74149e-024)
(0.857607 0.00225978 4.71868e-024)
(0.856654 0.00223842 4.6918e-024)
(0.855703 0.00221707 4.66083e-024)
(0.854754 0.00219571 4.62579e-024)
(0.853807 0.00217438 4.58666e-024)
(0.852861 0.00215308 4.54346e-024)
(0.851917 0.00213181 4.4962e-024)
(0.850975 0.00211059 4.44489e-024)
(0.850035 0.00208942 4.38953e-024)
(0.849097 0.0020683 4.33013e-024)
(0.848161 0.00204724 4.26674e-024)
(0.847226 0.00202625 4.19929e-024)
(0.846294 0.00200533 4.12781e-024)
(0.845364 0.00198447 4.05233e-024)
(0.844435 0.00196368 3.97287e-024)
(0.843509 0.00194298 3.88944e-024)
(0.842585 0.00192236 3.80207e-024)
(0.841664 0.00190183 3.71077e-024)
(0.840744 0.00188138 3.61554e-024)
(0.839827 0.00186102 3.5164e-024)
(0.838912 0.00184075 3.41338e-024)
(0.837999 0.00182058 3.3065e-024)
(0.837089 0.00180052 3.19576e-024)
(0.836181 0.00178059 3.08118e-024)
(0.835275 0.0017608 2.96276e-024)
(0.834372 0.00174116 2.84051e-024)
(0.833471 0.00172168 2.71444e-024)
(0.832573 0.0017024 2.58456e-024)
(0.831676 0.00168332 2.45086e-024)
(0.830783 0.00166449 2.31333e-024)
(0.829891 0.00164593 2.17193e-024)
(0.829002 0.0016277 2.02663e-024)
(0.828116 0.00160985 1.87732e-024)
(0.827231 0.00159246 1.72409e-024)
(0.826348 0.00157556 1.56633e-024)
(0.825467 0.00155941 1.40517e-024)
(0.824589 0.00154362 1.23674e-024)
(0.823709 0.00152971 1.07025e-024)
(0.822837 0.00151404 8.78477e-025)
(0.821947 0.00150506 7.34491e-025)
(0.821105 0.00149112 4.8546e-025)
(0.820131 0.00149421 4.60939e-025)
(0.819459 0.00149339 5.95267e-026)
(0.81809 0.00153776 5.17231e-025)
(1.00008 0.000603523 -1.03754e-023)
(1.00044 0.00177488 0)
(1.00106 0.00269991 0)
(1.00162 0.00337127 0)
(1.00209 0.00384525 0)
(1.00247 0.00418806 0)
(1.00276 0.00443218 3.06574e-023)
(1.00298 0.00459536 0)
(1.00313 0.00472299 0)
(1.00322 0.00483109 3.06095e-023)
(1.00325 0.00492166 0)
(1.00324 0.00500743 0)
(1.00319 0.0050771 2.97664e-023)
(1.0031 0.00513621 0)
(1.00299 0.00517819 2.917e-023)
(1.00286 0.00520446 2.88626e-023)
(1.0027 0.00522564 2.85436e-023)
(1.00252 0.0052431 2.82259e-023)
(1.00231 0.00525519 2.79152e-023)
(1.0021 0.00526245 2.76038e-023)
(1.00186 0.00526703 2.72904e-023)
(1.00161 0.00526894 2.69854e-023)
(1.00135 0.0052687 0)
(1.00108 0.00526653 2.63758e-023)
(1.00081 0.00526273 2.60698e-023)
(1.00052 0.00525782 2.57629e-023)
(1.00022 0.00525112 2.54553e-023)
(0.999922 0.00524325 2.51451e-023)
(0.999614 0.00523494 7.46601e-023)
(0.9993 0.00522568 2.45147e-023)
(0.99898 0.00521536 0)
(0.998656 0.00520395 2.38719e-023)
(0.998326 0.00519173 2.35445e-023)
(0.997993 0.00517894 2.32126e-023)
(0.997656 0.00516562 6.88415e-023)
(0.997314 0.00515208 2.25365e-023)
(0.996969 0.00513845 2.21928e-023)
(0.99662 0.00512469 2.18465e-023)
(0.996266 0.00511069 2.14977e-023)
(0.995909 0.00509624 0)
(0.995549 0.00508139 6.26123e-023)
(0.995185 0.00506635 2.04352e-023)
(0.994818 0.00505108 2.00755e-023)
(0.994449 0.00503556 1.97118e-023)
(0.994077 0.00501991 1.9343e-023)
(0.993702 0.00500398 1.89695e-023)
(0.993324 0.00498772 5.60245e-023)
(0.992944 0.00497133 0)
(0.992561 0.00495493 1.78375e-023)
(0.992176 0.00493857 1.7457e-023)
(0.991787 0.00492223 1.7075e-023)
(0.991396 0.00490588 1.66917e-023)
(0.991002 0.00488948 1.63073e-023)
(0.990605 0.00487296 1.59219e-023)
(0.990206 0.00485626 1.55356e-023)
(0.989803 0.00483943 1.51484e-023)
(0.989398 0.00482249 0)
(0.98899 0.00480548 1.43721e-023)
(0.98858 0.0047884 1.39836e-023)
(0.988166 0.00477124 1.35954e-023)
(0.987749 0.004754 1.32078e-023)
(0.98733 0.00473664 1.28211e-023)
(0.986907 0.00471917 1.24355e-023)
(0.986481 0.00470154 1.20513e-023)
(0.986053 0.00468375 0)
(0.98562 0.0046658 1.12878e-023)
(0.985185 0.00464769 1.09089e-023)
(0.984747 0.00462944 1.05322e-023)
(0.984305 0.00461108 1.01581e-023)
(0.98386 0.0045926 9.78672e-024)
(0.983411 0.00457406 9.41831e-024)
(0.98296 0.00455547 9.05312e-024)
(0.982504 0.00453693 8.69143e-024)
(0.982045 0.00451853 8.33348e-024)
(0.981583 0.00450043 7.97948e-024)
(0.981118 0.00448282 7.62937e-024)
(0.980649 0.00446589 7.28252e-024)
(0.980178 0.00444968 6.93615e-024)
(0.979704 0.00443373 6.5866e-024)
(0.97923 0.00441785 6.24e-024)
(0.978753 0.00440229 5.90081e-024)
(0.978276 0.00438718 0)
(0.977799 0.00437251 5.22846e-024)
(0.977322 0.0043582 -5.13063e-024)
(0.976844 0.00434414 -4.79464e-024)
(0.976366 0.00433027 4.22593e-024)
(0.975888 0.0043165 3.894e-024)
(0.975409 0.0043028 3.56363e-024)
(0.974929 0.00428912 3.23509e-024)
(0.974449 0.00427542 2.90859e-024)
(0.973968 0.00426168 -5.40186e-024)
(0.973486 0.00424789 2.26255e-024)
(0.973003 0.00423403 1.94339e-024)
(0.97252 0.0042201 1.62704e-024)
(0.972035 0.0042061 1.31365e-024)
(0.971549 0.00419203 1.00339e-024)
(0.971062 0.00417788 -9.32501e-025)
(0.970574 0.00416368 3.92989e-025)
(0.970084 0.00414966 9.31895e-026)
(0.969594 0.00413481 -2.02175e-025)
(0.969101 0.00411888 -4.93742e-025)
(0.968608 0.00410299 -7.82456e-025)
(0.968113 0.00408723 8.42684e-025)
(0.967617 0.00407154 -1.34846e-024)
(0.967119 0.00405587 -1.62534e-024)
(0.96662 0.00404018 -1.89798e-024)
(0.966119 0.00402443 -2.16625e-024)
(0.965617 0.00400861 -2.43001e-024)
(0.965113 0.00399271 -2.68916e-024)
(0.964608 0.00397672 2.71356e-024)
(0.964101 0.00396063 -3.19323e-024)
(0.963592 0.00394443 -3.43797e-024)
(0.963082 0.00392813 -3.67773e-024)
(0.96257 0.00391173 -3.91241e-024)
(0.962056 0.00389522 -4.14192e-024)
(0.961541 0.00387861 4.12894e-024)
(0.961023 0.00386188 -4.58516e-024)
(0.960504 0.00384504 -4.79874e-024)
(0.959983 0.00382809 -5.00686e-024)
(0.95946 0.00381102 -5.20942e-024)
(0.958936 0.00379385 -5.40634e-024)
(0.958409 0.00377655 5.3528e-024)
(0.957881 0.00375915 -5.78298e-024)
(0.95735 0.00374163 -5.96255e-024)
(0.956818 0.00372401 -6.13621e-024)
(0.956284 0.00370628 -6.30388e-024)
(0.955748 0.00368846 -6.4655e-024)
(0.95521 0.00367055 6.36858e-024)
(0.95467 0.00365255 -6.77032e-024)
(0.954128 0.00363446 -6.91341e-024)
(0.953585 0.00361628 -7.05021e-024)
(0.953039 0.003598 -7.18066e-024)
(0.952491 0.00357964 -7.3047e-024)
(0.951941 0.0035612 7.16245e-024)
(0.951389 0.00354267 -7.53336e-024)
(0.950835 0.00352408 -7.63789e-024)
(0.950279 0.00350541 -7.73584e-024)
(0.949721 0.00348667 -7.82717e-024)
(0.949161 0.00346785 -7.91184e-024)
(0.948599 0.00344896 7.72296e-024)
(0.948035 0.00343 -8.06102e-024)
(0.947469 0.00341098 -8.12547e-024)
(0.946902 0.00339189 -8.18313e-024)
(0.946332 0.00337275 -8.23398e-024)
(0.94576 0.00335356 -8.27799e-024)
(0.945186 0.00333431 -8.31512e-024)
(0.94461 0.00331503 8.0711e-024)
(0.944032 0.00329569 -8.36868e-024)
(0.943452 0.00327631 -8.38505e-024)
(0.94287 0.00325689 -8.39447e-024)
(0.942286 0.00323743 -8.3969e-024)
(0.9417 0.00321795 -8.39235e-024)
(0.941112 0.00319845 8.10112e-024)
(0.940523 0.00317895 -8.36231e-024)
(0.939931 0.00315943 -8.33683e-024)
(0.939337 0.00313988 -8.30436e-024)
(0.938742 0.0031203 -8.26492e-024)
(0.938145 0.00310069 -8.21851e-024)
(0.937546 0.00308107 7.88078e-024)
(0.936944 0.00306144 -8.10472e-024)
(0.936342 0.00304182 -8.03735e-024)
(0.935737 0.00302221 -7.96302e-024)
(0.93513 0.00300261 -7.88172e-024)
(0.934522 0.00298303 -7.7935e-024)
(0.933912 0.00296345 7.41041e-024)
(0.9333 0.0029439 -7.59635e-024)
(0.932686 0.00292438 -7.48746e-024)
(0.93207 0.00290488 -7.37168e-024)
(0.931453 0.00288543 -7.24905e-024)
(0.930834 0.00286601 -7.1196e-024)
(0.930214 0.00284664 6.69272e-024)
(0.929591 0.00282731 -6.84037e-024)
(0.928967 0.00280802 -6.69065e-024)
(0.928342 0.00278878 -6.53423e-024)
(0.927714 0.0027696 -6.37115e-024)
(0.927086 0.00275047 -6.20142e-024)
(0.926455 0.00273142 -6.02509e-024)
(0.925823 0.00271245 5.55015e-024)
(0.92519 0.00269356 -5.65268e-024)
(0.924555 0.00267479 -5.45664e-024)
(0.923918 0.00265614 -5.25405e-024)
(0.92328 0.00263762 -5.04492e-024)
(0.92264 0.00261925 -4.82927e-024)
(0.921999 0.00260106 4.31771e-024)
(0.921357 0.00258309 -4.37832e-024)
(0.920713 0.00256536 -4.14296e-024)
(0.920067 0.00254794 -3.90091e-024)
(0.91942 0.00253089 -3.65209e-024)
(0.918772 0.00251429 -3.39626e-024)
(0.918122 0.00249825 2.85967e-024)
(0.91747 0.00248285 -2.86282e-024)
(0.916816 0.00246835 -2.58568e-024)
(0.916162 0.00245465 -2.29691e-024)
(0.915501 0.00244272 -2.008e-024)
(0.91485 0.00243159 -1.68541e-024)
(0.914162 0.00242398 1.2279e-024)
(0.913546 0.00242158 -1.00579e-024)
(0.912775 0.00242027 -8.90182e-025)
(0.9123 0.00244126 -2.06887e-025)
(0.911261 0.00244228 -8.59531e-025)
(1.00003 0.000497686 1.33006e-023)
(1.00025 0.00146671 0)
(1.00065 0.00226722 0)
(1.0011 0.00290641 0)
(1.00153 0.00340606 0)
(1.00193 0.00379572 0)
(1.00229 0.00409863 -3.62253e-023)
(1.00258 0.00433556 0)
(1.00283 0.00452591 0)
(1.00302 0.00468228 -3.89621e-023)
(1.00318 0.00480943 0)
(1.0033 0.0049165 0)
(1.00339 0.00500866 -4.0169e-023)
(1.00345 0.0050823 0)
(1.0035 0.00513606 -4.04733e-023)
(1.00352 0.00518437 -4.05359e-023)
(1.00352 0.00523177 -4.05442e-023)
(1.0035 0.00527403 -4.05158e-023)
(1.00347 0.00530532 -4.04775e-023)
(1.00342 0.00533236 -4.04158e-023)
(1.00336 0.00535894 -4.03179e-023)
(1.0033 0.00537515 -4.01836e-023)
(1.00322 0.00538639 0)
(1.00314 0.0053943 -3.98247e-023)
(1.00305 0.00539973 -3.96079e-023)
(1.00295 0.00540286 -3.93689e-023)
(1.00285 0.0054026 -3.91289e-023)
(1.00274 0.00539917 -3.8867e-023)
(1.00263 0.0053947 -7.7067e-023)
(1.00251 0.0053896 -3.82658e-023)
(1.00239 0.00538353 0)
(1.00227 0.00537613 -3.76045e-023)
(1.00214 0.00536791 -3.72415e-023)
(1.00201 0.00535917 -3.68599e-023)
(1.00188 0.00535008 -7.28049e-023)
(1.00174 0.00534114 -3.60442e-023)
(1.0016 0.0053323 -3.56142e-023)
(1.00146 0.00532324 -3.51756e-023)
(1.00132 0.00531378 -3.47277e-023)
(1.00117 0.00530378 0)
(1.00102 0.00529329 -6.74685e-023)
(1.00087 0.00528201 -3.3311e-023)
(1.00071 0.00526901 -3.2811e-023)
(1.00056 0.00525502 -3.22972e-023)
(1.0004 0.00524121 -3.17727e-023)
(1.00024 0.00522762 -3.12385e-023)
(1.00008 0.00521432 -6.12742e-023)
(0.999916 0.00520127 0)
(0.999751 0.00518836 -2.95853e-023)
(0.999583 0.0051755 -2.90201e-023)
(0.999412 0.00516259 -2.84488e-023)
(0.999239 0.00514955 -2.78724e-023)
(0.999064 0.00513633 -2.72911e-023)
(0.998887 0.00512284 -2.67052e-023)
(0.998708 0.00510906 -2.61141e-023)
(0.998526 0.00509509 -2.55169e-023)
(0.998342 0.00508101 0)
(0.998157 0.0050669 -2.43079e-023)
(0.997969 0.0050528 -2.3698e-023)
(0.997779 0.0050387 -2.30861e-023)
(0.997586 0.00502457 -2.24729e-023)
(0.997391 0.00501037 -2.18588e-023)
(0.997194 0.00499609 -2.12443e-023)
(0.996994 0.0049817 -2.063e-023)
(0.996791 0.00496718 0)
(0.996587 0.00495254 -1.94029e-023)
(0.996379 0.0049378 -1.87905e-023)
(0.996169 0.00492299 -1.81795e-023)
(0.995957 0.00490813 -1.75706e-023)
(0.995742 0.0048932 -1.69642e-023)
(0.995524 0.00487823 -1.63604e-023)
(0.995303 0.00486325 -1.57596e-023)
(0.99508 0.00484833 -1.51618e-023)
(0.994855 0.00483357 -1.45671e-023)
(0.994626 0.00481907 -1.39754e-023)
(0.994395 0.00480495 -1.33867e-023)
(0.994162 0.00479124 -1.28005e-023)
(0.993926 0.00477781 -1.22159e-023)
(0.993689 0.00476415 -1.16322e-023)
(0.993448 0.00475028 -1.10512e-023)
(0.993206 0.0047368 -1.04743e-023)
(0.992961 0.00472384 0)
(0.992715 0.00471129 -9.32665e-024)
(0.992467 0.00469903 -1.35692e-025)
(0.992218 0.00468697 -1.34747e-025)
(0.991967 0.00467504 -7.61617e-024)
(0.991714 0.00466319 -7.04934e-024)
(0.99146 0.00465139 -6.48475e-024)
(0.991205 0.00463959 -5.92278e-024)
(0.990948 0.00462779 -5.36371e-024)
(0.990689 0.00461596 4.67222e-024)
(0.990429 0.0046041 -4.25545e-024)
(0.990167 0.0045922 -3.70677e-024)
(0.989904 0.00458025 -3.1621e-024)
(0.989639 0.00456825 -2.62171e-024)
(0.989373 0.00455619 -2.08587e-024)
(0.989105 0.00454408 -1.39472e-025)
(0.988836 0.00453192 -1.02855e-024)
(0.988565 0.00451974 -5.07274e-025)
(0.988293 0.00450755 1.00143e-026)
(0.988019 0.00449529 5.22161e-025)
(0.987743 0.00448286 1.02684e-024)
(0.987466 0.00447026 -1.42111e-025)
(0.987186 0.00445754 2.01536e-024)
(0.986905 0.00444472 2.49937e-024)
(0.986622 0.00443179 2.97632e-024)
(0.986338 0.00441877 3.44602e-024)
(0.986051 0.00440565 3.90825e-024)
(0.985763 0.00439244 4.36281e-024)
(0.985473 0.00437914 -1.47743e-025)
(0.985182 0.00436575 5.24829e-024)
(0.984888 0.00435229 5.67887e-024)
(0.984593 0.00433874 6.1011e-024)
(0.984296 0.00432511 6.51483e-024)
(0.983997 0.0043114 6.91988e-024)
(0.983696 0.0042976 -1.53264e-025)
(0.983393 0.0042837 7.70339e-024)
(0.983088 0.00426971 8.08151e-024)
(0.982782 0.00425562 8.45033e-024)
(0.982473 0.00424143 8.80967e-024)
(0.982163 0.00422714 9.15933e-024)
(0.981851 0.00421276 -1.58741e-025)
(0.981536 0.00419829 9.82912e-024)
(0.98122 0.00418375 1.0149e-023)
(0.980902 0.00416913 1.04586e-023)
(0.980582 0.00415443 1.07579e-023)
(0.980259 0.00413967 1.10468e-023)
(0.979935 0.00412485 -1.63922e-025)
(0.979609 0.00410995 1.15925e-023)
(0.97928 0.00409497 1.1849e-023)
(0.97895 0.00407992 1.20946e-023)
(0.978618 0.0040648 1.23291e-023)
(0.978283 0.00404961 1.25524e-023)
(0.977946 0.00403434 -1.6891e-025)
(0.977607 0.00401901 1.29649e-023)
(0.977266 0.00400362 1.3154e-023)
(0.976923 0.00398817 1.33314e-023)
(0.976578 0.00397266 1.34972e-023)
(0.976231 0.00395709 1.36512e-023)
(0.975881 0.00394147 -1.7341e-025)
(0.97553 0.00392578 1.39235e-023)
(0.975176 0.00391005 1.40417e-023)
(0.97482 0.00389425 1.41479e-023)
(0.974462 0.0038784 1.4242e-023)
(0.974102 0.00386251 1.4324e-023)
(0.973739 0.00384657 1.43937e-023)
(0.973375 0.0038306 -1.77947e-025)
(0.973008 0.00381459 1.44963e-023)
(0.972639 0.00379855 1.4529e-023)
(0.972268 0.00378248 1.45493e-023)
(0.971895 0.00376639 1.45571e-023)
(0.971519 0.00375027 1.45525e-023)
(0.971141 0.00373412 -1.80969e-025)
(0.970761 0.00371794 1.45058e-023)
(0.970379 0.00370173 1.44636e-023)
(0.969995 0.00368549 1.44089e-023)
(0.969608 0.00366923 1.43417e-023)
(0.96922 0.00365295 1.42619e-023)
(0.968829 0.00363667 -1.83303e-025)
(0.968436 0.00362039 1.40647e-023)
(0.968041 0.00360412 1.39472e-023)
(0.967643 0.00358784 1.38173e-023)
(0.967243 0.00357157 1.36748e-023)
(0.966842 0.00355531 1.35197e-023)
(0.966438 0.00353905 -1.84708e-025)
(0.966032 0.00352281 1.31723e-023)
(0.965623 0.0035066 1.298e-023)
(0.965213 0.00349041 1.27752e-023)
(0.9648 0.00347425 1.2558e-023)
(0.964385 0.00345813 1.23285e-023)
(0.963968 0.00344205 -1.8508e-025)
(0.963549 0.00342599 1.18327e-023)
(0.963128 0.00340997 1.15665e-023)
(0.962705 0.00339399 1.12882e-023)
(0.962279 0.00337805 1.09978e-023)
(0.961852 0.00336217 1.06954e-023)
(0.961422 0.00334635 1.03811e-023)
(0.96099 0.00333059 -1.83874e-025)
(0.960556 0.00331491 9.71689e-024)
(0.96012 0.00329933 9.36713e-024)
(0.959682 0.00328386 9.0057e-024)
(0.959242 0.00326851 8.63266e-024)
(0.958799 0.00325332 8.24805e-024)
(0.958355 0.0032383 -1.78957e-025)
(0.957909 0.00322348 7.44449e-024)
(0.95746 0.00320892 7.02567e-024)
(0.95701 0.00319467 6.59557e-024)
(0.956557 0.0031808 6.15429e-024)
(0.956102 0.00316741 5.70173e-024)
(0.955645 0.00315461 -1.60438e-025)
(0.955186 0.00314256 4.76305e-024)
(0.954725 0.00313142 4.27934e-024)
(0.954262 0.00312152 3.7771e-024)
(0.953794 0.00311294 3.28538e-024)
(0.953333 0.00310771 2.73742e-024)
(0.952845 0.00310255 -8.50619e-026)
(0.952407 0.00310566 1.65192e-024)
(0.951863 0.00310342 1.44811e-024)
(0.951523 0.00312031 5.0354e-025)
(0.950787 0.0031123 1.25525e-024)
(1.00001 0.000386672 -1.23399e-023)
(1.00016 0.00118378 0)
(1.00044 0.00190002 0)
(1.00078 0.00251092 0)
(1.00114 0.00301883 0)
(1.00149 0.003436 0)
(1.00181 0.00377623 2.55986e-023)
(1.0021 0.00405347 0)
(1.00235 0.00428331 -5.24225e-023)
(1.00257 0.00447692 2.76499e-023)
(1.00276 0.00464074 -5.49039e-023)
(1.00292 0.00478139 -5.58677e-023)
(1.00305 0.00490192 2.88898e-023)
(1.00317 0.00500404 0)
(1.00326 0.00508818 2.94059e-023)
(1.00333 0.00515904 2.96031e-023)
(1.00338 0.00522304 2.97606e-023)
(1.00342 0.00528239 2.98898e-023)
(1.00345 0.00532385 3.00094e-023)
(1.00347 0.00535005 3.01088e-023)
(1.00348 0.00537608 3.0178e-023)
(1.00349 0.005398 3.02161e-023)
(1.00348 0.0054159 0)
(1.00347 0.00542974 3.02113e-023)
(1.00346 0.00544121 3.01738e-023)
(1.00344 0.00545138 3.01148e-023)
(1.00341 0.00545595 3.00504e-023)
(1.00338 0.00546015 2.99645e-023)
(1.00335 0.00546463 2.98503e-023)
(1.00332 0.00546536 2.97188e-023)
(1.00328 0.00546372 0)
(1.00325 0.00545928 2.94079e-023)
(1.0032 0.00545372 2.92204e-023)
(1.00316 0.00544732 2.90138e-023)
(1.00312 0.00543966 2.87899e-023)
(1.00307 0.00543189 2.85462e-023)
(1.00302 0.0054246 2.82884e-023)
(1.00297 0.00541756 2.80196e-023)
(1.00292 0.00541009 2.77394e-023)
(1.00286 0.00540088 0)
(1.0028 0.00539037 2.71396e-023)
(1.00274 0.00537979 2.68169e-023)
(1.00269 0.00536899 2.64796e-023)
(1.00262 0.00535804 2.61275e-023)
(1.00256 0.00534723 2.57633e-023)
(1.0025 0.0053368 2.53877e-023)
(1.00243 0.00532656 2.5001e-023)
(1.00237 0.00531619 0)
(1.0023 0.00530565 2.41998e-023)
(1.00223 0.00529497 2.37861e-023)
(1.00215 0.00528425 2.33643e-023)