/*--------------------------------*- C++ -*----------------------------------*\
| =========                 |                                                 |
| \\      /  F ield         | OpenFOAM: The Open Source CFD Toolbox           |
|  \\    /   O peration     | Version:  5.x                                   |
|   \\  /    A nd           | Web:      www.OpenFOAM.org                      |
|    \\/     M anipulation  |                                                 |
\*---------------------------------------------------------------------------*/
/*   Windows 32 and 64 bit porting by blueCAPE: http://www.bluecape.com.pt   *\
|  Based on Windows porting (2.0.x v4) by Symscape: http://www.symscape.com   |
\*---------------------------------------------------------------------------*/
FoamFile
{
    version     2.0;
    format      ascii;
    class       volVectorField;
    location    "0";
    object      U;
}
// * * * * * * * * * * * * * * * * * * * * * * * * * * * * * * * * * * * * * //

dimensions      [0 1 -1 0 0 0 0];

internalField   nonuniform List<vector> 
125000
(
(1.39963 -0.563943 -0.00161787)
(1.11463 -0.477911 -0.000943263)
(0.92667 -0.425344 -0.00109748)
(0.835612 -0.401284 -0.00121515)
(0.770641 -0.382886 -0.00126359)
(0.719532 -0.366494 -0.00126944)
(0.677601 -0.350926 -0.00125117)
(0.642525 -0.33574 -0.00121905)
(0.612969 -0.32076 -0.00117856)
(0.588086 -0.305911 -0.0011327)
(0.567301 -0.291147 -0.00108332)
(0.550197 -0.276415 -0.00103132)
(0.536467 -0.261649 -0.000977458)
(0.525905 -0.246766 -0.0009223)
(0.518373 -0.231655 -0.000865897)
(0.513781 -0.21617 -0.000808219)
(0.51207 -0.200123 -0.000748854)
(0.513173 -0.18327 -0.000687075)
(0.516992 -0.165325 -0.000621987)
(0.523326 -0.145941 -0.000552095)
(0.531744 -0.124741 -0.000475306)
(0.541457 -0.101349 -0.000389571)
(0.551172 -0.0754707 -0.000292634)
(0.559075 -0.0469883 -0.000183506)
(0.563345 -0.0160927 -6.32211e-005)
(0.563124 0.0161677 6.2848e-005)
(0.558399 0.0470066 0.00018308)
(0.550013 0.0753765 0.000291992)
(0.539779 0.101087 0.000388514)
(0.529508 0.124257 0.000473702)
(0.520488 0.14518 0.000549782)
(0.513502 0.164228 0.000618871)
(0.508948 0.181774 0.000683213)
(0.506999 0.198149 0.000743827)
(0.507728 0.21363 0.000801784)
(0.511165 0.228442 0.000857623)
(0.517352 0.242759 0.000911694)
(0.526354 0.25672 0.00096427)
(0.538263 0.270422 0.00101508)
(0.55321 0.283918 0.00106389)
(0.571393 0.297234 0.00110976)
(0.593092 0.310371 0.0011518)
(0.618689 0.323308 0.00118879)
(0.648721 0.336011 0.00121885)
(0.683984 0.348463 0.00123913)
(0.725817 0.360754 0.0012451)
(0.776919 0.373354 0.00123052)
(0.845218 0.388403 0.00119209)
(0.99307 0.425502 0.00120863)
(1.05305 0.440763 0.00221726)
(1.37171 -0.520752 -0.0014995)
(1.12118 -0.44899 -0.000805547)
(0.939353 -0.41475 -0.00101175)
(0.846567 -0.393156 -0.00114415)
(0.781603 -0.375988 -0.00120605)
(0.730779 -0.360297 -0.00122453)
(0.689124 -0.345115 -0.00121807)
(0.654246 -0.330088 -0.00119687)
(0.624797 -0.315086 -0.00116634)
(0.599933 -0.300061 -0.00112941)
(0.579088 -0.284985 -0.00108787)
(0.561859 -0.26982 -0.00104267)
(0.547952 -0.254515 -0.000994514)
(0.537177 -0.239005 -0.000944035)
(0.529416 -0.2232 -0.00089134)
(0.524597 -0.20698 -0.000836431)
(0.522677 -0.190184 -0.000778871)
(0.5236 -0.172623 -0.000717711)
(0.527265 -0.154079 -0.000651872)
(0.533452 -0.13433 -0.000579416)
(0.541699 -0.113178 -0.000498398)
(0.55118 -0.0905057 -0.000406928)
(0.560601 -0.0662996 -0.000303937)
(0.56824 -0.0406486 -0.000189302)
(0.572403 -0.0137098 -6.49556e-005)
(0.572177 0.0139453 6.44339e-005)
(0.567552 0.0408236 0.000188688)
(0.559425 0.0663568 0.000303052)
(0.549485 0.0903904 0.000405602)
(0.539452 0.112837 0.000496529)
(0.530612 0.133711 0.000576893)
(0.523777 0.153126 0.000648544)
(0.51937 0.171274 0.000713567)
(0.517584 0.188365 0.000773411)
(0.518498 0.204603 0.000829405)
(0.522143 0.220165 0.000882364)
(0.528549 0.235193 0.000932699)
(0.53776 0.249801 0.000980619)
(0.549844 0.264068 0.00102582)
(0.564916 0.27803 0.00106798)
(0.583161 0.291703 0.00110624)
(0.604851 0.305077 0.00113978)
(0.630367 0.318121 0.00116745)
(0.660245 0.330788 0.00118753)
(0.695301 0.343042 0.00119734)
(0.736928 0.354924 0.00119252)
(0.788044 0.366763 0.00116694)
(0.85763 0.380047 0.00111735)
(0.990268 0.396686 0.00107869)
(1.04297 0.44225 0.0022184)
(1.34069 -0.481435 -0.00146121)
(1.11724 -0.417655 -0.000779015)
(0.94318 -0.399887 -0.000991502)
(0.849128 -0.381086 -0.00112468)
(0.783932 -0.364972 -0.00118794)
(0.733297 -0.349846 -0.0012077)
(0.692018 -0.335029 -0.00120261)
(0.657624 -0.320264 -0.0011831)
(0.628727 -0.305456 -0.00115469)
(0.604463 -0.290569 -0.00112031)
(0.584247 -0.275573 -0.00108169)
(0.567662 -0.260424 -0.00103963)
(0.554398 -0.245064 -0.00099457)
(0.544248 -0.229423 -0.000946958)
(0.537074 -0.213408 -0.000896526)
(0.532782 -0.196907 -0.000842929)
(0.531305 -0.179785 -0.000785291)
(0.532563 -0.161902 -0.000722509)
(0.536431 -0.143123 -0.000653336)
(0.542663 -0.123355 -0.000576471)
(0.550779 -0.102573 -0.0004908)
(0.559962 -0.0808626 -0.000395969)
(0.56898 -0.0583881 -0.000292147)
(0.576245 -0.0353247 -0.00018024)
(0.580212 -0.0117403 -6.15119e-005)
(0.57998 0.0121481 6.08319e-005)
(0.575539 0.0356698 0.000179444)
(0.567773 0.0586112 0.000291022)
(0.558223 0.0809069 0.000394288)
(0.548473 0.102383 0.00048843)
(0.539746 0.122877 0.000573274)
(0.532846 0.142301 0.000649225)
(0.528216 0.160677 0.000717488)
(0.526075 0.178092 0.000778964)
(0.526533 0.194665 0.000835062)
(0.529642 0.210521 0.00088681)
(0.535456 0.225774 0.000935014)
(0.544039 0.24053 0.000980239)
(0.555478 0.254875 0.00102259)
(0.569907 0.268852 0.00106188)
(0.587529 0.282489 0.00109757)
(0.60863 0.295782 0.00112895)
(0.633604 0.308706 0.00115497)
(0.663006 0.321213 0.00117398)
(0.697677 0.33325 0.00118328)
(0.739064 0.344797 0.00117846)
(0.790234 0.355979 0.00115344)
(0.860313 0.367133 0.00110522)
(0.980494 0.368766 0.00105787)
(1.03122 0.440762 0.002178)
(1.31466 -0.448098 -0.00142853)
(1.11716 -0.390069 -0.000759114)
(0.951206 -0.386655 -0.000981175)
(0.855908 -0.370882 -0.00111637)
(0.790118 -0.355803 -0.00118159)
(0.739319 -0.341163 -0.00120288)
(0.698068 -0.326598 -0.00119896)
(0.663797 -0.311955 -0.00118047)
(0.63508 -0.297183 -0.00115303)
(0.611032 -0.282261 -0.00111956)
(0.591059 -0.26717 -0.00108174)
(0.574736 -0.251869 -0.0010403)
(0.561751 -0.236306 -0.000995466)
(0.551886 -0.220416 -0.000947569)
(0.544995 -0.204118 -0.000896112)
(0.540968 -0.187322 -0.000840616)
(0.539721 -0.169929 -0.000780152)
(0.541148 -0.151855 -0.000713801)
(0.545089 -0.133045 -0.000640718)
(0.551261 -0.113505 -0.000560337)
(0.559156 -0.0933285 -0.00047238)
(0.567958 -0.0727147 -0.000377388)
(0.576498 -0.0519008 -0.000275979)
(0.583322 -0.0310611 -0.000169127)
(0.587037 -0.0101784 -5.74802e-005)
(0.586798 0.0107677 5.66455e-005)
(0.582595 0.031587 0.000168166)
(0.575256 0.0523037 0.000274679)
(0.566171 0.0729367 0.000375522)
(0.556785 0.093312 0.00046976)
(0.548262 0.113193 0.000556787)
(0.541402 0.132381 0.000636118)
(0.536678 0.150783 0.000708186)
(0.534348 0.168388 0.000773153)
(0.534557 0.185235 0.000832029)
(0.537383 0.201393 0.000885643)
(0.542896 0.216935 0.000934841)
(0.551171 0.231947 0.00098033)
(0.562304 0.246503 0.00102246)
(0.576439 0.260644 0.00106117)
(0.593782 0.274397 0.00109611)
(0.614622 0.287753 0.00112667)
(0.639357 0.300681 0.00115189)
(0.668548 0.313125 0.00117013)
(0.703055 0.325002 0.00117873)
(0.74437 0.336222 0.00117322)
(0.795667 0.34667 0.00114761)
(0.865759 0.355413 0.0010989)
(0.97454 0.34558 0.00104157)
(1.02222 0.438222 0.00213964)
(1.2907 -0.419056 -0.0013963)
(1.11552 -0.363916 -0.000738899)
(0.95801 -0.372751 -0.000969225)
(0.862337 -0.36039 -0.00110672)
(0.796124 -0.346492 -0.0011737)
(0.745207 -0.332399 -0.0011963)
(0.703999 -0.31812 -0.00119334)
(0.669855 -0.303626 -0.00117561)
(0.641317 -0.288912 -0.00114877)
(0.617478 -0.273982 -0.00111576)
(0.597736 -0.258826 -0.00107819)
(0.581662 -0.243412 -0.00103665)
(0.568935 -0.227696 -0.00099128)
(0.559331 -0.211624 -0.000942254)
(0.552689 -0.195133 -0.000888989)
(0.548888 -0.17816 -0.000831031)
(0.547818 -0.160645 -0.000767605)
(0.549349 -0.142561 -0.000698169)
(0.553286 -0.123917 -0.000622336)
(0.559314 -0.104795 -0.000540156)
(0.566907 -0.0853632 -0.000451914)
(0.575263 -0.0658756 -0.000358471)
(0.583282 -0.0465828 -0.000260596)
(0.589641 -0.0276291 -0.000159006)
(0.593085 -0.00892399 -5.39979e-005)
(0.592839 0.00970249 5.30137e-005)
(0.588892 0.0283447 0.000157894)
(0.582004 0.0471762 0.00025916)
(0.573424 0.0662882 0.000356478)
(0.564469 0.0855361 0.000449149)
(0.55623 0.104669 0.000536402)
(0.549495 0.123434 0.000617459)
(0.544754 0.141665 0.000692147)
(0.542302 0.159279 0.000760142)
(0.542315 0.17625 0.000821909)
(0.544898 0.19259 0.00087793)
(0.550142 0.208332 0.000928877)
(0.558135 0.223532 0.000975449)
(0.568983 0.23825 0.00101813)
(0.582838 0.252518 0.00105692)
(0.599913 0.266355 0.00109166)
(0.620499 0.279749 0.00112184)
(0.644997 0.292661 0.00114658)
(0.673975 0.305019 0.00116433)
(0.708306 0.316711 0.00117242)
(0.749511 0.327565 0.00116641)
(0.800788 0.337181 0.00114032)
(0.870177 0.343338 0.00109075)
(0.969 0.325214 0.00102608)
(1.01452 0.434476 0.00210111)
(1.26861 -0.393572 -0.00136433)
(1.11263 -0.33924 -0.000718624)
(0.963691 -0.358407 -0.000955872)
(0.868377 -0.349641 -0.00109576)
(0.801933 -0.337051 -0.00116432)
(0.750955 -0.323563 -0.00118805)
(0.709809 -0.309605 -0.00118585)
(0.675799 -0.295286 -0.00116862)
(0.647437 -0.280657 -0.0011421)
(0.623801 -0.265748 -0.00110919)
(0.604279 -0.250561 -0.00107142)
(0.588437 -0.235076 -0.00102932)
(0.575947 -0.219263 -0.000982916)
(0.566575 -0.20308 -0.000932344)
(0.560149 -0.186487 -0.000877044)
(0.556528 -0.16945 -0.000816695)
(0.555583 -0.151949 -0.000750786)
(0.557156 -0.134002 -0.000679162)
(0.561023 -0.115672 -0.00060183)
(0.566842 -0.0970924 -0.000519285)
(0.57408 -0.0784731 -0.000432014)
(0.581958 -0.0600849 -0.000341041)
(0.589445 -0.0421655 -0.000246937)
(0.595339 -0.0248152 -0.000150292)
(0.598511 -0.00789316 -5.09712e-005)
(0.598256 0.00886782 4.98425e-005)
(0.594566 0.0257281 0.000149041)
(0.588129 0.0429579 0.000245386)
(0.580065 0.0606984 0.000338966)
(0.571572 0.0788479 0.000429177)
(0.56367 0.0971679 0.000515442)
(0.557123 0.115388 0.00059681)
(0.552434 0.1333 0.000672917)
(0.549921 0.150776 0.000743026)
(0.549791 0.167736 0.000807209)
(0.552176 0.184145 0.000865546)
(0.557186 0.199996 0.000918456)
(0.564926 0.215314 0.000966507)
(0.575512 0.230138 0.0010102)
(0.589104 0.24449 0.00104953)
(0.605923 0.258379 0.00108449)
(0.626262 0.271785 0.00111463)
(0.650525 0.284657 0.0011392)
(0.679287 0.296907 0.00115667)
(0.713427 0.30839 0.00116444)
(0.754479 0.318838 0.00115808)
(0.80558 0.327549 0.0011316)
(0.873741 0.331139 0.00108104)
(0.963875 0.307194 0.00101109)
(1.00791 0.429695 0.00206236)
(1.24821 -0.371041 -0.00133255)
(1.10876 -0.316055 -0.000698485)
(0.968342 -0.343817 -0.000941304)
(0.873999 -0.338677 -0.00108351)
(0.807525 -0.327492 -0.0011535)
(0.75655 -0.314664 -0.00117817)
(0.715491 -0.301062 -0.00117655)
(0.681623 -0.286946 -0.00115962)
(0.653435 -0.272429 -0.00113317)
(0.629995 -0.257569 -0.00110007)
(0.610682 -0.242387 -0.0010618)
(0.595055 -0.226876 -0.00101882)
(0.58278 -0.211022 -0.00097117)
(0.573612 -0.194799 -0.00091894)
(0.567365 -0.178191 -0.000861722)
(0.563882 -0.161192 -0.00079937)
(0.563012 -0.143817 -0.000731669)
(0.564573 -0.126124 -0.00065878)
(0.568316 -0.108212 -0.000581)
(0.573881 -0.0902491 -0.000499051)
(0.580732 -0.0724636 -0.000413484)
(0.588119 -0.0551223 -0.000325301)
(0.59508 -0.0384366 -0.000234919)
(0.60052 -0.0224638 -0.000142706)
(0.603427 -0.00702624 -4.84162e-005)
(0.603164 0.0082038 4.71424e-005)
(0.599723 0.0235811 0.000141317)
(0.593723 0.0394359 0.000233254)
(0.586171 0.0559454 0.000323149)
(0.578151 0.0730504 0.000410603)
(0.570619 0.0905378 0.000495169)
(0.564307 0.108141 0.000575931)
(0.559722 0.125633 0.0006524)
(0.557203 0.142854 0.00072373)
(0.556981 0.159691 0.000789648)
(0.55921 0.176068 0.000849913)
(0.564023 0.191941 0.000904666)
(0.571538 0.207308 0.000954298)
(0.581884 0.222183 0.000999199)
(0.595231 0.236575 0.00103938)
(0.611806 0.250481 0.00107484)
(0.631906 0.263869 0.00110522)
(0.655938 0.276677 0.00112984)
(0.684478 0.288799 0.00114723)
(0.718411 0.300048 0.00115485)
(0.759261 0.310056 0.00114827)
(0.810034 0.317816 0.0011215)
(0.876598 0.318982 0.00106998)
(0.959158 0.29113 0.000996396)
(1.00222 0.424031 0.00202338)
(1.22933 -0.350963 -0.00130088)
(1.10411 -0.294339 -0.000678622)
(0.972059 -0.329139 -0.000925695)
(0.879187 -0.327542 -0.00107002)
(0.812885 -0.317832 -0.00114129)
(0.761984 -0.305712 -0.00116674)
(0.721038 -0.292499 -0.00116552)
(0.68732 -0.278614 -0.00114873)
(0.659306 -0.264235 -0.00112214)
(0.636056 -0.249456 -0.00108865)
(0.61694 -0.234315 -0.00104968)
(0.60151 -0.218824 -0.00100569)
(0.589428 -0.202985 -0.000956724)
(0.580436 -0.186788 -0.000902931)
(0.574334 -0.170243 -0.000844093)
(0.570949 -0.153369 -0.000780243)
(0.570111 -0.136212 -0.000711435)
(0.571615 -0.118858 -0.000638056)
(0.575192 -0.101436 -0.000560589)
(0.580469 -0.0841294 -0.000479847)
(0.586915 -0.0671727 -0.000396366)
(0.593811 -0.0508162 -0.000311072)
(0.600259 -0.0352403 -0.000224216)
(0.605265 -0.0204628 -0.000136056)
(0.607918 -0.00628105 -4.61651e-005)
(0.607647 0.00766789 4.4764e-005)
(0.604443 0.0217912 0.00013455)
(0.598862 0.0364535 0.00022246)
(0.591806 0.0518566 0.000308863)
(0.584262 0.0679801 0.000393459)
(0.577116 0.0846413 0.000475962)
(0.571072 0.10159 0.000555512)
(0.566634 0.118592 0.000631632)
(0.564154 0.135474 0.000703413)
(0.563883 0.152096 0.000770393)
(0.565997 0.168354 0.000832086)
(0.570646 0.184173 0.000888391)
(0.577965 0.199523 0.000939505)
(0.588095 0.214395 0.000985666)
(0.601215 0.228783 0.00102682)
(0.617558 0.24267 0.00106297)
(0.637427 0.256012 0.00109379)
(0.66123 0.268732 0.00111863)
(0.689544 0.280702 0.00113612)
(0.723251 0.291693 0.00114371)
(0.76385 0.301235 0.00113705)
(0.814152 0.308024 0.00111007)
(0.878873 0.306988 0.00105775)
(0.954837 0.276698 0.000981813)
(0.997338 0.417611 0.00198416)
(1.21184 -0.332926 -0.00126932)
(1.09889 -0.274053 -0.00065913)
(0.974931 -0.314507 -0.000909201)
(0.883936 -0.316285 -0.00105537)
(0.817998 -0.308089 -0.00112773)
(0.767246 -0.296716 -0.00115382)
(0.726443 -0.283923 -0.00115287)
(0.692885 -0.270296 -0.00113606)
(0.665046 -0.256084 -0.00110919)
(0.641979 -0.241417 -0.00107516)
(0.623048 -0.226354 -0.00103538)
(0.6078 -0.210927 -0.000990328)
(0.595889 -0.195155 -0.000940155)
(0.587045 -0.179046 -0.000885002)
(0.581056 -0.162632 -0.000824917)
(0.577734 -0.145956 -0.000760084)
(0.576888 -0.12909 -0.000690773)
(0.578298 -0.112139 -0.000617507)
(0.581677 -0.0952522 -0.000540892)
(0.586644 -0.0786188 -0.000461733)
(0.592677 -0.0624709 -0.000380545)
(0.599088 -0.047035 -0.000298106)
(0.605044 -0.0324607 -0.000214613)
(0.609637 -0.0187316 -0.000130106)
(0.61205 -0.00562838 -4.41953e-005)
(0.611771 0.00723096 4.26677e-005)
(0.60879 0.0202776 0.000128484)
(0.603606 0.0338944 0.000212767)
(0.597026 0.0482996 0.000295843)
(0.589949 0.0635063 0.000377625)
(0.583199 0.0793624 0.000457861)
(0.577445 0.0956402 0.000535854)
(0.573186 0.112109 0.000611083)
(0.570784 0.128589 0.000682724)
(0.570502 0.144926 0.000750183)
(0.572536 0.160992 0.000812803)
(0.577054 0.176688 0.000870297)
(0.584204 0.191961 0.000922702)
(0.59414 0.206779 0.000970016)
(0.607051 0.22112 0.00101217)
(0.623176 0.234954 0.00104911)
(0.642822 0.24822 0.00108049)
(0.666398 0.260828 0.00110571)
(0.69448 0.272624 0.00112341)
(0.727943 0.283337 0.00113112)
(0.768239 0.29239 0.00112447)
(0.817946 0.298215 0.00109738)
(0.880671 0.295238 0.00104449)
(0.950893 0.263629 0.000967217)
(0.993128 0.410549 0.00194468)
(1.19562 -0.316589 -0.00123782)
(1.09324 -0.255139 -0.00064007)
(0.977049 -0.300027 -0.000891965)
(0.888246 -0.304955 -0.00103962)
(0.822856 -0.298282 -0.0011129)
(0.772328 -0.287689 -0.00113948)
(0.731698 -0.275344 -0.00113869)
(0.698312 -0.262001 -0.00112174)
(0.670649 -0.247984 -0.00109449)
(0.647759 -0.233458 -0.00105984)
(0.629002 -0.21851 -0.00101923)
(0.613919 -0.203188 -0.000973176)
(0.602158 -0.187531 -0.000921919)
(0.593438 -0.171566 -0.000865684)
(0.587533 -0.155342 -0.000804742)
(0.584241 -0.138926 -0.000739394)
(0.583356 -0.122406 -0.000670076)
(0.584641 -0.105903 -0.000597385)
(0.587797 -0.0895792 -0.000521983)
(0.59244 -0.0736222 -0.000444652)
(0.598058 -0.0582552 -0.000365813)
(0.603996 -0.0436781 -0.000286195)
(0.609481 -0.0300121 -0.000205817)
(0.613685 -0.0172112 -0.00012473)
(0.615873 -0.00504692 -4.23754e-005)
(0.615585 0.00687138 4.07475e-005)
(0.612812 0.0189809 0.000123016)
(0.608001 0.0316724 0.000203897)
(0.601877 0.0451731 0.000283886)
(0.595255 0.0595253 0.000362881)
(0.588902 0.0746048 0.000440806)
(0.583453 0.0902103 0.000516995)
(0.579398 0.106119 0.000591004)
(0.577103 0.122154 0.000662053)
(0.576843 0.138149 0.000729505)
(0.578831 0.153964 0.000792596)
(0.583247 0.169481 0.000850908)
(0.590254 0.184623 0.000904323)
(0.600018 0.199339 0.00095266)
(0.612737 0.213593 0.000995762)
(0.628656 0.227339 0.0010335)
(0.648086 0.240501 0.00106552)
(0.671437 0.252972 0.0010912)
(0.699283 0.264574 0.00110922)
(0.732482 0.274989 0.00111714)
(0.772426 0.283541 0.00111061)
(0.821429 0.288427 0.00108353)
(0.882079 0.283786 0.00103031)
(0.947307 0.251702 0.000952516)
(0.989497 0.40294 0.00190497)
(1.18055 -0.301671 -0.00120638)
(1.08729 -0.237531 -0.000621481)
(0.978494 -0.285786 -0.000874114)
(0.892126 -0.293597 -0.00102287)
(0.827451 -0.288434 -0.00109688)
(0.777223 -0.278643 -0.00112382)
(0.736799 -0.266771 -0.00112307)
(0.703597 -0.253736 -0.00110589)
(0.676111 -0.239939 -0.00107819)
(0.653393 -0.225585 -0.00104289)
(0.634799 -0.210786 -0.00100146)
(0.619866 -0.19561 -0.000954512)
(0.608235 -0.180113 -0.00090239)
(0.599615 -0.16434 -0.000845365)
(0.593768 -0.148357 -0.000783931)
(0.590478 -0.132248 -0.000718476)
(0.589526 -0.116117 -0.000649554)
(0.590661 -0.100096 -0.000577757)
(0.593576 -0.0843489 -0.000503849)
(0.597886 -0.0690618 -0.00042844)
(0.603093 -0.0544438 -0.000352055)
(0.608574 -0.0406682 -0.000275088)
(0.61361 -0.0278292 -0.000197766)
(0.617448 -0.0158582 -0.000119739)
(0.619425 -0.00452083 -4.07721e-005)
(0.619128 0.006573 3.90521e-005)
(0.61655 0.0178573 0.000117941)
(0.612089 0.0297217 0.000195776)
(0.606396 0.0423991 0.000272738)
(0.600215 0.0559544 0.000349112)
(0.594256 0.0702901 0.000424625)
(0.589121 0.0852309 0.000498936)
(0.585288 0.100567 0.000571447)
(0.583125 0.116124 0.000641587)
(0.582915 0.131737 0.000708646)
(0.584883 0.147253 0.000771816)
(0.589225 0.16254 0.00083059)
(0.596113 0.177504 0.000884749)
(0.605724 0.192075 0.00093389)
(0.618268 0.206205 0.000977842)
(0.633994 0.21983 0.00101636)
(0.653216 0.232861 0.00104903)
(0.676345 0.245171 0.00107523)
(0.703949 0.25656 0.00109366)
(0.736864 0.266661 0.00110186)
(0.77641 0.274705 0.00109555)
(0.824619 0.278697 0.00106858)
(0.883172 0.272665 0.00101532)
(0.944054 0.24073 0.000937644)
(0.98636 0.394866 0.00186503)
(1.16654 -0.287941 -0.001175)
(1.08114 -0.221156 -0.00060338)
(0.979346 -0.271852 -0.000855766)
(0.895589 -0.282258 -0.00100521)
(0.83178 -0.278566 -0.00107974)
(0.781925 -0.26959 -0.00110692)
(0.74174 -0.258211 -0.00110612)
(0.708735 -0.245508 -0.00108865)
(0.681429 -0.231957 -0.00106046)
(0.658877 -0.217804 -0.00102452)
(0.640436 -0.203186 -0.000982358)
(0.625638 -0.188191 -0.000934659)
(0.614119 -0.172895 -0.00088187)
(0.605578 -0.157356 -0.000824347)
(0.599765 -0.141657 -0.00076275)
(0.596453 -0.125895 -0.000697532)
(0.595411 -0.110186 -0.000629315)
(0.596377 -0.0946664 -0.000558685)
(0.599038 -0.0795034 -0.000486413)
(0.603011 -0.0648737 -0.000413054)
(0.607812 -0.0509714 -0.00033904)
(0.612852 -0.0379442 -0.000264721)
(0.617464 -0.0258625 -0.000190196)
(0.620959 -0.0146395 -0.000115145)
(0.622738 -0.00403881 -3.92191e-005)
(0.622433 0.00632417 3.74274e-005)
(0.620035 0.0168734 0.000113279)
(0.6159 0.0279926 0.00018815)
(0.610616 0.0399164 0.000262335)
(0.60486 0.052728 0.000336094)
(0.599288 0.0663537 0.000409274)
(0.594471 0.080643 0.000481578)
(0.590874 0.0954017 0.000552461)
(0.588864 0.110462 0.000621435)
(0.588727 0.12566 0.000687797)
(0.5907 0.140839 0.000750717)
(0.59499 0.155855 0.000809639)
(0.601781 0.170598 0.000864248)
(0.61126 0.184987 0.000914005)
(0.623644 0.198957 0.00095866)
(0.639189 0.212431 0.000997878)
(0.65821 0.225304 0.00103119)
(0.681119 0.237433 0.00105795)
(0.708474 0.248589 0.00107682)
(0.741088 0.258363 0.00108538)
(0.780193 0.265898 0.00107936)
(0.827537 0.269053 0.00105264)
(0.884012 0.261893 0.000999598)
(0.94111 0.230563 0.000922562)
(0.983646 0.3864 0.00182487)
(1.15349 -0.275206 -0.00114368)
(1.07489 -0.205939 -0.000585775)
(0.979678 -0.258276 -0.000837022)
(0.898654 -0.270978 -0.000986718)
(0.835841 -0.268701 -0.00106157)
(0.78643 -0.260543 -0.00108887)
(0.746517 -0.249674 -0.00108794)
(0.713722 -0.237323 -0.00107014)
(0.686598 -0.224042 -0.00104145)
(0.664209 -0.210117 -0.00100491)
(0.645911 -0.19571 -0.000962099)
(0.631235 -0.180932 -0.000913802)
(0.61981 -0.165871 -0.000860568)
(0.611328 -0.150605 -0.000802844)
(0.605529 -0.135225 -0.000741366)
(0.602175 -0.119841 -0.000676665)
(0.601023 -0.104577 -0.0006094)
(0.601804 -0.0895736 -0.000540107)
(0.604202 -0.0749937 -0.000469609)
(0.607838 -0.0610053 -0.000398311)
(0.612243 -0.0477854 -0.000326703)
(0.61686 -0.0354587 -0.000254889)
(0.621069 -0.0240736 -0.000183108)
(0.624243 -0.0135303 -0.000110787)
(0.625838 -0.00359209 -3.78015e-005)
(0.625524 0.00611566 3.59517e-005)
(0.623293 0.0160039 0.000108866)
(0.619464 0.0264462 0.000181013)
(0.614566 0.0376772 0.000252472)
(0.609216 0.0497933 0.000323755)
(0.604023 0.0627426 0.000394571)
(0.599526 0.0763973 0.000464863)
(0.596174 0.0905801 0.000533986)
(0.59433 0.105131 0.000601624)
(0.594286 0.119892 0.000667056)
(0.596285 0.134703 0.000729456)
(0.600545 0.149413 0.000788254)
(0.607258 0.163901 0.000843038)
(0.616623 0.178072 0.0008932)
(0.628862 0.191851 0.000938411)
(0.644237 0.205144 0.00097824)
(0.663065 0.217836 0.00101215)
(0.685755 0.229761 0.00103946)
(0.712857 0.240669 0.00105881)
(0.745151 0.250106 0.00106779)
(0.783777 0.257139 0.00106214)
(0.830204 0.259521 0.00103579)
(0.884648 0.251476 0.000983228)
(0.938452 0.221073 0.000907246)
(0.981292 0.377603 0.00178453)
(1.14134 -0.263309 -0.00111242)
(1.06859 -0.191802 -0.000568662)
(0.979557 -0.245096 -0.000817978)
(0.901338 -0.259795 -0.000967499)
(0.839635 -0.25886 -0.00104246)
(0.790734 -0.251514 -0.00106976)
(0.751126 -0.241168 -0.00106864)
(0.718555 -0.229189 -0.00105048)
(0.691615 -0.2162 -0.00102131)
(0.669385 -0.202527 -0.000984221)
(0.651223 -0.18836 -0.000940888)
(0.636656 -0.173828 -0.000892173)
(0.625309 -0.159036 -0.000838712)
(0.61687 -0.144073 -0.00078102)
(0.611066 -0.129042 -0.000719906)
(0.607651 -0.114061 -0.000655955)
(0.606374 -0.09926 -0.00058983)
(0.606959 -0.0847801 -0.000522032)
(0.609088 -0.0707783 -0.000453371)
(0.612388 -0.0574131 -0.000384177)
(0.616408 -0.0448431 -0.0003149)
(0.62062 -0.0331738 -0.000245553)
(0.624449 -0.0224323 -0.000176355)
(0.627321 -0.0125113 -0.000106678)
(0.628746 -0.00317388 -3.6433e-005)
(0.628423 0.00594035 3.45361e-005)
(0.626347 0.0152294 0.000104713)
(0.622802 0.0250521 0.000174223)
(0.618267 0.0356433 0.000243113)
(0.613306 0.0471073 0.000311959)
(0.608481 0.059413 0.000380479)
(0.604302 0.0724519 0.000448711)
(0.601202 0.0860647 0.000516017)
(0.599538 0.1001 0.000582178)
(0.599602 0.114407 0.000646493)
(0.601646 0.128826 0.000708154)
(0.605893 0.143202 0.000766592)
(0.612547 0.157404 0.000821326)
(0.621813 0.171328 0.000871686)
(0.633922 0.184886 0.000917283)
(0.649137 0.197974 0.000957607)
(0.667779 0.210459 0.000992061)
(0.690253 0.222163 0.0010199)
(0.717096 0.232806 0.00103975)
(0.749053 0.241899 0.00104918)
(0.787168 0.248442 0.00104396)
(0.832638 0.250123 0.00101811)
(0.885125 0.241412 0.000966279)
(0.936055 0.212156 0.000891689)
(0.979248 0.368528 0.00174402)
(1.13 -0.252119 -0.00108123)
(1.06232 -0.178671 -0.000552031)
(0.979045 -0.232341 -0.000798718)
(0.903666 -0.248742 -0.000947645)
(0.843166 -0.249063 -0.0010225)
(0.794837 -0.242518 -0.00104969)
(0.755563 -0.232703 -0.00104832)
(0.72323 -0.221111 -0.00102978)
(0.696479 -0.208434 -0.00100016)
(0.674404 -0.195038 -0.000962604)
(0.656369 -0.181137 -0.000918864)
(0.641899 -0.166878 -0.000869891)
(0.630618 -0.152381 -0.000816396)
(0.622205 -0.13775 -0.000758997)
(0.616381 -0.123092 -0.000698441)
(0.61289 -0.108533 -0.000635424)
(0.611475 -0.0942073 -0.000570582)
(0.611855 -0.0802541 -0.000504388)
(0.613713 -0.0668225 -0.000437607)
(0.616681 -0.0540608 -0.00037053)
(0.620326 -0.0421103 -0.000303534)
(0.624152 -0.0310587 -0.000236611)
(0.627623 -0.0209152 -0.000169877)
(0.630213 -0.0115672 -0.000102762)
(0.631477 -0.00277953 -3.51047e-005)
(0.631146 0.00579324 3.31743e-005)
(0.629213 0.0145341 0.000100767)
(0.625934 0.0237867 0.000167718)
(0.621741 0.0337838 0.000234157)
(0.617151 0.0446355 0.000300608)
(0.612683 0.0563284 0.000366883)
(0.608818 0.0687714 0.000433032)
(0.605972 0.0818233 0.000498487)
(0.604498 0.0953417 0.000563067)
(0.604684 0.109183 0.000626134)
(0.606787 0.123192 0.000686876)
(0.611039 0.13721 0.000744769)
(0.617649 0.151099 0.000799208)
(0.626832 0.16475 0.000849585)
(0.638823 0.178061 0.000895416)
(0.653889 0.190919 0.00093612)
(0.67235 0.203179 0.000971039)
(0.69461 0.214642 0.000999372)
(0.721189 0.225009 0.00101972)
(0.752795 0.233753 0.00102964)
(0.790371 0.239822 0.00102493)
(0.834862 0.240876 0.000999702)
(0.885476 0.231692 0.000948819)
(0.933897 0.203727 0.000875895)
(0.977468 0.359221 0.00170338)
(1.11942 -0.241528 -0.00105013)
(1.05612 -0.166472 -0.000535872)
(0.978199 -0.220029 -0.000779316)
(0.905659 -0.237848 -0.000927248)
(0.84644 -0.239332 -0.00100179)
(0.798736 -0.233566 -0.00102875)
(0.759828 -0.224287 -0.00102709)
(0.727746 -0.213096 -0.00100817)
(0.701186 -0.200749 -0.000978128)
(0.679264 -0.18765 -0.000940197)
(0.661349 -0.174039 -0.000896183)
(0.646967 -0.160079 -0.000847124)
(0.635738 -0.145902 -0.000793791)
(0.627337 -0.131625 -0.000736845)
(0.621479 -0.11736 -0.000677037)
(0.6179 -0.103239 -0.000615104)
(0.616337 -0.0893949 -0.000551664)
(0.616505 -0.0759678 -0.000487158)
(0.61809 -0.0630962 -0.000422299)
(0.620733 -0.0509183 -0.000357324)
(0.624017 -0.0395582 -0.000292583)
(0.627474 -0.029089 -0.000227994)
(0.630607 -0.0195032 -0.000163669)
(0.632933 -0.0106862 -9.89854e-005)
(0.634048 -0.00240468 -3.38512e-005)
(0.633708 0.00566975 3.18918e-005)
(0.631908 0.0139061 9.69642e-005)
(0.628876 0.0226305 0.00016149)
(0.625006 0.0320742 0.000225532)
(0.620768 0.042349 0.000289676)
(0.616645 0.0534584 0.000353727)
(0.613089 0.0653258 0.000417808)
(0.6105 0.0778277 0.000481371)
(0.609221 0.0908306 0.000544297)
(0.60954 0.1042 0.000605998)
(0.611715 0.117785 0.000665685)
(0.615985 0.131426 0.000722847)
(0.622567 0.144981 0.000776839)
(0.63168 0.158334 0.000827048)
(0.643564 0.171377 0.000872951)
(0.65849 0.183983 0.000913912)
(0.676778 0.195996 0.000949212)
(0.698824 0.207204 0.000977999)
(0.725136 0.217283 0.000998834)
(0.756379 0.225676 0.00100927)
(0.793394 0.23129 0.00100513)
(0.836893 0.231792 0.000980638)
(0.885729 0.222304 0.000930913)
(0.931956 0.195712 0.000859878)
(0.975915 0.349722 0.00166263)
(1.10954 -0.231447 -0.00101912)
(1.05002 -0.155135 -0.000520168)
(0.977071 -0.208169 -0.000759842)
(0.907342 -0.227139 -0.000906396)
(0.849464 -0.229685 -0.000980407)
(0.802434 -0.22467 -0.00100704)
(0.763919 -0.215928 -0.00100504)
(0.732101 -0.205148 -0.000985742)
(0.705736 -0.193148 -0.000955337)
(0.683964 -0.180366 -0.000917114)
(0.666162 -0.167065 -0.000872945)
(0.651859 -0.153426 -0.000823944)
(0.640671 -0.139591 -0.000770929)
(0.632271 -0.125687 -0.000714634)
(0.626367 -0.111832 -0.000655722)
(0.622689 -0.0981582 -0.000594988)
(0.620969 -0.0848016 -0.000533032)
(0.620922 -0.0718972 -0.000470282)
(0.622236 -0.0595742 -0.00040735)
(0.624559 -0.0479602 -0.000344482)
(0.627495 -0.0371638 -0.000281929)
(0.630601 -0.0272444 -0.000219669)
(0.633415 -0.0181813 -0.000157624)
(0.635494 -0.0098585 -9.53619e-005)
(0.63647 -0.00204657 -3.25977e-005)
(0.636122 0.00556693 3.0621e-005)
(0.634444 0.0133353 9.33282e-005)
(0.631643 0.0215687 0.000155438)
(0.628076 0.0304939 0.000217208)
(0.624173 0.0402245 0.000279046)
(0.620383 0.0507775 0.000340948)
(0.617129 0.0620897 0.000402939)
(0.614796 0.0740538 0.000464613)
(0.613717 0.0865453 0.000525825)
(0.614177 0.0994395 0.000586084)
(0.616436 0.11259 0.0006446)
(0.620737 0.125838 0.000700896)
(0.627302 0.13904 0.000754259)
(0.636357 0.152077 0.000804151)
(0.648146 0.16483 0.00084999)
(0.662941 0.177165 0.000891092)
(0.681061 0.188915 0.000926689)
(0.702896 0.199852 0.00095588)
(0.728936 0.209635 0.00097719)
(0.759805 0.217677 0.000988154)
(0.796243 0.22286 0.000984648)
(0.838751 0.222881 0.000961006)
(0.885908 0.213234 0.00091262)
(0.930212 0.188054 0.000843659)
(0.974557 0.340066 0.00162181)
(1.1003 -0.221802 -0.000988207)
(1.04405 -0.144591 -0.000504907)
(0.975708 -0.196765 -0.000740357)
(0.90874 -0.216635 -0.000885179)
(0.852246 -0.220139 -0.000958454)
(0.805932 -0.215844 -0.000984649)
(0.767834 -0.207633 -0.000982271)
(0.736293 -0.197274 -0.000962612)
(0.710127 -0.185635 -0.000931894)
(0.688503 -0.173188 -0.000893469)
(0.670809 -0.160216 -0.00084927)
(0.656575 -0.146916 -0.000800474)
(0.645419 -0.133441 -0.000747937)
(0.637009 -0.119926 -0.000692406)
(0.631049 -0.106494 -0.000634527)
(0.627263 -0.0932764 -0.00057509)
(0.625381 -0.0804085 -0.000514695)
(0.625116 -0.0680215 -0.000453743)
(0.626161 -0.0562347 -0.000392763)
(0.628174 -0.0451652 -0.000331977)
(0.630774 -0.0349075 -0.0002716)
(0.633546 -0.0255085 -0.000211574)
(0.63606 -0.0169371 -0.000151795)
(0.637907 -0.00907655 -9.18267e-005)
(0.638753 -0.00170247 -3.14155e-005)
(0.638397 0.00548195 2.9424e-005)
(0.636833 0.0128142 8.97829e-005)
(0.634247 0.0205885 0.000149604)
(0.630965 0.0290265 0.00020912)
(0.627381 0.0382424 0.000268743)
(0.62391 0.0482643 0.000328502)
(0.620951 0.0590411 0.000388436)
(0.618871 0.0704803 0.000448195)
(0.617995 0.0824666 0.000507656)