# vtk DataFile Version 2.0
track0
ASCII
DATASET POLYDATA
POINTS 11940 float
-0.0205 0.001 1e-005
-0.0203851 0.00100536 1.50227e-005
-0.0202702 0.00101047 1.9661e-005
-0.0201552 0.00101536 2.39676e-005
-0.0200402 0.00102 2.79379e-005
-0.0198627 0.00102682 3.354e-005
-0.0196936 0.00103277 3.80898e-005
-0.0195244 0.00103811 4.16071e-005
-0.0193552 0.00104284 4.4101e-005
-0.019186 0.00104696 4.55807e-005
-0.0190172 0.00105046 4.60548e-005
-0.0187132 0.00105599 4.60548e-005
-0.0184093 0.00106088 4.60548e-005
-0.0181054 0.00106525 4.60548e-005
-0.0178014 0.00106909 4.60548e-005
-0.0174976 0.00107242 4.60548e-005
-0.0172058 0.00107533 4.60548e-005
-0.016914 0.00107815 4.60548e-005
-0.0166222 0.0010809 4.60548e-005
-0.0163305 0.00108359 4.60548e-005
-0.0160387 0.0010862 4.60548e-005
-0.0157586 0.00108862 4.60548e-005
-0.0154784 0.00109096 4.60548e-005
-0.0151983 0.0010932 4.60548e-005
-0.0149182 0.00109536 4.60548e-005
-0.0146381 0.00109743 4.60548e-005
-0.0143692 0.0010993 4.60548e-005
-0.0141002 0.00110107 4.60548e-005
-0.0138313 0.00110277 4.60548e-005
-0.0135624 0.00110439 4.60548e-005
-0.0132934 0.00110593 4.60548e-005
-0.0130353 0.00110734 4.60548e-005
-0.0127771 0.0011087 4.60548e-005
-0.0125189 0.00111002 4.60548e-005
-0.0122607 0.00111132 4.60548e-005
-0.0120025 0.00111257 4.60548e-005
-0.0117547 0.00111375 4.60548e-005
-0.0115068 0.0011149 4.60548e-005
-0.0112589 0.00111604 4.60548e-005
-0.0110111 0.00111716 4.60548e-005
-0.0107632 0.00111827 4.60548e-005
-0.0105252 0.00111932 4.60548e-005
-0.0102873 0.00112035 4.60548e-005
-0.0100493 0.00112137 4.60548e-005
-0.00981133 0.00112238 4.60548e-005
-0.00957337 0.00112338 4.60548e-005
-0.00934491 0.00112433 4.60548e-005
-0.00911645 0.00112526 4.60548e-005
-0.00888799 0.00112618 4.60548e-005
-0.00865954 0.0011271 4.60548e-005
-0.00843108 0.00112801 4.60548e-005
-0.00821175 0.00112887 4.60548e-005
-0.00799242 0.00112973 4.60548e-005
-0.00777309 0.00113057 4.60548e-005
-0.00755376 0.00113141 4.60548e-005
-0.00733443 0.00113224 4.60548e-005
-0.00712387 0.00113304 4.60548e-005
-0.0069133 0.00113383 4.60548e-005
-0.00670273 0.00113461 4.60548e-005
-0.00649216 0.00113539 4.60548e-005
-0.0062816 0.00113617 4.60548e-005
-0.00607944 0.00113691 4.60548e-005
-0.00587729 0.00113765 4.60548e-005
-0.00567514 0.00113838 4.60548e-005
-0.00547298 0.00113911 4.60548e-005
-0.00527083 0.00113984 4.60548e-005
-0.00507675 0.00114055 4.60548e-005
-0.00488267 0.00114124 4.60548e-005
-0.0046886 0.00114194 4.60548e-005
-0.00449452 0.00114263 4.60548e-005
-0.00430044 0.00114332 4.60548e-005
-0.00411412 0.00114399 4.60548e-005
-0.0039278 0.00114465 4.60548e-005
-0.00374147 0.00114531 4.60548e-005
-0.00355515 0.00114597 4.60548e-005
-0.00336883 0.00114663 4.60548e-005
-0.00318995 0.00114726 4.60548e-005
-0.00301107 0.0011479 4.60548e-005
-0.00283219 0.00114852 4.60548e-005
-0.00265331 0.00114915 4.60548e-005
-0.00247443 0.00114978 4.60548e-005
-0.0023027 0.0011504 4.60548e-005
-0.00213097 0.001151 4.60548e-005
-0.00195924 0.00115161 4.60548e-005
-0.0017875 0.00115221 4.60548e-005
-0.00161577 0.00115282 4.60548e-005
-0.0014509 0.00115342 4.60548e-005
-0.00128603 0.00115401 4.60548e-005
-0.00112116 0.00115459 4.60548e-005
-0.000956289 0.00115518 4.60548e-005
-0.000791418 0.00115578 4.60548e-005
-0.000633135 0.00115637 4.60548e-005
-0.000474851 0.00115695 4.60548e-005
-0.000316567 0.00115753 4.60548e-005
-0.000158284 0.00115812 4.60548e-005
0 0.00115872 4.60548e-005
0.000105677 0.00115913 4.60548e-005
0.000211355 0.00115953 4.60548e-005
0.000317032 0.00115994 4.60548e-005
0.00042271 0.00116035 4.60548e-005
0.000528387 0.00116077 4.60548e-005
0.000634886 0.00116121 4.60548e-005
0.000741385 0.00116164 4.60548e-005
0.000847885 0.00116207 4.60548e-005
0.000954384 0.00116251 4.60548e-005
0.00106088 0.00116295 4.60548e-005
0.00116821 0.00116341 4.60548e-005
0.00127554 0.00116387 4.60548e-005
0.00138286 0.00116433 4.60548e-005
0.00149019 0.0011648 4.60548e-005
0.00159752 0.00116527 4.60548e-005
0.00170568 0.00116576 4.60548e-005
0.00181384 0.00116624 4.60548e-005
0.001922 0.00116673 4.60548e-005
0.00203016 0.00116721 4.60548e-005
0.00213833 0.0011677 4.60548e-005
0.00224733 0.0011682 4.60548e-005
0.00235633 0.00116871 4.60548e-005
0.00246533 0.00116921 4.60548e-005
0.00257434 0.00116971 4.60548e-005
0.00268334 0.00117022 4.60548e-005
0.00279319 0.00117073 4.60548e-005
0.00290304 0.00117124 4.60548e-005
0.00301289 0.00117176 4.60548e-005
0.00312274 0.00117228 4.60548e-005
0.00323259 0.0011728 4.60548e-005
0.00334329 0.00117331 4.60548e-005
0.003454 0.00117384 4.60548e-005
0.0035647 0.00117437 4.60548e-005
0.0036754 0.0011749 4.60548e-005
0.00378611 0.00117543 4.60548e-005
0.00389767 0.00117595 4.60548e-005
0.00400924 0.00117649 4.60548e-005
0.0041208 0.00117703 4.60548e-005
0.00423237 0.00117757 4.60548e-005
0.00434393 0.00117811 4.60548e-005
0.00445636 0.00117863 4.60548e-005
0.00456879 0.00117917 4.60548e-005
0.00468123 0.00117972 4.60548e-005
0.00479366 0.00118027 4.60548e-005
0.00490609 0.00118081 4.60548e-005
0.0050194 0.00118134 4.60548e-005
0.0051327 0.00118188 4.60548e-005
0.00524601 0.00118244 4.60548e-005
0.00535931 0.00118299 4.60548e-005
0.00547262 0.00118353 4.60548e-005
0.00558681 0.00118406 4.60548e-005
0.005701 0.00118461 4.60548e-005
0.00581518 0.00118516 4.60548e-005
0.00592937 0.00118571 4.60548e-005
0.00604356 0.00118626 4.60548e-005
0.00615863 0.00118679 4.60548e-005
0.00627371 0.00118734 4.60548e-005
0.00638878 0.00118789 4.60548e-005
0.00650386 0.00118844 4.60548e-005
0.00661893 0.00118899 4.60548e-005
0.0067349 0.00118953 4.60548e-005
0.00685087 0.00119007 4.60548e-005
0.00696684 0.00119062 4.60548e-005
0.00708281 0.00119117 4.60548e-005
0.00719878 0.00119172 4.60548e-005
0.00731565 0.00119225 4.60548e-005
0.00743252 0.00119279 4.60548e-005
0.00754939 0.00119334 4.60548e-005
0.00766626 0.00119388 4.60548e-005
0.00778313 0.00119442 4.60548e-005
0.00790091 0.00119495 4.60548e-005
0.00801869 0.00119549 4.60548e-005
0.00813647 0.00119603 4.60548e-005
0.00825425 0.00119656 4.60548e-005
0.00837203 0.0011971 4.60548e-005
0.00849073 0.00119763 4.60548e-005
0.00860942 0.00119816 4.60548e-005
0.00872812 0.00119869 4.60548e-005
0.00884682 0.00119922 4.60548e-005
0.00896551 0.00119975 4.60548e-005
0.00908513 0.00120027 4.60548e-005
0.00920475 0.0012008 4.60548e-005
0.00932437 0.00120132 4.60548e-005
0.00944398 0.00120185 4.60548e-005
0.0095636 0.00120237 4.60548e-005
0.00968415 0.00120288 4.60548e-005
0.0098047 0.0012034 4.60548e-005
0.00992525 0.00120392 4.60548e-005
0.0100458 0.00120444 4.60548e-005
0.0101663 0.00120495 4.60548e-005
0.0102878 0.00120546 4.60548e-005
0.0104093 0.00120597 4.60548e-005
0.0105308 0.00120648 4.60548e-005
0.0106523 0.00120698 4.60548e-005
0.0107738 0.00120748 4.60548e-005
0.0108962 0.00120798 4.60548e-005
0.0110186 0.00120848 4.60548e-005
0.0111411 0.00120898 4.60548e-005
0.0112635 0.00120948 4.60548e-005
0.0113859 0.00120997 4.60548e-005
0.0115093 0.00121046 4.60548e-005
0.0116327 0.00121095 4.60548e-005
0.0117561 0.00121144 4.60548e-005
0.0118795 0.00121193 4.60548e-005
0.0120028 0.00121241 4.60548e-005
0.0121272 0.00121289 4.60548e-005
0.0122515 0.00121337 4.60548e-005
0.0123759 0.00121385 4.60548e-005
0.0125002 0.00121432 4.60548e-005
0.0126245 0.00121479 4.60548e-005
0.0127498 0.00121526 4.60548e-005
0.0128752 0.00121573 4.60548e-005
0.0130005 0.00121619 4.60548e-005
0.0131258 0.00121665 4.60548e-005
0.0132511 0.00121711 4.60548e-005
0.0133774 0.00121756 4.60548e-005
0.0135036 0.00121801 4.60548e-005
0.0136299 0.00121846 4.60548e-005
0.0137562 0.00121891 4.60548e-005
0.0138825 0.00121935 4.60548e-005
0.0140098 0.00121978 4.60548e-005
0.014137 0.00122022 4.60548e-005
0.0142643 0.00122066 4.60548e-005
0.0143915 0.00122109 4.60548e-005
0.0145188 0.00122151 4.60548e-005
0.0146471 0.00122192 4.60548e-005
0.0147753 0.00122234 4.60548e-005
0.0149036 0.00122276 4.60548e-005
0.0150318 0.00122317 4.60548e-005
0.0151601 0.00122357 4.60548e-005
0.0152893 0.00122396 4.60548e-005
0.0154186 0.00122436 4.60548e-005
0.0155478 0.00122475 4.60548e-005
0.0156771 0.00122514 4.60548e-005
0.0158063 0.00122552 4.60548e-005
0.0159366 0.00122589 4.60548e-005
0.0160668 0.00122627 4.60548e-005
0.0161971 0.00122663 4.60548e-005
0.0163274 0.001227 4.60548e-005
0.0164576 0.00122735 4.60548e-005
0.0165889 0.0012277 4.60548e-005
0.0167201 0.00122804 4.60548e-005
0.0168514 0.00122838 4.60548e-005
0.0169827 0.00122872 4.60548e-005
0.0171139 0.00122904 4.60548e-005
0.0172462 0.00122936 4.60548e-005
0.0173785 0.00122968 4.60548e-005
0.0175108 0.00122998 4.60548e-005
0.0176431 0.00123028 4.60548e-005
0.0177754 0.00123058 4.60548e-005
0.0177783 0.00123058 4.60548e-005
0.0177811 0.00123059 4.60548e-005
0.017784 0.0012306 4.60548e-005
0.0177868 0.0012306 4.60548e-005
0.0177897 0.00123061 4.60548e-005
0.0179202 0.00123089 4.60548e-005
0.0180506 0.00123116 4.60548e-005
0.0181811 0.00123143 4.60548e-005
0.0183115 0.00123169 4.60548e-005
0.018442 0.00123194 4.60548e-005
0.0185763 0.00123219 4.60548e-005
0.0187107 0.00123243 4.60548e-005
0.018845 0.00123267 4.60548e-005
0.0189794 0.00123289 4.60548e-005
0.0191137 0.00123311 4.60548e-005
0.0192491 0.00123332 4.60548e-005
0.0193845 0.00123352 4.60548e-005
0.0195199 0.00123371 4.60548e-005
0.0196553 0.00123389 4.60548e-005
0.0197907 0.00123406 4.60548e-005
0.0199272 0.00123423 4.60548e-005
0.0200636 0.00123438 4.60548e-005
0.0202001 0.00123453 4.60548e-005
0.0203365 0.00123466 4.60548e-005
0.020473 0.00123479 4.60548e-005
0.0206105 0.0012349 4.60548e-005
0.020748 0.001235 4.60548e-005
0.0208855 0.0012351 4.60548e-005
0.021023 0.00123518 4.60548e-005
0.0211606 0.00123526 4.60548e-005
0.0212991 0.00123532 4.60548e-005
0.0214377 0.00123537 4.60548e-005
0.0215763 0.00123541 4.60548e-005
0.0217149 0.00123545 4.60548e-005
0.0218535 0.00123547 4.60548e-005
0.0219931 0.00123548 4.60548e-005
0.0221328 0.00123547 4.60548e-005
0.0222724 0.00123546 4.60548e-005
0.0224121 0.00123543 4.60548e-005
0.0225517 0.0012354 4.60548e-005
0.0226925 0.00123536 4.60548e-005
[...]
POINT_DATA 11940
 FIELD attributes 2
p 1 11940 float
-1578.26 -1565.63 -1551.8 -1538.11 -1524.57 -1503.91 -1489.21 -1474.43 -1459.57 -1444.63 -1423.79 -1375.63 -1327.59 -1279.62 -1231.72 -1189.35 -1157.84 -1132.57 -1107.32 -1082.07 -1065.49 -1053.76 -1044.28 -1034.8 -1025.32 -1017.69 -1010.79 -1002.78 -994.773 -986.763 -977.728 -969.253 -960.63 -952.002 -943.396 -935.05 -927.157 -920.034 -913.005 -906.129 -900.13 -894.41 -889.262 -884.241 -879.376 -875.082 -870.953 -867.064 -863.252 -859.536 -856.073 -852.704 -849.475 -846.307 -843.22 -840.301 -837.426 -834.681 -832.007 -829.429 -827.005 -824.589 -822.285 -820.06 -817.932 -815.936 -813.927 -812 -810.143 -808.373 -806.702 -805.007 -803.373 -801.799 -800.303 -798.881 -797.427 -796.019 -794.663 -793.378 -792.149 -790.883 -789.656 -788.482 -787.379 -786.324 -785.222 -784.143 -783.101 -782.127 -781.195 -780.205 -779.259 -778.399 -777.655 -776.969 -776.256 -775.595 -775.035 -774.596 -774.226 -773.743 -773.296 -772.905 -772.593 -772.337 -771.949 -771.659 -771.487 -771.42 -771.449 -771.334 -771.292 -771.32 -771.402 -771.544 -771.68 -771.794 -771.889 -771.965 -772.014 -772.3 -772.481 -772.595 -772.643 -772.572 -772.957 -773.181 -773.325 -773.38 -773.239 -773.685 -773.928 -774.091 -774.166 -773.986 -774.436 -774.654 -774.803 -774.878 -774.671 -775.068 -775.236 -775.353 -775.421 -775.217 -775.54 -775.672 -775.775 -775.853 -775.702 -775.957 -776.074 -776.178 -776.274 -776.198 -776.389 -776.489 -776.587 -776.685 -776.673 -776.802 -776.888 -776.973 -777.058 -777.1 -777.185 -777.266 -777.346 -777.427 -777.51 -777.575 -777.659 -777.743 -777.827 -777.938 -778 -778.086 -778.173 -778.259 -778.381 -778.45 -778.536 -778.622 -778.709 -778.827 -778.912 -779.001 -779.09 -779.18 -779.289 -779.399 -779.497 -779.595 -779.694 -779.795 -779.933 -780.043 -780.153 -780.263 -780.358 -780.522 -780.643 -780.765 -780.886 -780.977 -781.161 -781.293 -781.424 -781.556 -781.646 -781.846 -781.987 -782.129 -782.271 -782.366 -782.576 -782.728 -782.88 -783.032 -783.136 -783.352 -783.514 -783.677 -783.839 -783.958 -784.179 -784.356 -784.532 -784.708 -784.85 -785.077 -785.27 -785.464 -785.657 -785.827 -786.059 -786.27 -786.482 -786.693 -786.893 -787.131 -787.36 -787.59 -787.819 -788.048 -788.053 -788.058 -788.064 -788.069 -788.074 -788.314 -788.553 -788.792 -789.032 -789.305 -789.533 -789.79 -790.046 -790.303 -790.624 -790.837 -791.103 -791.369 -791.635 -791.987 -792.191 -792.465 -792.739 -793.013 -793.388 -793.59 -793.872 -794.154 -794.436 -794.826 -795.035 -795.325 -795.616 -795.907 -796.303 -796.527 -796.826 -797.126 -797.426 -797.821 -798.067 -798.376 -798.685 -798.994 -799.38 -799.656 -799.973 -800.291 -800.609 -800.98 -801.289 -801.615 -801.941 -802.267 -802.617 -802.963 -803.296 -803.63 -803.964 -804.288 -804.671 -805.011 -805.351 -805.691 -805.987 -806.403 -806.752 -807.097 -807.435 -807.71 -808.148 -808.512 -808.863 -809.193 -809.453 -809.907 -810.288 -810.642 -810.962 -811.211 -811.676 -812.074 -812.43 -812.738 -812.981 -813.452 -813.867 -814.227 -814.522 -814.762 -815.237 -815.669 -816.031 -816.311 -816.548 -817.022 -817.466 -817.827 -818.089 -818.322 -818.787 -819.238 -819.594 -819.838 -820.069 -820.519 -820.968 -821.315 -821.547 -821.779 -822.21 -822.64 -822.977 -823.213 -823.449 -823.857 -824.266 -824.593 -824.833 -825.074 -825.458 -825.843 -826.16 -826.405 -826.65 -827.01 -827.371 -827.676 -827.926 -828.175 -828.511 -828.847 -829.141 -829.394 -829.647 -829.959 -830.271 -830.554 -830.81 -831.067 -831.356 -831.646 -831.918 -832.177 -832.435 -832.705 -832.974 -833.236 -833.496 -833.755 -834.007 -834.26 -834.514 -834.772 -835.031 -835.267 -835.508 -835.755 -836.008 -836.266 -836.49 -836.723 -836.962 -837.209 -837.466 -837.679 -837.906 -838.14 -838.378 -838.633 -838.836 -839.06 -839.288 -839.518 -839.769 -839.965 -840.187 -840.409 -840.631 -840.874 -841.067 -841.282 -841.498 -841.713 -841.947 -842.136 -842.344 -842.553 -842.762 -842.987 -843.172 -843.374 -843.576 -843.778 -843.992 -844.174 -844.369 -844.563 -844.758 -844.959 -845.138 -845.324 -845.51 -845.696 -845.882 -845.886 -845.89 -845.895 -845.899 -845.904 -846.074 -846.245 -846.416 -846.587 -846.759 -846.92 -847.081 -847.242 -847.403 -847.566 -847.711 -847.855 -848 -848.145 -848.29 -848.418 -848.543 -848.669 -848.794 -848.919 -849.028 -849.13 -849.233 -849.336 -849.436 -849.522 -849.598 -849.674 -849.75 -849.821 -849.88 -849.928 -849.974 -850.017 -850.054 -850.083 -850.101 -850.113 -850.119 -850.12 -850.114 -850.1 -850.074 -850.038 -849.998 -849.954 -849.907 -849.839 -849.756 -849.672 -849.586 -849.499 -849.387 -849.254 -849.122 -848.989 -848.856 -848.697 -848.512 -848.328 -848.145 -847.962 -847.752 -847.512 -847.272 -847.035 -846.798 -846.533 -846.234 -845.935 -845.64 -845.345 -845.02 -844.66 -844.299 -843.942 -843.578 -843.188 -842.773 -842.344 -841.923 -841.483 -841.026 -840.552 -840.054 -839.564 -839.045 -838.515 -837.981 -837.41 -836.847 -836.243 -835.639 -835.035 -834.395 -833.745 -833.062 -832.38 -831.698 -830.992 -830.25 -829.486 -828.722 -827.959 -827.185 -826.569 -825.944 -825.318 -824.693 -824.101 -823.873 -823.645 -823.418 -823.19 -822.958 -822.033 -821.103 -820.174 -819.246 -818.294 -817.299 -816.28 -815.261 -814.242 -813.18 -812.114 -811.003 -809.891 -808.78 -807.603 -806.457 -805.258 -804.052 -802.824 -801.549 -800.306 -799.033 -797.73 -796.38 -795.005 -793.664 -792.316 -790.912 -789.438 -787.961 -786.518 -785.076 -783.566 -781.986 -780.406 -778.86 -777.315 -775.7 -774.016 -772.331 -770.681 -769.029 -767.301 -765.518 -763.727 -761.97 -760.183 -758.347 -756.484 -754.586 -752.722 -750.795 -748.851 -746.908 -744.901 -742.915 -740.861 -738.807 -736.754 -734.668 -732.539 -730.374 -728.21 -726.047 -723.881 -723.717 -723.55 -723.383 -723.215 -723.049 -720.955 -718.862 -716.769 -714.677 -712.553 -710.212 -707.843 -705.475 -703.107 -700.672 -698.249 -695.776 -693.298 -690.795 -688.241 -685.708 -683.159 -680.574 -677.925 -675.263 -672.622 -669.982 -667.28 -664.511 -661.743 -658.995 -656.248 -653.434 -650.561 -647.687 -644.834 -641.954 -639.027 -636.08 -633.103 -630.146 -627.123 -624.093 -621.064 -618.001 -614.91 -611.78 -608.651 -605.522 -602.392 -602.371 -602.35 -602.328 -602.307 -602.285 -599.087 -595.889 -592.692 -589.496 -586.272 -582.977 -579.664 -576.352 -573.035 -569.674 -566.294 -562.901 -559.498 -556.063 -552.613 -549.142 -545.673 -542.174 -538.638 -535.101 -531.544 -527.988 -524.394 -520.775 -517.155 -513.514 -509.854 -506.173 -502.489 -498.789 -495.064 -491.303 -487.543 -483.784 -480.018 -478.466 -476.903 -475.341 -473.779 -472.252 -469.974 -467.697 -465.42 -463.143 -460.85 -456.954 -453.051 -449.148 -445.245 -441.301 -437.342 -433.374 -429.401 -425.403 -421.39 -417.362 -413.335 -409.287 -405.21 -401.132 -397.039 -392.946 -388.818 -384.682 -380.542 -376.386 -372.208 -368.019 -363.831 -359.634 -356.03 -352.407 -348.784 -345.161 -341.696 -341.042 -340.388 -339.733 -339.079 -338.421 -334.124 -329.826 -325.528 -321.232 -316.907 -312.564 -308.215 -303.866 -299.501 -295.12 -290.727 -286.335 -281.931 -277.505 -273.078 -268.638 -264.198 -259.733 -255.265 -250.795 -246.311 -241.81 -237.304 -232.798 -228.289 -225.553 -222.806 -220.06 -217.314 -214.647 -212.833 -211.02 -209.206 -207.393 -205.571 -200.993 -196.414 -191.836 -187.257 -182.655 -178.045 -173.435 -168.827 -164.201 -159.572 -154.933 -150.294 -145.646 -140.994 -136.34 -131.676 -127.006 -122.329 -117.653 -112.978 -109.062 -105.139 -101.217 -97.295 -93.5184 -92.7165 -91.9146 -91.1127 -90.3108 -89.5072 -84.7942 -80.083 -75.3724 -70.6623 -65.9411 -61.2132 -56.4893 -51.7691 -47.0425 -42.3122 -37.5747 -32.8379 -28.1002 -23.3678 -18.6331 -13.8904 -9.1477 -4.40508 0.337018 5.07195 8.12564 11.1778 14.2298 17.2815 20.2542 21.9607 23.6672 25.3736 27.0799 28.7867 33.5341 38.2754 43.0161 47.7558 52.4957 57.2404 61.9828 66.7124 71.4365 76.1631 80.8948 85.6257 90.3476 95.059 99.7681 104.483 109.186 113.888 118.589 123.29 123.864 124.435 125.007 125.579 126.148 130.267 134.386 138.504 142.622 146.731 151.414 156.084 160.749 165.401 170.053 174.707 179.36 183.998 188.614 193.233 197.854 202.462 207.062 211.662 216.254 217.822 219.383 220.944 222.504 224.049 227.066 230.082 233.098 236.114 239.118 243.678 248.218 252.757 257.282 261.801 266.318 270.836 275.332 279.804 284.278 288.751 293.208 297.654 302.101 306.536 308.1 309.654 311.208 312.761 314.302 317.162 320.022 322.882 325.741 328.585 332.974 337.345 341.713 346.062 350.405 354.743 359.081 363.396 367.684 371.974 376.26 380.524 384.779 389.035 393.285 394.105 394.92 395.735 396.549 397.361 400.765 404.17 407.574 410.977 414.36 418.548 422.724 426.89 431.032 435.171 439.302 443.433 447.536 451.623 455.706 459.325 462.921 466.514 470.107 473.655 474.118 474.581 475.044 475.506 475.966 479.979 483.988 487.997 492 495.982 499.951 503.921 507.866 511.789 515.713 519.624 523.524 527.407 531.291 535.159 536.846 538.522 540.197 541.873 543.54 545.704 547.868 550.032 552.194 554.343 558.15 561.942 565.731 569.498 573.26 577.008 580.755 584.477 588.185 591.887 594.778 597.651 600.52 603.389 606.247 607.045 607.844 608.643 609.44 610.233 613.866 617.49 621.114 624.727 628.324 631.905 635.487 639.046 642.579 646.113 649.63 653.126 656.615 660.105 663.593 663.626 663.659 663.691 663.724 663.756 667.172 670.587 674.003 677.412 680.797 684.196 687.596 690.971 694.328 697.684 701.022 704.313 707.572 710.83 714.063 714.665 715.291 715.923 716.554 717.19 719.848 722.505 725.163 727.843 730.619 734.026 737.349 740.175 742.292 744.406 746.488 749.082 752.849 756.622 761.288 762.754 763.892 764.649 765.407 766.176 768.677 771.178 773.676 775.427 776.504 778.091 779.678 781.893 784.715 787.531 789.07 790.58 792.05 793.519 795.048 796.336 797.622 798.909 800.164 801.393 804.116 806.833 809.447 811.969 814.484 816.228 817.949 819.635 821.321 823.14 823.897 824.654 825.41 826.155 826.89 829.348 831.753 834.124 836.373 838.612 840.513 842.355 844.106 845.856 847.846 848.114 848.382 848.649 848.907 849.156 851.112 853.01 854.901 856.642 858.323 859.95 861.509 862.878 864.241 865.512 865.718 865.896 866.048 866.2 866.357 867.252 868.14 869.021 869.792 870.43 871.104 871.769 872.168 872.288 872.399 872.385 872.187 871.871 871.551 871.163 871.119 871.074 871.028 870.956 870.819 869.992 868.981 867.954 866.646 865.15 863.439 861.716 859.552 857.04 854.469 852.152 849.42 846.586 843.746 840.149 839.72 839.289 838.859 838.422 837.916 833.569 829.102 824.618 819.985 814.878 809.369 803.848 797.6 790.691 783.766 776.376 768.837 760.789 752.571 744.057 735.302 725.256 715.207 705.156 692.798 692.491 692.184 691.877 691.569 691.259 679.459 667.646 655.822 643.987 632.073 619.137 603.911 588.283 570.674 551.42 531.206 510.977 494.04 480.244 466.442 451.905 437.369 408.92 370.002 330.013 288.234 261.427 245.076 230.286 233.419 224.385 168.389 112.074 55.4546 29.2023 24.8011 20.4088 16.0254 11.6508 0