# vtk DataFile Version 2.0
track0
ASCII
DATASET POLYDATA
POINTS 11940 float
-0.0205 0.001 1e-005
-0.0203851 0.00100536 1.50227e-005
-0.0202702 0.00101047 1.9661e-005
-0.0201552 0.00101536 2.39676e-005
-0.0200402 0.00102 2.79379e-005
-0.0198627 0.00102682 3.354e-005
-0.0196936 0.00103277 3.80898e-005
-0.0195244 0.00103811 4.16071e-005
-0.0193552 0.00104284 4.4101e-005
-0.019186 0.00104696 4.55807e-005
-0.0190172 0.00105046 4.60548e-005
-0.0187132 0.00105599 4.60548e-005
-0.0184093 0.00106088 4.60548e-005
-0.0181054 0.00106525 4.60548e-005
-0.0178014 0.00106909 4.60548e-005
-0.0174976 0.00107242 4.60548e-005
-0.0172058 0.00107533 4.60548e-005
-0.016914 0.00107815 4.60548e-005
-0.0166222 0.0010809 4.60548e-005
-0.0163305 0.00108359 4.60548e-005
-0.0160387 0.0010862 4.60548e-005
-0.0157586 0.00108862 4.60548e-005
-0.0154784 0.00109096 4.60548e-005
-0.0151983 0.0010932 4.60548e-005
-0.0149182 0.00109536 4.60548e-005
-0.0146381 0.00109743 4.60548e-005
-0.0143692 0.0010993 4.60548e-005
-0.0141002 0.00110107 4.60548e-005
-0.0138313 0.00110277 4.60548e-005
-0.0135624 0.00110439 4.60548e-005
-0.0132934 0.00110593 4.60548e-005
-0.0130353 0.00110734 4.60548e-005
-0.0127771 0.0011087 4.60548e-005
-0.0125189 0.00111002 4.60548e-005
-0.0122607 0.00111132 4.60548e-005
-0.0120025 0.00111257 4.60548e-005
-0.0117547 0.00111375 4.60548e-005
-0.0115068 0.0011149 4.60548e-005
-0.0112589 0.00111604 4.60548e-005
-0.0110111 0.00111716 4.60548e-005
-0.0107632 0.00111827 4.60548e-005
-0.0105252 0.00111932 4.60548e-005
-0.0102873 0.00112035 4.60548e-005
-0.0100493 0.00112137 4.60548e-005
-0.00981133 0.00112238 4.60548e-005
-0.00957337 0.00112338 4.60548e-005
-0.00934491 0.00112433 4.60548e-005
-0.00911645 0.00112526 4.60548e-005
-0.00888799 0.00112618 4.60548e-005
-0.00865954 0.0011271 4.60548e-005
-0.00843108 0.00112801 4.60548e-005
-0.00821175 0.00112887 4.60548e-005
-0.00799242 0.00112973 4.60548e-005
-0.00777309 0.00113057 4.60548e-005
-0.00755376 0.00113141 4.60548e-005
-0.00733443 0.00113224 4.60548e-005
-0.00712387 0.00113304 4.60548e-005
-0.0069133 0.00113383 4.60548e-005
-0.00670273 0.00113461 4.60548e-005
-0.00649216 0.00113539 4.60548e-005
-0.0062816 0.00113617 4.60548e-005
-0.00607944 0.00113691 4.60548e-005
-0.00587729 0.00113765 4.60548e-005
-0.00567514 0.00113838 4.60548e-005
-0.00547298 0.00113911 4.60548e-005
-0.00527083 0.00113984 4.60548e-005
-0.00507675 0.00114055 4.60548e-005
-0.00488267 0.00114124 4.60548e-005
-0.0046886 0.00114194 4.60548e-005
-0.00449452 0.00114263 4.60548e-005
-0.00430044 0.00114332 4.60548e-005
-0.00411412 0.00114399 4.60548e-005
-0.0039278 0.00114465 4.60548e-005
-0.00374147 0.00114531 4.60548e-005
-0.00355515 0.00114597 4.60548e-005
-0.00336883 0.00114663 4.60548e-005
-0.00318995 0.00114726 4.60548e-005
-0.00301107 0.0011479 4.60548e-005
-0.00283219 0.00114852 4.60548e-005
-0.00265331 0.00114915 4.60548e-005
-0.00247443 0.00114978 4.60548e-005
-0.0023027 0.0011504 4.60548e-005
-0.00213097 0.001151 4.60548e-005
-0.00195924 0.00115161 4.60548e-005
-0.0017875 0.00115221 4.60548e-005
-0.00161577 0.00115282 4.60548e-005
-0.0014509 0.00115342 4.60548e-005
-0.00128603 0.00115401 4.60548e-005
-0.00112116 0.00115459 4.60548e-005
-0.000956289 0.00115518 4.60548e-005
-0.000791418 0.00115578 4.60548e-005
-0.000633135 0.00115637 4.60548e-005
-0.000474851 0.00115695 4.60548e-005
-0.000316567 0.00115753 4.60548e-005
-0.000158284 0.00115812 4.60548e-005
0 0.00115872 4.60548e-005
0.000105677 0.00115913 4.60548e-005
0.000211355 0.00115953 4.60548e-005
0.000317032 0.00115994 4.60548e-005
0.00042271 0.00116035 4.60548e-005
0.000528387 0.00116077 4.60548e-005
0.000634886 0.00116121 4.60548e-005
0.000741385 0.00116164 4.60548e-005
0.000847885 0.00116207 4.60548e-005
0.000954384 0.00116251 4.60548e-005
0.00106088 0.00116295 4.60548e-005
0.00116821 0.00116341 4.60548e-005
0.00127554 0.00116387 4.60548e-005
0.00138286 0.00116433 4.60548e-005
0.00149019 0.0011648 4.60548e-005
0.00159752 0.00116527 4.60548e-005
0.00170568 0.00116576 4.60548e-005
0.00181384 0.00116624 4.60548e-005
0.001922 0.00116673 4.60548e-005
0.00203016 0.00116721 4.60548e-005
0.00213833 0.0011677 4.60548e-005
0.00224733 0.0011682 4.60548e-005
0.00235633 0.00116871 4.60548e-005
0.00246533 0.00116921 4.60548e-005
0.00257434 0.00116971 4.60548e-005
0.00268334 0.00117022 4.60548e-005
0.00279319 0.00117073 4.60548e-005
0.00290304 0.00117124 4.60548e-005
0.00301289 0.00117176 4.60548e-005
0.00312274 0.00117228 4.60548e-005
0.00323259 0.0011728 4.60548e-005
0.00334329 0.00117331 4.60548e-005
0.003454 0.00117384 4.60548e-005
0.0035647 0.00117437 4.60548e-005
0.0036754 0.0011749 4.60548e-005
0.00378611 0.00117543 4.60548e-005
0.00389767 0.00117595 4.60548e-005
0.00400924 0.00117649 4.60548e-005
0.0041208 0.00117703 4.60548e-005
0.00423237 0.00117757 4.60548e-005
0.00434393 0.00117811 4.60548e-005
0.00445636 0.00117863 4.60548e-005
0.00456879 0.00117917 4.60548e-005
0.00468123 0.00117972 4.60548e-005
0.00479366 0.00118027 4.60548e-005
0.00490609 0.00118081 4.60548e-005
0.0050194 0.00118134 4.60548e-005
0.0051327 0.00118188 4.60548e-005
0.00524601 0.00118244 4.60548e-005
0.00535931 0.00118299 4.60548e-005
0.00547262 0.00118353 4.60548e-005
0.00558681 0.00118406 4.60548e-005
0.005701 0.00118461 4.60548e-005
0.00581518 0.00118516 4.60548e-005
0.00592937 0.00118571 4.60548e-005
0.00604356 0.00118626 4.60548e-005
0.00615863 0.00118679 4.60548e-005
0.00627371 0.00118734 4.60548e-005
0.00638878 0.00118789 4.60548e-005
0.00650386 0.00118844 4.60548e-005
0.00661893 0.00118899 4.60548e-005
0.0067349 0.00118953 4.60548e-005
0.00685087 0.00119007 4.60548e-005
0.00696684 0.00119062 4.60548e-005
0.00708281 0.00119117 4.60548e-005
0.00719878 0.00119172 4.60548e-005
0.00731565 0.00119225 4.60548e-005
0.00743252 0.00119279 4.60548e-005
0.00754939 0.00119334 4.60548e-005
0.00766626 0.00119388 4.60548e-005
0.00778313 0.00119442 4.60548e-005
0.00790091 0.00119495 4.60548e-005
0.00801869 0.00119549 4.60548e-005
0.00813647 0.00119603 4.60548e-005
0.00825425 0.00119656 4.60548e-005
0.00837203 0.0011971 4.60548e-005
0.00849073 0.00119763 4.60548e-005
0.00860942 0.00119816 4.60548e-005
0.00872812 0.00119869 4.60548e-005
0.00884682 0.00119922 4.60548e-005
0.00896551 0.00119975 4.60548e-005
0.00908513 0.00120027 4.60548e-005
0.00920475 0.0012008 4.60548e-005
0.00932437 0.00120132 4.60548e-005
0.00944398 0.00120185 4.60548e-005
0.0095636 0.00120237 4.60548e-005
0.00968415 0.00120288 4.60548e-005
0.0098047 0.0012034 4.60548e-005
0.00992525 0.00120392 4.60548e-005
0.0100458 0.00120444 4.60548e-005
0.0101663 0.00120495 4.60548e-005
0.0102878 0.00120546 4.60548e-005
0.0104093 0.00120597 4.60548e-005
0.0105308 0.00120648 4.60548e-005
0.0106523 0.00120698 4.60548e-005
0.0107738 0.00120748 4.60548e-005
0.0108962 0.00120798 4.60548e-005
0.0110186 0.00120848 4.60548e-005
0.0111411 0.00120898 4.60548e-005
0.0112635 0.00120948 4.60548e-005
0.0113859 0.00120997 4.60548e-005
0.0115093 0.00121046 4.60548e-005
0.0116327 0.00121095 4.60548e-005
0.0117561 0.00121144 4.60548e-005
0.0118795 0.00121193 4.60548e-005
0.0120028 0.00121241 4.60548e-005
0.0121272 0.00121289 4.60548e-005
0.0122515 0.00121337 4.60548e-005
0.0123759 0.00121385 4.60548e-005
0.0125002 0.00121432 4.60548e-005
0.0126245 0.00121479 4.60548e-005
0.0127498 0.00121526 4.60548e-005
0.0128752 0.00121573 4.60548e-005
0.0130005 0.00121619 4.60548e-005
0.0131258 0.00121665 4.60548e-005
0.0132511 0.00121711 4.60548e-005
0.0133774 0.00121756 4.60548e-005
0.0135036 0.00121801 4.60548e-005
0.0136299 0.00121846 4.60548e-005
0.0137562 0.00121891 4.60548e-005
0.0138825 0.00121935 4.60548e-005
0.0140098 0.00121978 4.60548e-005
0.014137 0.00122022 4.60548e-005
0.0142643 0.00122066 4.60548e-005
0.0143915 0.00122109 4.60548e-005
0.0145188 0.00122151 4.60548e-005
0.0146471 0.00122192 4.60548e-005
0.0147753 0.00122234 4.60548e-005
0.0149036 0.00122276 4.60548e-005
0.0150318 0.00122317 4.60548e-005
0.0151601 0.00122357 4.60548e-005
0.0152893 0.00122396 4.60548e-005
0.0154186 0.00122436 4.60548e-005
0.0155478 0.00122475 4.60548e-005
0.0156771 0.00122514 4.60548e-005
0.0158063 0.00122552 4.60548e-005
0.0159366 0.00122589 4.60548e-005
0.0160668 0.00122627 4.60548e-005
0.0161971 0.00122663 4.60548e-005
0.0163274 0.001227 4.60548e-005
0.0164576 0.00122735 4.60548e-005
0.0165889 0.0012277 4.60548e-005
0.0167201 0.00122804 4.60548e-005
0.0168514 0.00122838 4.60548e-005
0.0169827 0.00122872 4.60548e-005
0.0171139 0.00122904 4.60548e-005
0.0172462 0.00122936 4.60548e-005
0.0173785 0.00122968 4.60548e-005
0.0175108 0.00122998 4.60548e-005
0.0176431 0.00123028 4.60548e-005
0.0177754 0.00123058 4.60548e-005
0.0177783 0.00123058 4.60548e-005
0.0177811 0.00123059 4.60548e-005
0.017784 0.0012306 4.60548e-005
0.0177868 0.0012306 4.60548e-005
0.0177897 0.00123061 4.60548e-005
0.0179202 0.00123089 4.60548e-005
0.0180506 0.00123116 4.60548e-005
0.0181811 0.00123143 4.60548e-005
0.0183115 0.00123169 4.60548e-005
0.018442 0.00123194 4.60548e-005
0.0185763 0.00123219 4.60548e-005
0.0187107 0.00123243 4.60548e-005
0.018845 0.00123267 4.60548e-005
0.0189794 0.00123289 4.60548e-005
0.0191137 0.00123311 4.60548e-005
0.0192491 0.00123332 4.60548e-005
0.0193845 0.00123352 4.60548e-005
0.0195199 0.00123371 4.60548e-005
0.0196553 0.00123389 4.60548e-005
0.0197907 0.00123406 4.60548e-005
0.0199272 0.00123423 4.60548e-005
0.0200636 0.00123438 4.60548e-005
0.0202001 0.00123453 4.60548e-005
0.0203365 0.00123466 4.60548e-005
0.020473 0.00123479 4.60548e-005
0.0206105 0.0012349 4.60548e-005
0.020748 0.001235 4.60548e-005
0.0208855 0.0012351 4.60548e-005
0.021023 0.00123518 4.60548e-005
0.0211606 0.00123526 4.60548e-005
0.0212991 0.00123532 4.60548e-005
0.0214377 0.00123537 4.60548e-005
0.0215763 0.00123541 4.60548e-005
0.0217149 0.00123545 4.60548e-005
0.0218535 0.00123547 4.60548e-005
0.0219931 0.00123548 4.60548e-005
0.0221328 0.00123547 4.60548e-005
0.0222724 0.00123546 4.60548e-005
0.0224121 0.00123543 4.60548e-005
0.0225517 0.0012354 4.60548e-005
0.0226925 0.00123536 4.60548e-005
[...]
POINT_DATA 11940
 FIELD attributes 1
U 3 11940 float
99.9368 	4.66457 	4.36822 99.8207 	4.43919 	4.02824 99.6994 	4.23314 	3.73495 99.5783 	4.02575 	3.43844 99.4577 	3.817 	3.13868 99.2719 	3.49266 	2.67094 99.1142 	3.12874 	2.06097 98.9555 	2.7666 	1.45862 98.7958 	2.40624 	0.863929 98.6352 	2.04769 	0.2769 98.4512 	1.7914 	0 98.0734 	1.57596 	0 97.7157 	1.40421 	0 97.358 	1.23281 	0 97.0005 	1.06176 	0 96.6963 	0.963961 	0 96.4031 	0.93193 	0 96.1943 	0.907622 	0 95.9855 	0.883263 	0 95.7767 	0.858852 	0 95.663 	0.825878 	0 95.478 	0.795769 	0 95.3739 	0.765078 	0 95.2699 	0.734334 	0 95.1659 	0.703534 	0 95.1398 	0.661589 	0 94.9903 	0.625435 	0 94.9018 	0.598058 	0 94.8133 	0.570655 	0 94.7248 	0.543226 	0 94.7036 	0.517409 	0 94.5611 	0.497749 	0 94.4683 	0.484695 	0 94.3767 	0.471809 	0 94.2901 	0.458922 	0 94.2628 	0.446116 	0 94.1441 	0.437906 	0 94.0607 	0.431979 	0 93.9816 	0.426329 	0 93.9105 	0.420341 	0 93.8855 	0.412429 	0 93.7979 	0.406431 	0 93.7318 	0.402016 	0 93.6704 	0.39795 	0 93.6173 	0.393598 	0 93.5944 	0.388208 	0 93.5313 	0.382101 	0 93.4795 	0.378022 	0 93.4313 	0.374601 	0 93.3899 	0.371289 	0 93.3666 	0.368267 	0 93.3194 	0.36265 	0 93.2777 	0.359157 	0 93.2384 	0.356589 	0 93.2042 	0.354484 	0 93.1807 	0.353324 	0 93.1446 	0.348522 	0 93.1109 	0.345737 	0 93.0787 	0.34407 	0 93.0501 	0.343108 	0 93.0278 	0.343301 	0 93.0001 	0.33912 	0 92.9731 	0.336908 	0 92.9468 	0.336043 	0 92.9229 	0.336085 	0 92.9026 	0.337347 	0 92.8817 	0.333207 	0 92.8602 	0.331099 	0 92.8383 	0.330673 	0 92.8178 	0.331497 	0 92.7989 	0.333727 	0 92.7833 	0.329437 	0 92.766 	0.327164 	0 92.7472 	0.32688 	0 92.7286 	0.328272 	0 92.7103 	0.331252 	0 92.6988 	0.327057 	0 92.6849 	0.324868 	0 92.6683 	0.325021 	0 92.6508 	0.327273 	0 92.6327 	0.331217 	0 92.6245 	0.32767 	0 92.6134 	0.325877 	0 92.5984 	0.326493 	0 92.5815 	0.329339 	0 92.5633 	0.333718 	0 92.558 	0.330256 	0 92.5494 	0.328856 	0 92.5357 	0.33078 	0 92.5187 	0.335707 	0 92.4998 	0.342395 	0 92.4962 	0.340465 	0 92.4899 	0.340294 	2.98795e-020 92.4787 	0.343464 	1.16489e-019 92.4648 	0.349727 	9.873e-020 92.4495 	0.35753 	2.8946e-020 92.4501 	0.356281 	1.56871e-018 92.4474 	0.356803 	2.54898e-018 92.4383 	0.360771 	2.44096e-018 92.4252 	0.367357 	1.30272e-018 92.4099 	0.375413 	-4.13812e-019 92.4141 	0.373669 	-8.923e-019 92.4139 	0.374575 	-1.2117e-018 92.407 	0.379502 	-1.2897e-018 92.3956 	0.38736 	-9.0892e-019 92.3809 	0.397323 	-1.98826e-019 92.3881 	0.395642 	-1.82468e-019 92.39 	0.396278 	-1.32722e-019 92.3853 	0.39971 	-4.27103e-020 92.3759 	0.405956 	8.58411e-020 92.3622 	0.414742 	2.492e-019 92.3737 	0.413999 	8.21743e-020 92.3779 	0.414223 	-1.42351e-019 92.3751 	0.415384 	-4.22557e-019 92.3669 	0.418417 	-7.87597e-019 92.3527 	0.423558 	-1.24817e-018 92.3683 	0.425964 	-2.23274e-018 92.3741 	0.427021 	-2.55901e-018 92.3721 	0.427024 	-2.37133e-018 92.364 	0.427066 	-1.70273e-018 92.3475 	0.427163 	-3.59492e-019 92.3665 	0.434116 	1.17742e-018 92.3727 	0.43667 	1.88948e-018 92.3709 	0.436464 	2.0838e-018 92.3626 	0.434369 	1.7504e-018 92.343 	0.428957 	4.89935e-019 92.3651 	0.44046 	-1.84032e-018 92.3711 	0.444191 	-2.67657e-018 92.3692 	0.444033 	-2.76541e-018 92.3608 	0.440608 	-2.159e-018 92.3382 	0.429904 	-4.33282e-021 92.363 	0.444787 	2.14274e-018 92.3683 	0.448804 	2.65999e-018 92.3659 	0.448557 	2.53775e-018 92.3574 	0.444506 	1.92976e-018 92.3314 	0.429488 	-7.913e-020 92.359 	0.446264 	-1.65744e-018 92.3626 	0.449922 	-2.28352e-018 92.3592 	0.449651 	-2.62439e-018 92.3503 	0.445811 	-2.63721e-018 92.3204 	0.428159 	-1.38012e-018 92.3509 	0.4456 	-2.64909e-018 92.3524 	0.448639 	-2.72565e-018 92.3476 	0.44853 	-2.54165e-018 92.3383 	0.44559 	-2.16357e-018 92.3039 	0.426995 	-7.12507e-019 92.3381 	0.443928 	-7.49451e-019 92.337 	0.446058 	-5.16895e-019 92.3307 	0.44601 	-2.44697e-019 92.3211 	0.444119 	1.61174e-020 92.2813 	0.42582 	1.75635e-019 92.3204 	0.441027 	1.25761e-020 92.316 	0.441935 	0 92.3079 	0.441648 	0 92.298 	0.440544 	0 92.2516 	0.423526 	0 92.2971 	0.43633 	0 92.2884 	0.43606 	-2.64776e-019 92.2782 	0.435443 	-5.36589e-019 92.268 	0.434825 	-8.08404e-019 92.2132 	0.419839 	-1.25509e-018 92.2653 	0.429823 	-2.19125e-018 92.2525 	0.428928 	-2.19876e-018 92.2398 	0.428032 	-2.20626e-018 92.227 	0.427136 	-2.21374e-018 92.164 	0.415051 	-1.30607e-018 92.2222 	0.422287 	4.25899e-019 92.2065 	0.421133 	8.56091e-019 92.1908 	0.41998 	1.28626e-018 92.1751 	0.418826 	1.7164e-018 92.1025 	0.409276 	6.89199e-019 92.1676 	0.414292 	1.73535e-018 92.1486 	0.412856 	1.73939e-018 92.1296 	0.41142 	1.74341e-018 92.1106 	0.409985 	1.74741e-018 92.0269 	0.402402 	7.40984e-019 92.0995 	0.405817 	5.55506e-019 92.0767 	0.404031 	3.82857e-019 92.0539 	0.402244 	2.10212e-019 92.0311 	0.400458 	3.75721e-020 91.9351 	0.394109 	0 92.0153 	0.396591 	-4.07748e-020 91.9883 	0.394478 	-2.1372e-019 91.9612 	0.392366 	-3.86671e-019 91.9342 	0.390253 	-5.59626e-019 91.8248 	0.384475 	-7.45376e-019 91.9123 	0.3867 	-1.61962e-018 91.8808 	0.384371 	-1.71537e-018 91.8492 	0.382041 	-1.8111e-018 91.8176 	0.379712 	-1.90679e-018 91.6943 	0.373969 	-1.09475e-018 91.7884 	0.376449 	-6.65643e-020 91.752 	0.373946 	8.89242e-020 91.7156 	0.371443 	2.44349e-019 91.6792 	0.36894 	3.9971e-019 91.5423 	0.362769 	-4.40913e-019 91.6413 	0.365752 	-3.49849e-019 91.5999 	0.363057 	-2.48169e-019 91.5585 	0.360361 	-1.46492e-019 91.517 	0.357664 	-4.48195e-020 91.3675 	0.350764 	-8.62993e-020 91.469 	0.354325 	0 91.4225 	0.351394 	0 91.3759 	0.348463 	0 91.3292 	0.34553 	0 91.1688 	0.337734 	0 91.2698 	0.341786 	5.19467e-020 91.218 	0.338617 	1.53601e-019 91.1661 	0.335447 	2.55261e-019 91.1142 	0.332276 	3.56925e-019 90.9455 	0.323647 	3.84716e-019 91.0421 	0.328032 	-1.56154e-019 90.9851 	0.324634 	-1.40151e-019 90.9279 	0.321236 	-1.2407e-019 90.8708 	0.317836 	-1.07911e-019 90.6975 	0.308537 	3.94284e-019 90.785 	0.312864 	3.67083e-019 90.7228 	0.309198 	2.79812e-019 90.6605 	0.30553 	1.92546e-019 90.5982 	0.30186 	1.05287e-019 90.4248 	0.292188 	-1.01181e-019 90.4982 	0.29602 	-3.70088e-019 90.431 	0.292096 	-3.65833e-019 90.3638 	0.28817 	-3.61499e-019 90.2965 	0.284242 	-3.57087e-019 90.1282 	0.274653 	-8.41283e-020 90.1816 	0.277641 	2.42496e-019 90.1095 	0.273476 	1.20102e-019 90.0374 	0.269308 	-2.38168e-021 89.9653 	0.265137 	-1.24957e-019 89.8078 	0.256016 	-4.43968e-019 89.8351 	0.257648 	-2.40756e-019 89.7585 	0.253204 	-2.49335e-019 89.6818 	0.248757 	-2.58018e-019 89.605 	0.244307 	-2.66805e-019 89.4647 	0.236075 	-4.43709e-019 89.4597 	0.235832 	-3.71271e-019 89.3787 	0.231092 	-2.76812e-019 89.2977 	0.226348 	-1.82361e-019 89.2165 	0.2216 	-8.79162e-020 89.1 	0.214719 	-2.05361e-020 89.0565 	0.212154 	0 88.9715 	0.207117 	0 88.8864 	0.202076 	0 88.8011 	0.197029 	0 88.7149 	0.191928 	-4.44035e-022 88.714 	0.191869 	0 88.7121 	0.191755 	0 88.7102 	0.19164 	0 88.7083 	0.191526 	0 88.7064 	0.191411 	0 88.6187 	0.186155 	0 88.5308 	0.180892 	0 88.4429 	0.175624 	0 88.3548 	0.17035 	0 88.2284 	0.163887 	3.19158e-021 88.1678 	0.159114 	8.46634e-020 88.0745 	0.15341 	1.75846e-019 87.9811 	0.1477 	2.67019e-019 87.8875 	0.141983 	3.58184e-019 87.7258 	0.134464 	4.72745e-019 87.6869 	0.129769 	7.52646e-019 87.5905 	0.123728 	7.79318e-019 87.4939 	0.11768 	8.06181e-019 87.3971 	0.111624 	8.33233e-019 87.2115 	0.103775 	4.71602e-019 87.1867 	0.0986425 	3.43061e-019 87.0874 	0.0923095 	2.50451e-019 86.9879 	0.0859679 	1.57831e-019 86.8882 	0.0796177 	6.52012e-020 86.6876 	0.0721151 	1.30168e-020 86.67 	0.0660612 	5.10173e-020 86.5681 	0.0595046 	1.24404e-019 86.4661 	0.0529387 	1.97783e-019 86.3638 	0.0463635 	2.71152e-019 86.1563 	0.0398768 	2.97637e-019 86.1399 	0.0324361 	6.00937e-020 86.0358 	0.0257114 	5.52382e-020 85.9315 	0.0189767 	5.02849e-020 85.8269 	0.0122321 	4.52335e-020 85.6196 	0.00736627 	2.98076e-019 85.5995 	-0.00189543 	1.00483e-018 85.4934 	-0.00874505 	1.10074e-018 85.387 	-0.0156051 	1.19678e-018 85.2804 	-0.0224757 	1.29296e-018 85.0791 	-0.0251843 	7.1108e-019 85.0515 	-0.0366471 	6.18284e-019 84.9437 	-0.0435895 	6.07191e-019 84.8355 	-0.0505428 	5.96058e-019 84.7271 	-0.0575071 	5.84883e-019 84.5365 	-0.057613 	6.24156e-019 84.4987 	-0.071598 	3.60086e-019 84.3893 	-0.0786077 	-2.59496e-019 84.2797 	-0.0856286 	-8.79037e-019 84.1698 	-0.0926609 	-1.49854e-018 83.9933 	-0.0898012 	-2.17683e-018 83.9435 	-0.10654 	-3.54998e-018 83.8329 	-0.113604 	-3.57714e-018 83.722 	-0.12068 	-3.60451e-018 83.6108 	-0.127767 	-3.63209e-018 83.4509 	-0.121704 	-1.93746e-018 83.3883 	-0.141364 	-4.01472e-019 83.2767 	-0.148476 	9.84629e-020 83.1649 	-0.155599 	5.98635e-019 83.0527 	-0.162734 	1.09904e-018 82.9107 	-0.153315 	-1.83978e-021 82.8353 	-0.17595 	-1.18285e-018 82.723 	-0.183107 	-1.21228e-018 82.6104 	-0.190275 	-1.24189e-018 82.4974 	-0.19723 	-1.25901e-018 82.374 	-0.18466 	-1.76188e-019 82.2852 	-0.209374 	-1.96218e-020 82.1736 	-0.217487 	2.67889e-019 82.0606 	-0.2247 	5.62557e-019 81.9481 	-0.229551 	8.56859e-019 81.8422 	-0.215772 	1.14859e-018 81.7415 	-0.241338 	8.45886e-019 81.6304 	-0.251507 	7.88274e-019 81.517 	-0.258767 	7.7705e-019 81.4082 	-0.261291 	8.14732e-019 81.3163 	-0.24671 	1.02894e-018 81.2067 	-0.272855 	7.99973e-019 81.0945 	-0.285251 	4.12829e-019 80.9812 	-0.292575 	-3.27223e-020 80.8783 	-0.292654 	-4.31962e-019 80.7974 	-0.2776 	-7.34593e-019 80.6815 	-0.304006 	7.71378e-019 80.5673 	-0.318669 	1.45939e-018 80.4542 	-0.326038 	1.63948e-018 80.3586 	-0.323612 	1.1826e-018 80.2863 	-0.308381 	-1.06238e-019 80.166 	-0.33467 	1.16553e-018 80.0493 	-0.351527 	1.88644e-018 79.9367 	-0.358953 	2.0572e-018 79.8495 	-0.354157 	1.55994e-018 79.7838 	-0.339181 	5.06909e-019 79.6607 	-0.365378 	3.57104e-019 79.5415 	-0.384466 	3.12302e-019 79.4296 	-0.391955 	4.38458e-019 79.3513 	-0.384779 	6.66863e-019 79.2906 	-0.370061 	9.47837e-019 79.1661 	-0.395898 	6.54294e-019 79.0445 	-0.417028 	4.32992e-019 78.9335 	-0.424545 	4.20095e-019 78.8642 	-0.415122 	6.3759e-019 78.8072 	-0.40086 	9.20793e-019 78.6823 	-0.426144 	6.24504e-019 78.5586 	-0.449108 	3.27916e-019 78.4487 	-0.456616 	3.0224e-020 78.3882 	-0.445103 	0 78.3338 	-0.431428 	0 78.2092 	-0.455823 	0 78.0837 	-0.480202 	-6.41632e-022 77.9762 	-0.487274 	-2.73415e-019 77.9232 	-0.474575 	-5.47257e-019 77.8706 	-0.461864 	-8.21173e-019 77.7467 	-0.485415 	-5.33785e-019 77.6219 	-0.50899 	-2.46256e-019 77.5204 	-0.515807 	-4.74848e-019 77.4688 	-0.504161 	-1.02249e-018 77.4176 	-0.492504 	-1.57026e-018 77.2945 	-0.515263 	-9.94713e-019 77.1705 	-0.538045 	-4.18887e-019 77.0749 	-0.544581 	-3.97844e-019 77.0244 	-0.533771 	-9.40851e-019 76.9743 	-0.522951 	-1.48399e-018 76.8519 	-0.544484 	-9.12478e-019 76.7288 	-0.566038 	-3.40707e-019 76.6388 	-0.572248 	-6.10247e-020 76.5894 	-0.56258 	-2.08799e-019 76.5403 	-0.552903 	-3.5655e-019 76.4186 	-0.573284 	-1.3239e-018 76.2962 	-0.593685 	-2.29131e-018 76.2117 	-0.599611 	-2.17434e-018 76.1633 	-0.591058 	-9.38406e-019 76.1151 	-0.582497 	2.97617e-019 75.9941 	-0.601769 	1.48588e-019 75.8723 	-0.621059 	-6.19661e-022 75.793 	-0.626702 	-8.14446e-020 75.7455 	-0.619175 	-3.43208e-019 75.6983 	-0.611643 	-6.05016e-019 75.5777 	-0.629869 	-3.28327e-019 75.4565 	-0.648112 	-5.15278e-020 75.3822 	-0.65347 	-5.77828e-020 75.3357 	-0.646852 	-1.32858e-019 75.2894 	-0.640229 	-2.07926e-019 75.1692 	-0.657484 	-1.36715e-019 75.0484 	-0.674753 	-6.55289e-020 74.9789 	-0.679828 	-3.22431e-019 74.9333 	-0.673996 	-4.05615e-019 74.8879 	-0.66816 	-4.88731e-019 74.7681 	-0.684524 	-2.56783e-018 74.653 	-0.699735 	-4.42338e-018 74.5859 	-0.704359 	-4.24776e-018 74.5381 	-0.700545 	-2.45344e-018 74.4935 	-0.695385 	-4.01335e-019 74.374 	-0.710954 	7.11044e-019 74.2671 	-0.72383 	1.60765e-018 74.2003 	-0.728397 	1.84107e-018 74.1497 	-0.72649 	1.12315e-018 74.1058 	-0.721903 	1.16574e-020 73.9867 	-0.736771 	7.80506e-020 73.8882 	-0.747562 	9.30532e-020 73.8217 	-0.752067 	2.89087e-020 73.7679 	-0.751843 	-1.39012e-019 73.7247 	-0.747736 	-3.921e-019 73.606 	-0.761997 	-1.22712e-019 73.5159 	-0.770915 	0 73.4496 	-0.775361 	0 73.3925 	-0.776641 	-9.52032e-020 73.3498 	-0.772933 	-3.40298e-019 73.2317 	-0.786678 	-7.90553e-020 73.1499 	-0.793902 	-1.78907e-019 73.084 	-0.798297 	-4.35454e-019 73.0232 	-0.800946 	-7.47883e-019 72.981 	-0.797573 	-1.25286e-018 72.8634 	-0.810887 	-2.75111e-018 72.7902 	-0.816566 	-2.66351e-018 72.7245 	-0.820926 	-2.30121e-018 72.66 	-0.824851 	-1.83878e-018 72.618 	-0.821767 	2.29265e-019 72.5016 	-0.834654 	2.13246e-018 72.4363 	-0.838996 	2.33456e-018 72.3708 	-0.843341 	2.53648e-018 72.3052 	-0.847689 	2.73821e-018 72.2608 	-0.845655 	1.28136e-018 72.1533 	-0.856934 	9.84697e-019 72.0882 	-0.861291 	6.84976e-019 72.023 	-0.865651 	3.85292e-019 71.9575 	-0.870014 	8.56437e-020 71.9091 	-0.869412 	-8.26652e-020 71.8105 	-0.879204 	-6.36025e-019 71.7456 	-0.883614 	-6.05067e-019 71.6805 	-0.888026 	-5.73993e-019 71.6152 	-0.892441 	-5.42803e-019 71.5627 	-0.893235 	-6.58665e-020 71.4727 	-0.901662 	-1.77863e-021 71.4079 	-0.906166 	-1.26362e-021 71.343 	-0.910672 	-7.48663e-022 71.2778 	-0.915181 	-2.3377e-022 71.2213 	-0.917339 	-4.16711e-020 71.1398 	-0.924535 	-3.00559e-019 71.0752 	-0.929184 	-2.69176e-019 71.0103 	-0.933835 	-2.37673e-019 70.9453 	-0.938488 	-2.0605e-019 70.8845 	-0.941988 	-2.51644e-020 70.8116 	-0.948085 	-3.10145e-021 70.747 	-0.952925 	-2.32502e-021 70.6822 	-0.957767 	-1.54869e-021 70.6172 	-0.962612 	-7.72464e-022 70.5522 	-0.967431 	0 70.5503 	-0.967592 	0 70.5487 	-0.967721 	0 70.5471 	-0.96785 	0 70.5454 	-0.967979 	0 70.5438 	-0.968108 	0 70.4796 	-0.973063 	0 70.4152 	-0.978021 	0 70.3506 	-0.982981 	0 70.2858 	-0.987944 	0 70.2312 	-0.991685 	0 70.1591 	-0.998161 	1.73028e-019 70.0931 	-1.00353 	3.85737e-019 70.0269 	-1.00891 	5.98412e-019 69.9605 	-1.01429 	8.11053e-019 69.9146 	-1.01724 	1.02402e-018 69.8361 	-1.02514 	8.29744e-019 69.7701 	-1.03084 	6.56559e-019 69.7039 	-1.03655 	4.83329e-019 69.6374 	-1.04227 	3.10053e-019 69.6018 	-1.04439 	3.20843e-019 69.5169 	-1.0537 	8.42629e-019 69.4509 	-1.05978 	5.16814e-019 69.3846 	-1.06585 	1.91275e-019 69.318 	-1.07194 	-1.33986e-019 69.2924 	-1.07331 	-1.2365e-018 69.2011 	-1.084 	-3.37827e-020 69.1349 	-1.09047 	4.06054e-019 69.0685 	-1.09694 	8.46182e-019 69.0018 	-1.10341 	1.2866e-018 68.9859 	-1.1041 	2.94495e-019 68.8882 	-1.11615 	1.48659e-019 68.8219 	-1.12303 	5.04472e-019 68.7553 	-1.12992 	8.60191e-019 68.6942 	-1.13617 	1.23246e-018 68.6822 	-1.1369 	1.74681e-018 68.5842 	-1.1493 	2.03911e-018 68.5114 	-1.15762 	1.89228e-018 68.4446 	-1.16495 	1.6383e-018 68.3937 	-1.17048 	1.28886e-018 68.3806 	-1.17183 	7.16534e-019 68.2827 	-1.18454 	4.26246e-020 68.2029 	-1.19435 	-3.70842e-019 68.1357 	-1.20213 	-6.03029e-019 68.0948 	-1.20701 	-5.39497e-019 68.0806 	-1.20897 	-1.78391e-019 67.9828 	-1.22202 	-1.24072e-019 67.8959 	-1.23329 	-6.99302e-020 67.8282 	-1.24154 	-1.61068e-020 67.7971 	-1.2458 	0 67.7817 	-1.24837 	0 67.6837 	-1.26177 	0 67.5897 	-1.27449 	2.80307e-020 67.5214 	-1.2832 	2.20122e-019 67.4999 	-1.28688 	2.28553e-019 67.4831 	-1.29004 	2.18118e-019 67.3849 	-1.30381 	-1.37093e-018 67.2862 	-1.31758 	-2.96014e-018 67.2206 	-1.32651 	-2.79131e-018 67.2025 	-1.33026 	-8.46991e-019 67.1843 	-1.33402 	1.09736e-018 67.0857 	-1.34815 	2.22878e-018 66.9866 	-1.3623 	3.36003e-018 66.924 	-1.37162 	3.15768e-018 66.9044 	-1.37595 	1.81458e-018 66.8846 	-1.38029 	4.71449e-019 66.7856 	-1.39481 	2.87451e-019 66.686 	-1.40932 	1.03538e-019 66.6262 	-1.41904 	-4.08812e-020 66.6049 	-1.42395 	-1.34844e-019 66.5834 	-1.42885 	-2.28796e-019 66.4838 	-1.44374 	6.2513e-019 66.3836 	-1.45863 	1.4791e-018 66.3265 	-1.46875 	1.50772e-018 66.3034 	-1.4742 	7.59574e-019 66.2801 	-1.47965 	1.13968e-020 66.1798 	-1.4949 	7.46671e-019 66.0793 	-1.51011 	1.47431e-018 66.026 	-1.5204 	1.44044e-018 65.9992 	-1.52666 	7.45321e-019 65.974 	-1.53263 	4.65641e-021 65.8728 	-1.54825 	7.32894e-019 65.7827 	-1.56266 	1.2723e-018 65.7279 	-1.57339 	1.23548e-018 65.6917 	-1.58126 	7.92862e-019 65.6644 	-1.58775 	1.53416e-019 65.5623 	-1.60371 	5.51305e-020 65.4824 	-1.61733 	3.77969e-021 65.426 	-1.62849 	1.41271e-021 65.3803 	-1.63797 	0 65.3508 	-1.64493 	0 65.2476 	-1.66124 	0 65.1778 	-1.67406 	0 65.1196 	-1.68564 	0 65.0644 	-1.6967 	2.06441e-020 65.0326 	-1.70414 	1.87039e-019 64.9281 	-1.72077 	1.37076e-021 64.8682 	-1.73278 	1.78544e-019 64.8082 	-1.74476 	3.58478e-019 64.7477 	-1.75674 	5.38472e-019 64.7091 	-1.76529 	1.05951e-018 64.6147 	-1.78107 	2.0926e-018 64.5531 	-1.79343 	2.001e-018 64.4912 	-1.80579 	1.90876e-018 64.4287 	-1.81814 	1.81586e-018 64.3799 	-1.82832 	9.0339e-019 64.2956 	-1.84321 	5.21492e-019 64.232 	-1.85593 	1.84712e-019 64.1679 	-1.86865 	-1.52063e-019 64.1034 	-1.88138 	-4.88832e-019 64.0443 	-1.89317 	-8.05069e-019 63.9872 	-1.90372 	-1.1074e-018 63.9388 	-1.91336 	-1.0376e-018 63.8901 	-1.92299 	-9.67447e-019 63.8412 	-1.93262 	-8.96926e-019 63.7946 	-1.94175 	-8.29777e-019 63.776 	-1.94528 	-8.14104e-019 63.7575 	-1.94882 	-7.98401e-019 63.7388 	-1.95235 	-7.82669e-019 63.7202 	-1.95589 	-7.66906e-019 63.7058 	-1.95913 	-8.08171e-019 63.6335 	-1.97282 	-7.74502e-019 63.5639 	-1.9862 	-7.43836e-019 63.4938 	-1.99959 	-7.13029e-019 63.4232 	-2.01298 	-6.82079e-019 63.3726 	-2.02499 	-6.87321e-019 63.2862 	-2.04011 	-5.52833e-019 63.2141 	-2.0538 	-3.88179e-019 63.1415 	-2.06749 	-2.23455e-019 63.0685 	-2.08119 	-5.86595e-020 63.0317 	-2.09242 	-3.24854e-020 62.9308 	-2.10897 	-4.37716e-019 62.8562 	-2.12295 	-3.29499e-019 62.781 	-2.13693 	-2.21636e-019 62.7053 	-2.15091 	-1.14129e-019 62.6827 	-2.16133 	5.41657e-019 62.5715 	-2.17888 	4.43296e-019 62.4896 	-2.19356 	2.84398e-019 62.4117 	-2.2078 	1.16241e-019 62.35 	-2.22093 	0 62.3251 	-2.23159 	0 62.2113 	-2.24937 	0 62.114 	-2.26551 	0 62.0333 	-2.27999 	0 61.9862 	-2.2922 	0 61.9584 	-2.30312 	0 61.842 	-2.3211 	0 61.7288 	-2.33872 	0 61.6451 	-2.3534 	0 61.613 	-2.36465 	0 61.5821 	-2.3758 	0 61.4631 	-2.39396 	0 61.3433 	-2.41212 	0 61.2637 	-2.42683 	0 61.2301 	-2.43816 	0 61.1961 	-2.4495 	0 61.0742 	-2.46781 	0 60.9516 	-2.48611 	0 60.8738 	-2.50109 	-2.27599e-020 60.837 	-2.51259 	-5.70609e-020 60.7997 	-2.52408 	-9.13786e-020 60.6749 	-2.54251 	-6.21282e-020 60.5509 	-2.56083 	-3.385e-020 60.4775 	-2.57576 	-3.89072e-020 60.4333 	-2.58779 	-6.99426e-020 60.3928 	-2.59942 	-1.04542e-019 60.265 	-2.61793 	-7.5218e-020 60.1575 	-2.63505 	-7.17701e-020 60.081 	-2.65007 	-1.07353e-019 60.0189 	-2.66364 	-2.06349e-019 59.975 	-2.67538 	-3.85226e-019 59.8441 	-2.69396 	-6.81695e-019 59.7535 	-2.70982 	-7.2447e-019 59.6739 	-2.72491 	-6.94819e-019 59.5938 	-2.74 	-6.64961e-019 59.5462 	-2.75186 	-3.60807e-019 59.4209 	-2.76989 	-1.92873e-019 59.3387 	-2.78502 	-1.37387e-019 59.2559 	-2.80014 	-8.19368e-020 59.1726 	-2.81527 	-2.65226e-020 59.106 	-2.82871 	0 58.9983 	-2.84535 	-3.37649e-020 58.9129 	-2.86048 	-9.36829e-020 58.8269 	-2.87561 	-1.53633e-019 58.7403 	-2.89074 	-2.13614e-019 58.6544 	-2.90575 	-2.77502e-019 58.6463 	-2.90697 	-2.7509e-019 58.6398 	-2.90808 	-2.80123e-019 58.6334 	-2.90919 	-2.85157e-019 58.6269 	-2.9103 	-2.90192e-019 58.6204 	-2.9114 	-2.95201e-019 58.5323 	-2.92541 	-3.70108e-019 58.4437 	-2.93941 	-4.45172e-019 58.3545 	-2.95342 	-5.20394e-019 58.2648 	-2.96742 	-5.95774e-019 58.1899 	-2.9803 	-4.95702e-019 58.0807 	-2.99667 	-3.98226e-019 57.9815 	-3.01173 	-3.26503e-019 57.8817 	-3.02679 	-2.54669e-019 57.7812 	-3.04185 	-1.82723e-019 57.7127 	-3.05453 	-1.2199e-019 57.5894 	-3.07205 	-1.5022e-019 57.4847 	-3.08723 	-9.7927e-020 57.3811 	-3.1022 	-3.83266e-020 57.2899 	-3.11621 	7.44255e-020 57.2223 	-3.12847 	2.84323e-019 57.0952 	-3.14585 	-2.82953e-019 56.9741 	-3.16241 	-6.81396e-019 56.8666 	-3.17726 	-7.25416e-019 56.7899 	-3.18982 	-3.12706e-019 56.7186 	-3.20194 	1.88344e-019 56.5877 	-3.21914 	1.06272e-019 56.4559 	-3.23635 	2.42813e-020 56.3509 	-3.25086 	0 56.2765 	-3.2628 	0 56.2016 	-3.27474 	0 56.0667 	-3.29173 	0 55.9311 	-3.30872 	0 55.8277 	-3.32324 	-8.43165e-020 55.7497 	-3.33497 	-2.21244e-01