/*--------------------------------*- C++ -*----------------------------------*\
| =========                 |                                                 |
| \\      /  F ield         | OpenFOAM: The Open Source CFD Toolbox           |
|  \\    /   O peration     | Version:  5.x                                   |
|   \\  /    A nd           | Web:      www.OpenFOAM.org                      |
|    \\/     M anipulation  |                                                 |
\*---------------------------------------------------------------------------*/
/*   Windows 32 and 64 bit porting by blueCAPE: http://www.bluecape.com.pt   *\
|  Based on Windows porting (2.0.x v4) by Symscape: http://www.symscape.com   |
\*---------------------------------------------------------------------------*/
FoamFile
{
    version     2.0;
    format      ascii;
    class       volScalarField;
    location    "0.2";
    object      p;
}
// * * * * * * * * * * * * * * * * * * * * * * * * * * * * * * * * * * * * * //

dimensions      [0 2 -2 0 0 0 0];

internalField   nonuniform List<scalar> 
750
(
0.40139811
0.40169015
0.40137961
0.40126653
0.4010009
0.40074574
0.40045148
0.40014594
0.39982961
0.39950518
0.39917579
0.3988433
0.39850097
0.39814543
0.39778232
0.39738971
0.39694764
0.39645741
0.3958448
0.39497087
0.39406818
0.3915486
0.39039582
0.38169322
0.3777238
0.40140429
0.4016892
0.40138736
0.40126759
0.40100336
0.40074708
0.40045273
0.40014616
0.39982987
0.39950547
0.39917614
0.39884354
0.39850135
0.39814635
0.39778346
0.39739142
0.39695113
0.39646232
0.39585093
0.3949924
0.39406986
0.39163725
0.39036396
0.38192499
0.37790583
0.40141137
0.40169651
0.40139592
0.40127223
0.40100761
0.40074975
0.40045484
0.40014736
0.39983063
0.39950621
0.39917693
0.39884432
0.39850255
0.39814838
0.3977865
0.39739628
0.39695927
0.3964752
0.39587169
0.39503077
0.39412103
0.39175715
0.39047433
0.38218441
0.3784865
0.40142096
0.40170958
0.40140728
0.40127971
0.40101401
0.40075357
0.40045771
0.40014948
0.39983183
0.39950736
0.39917805
0.39884555
0.39850447
0.39815131
0.39779119
0.39740379
0.39697125
0.39649473
0.39590428
0.39508468
0.39420916
0.39191067
0.39071121
0.38253542
0.37928976
0.40143378
0.40172723
0.40142244
0.4012897
0.40102254
0.40075858
0.40046142
0.40015228
0.39983341
0.39950889
0.39917947
0.39884716
0.398507
0.39815507
0.39779732
0.39741364
0.3969867
0.39652
0.39594692
0.39515471
0.39432846
0.39210348
0.39104229
0.38299532
0.38043062
0.40144991
0.40174945
0.40144155
0.40130213
0.40103315
0.4007648
0.40046602
0.40015559
0.39983533
0.39951079
0.39918122
0.39884911
0.39851008
0.39815963
0.39780472
0.39742567
0.39700544
0.39655058
0.39599784
0.39524143
0.39447774
0.39233159
0.39147378
0.38351089
0.38218727
0.40146921
0.4017766
0.40146458
0.40131692
0.40104586
0.40077217
0.40047147
0.40015939
0.39983759
0.39951301
0.3991833
0.39885139
0.39851363
0.39816498
0.39781345
0.39743972
0.39702726
0.39658647
0.39605617
0.39534184
0.39465973
0.39259514
0.39205636
0.38416463
0.38474319
0.40149158
0.40180891
0.40149151
0.401334
0.4010608
0.40078064
0.40047768
0.40016372
0.39984023
0.39951546
0.3991857
0.39885397
0.39851757
0.39817121
0.39782349
0.39745568
0.39705198
0.39662769
0.39612225
0.39544816
0.39487508
0.39290533
0.39279712
0.38513725
0.38866481
0.40151843
0.40184433
0.40152342
0.4013532
0.40107794
0.40079024
0.40048455
0.40016848
0.39984332
0.39951805
0.39918829
0.3988568
0.39852183
0.3981782
0.39783449
0.39747322
0.39707942
0.39667345
0.39619728
0.39556307
0.39511221
0.3933075
0.39366794
0.38639603
0.39350719
0.40155523
0.40187555
0.40156427
0.40137406
0.40109643
0.40080136
0.4004918
0.40017326
0.39984673
0.39952057
0.3991909
0.39885969
0.39852616
0.3981856
0.39784583
0.39749147
0.39710882
0.39672096
0.39627772
0.39569689
0.39531868
0.39383792
0.39446988
0.38816824
0.398463
0.35617345
0.34531704
0.3291499
0.31526386
0.30040806
0.28583495
0.27112044
0.25647055
0.24180736
0.22715206
0.21249608
0.19784104
0.18318596
0.16853109
0.15387622
0.13922134
0.12456646
0.10991158
0.095256703
0.080601825
0.065946946
0.051292066
0.036637186
0.021982311
0.0073274339
0.3560438
0.34516665
0.32910645
0.31521727
0.30037849
0.28581199
0.27111826
0.25646787
0.24180741
0.22715231
0.21249608
0.19784088
0.18318593
0.16853107
0.15387621
0.13922134
0.12456646
0.10991158
0.095256703
0.080601825
0.065946946
0.051292066
0.036637187
0.02198231
0.0073274339
0.35566817
0.34521792
0.32890843
0.31515836
0.30033296
0.28578605
0.27111167
0.25646592
0.24180707
0.22715211
0.21249606
0.1978408
0.18318591
0.16853107
0.15387621
0.13922134
0.12456646
0.10991158
0.095256703
0.080601825
0.065946946
0.051292066
0.036637187
0.02198231
0.0073274337
0.35513737
0.3453699
0.32863954
0.31508513
0.30031252
0.28577105
0.27110741
0.25646516
0.24180694
0.22715181
0.21249597
0.19784079
0.1831859
0.16853108
0.15387622
0.13922134
0.12456646
0.10991158
0.095256703
0.080601825
0.065946946
0.051292066
0.036637188
0.021982309
0.0073274335
0.35461646
0.34536805
0.32850872
0.31498143
0.30028648
0.28576543
0.27110605
0.25646491
0.24180699
0.22715162
0.21249582
0.19784077
0.18318589
0.16853109
0.15387623
0.13922134
0.12456646
0.10991158
0.095256703
0.080601825
0.065946946
0.051292066
0.036637188
0.021982308
0.0073274335
0.35398663
0.34533625
0.32842685
0.31489045
0.30024499
0.28576061
0.27110543
0.25646476
0.24180691
0.22715135
0.21249562
0.19784073
0.18318589
0.1685311
0.15387623
0.13922134
0.12456646
0.10991158
0.095256703
0.080601825
0.065946946
0.051292066
0.036637188
0.021982307
0.0073274335
0.35312805
0.34539089
0.32824103
0.3148383
0.30021763
0.28576009
0.27110555
0.25646528
0.24180654
0.22715101
0.21249542
0.19784071
0.18318591
0.16853111
0.15387623
0.13922134
0.12456646
0.10991158
0.095256703
0.080601825
0.065946946
0.051292066
0.036637187
0.021982306
0.0073274333
0.35246281
0.34534084
0.32803225
0.31482535
0.3002033
0.28576441
0.27110633
0.25646649
0.24180591
0.22715062
0.21249524
0.1978407
0.18318593
0.16853112
0.15387623
0.13922134
0.12456646
0.10991158
0.095256704
0.080601825
0.065946946
0.051292066
0.036637187
0.021982304
0.0073274324
0.35139438
0.34528871
0.32794902
0.31484981
0.30020525
0.28577268
0.27110794
0.25646768
0.24180523
0.22715022
0.21249509
0.1978407
0.18318596
0.16853113
0.15387623
0.13922134
0.12456646
0.10991158
0.095256704
0.080601825
0.065946946
0.051292066
0.036637187
0.021982303
0.0073274311
0.34718023
0.34582947
0.32793771
0.3149268
0.30018544
0.28578003
0.27110754
0.25646893
0.24180491
0.22715012
0.21249498
0.19784069
0.18318598
0.16853114
0.15387623
0.13922134
0.12456646
0.10991158
0.095256704
0.080601825
0.065946946
0.051292065
0.036637187
0.021982303
0.0073274316
0.40165314
0.40192922
0.40166411
0.40141995
0.40113418
0.40082571
0.40050657
0.40018247
0.39985348
0.39952516
0.39919556
0.39886529
0.39853513
0.39820048
0.39786779
0.39752826
0.39716987
0.39681513
0.39643879
0.39598883
0.39565345
0.39499071
0.39574481
0.39319894
0.41145486
0.40180148
0.40211227
0.40181606
0.40151957
0.40120284
0.40087035
0.40053478
0.40020053
0.39986581
0.39953364
0.39920366
0.39887686
0.39855298
0.39822686
0.39790404
0.3975917
0.39727164
0.39695867
0.39667174
0.39634917
0.39611872
0.3958198
0.39607944
0.39458032
0.40052198
0.40200705
0.40236347
0.4019924
0.4016373
0.40127935
0.40091764
0.40056364
0.40021704
0.39987647
0.39954131
0.39921171
0.39888687
0.39856786
0.39825375
0.39794116
0.39764805
0.3973669
0.39709258
0.39687142
0.39665937
0.39654919
0.3965012
0.39682408
0.3967891
0.3994724
0.40231153
0.40266758
0.40219486
0.4017652
0.40135658
0.40096311
0.40059019
0.40022959
0.39988376
0.39954652
0.39921695
0.39889364
0.39857829
0.39827358
0.39797542
0.39769251
0.39744038
0.39720464
0.39702654
0.39688957
0.39684371
0.39691013
0.39724649
0.39771762
0.39868266
0.40277728
0.40301077
0.40242134
0.40189544
0.40142698
0.40099947
0.40061004
0.40023781
0.39988609
0.39954681
0.39921694
0.39889559
0.39858346
0.39828216
0.39799599
0.39772349
0.39748507
0.39727798
0.3971245
0.39703573
0.39702885
0.3971459
0.39748881
0.39808255
0.39844198
0.40350529
0.40337093
0.4026609
0.40201539
0.40148397
0.40102394
0.40061744
0.40023873
0.39988203
0.39954156
0.39921149
0.39889102
0.39858067
0.39828091
0.39799752
0.39773266
0.39749759
0.39730232
0.39715832
0.39708597
0.39709468
0.39722804
0.39752674
0.39810211
0.39825712
0.40462152
0.40371962
0.40287178
0.40210395
0.40151356
0.40103049
0.40060978
0.4002289
0.39987125
0.39953038
0.39920017
0.39887943
0.39856795
0.39826735
0.39798097
0.39771466
0.39747552
0.39727592
0.39712629
0.3970469
0.39705363
0.3971749
0.39742954
0.39795139
0.39804914
0.406507
0.40389958
0.40299096
0.40211619
0.40149213
0.40100472
0.40058465
0.40020697
0.39985242
0.39951272
0.39918263
0.39886047
0.39854594
0.39824045
0.39794688
0.39767044
0.39741821
0.39720102
0.39703106
0.3969269
0.39691233
0.39700991
0.39723816
0.39770649
0.39781377
0.41004746
0.40361456
0.40298819
0.40199768
0.40138842
0.40092579
0.40052971
0.40016661
0.39982098
0.39948559
0.39915638
0.39883204
0.3985123
0.39819779
0.39789122
0.39759635
0.39731949
0.39707008
0.39686147
0.39671424
0.39665786
0.39673004
0.3969534
0.39739726
0.39755373
0.41163927
0.40260768
0.40342536
0.40206361
0.40144807
0.40094718
0.4005365
0.40016666
0.39981848
0.39948176
0.39915159
0.39882619
0.39850488
0.3981882
0.39787861
0.39757945
0.39729668
0.39703914
0.39681953
0.39665918
0.39658742
0.39664653
0.39684212
0.39725054
0.39743653
)
;

boundaryField
{
    inlet
    {
        type            zeroGradient;
    }
    walls
    {
        type            zeroGradient;
    }
    outlet
    {
        type            fixedValue;
        value           uniform 0;
    }
    centreline
    {
        type            symmetryPlane;
    }
    frontAndBack
    {
        type            empty;
    }
}


// ************************************************************************* //
