/*--------------------------------*- C++ -*----------------------------------*\
| =========                 |                                                 |
| \\      /  F ield         | OpenFOAM: The Open Source CFD Toolbox           |
|  \\    /   O peration     | Version:  5.x                                   |
|   \\  /    A nd           | Web:      www.OpenFOAM.org                      |
|    \\/     M anipulation  |                                                 |
\*---------------------------------------------------------------------------*/
/*   Windows 32 and 64 bit porting by blueCAPE: http://www.bluecape.com.pt   *\
|  Based on Windows porting (2.0.x v4) by Symscape: http://www.symscape.com   |
\*---------------------------------------------------------------------------*/
FoamFile
{
    version     2.0;
    format      ascii;
    class       surfaceScalarField;
    location    "0.2";
    object      phi;
}
// * * * * * * * * * * * * * * * * * * * * * * * * * * * * * * * * * * * * * //

dimensions      [0 3 -1 0 0 0 0];

internalField   nonuniform List<scalar> 
1430
(
5.1477192e-006
-1.4643884e-007
5.3321488e-006
-1.8442959e-007
5.5147354e-006
-1.8258665e-007
5.6729588e-006
-1.5822338e-007
5.8057839e-006
-1.3282506e-007
5.9109788e-006
-1.0519496e-007
5.9940646e-006
-8.3085747e-008
6.0603159e-006
-6.6251307e-008
6.1155855e-006
-5.5269616e-008
6.1659198e-006
-5.0334259e-008
6.2173632e-006
-5.144343e-008
6.2764054e-006
-5.9042213e-008
6.3508146e-006
-7.4409135e-008
6.4511211e-006
-1.0030651e-007
6.5923096e-006
-1.4118852e-007
6.795436e-006
-2.0312635e-007
7.0947782e-006
-2.9934224e-007
7.5471828e-006
-4.5240462e-007
8.2402654e-006
-6.9308258e-007
9.3175321e-006
-1.0772667e-006
1.0931301e-005
-1.6137694e-006
1.3342554e-005
-2.411253e-006
1.6664174e-005
-3.3216194e-006
2.0928979e-005
-4.2648051e-006
-4.8352801e-006
2.5764259e-005
5.1466572e-006
-2.9181569e-007
5.3347068e-006
-3.7247919e-007
5.515713e-006
-3.6359289e-007
5.6749509e-006
-3.1746122e-007
5.8072373e-006
-2.6511147e-007
5.9123112e-006
-2.1026879e-007
5.9950284e-006
-1.6580299e-007
6.0608893e-006
-1.3211223e-007
6.1158006e-006
-1.1018084e-007
6.165773e-006
-1.0030669e-007
6.2167851e-006
-1.0245549e-007
6.2753026e-006
-1.1755975e-007
6.3490318e-006
-1.4813832e-007
6.4483314e-006
-1.9960606e-007
6.588085e-006
-2.8094215e-007
6.789066e-006
-4.0410729e-007
7.0848305e-006
-5.9510673e-007
7.5313664e-006
-8.9894056e-007
8.2151482e-006
-1.3768644e-006
9.272634e-006
-2.1347524e-006
1.0866722e-005
-3.2078579e-006
1.3215222e-005
-4.7597529e-006
1.6504854e-005
-6.6112516e-006
2.0646536e-005
-8.4064865e-006
-9.685911e-006
2.5497167e-005
5.1478544e-006
-4.3838976e-007
5.3369346e-006
-5.6155942e-007
5.5190069e-006
-5.456652e-007
5.6784224e-006
-4.7687673e-007
5.8104474e-006
-3.971364e-007
5.9149615e-006
-3.1478288e-007
5.9969889e-006
-2.4783039e-007
6.0621166e-006
-1.9723999e-007
6.1163195e-006
-1.6438367e-007
6.1655586e-006
-1.495458e-007
6.2157399e-006
-1.5263673e-007
6.2732073e-006
-1.7502715e-007
6.3455426e-006
-2.2047361e-007
6.4429246e-006
-2.9698813e-007
6.5798163e-006
-4.1783381e-007
6.7764201e-006
-6.0071103e-007
7.0652531e-006
-8.8393974e-007
7.5002009e-006
-1.3338884e-006
8.1642653e-006
-2.0409288e-006
9.1886696e-006
-3.1591567e-006
1.0727108e-005
-4.7462964e-006
1.2992383e-005
-7.0250273e-006
1.6151698e-005
-9.7705674e-006
2.0155501e-005
-1.2410289e-005
-1.4385411e-005
2.4855001e-005
5.149658e-006
-5.8676739e-007
5.3405075e-006
-7.5240899e-007
5.5240844e-006
-7.2924206e-007
5.6838163e-006
-6.3660862e-007
5.8154547e-006
-5.2877484e-007
5.9190922e-006
-4.1842038e-007
6.0000418e-006
-3.2877994e-007
6.0641092e-006
-2.6130742e-007
6.1172542e-006
-2.175286e-007
6.1653821e-006
-1.9767369e-007
6.2143205e-006
-2.015751e-007
6.2702364e-006
-2.3094309e-007
6.3405012e-006
-2.9073837e-007
6.4350149e-006
-3.9150189e-007
6.5676755e-006
-5.5049434e-007
6.7578114e-006
-7.9084699e-007
7.0363829e-006
-1.1625112e-006
7.4543696e-006
-1.7518752e-006
8.0895154e-006
-2.6760746e-006
9.0647112e-006
-4.1343525e-006
1.0521994e-005
-6.2035788e-006
1.2662169e-005
-9.1652031e-006
1.5624598e-005
-1.2732996e-005
1.9411795e-005
-1.6197486e-005
-1.8837049e-005
2.3863433e-005
5.1522314e-006
-7.3771845e-007
5.345547e-006
-9.4572465e-007
5.5311572e-006
-9.1485222e-007
5.6913063e-006
-7.9675768e-007
5.8224183e-006
-6.5988684e-007
5.9248465e-006
-5.2084856e-007
6.0043347e-006
-4.0826821e-007
6.0669977e-006
-3.2397035e-007
6.1187317e-006
-2.6926265e-007
6.1653768e-006
-2.4431879e-007
6.2126682e-006
-2.4886648e-007
6.2665496e-006
-2.848244e-007
6.3340908e-006
-3.5827961e-007
6.4248335e-006
-4.8224455e-007
6.5519625e-006
-6.7762335e-007
6.7336529e-006
-9.7253738e-007
6.9988538e-006
-1.4277122e-006
7.3948517e-006
-2.147873e-006
7.9923428e-006
-3.2735657e-006
8.9039383e-006
-5.045948e-006
1.0254264e-005
-7.5539046e-006
1.2227497e-005
-1.1138436e-005
1.4931038e-005
-1.5436538e-005
1.8424729e-005
-1.9691177e-005
-2.2924785e-005
2.2512465e-005
5.1557471e-006
-8.9218521e-007
5.3522612e-006
-1.1422388e-006
5.5404775e-006
-1.1030685e-006
5.7011307e-006
-9.574109e-007
5.8315393e-006
-7.9029543e-007
5.9324096e-006
-6.2171887e-007
6.0100525e-006
-4.8591106e-007
6.0709435e-006
-3.8486142e-007
6.1209167e-006
-3.1923583e-007
6.1657163e-006
-2.8911832e-007
6.2109599e-006
-2.9411012e-007
6.262343e-006
-3.3620746e-007
6.3265444e-006
-4.2248102e-007
6.4126629e-006
-5.6836301e-007
6.5330038e-006
-7.9796423e-007
6.7043729e-006
-1.1439065e-006
6.9532862e-006
-1.6766255e-006
7.3226979e-006
-2.5172847e-006
7.8748625e-006
-3.8257303e-006
8.7094848e-006
-5.8805704e-006
9.928062e-006
-8.7724819e-006
1.1695834e-005
-1.2906208e-005
1.4073154e-005
-1.7813858e-005
1.718632e-005
-2.2804343e-005
-2.6562091e-005
2.0823627e-005
5.1604135e-006
-1.0513184e-006
5.3608973e-006
-1.3427225e-006
5.5523112e-006
-1.2944824e-006
5.7135401e-006
-1.1186399e-006
5.8430239e-006
-9.1977914e-007
5.9419728e-006
-7.2066785e-007
6.0173831e-006
-5.6132132e-007
6.0761094e-006
-4.4358773e-007
6.1239774e-006
-3.6710382e-007
6.1665699e-006
-3.317108e-007
6.2093721e-006
-3.369123e-007
6.257824e-006
-3.8465934e-007
6.3181057e-006
-4.8276268e-007
6.3987924e-006
-6.4904972e-007
6.511164e-006
-9.1033583e-007
6.6705084e-006
-1.3032509e-006
6.9005334e-006
-1.9066506e-006
7.2392731e-006
-2.8560244e-006
7.7394836e-006
-4.3259409e-006
8.4849851e-006
-6.6260718e-006
9.5495787e-006
-9.8370755e-006
1.1073678e-005
-1.4430307e-005
1.304892e-005
-1.97891e-005
1.5725893e-005
-2.5481315e-005
-2.958363e-005
1.8747431e-005
5.1664992e-006
-1.2165372e-006
5.3716985e-006
-1.5479218e-006
5.5669166e-006
-1.4897006e-006
5.7287613e-006
-1.2804845e-006
5.8570328e-006
-1.0480506e-006
5.9536784e-006
-8.1731353e-007
6.0264648e-006
-6.3410771e-007
6.0826238e-006
-4.9974668e-007
6.128045e-006
-4.1252502e-007
6.1680705e-006
-3.7173626e-007
6.2080382e-006
-3.7687996e-007
6.2531661e-006
-4.2978729e-007
6.3090083e-006
-5.3860485e-007
6.3835085e-006
-7.2354995e-007
6.4868364e-006
-1.0136637e-006
6.6326415e-006
-1.449056e-006
6.8415062e-006
-2.1155153e-006
7.1460284e-006
-3.1605466e-006
7.5888793e-006
-4.7687917e-006
8.2348139e-006
-7.2720065e-006
9.1258914e-006
-1.0728153e-005
1.0372249e-005
-1.5676664e-005
1.1905047e-005
-2.1321898e-005
1.4097663e-005
-2.7673931e-005
-3.1643771e-005
1.6157804e-005
5.1743692e-006
-1.3896261e-006
5.3848437e-006
-1.7583964e-006
5.5845261e-006
-1.689383e-006
5.7469408e-006
-1.4428992e-006
5.8736275e-006
-1.1747373e-006
5.967578e-006
-9.1126401e-007
6.0373404e-006
-7.038701e-007
6.0905334e-006
-5.5293964e-007
6.1331459e-006
-4.5513759e-007
6.1702564e-006
-4.0884674e-007
6.2070349e-006
-4.1365845e-007
6.248453e-006
-4.712053e-007
6.299403e-006
-5.8955487e-007
6.3670734e-006
-7.9122031e-007
6.460399e-006
-1.1069893e-006
6.5912899e-006
-1.5799469e-006
6.7771434e-006
-2.3013688e-006
7.044591e-006
-3.4279942e-006
7.4250749e-006
-5.1492757e-006
7.9640993e-006
-7.8110309e-006
8.6673811e-006
-1.1431435e-005
9.6121267e-006
-1.662141e-005
1.0658066e-005
-2.2367837e-005
1.2311467e-005
-2.9327332e-005
-3.2349409e-005
1.3017105e-005
5.183186e-006
-1.5715317e-006
5.4014025e-006
-1.9766128e-006
5.6050384e-006
-1.8930189e-006
5.7681736e-006
-1.6060344e-006
5.8926584e-006
-1.299222e-006
5.9835497e-006
-1.0021553e-006
6.0499087e-006
-7.7022912e-007
6.0997329e-006
-6.0276379e-007
6.1391302e-006
-4.9453492e-007
6.1730296e-006
-4.4274609e-007
6.2062825e-006
-4.4691136e-007
6.2436017e-006
-5.0852449e-007
6.2892974e-006
-6.3525057e-007
6.349586e-006
-8.5150888e-007
6.432065e-006
-1.1894683e-006
6.5467987e-006
-1.6946807e-006
6.7080771e-006
-2.4626472e-006
6.9360596e-006
-3.6559767e-006
7.250888e-006
-5.4641042e-006
7.6782969e-006
-8.2384397e-006
8.1954373e-006
-1.1948575e-005
8.8030574e-006
-1.722903e-005
9.3069971e-006
-2.2871777e-005
1.0099808e-005
-3.0120143e-005
8.812924e-006
-3.1062525e-005
2.8438831e-005
-2.6745718e-006
2.9423663e-005
-9.8483224e-007
2.9666913e-005
-2.4324947e-007
2.9734116e-005
-6.7203478e-008
2.9755548e-005
-2.1432095e-008
2.9753976e-005
1.5724105e-009
2.9747346e-005
6.6301375e-009
2.9741754e-005
5.5916735e-009
2.9739265e-005
2.4885366e-009
2.9739007e-005
2.5826609e-010
2.9739528e-005
-5.2105014e-010
2.9739877e-005
-3.4879436e-010
2.9739931e-005
-5.405009e-011
2.9739882e-005
4.8654851e-011
2.9739849e-005
3.3254724e-011
2.9739843e-005
6.317646e-012
2.9739846e-005
-2.6534361e-012
2.9739847e-005
-1.7226908e-012
2.9739847e-005
-1.1557019e-013
2.9739847e-005
2.8109523e-013
2.9739847e-005
7.0141553e-014
2.9739847e-005
-2.0438054e-013
2.9739848e-005
-3.4580935e-013
2.9739847e-005
6.1350014e-013
9.4438364e-013
2.7949779e-005
-5.127184e-006
2.888617e-005
-1.9212234e-006
2.9091518e-005
-4.4859749e-007
2.9152659e-005
-1.2834441e-007
2.9163003e-005
-3.1775787e-008
2.9159724e-005
4.8513943e-009
2.9152661e-005
1.3693267e-008
2.9147401e-005
1.0851692e-008
2.9145192e-005
4.6972815e-009
2.9145156e-005
2.9454963e-010
2.9145673e-005
-1.0386144e-009
2.9145972e-005
-6.474101e-010
2.9146007e-005
-8.8504149e-011
2.914596e-005
9.5077112e-011
2.9145931e-005
6.2194589e-011
2.9145927e-005
1.0616743e-011
2.914593e-005
-5.4284911e-012
2.9145931e-005
-3.2215586e-012
2.9145931e-005
-1.0027623e-013
2.9145931e-005
5.5888127e-013
2.9145931e-005
1.3094205e-013
2.9145931e-005
-4.0359888e-013
2.9145931e-005
-6.391895e-013
2.9145931e-005
1.3074584e-012
1.9942728e-012
2.7012672e-005
-7.2848551e-006
2.7790526e-005
-2.6990775e-006
2.7951583e-005
-6.0965513e-007
2.7976167e-005
-1.5292753e-007
2.7974604e-005
-3.0213181e-008
2.7971643e-005
7.8122549e-009
2.796545e-005
1.9886719e-008
2.7961045e-005
1.5256388e-008
2.795962e-005
6.1221813e-009
2.7959885e-005
2.9616771e-011
2.7960373e-005
-1.5261291e-009
2.796058e-005
-8.5517378e-010
2.7960582e-005
-9.0649734e-011
2.796054e-005
1.3707119e-010
2.7960521e-005
8.2130558e-011
2.796052e-005
1.1519698e-011
2.7960522e-005
-8.1268354e-012
2.7960523e-005
-4.227376e-012
2.7960523e-005
6.1601715e-014
2.7960523e-005
7.9000619e-013
2.7960523e-005
1.7006432e-013
2.7960523e-005
-5.710558e-013
2.7960523e-005
-8.7760228e-013
2.7960523e-005
1.9926412e-012
2.9357844e-012
2.5604358e-005
-9.0257805e-006
2.6148405e-005
-3.2431244e-006
2.6213555e-005
-6.7480487e-007
2.6204124e-005
-1.4349698e-007
2.619709e-005
-2.3178972e-008
2.6194088e-005
1.0814154e-008
2.6188942e-005
2.5033036e-008
2.6186301e-005
1.7897719e-008
2.6185952e-005
6.4704771e-009
2.6186464e-005
-4.8195697e-010
2.618682e-005
-1.8824842e-009
2.6186897e-005
-9.3213363e-010
2.6186864e-005
-5.7501305e-011
2.6186833e-005
1.6817201e-010
2.6186826e-005
8.9294158e-011
2.6186828e-005
8.9269408e-012
2.618683e-005
-1.0194897e-011
2.6186831e-005
-4.5289216e-012
2.618683e-005
3.3930871e-013
2.618683e-005
9.4643331e-013
2.618683e-005
1.8132095e-013
2.6186831e-005
-7.2017961e-013
2.6186831e-005
-1.0894063e-012
2.618683e-005
2.502822e-012
3.6017541e-012
2.3704164e-005
-1.0217479e-005
2.3911668e-005
-3.4506289e-006
2.3859471e-005
-6.2260809e-007
2.384211e-005
-1.2613589e-007
2.3832996e-005
-1.406469e-008
2.3828471e-005
1.5338494e-008
2.3825761e-005
2.7743319e-008
2.38257e-005
1.7959088e-008
2.3826466e-005
5.7042377e-009
2.382702e-005
-1.0355989e-009
2.382712e-005
-1.9827133e-009
2.3827046e-005
-8.5772685e-010
2.3826989e-005
-1.1482881e-012
2.3826979e-005
1.7847409e-010
2.3826986e-005
8.220633e-011
2.3826991e-005
4.0747575e-012
2.3826992e-005
-1.0932502e-011
2.3826991e-005
-4.0533683e-012
2.3826991e-005
6.2992251e-013
2.3826991e-005
9.7330617e-013
2.3826991e-005
1.4332655e-013
2.3826991e-005
-8.2581649e-013
2.3826991e-005
-1.2591426e-012
2.3826991e-005
2.6691755e-012
3.8561658e-012
2.1253533e-005
-1.0647385e-005
2.1034999e-005
-3.2320952e-006
2.0908952e-005
-4.9656101e-007
2.0888694e-005
-1.0587831e-007
2.0877725e-005
-3.0953046e-009
2.0875032e-005
1.8031023e-008
2.0876763e-005
2.601245e-008
2.087954e-005
1.5182335e-008
2.0881102e-005
4.142613e-009
2.0881437e-005
-1.3714118e-009
2.0881212e-005
-1.7572504e-009
2.088101e-005
-6.554111e-010
2.0880956e-005
5.2219354e-011
2.0880974e-005
1.6091873e-010
2.0880993e-005
6.345752e-011
2.0880997e-005
-7.9975081e-013
2.0880996e-005
-9.889271e-012
2.0880995e-005
-2.9795548e-012
2.0880995e-005
7.8762029e-013
2.0880995e-005
8.3507444e-013
2.0880995e-005
5.4631974e-014
2.0880995e-005
-8.2825668e-013
2.0880996e-005
-1.3131195e-012
2.0880996e-005
2.3706959e-012
3.578362e-012
1.8149487e-005
-1.004944e-005
1.7524717e-005
-2.6073256e-006
1.7372068e-005
-3.4391223e-007
1.7343344e-005
-7.7154615e-008
1.7333135e-005
7.1141601e-009
1.7334856e-005
1.6309868e-008
1.7341153e-005
1.971526e-008
1.7345961e-005
1.0374532e-008
1.7347742e-005
2.3617486e-009
1.7347675e-005
-1.3041364e-009
1.7347173e-005
-1.2549888e-009
1.7346914e-005
-3.9720947e-010
1.7346891e-005
7.5810096e-011
1.7346933e-005
1.1821631e-010
1.7346957e-005
3.9421368e-011
1.734696e-005
-3.5879491e-012
1.7346958e-005
-7.2630931e-012
1.7346956e-005
-1.7175425e-012
1.7346956e-005
7.2936864e-013
1.7346957e-005
5.8235572e-013
1.7346957e-005
-4.2306877e-014
1.7346957e-005
-7.1097072e-013
1.7346957e-005
-1.2112182e-012
1.7346957e-005
1.6315037e-012
2.7479368e-012
1.4290806e-005
-8.182443e-006
1.3397068e-005
-1.7135881e-006
1.3241908e-005
-1.8875186e-007
1.3206749e-005
-4.1995288e-008
1.3202984e-005
1.087931e-008
1.3209081e-005
1.0212389e-008
1.3217859e-005
1.0937326e-008
1.3223086e-005
5.1470201e-009
1.3224519e-005
9.2873771e-010
1.3224074e-005
-8.5897722e-010
1.3223471e-005
-6.5194921e-010
1.3223244e-005
-1.6995301e-010
1.3223259e-005
6.1294666e-011
1.3223313e-005
6.4091567e-011
1.3223334e-005
1.7682254e-011
1.3223334e-005
-3.4884299e-012
1.3223331e-005
-3.9234316e-012
1.322333e-005
-6.8366565e-013
1.322333e-005
4.745801e-013
1.322333e-005
2.9721829e-013
1.3223331e-005
-8.8095404e-014
1.322333e-005
-4.8571892e-013
1.322333e-005
-9.1702447e-013
1.3223331e-005
6.9720918e-013
1.5487019e-012
9.6557763e-006
-4.8211144e-006
8.6548666e-006
-7.1267831e-007
8.5187023e-006
-5.2587597e-008
8.4906799e-006
-1.3972928e-008
8.4947104e-006
6.8488293e-009
8.5021001e-006
2.8226797e-009
8.5097809e-006
3.2564903e-009
8.5136696e-006
1.2583518e-009
8.5144321e-006
1.6620063e-010
8.5138742e-006
-3.0104485e-010
8.5133966e-006
-1.7434661e-010
8.5132608e-006
-3.4154391e-011
8.5132973e-006
2.4757574e-011
8.5133428e-006
1.8624321e-011
8.5133565e-006
3.9709609e-012
8.5133545e-006
-1.5185047e-012
8.5133517e-006
-1.1312858e-012
8.5133512e-006
-1.1657501e-013
8.5133515e-006
1.6577973e-013
8.5133517e-006
7.8749666e-014
8.5133517e-006
-5.9631109e-014
8.5133515e-006
-2.0374616e-013
8.513351e-006
-4.3828649e-013
8.5133517e-006
5.7031649e-014
4.6016906e-013
3.9918096e-006
3.2791313e-006
3.2265436e-006
3.2125707e-006
3.2194195e-006
3.2222422e-006
3.2254987e-006
3.2267571e-006
3.2269233e-006
3.2266222e-006
3.2264479e-006
3.2264137e-006
3.2264385e-006
3.2264571e-006
3.2264611e-006
3.2264595e-006
3.2264584e-006
3.2264583e-006
3.2264585e-006
3.2264586e-006
3.2264585e-006
3.2264583e-006
3.2264579e-006
3.226458e-006
1.5592073e-005
-2.159764e-006
1.6336532e-005
-2.7210718e-006
1.6955926e-005
-2.5124129e-006
1.7448053e-005
-2.0981611e-006
1.7805172e-005
-1.6563411e-006
1.8056742e-005
-1.2537253e-006
1.823244e-005
-9.4592758e-007
1.8359258e-005
-7.2958133e-007
1.8455776e-005
-5.9105324e-007
1.8536714e-005
-5.2368348e-007
1.8613751e-005
-5.23949e-007
1.8698532e-005
-5.9330555e-007
1.8802002e-005
-7.387201e-007
1.8935072e-005
-9.8457914e-007
1.9113549e-005
-1.3679446e-006
1.9356769e-005
-1.9379015e-006
1.9683747e-005
-2.7896245e-006
2.0121385e-005
-4.0936154e-006
2.0677739e-005
-6.0204575e-006
2.1290524e-005
-8.851225e-006
2.1848223e-005
-1.2506274e-005
2.1673296e-005
-1.7054103e-005
1.9999359e-005
-2.119784e-005
1.4706365e-005
-2.4827149e-005
-1.6356159e-005
1.573824e-005
-2.8941627e-006
1.6580021e-005
-3.5628532e-006
1.7236929e-005
-3.1693207e-006
1.7711087e-005
-2.5723191e-006
1.8028176e-005
-1.9734297e-006
1.8231659e-005
-1.4572083e-006
1.8358299e-005
-1.0725684e-006
1.8440194e-005
-8.1147554e-007
1.8496584e-005
-6.47444e-007
1.8539526e-005
-5.6662507e-007
1.8576879e-005
-5.6130196e-007
1.8614282e-005
-6.3070879e-007
1.8657819e-005
-7.822565e-007
1.8710878e-005
-1.0376384e-006
1.8775799e-005
-1.4328655e-006
1.8855117e-005
-2.01722e-006
1.8939837e-005
-2.8743443e-006
1.9010639e-005
-4.1644171e-006
1.9013804e-005
-6.0236227e-006
1.880886e-005
-8.6462811e-006
1.8175997e-005
-1.1873411e-005
1.6499548e-005
-1.5377654e-005
1.319597e-005
-1.7894262e-005
6.8690711e-006
-1.850025e-005
-9.4870883e-006
1.5934016e-005
-3.8243374e-006
1.6863342e-005
-4.4921798e-006
1.7518184e-005
-3.8241622e-006
1.7938995e-005
-2.9931308e-006
1.8186101e-005
-2.220535e-006
1.8319147e-005
-1.590255e-006
1.838287e-005
-1.1362914e-006
1.841069e-005
-8.392949e-007
1.8420912e-005
-6.5766652e-007
1.8421448e-005
-5.6716092e-007
1.8415491e-005
-5.5534508e-007
1.8403657e-005
-6.1887417e-007
1.8385113e-005
-7.6371279e-007
1.835601e-005
-1.0085356e-006
1.8307211e-005
-1.3840664e-006
1.8228007e-005
-1.9380159e-006
1.8089394e-005
-2.7357315e-006
1.783666e-005
-3.9116825e-006
1.7385035e-005
-5.5719983e-006
1.6547701e-005
-7.8089471e-006
1.5095836e-005
-1.0421546e-005
1.2603804e-005
-1.2885621e-005
8.8272434e-006
-1.4117701e-005
3.4669508e-006
-1.3139957e-005
-6.0201375e-006
1.6151993e-005
-4.9724895e-006
1.7095167e-005
-5.4353542e-006
1.7661442e-005
-4.3904372e-006
1.7961441e-005
-3.2931296e-006
1.8093852e-005
-2.3529458e-006
1.81299e-005
-1.6263029e-006
1.8117774e-005
-1.1241658e-006
1.8085453e-005
-8.0697332e-007
1.8046705e-005
-6.1891882e-007
1.8004124e-005
-5.2457938e-007
1.7955918e-005
-5.071396e-007
1.7897342e-005
-5.6029777e-007
1.7821105e-005
-6.8747655e-007
1.7716922e-005
-9.0435202e-007
1.756777e-005
-1.2349149e-006
1.7349625e-005
-1.7198705e-006
1.7024845e-005
-2.4109516e-006
1.6516892e-005
-3.4037299e-006
1.5727301e-005
-4.7824068e-006
1.4480429e-005
-6.5620752e-006
1.2593958e-005
-8.5350753e-006
9.8651215e-006
-1.0156785e-005
6.3181941e-006
-1.0570774e-005
2.1713178e-006
-8.9930812e-006
-3.8488197e-006
1.6331692e-005
-6.3003401e-006
1.7129133e-005
-6.2327953e-006
1.7468768e-005
-4.7300728e-006
1.7553705e-005
-3.3780664e-006
1.7517874e-005
-2.3171143e-006
1.7431856e-005
-1.5402857e-006
1.7334739e-005
-1.0270486e-006
1.7241311e-005
-7.1354482e-007
1.7156178e-005
-5.3378651e-007
1.7075529e-005
-4.4392947e-007
1.699177e-005
-4.2338127e-007
1.6894904e-005
-4.6343107e-007
1.6773394e-005
-5.6596667e-007
1.6610746e-005
-7.4170455e-007
1.6385662e-005
-1.0098306e-006
1.6064511e-005
-1.3987191e-006
1.5604609e-005
-1.9510497e-006
1.4927492e-005
-2.7266134e-006
1.3930082e-005
-3.7849968e-006
1.2470395e-005
-5.1023878e-006
1.042456e-005
-6.4892406e-006
7.7526305e-006
-7.4848554e-006
4.6293527e-006
-7.4474962e-006
1.5065939e-006
-5.8703224e-006
-2.3422258e-006
1.6372922e-005
-7.6694214e-006
1.6784248e-005
-6.6441209e-006
1.6729031e-005
-4.6748566e-006
1.650294e-005
-3.1519748e-006
1.6252336e-005
-2.0665104e-006
1.6030212e-005
-1.318162e-006
1.5849089e-005
-8.4592568e-007
1.5702594e-005
-5.6704949e-007
1.5581327e-005
-4.1251912e-007
1.5473583e-005
-3.3618584e-007
1.5366367e-005
-3.1616518e-007
1.5245989e-005
-3.4305327e-007
1.5097366e-005
-4.1734309e-007
1.4901138e-005
-5.4547673e-007
1.4632712e-005
-7.414045e-007
1.4257452e-005
-1.0234594e-006
1.3728898e-005
-1.4224953e-006
1.2977024e-005
-1.9747395e-006
1.1906363e-005
-2.7143363e-006
1.0413413e-005
-3.6094375e-006
8.4283686e-006
-4.504196e-006
6.0082467e-006
-5.0647335e-006
3.4047507e-006
-4.8440002e-006
1.0766155e-006
-3.5421871e-006
-1.2656103e-006
1.6140957e-005
-8.8065377e-006
1.5840612e-005
-6.3437752e-006
1.5239475e-005
-4.0737201e-006
1.4648529e-005
-2.5610287e-006
1.4175456e-005
-1.593437e-006
1.3830879e-005
-9.7358574e-007
1.3585557e-005
-6.0060305e-007
1.3405968e-005
-3.8746054e-007
1.3266764e-005
-2.7331512e-007
1.3148558e-005
-2.1797992e-007
1.3034571e-005
-2.0217886e-007
1.290937e-005
-2.1785218e-007
1.2756231e-005
-2.6420376e-007
1.2556136e-005
-3.4538165e-007
1.2283744e-005
-4.6901283e-007
1.1907403e-005
-6.4711852e-007
1.1382763e-005
-8.9785464e-007
1.0650311e-005
-1.242288e-006
9.6327633e-006
-1.6967884e-006
8.2583327e-006
-2.2350068e-006
6.5014897e-006
-2.747353e-006
4.4612641e-006
-3.0245079e-006
2.4034397e-006
-2.7861758e-006
7.2517357e-007
-1.8639209e-006
-5.4043669e-007
1.5311683e-005
-9.1143802e-006
1.3957715e-005
-4.9898069e-006
1.2769307e-005
-2.8853123e-006
1.186748e-005
-1.6592019e-006
1.1246394e-005
-9.7235037e-007
1.0839465e-005
-5.6665717e-007
1.0573942e-005
-3.3508025e-007
1.0393766e-005
-2.0728407e-007
1.0261695e-005
-1.4124399e-007
1.0153628e-005
-1.0991319e-007
1.0052026e-005
-1.0057645e-007
9.9418747e-006
-1.077011e-007
9.8081738e-006
-1.3050293e-007
9.6339677e-006
-1.7117545e-007
9.397687e-006
-2.3273215e-007
9.0723441e-006
-3.2177568e-007
8.6212133e-006
-4.4672383e-007
7.996663e-006
-6.1773762e-007
7.1416464e-006
-8.4177181e-007
6.0101909e-006
-1.1035514e-006
4.6064847e-006
-1.3436468e-006
3.0335354e-006
-1.4515586e-006
1.5328829e-006
-1.2855233e-006
4.2315222e-007
-7.5419024e-007
-1.1728446e-007
1.3190565e-005
-7.3011041e-006
1.0710118e-005
-2.5093597e-006
9.0807882e-006
-1.2559827e-006
8.0759579e-006
-6.5437159e-007
7.4667611e-006
-3.6315362e-007
7.1018787e-006
-2.0177472e-007
6.8808573e-006
-1.140589e-007
6.7407292e-006
-6.7155938e-008
6.6431217e-006
-4.3636507e-008
6.5659178e-006
-3.2709255e-008
6.4946962e-006
-2.9354822e-008
6.4181827e-006
-3.1187639e-008
6.3255544e-006
-3.7874544e-008
6.2043777e-006
-4.9998788e-008
6.0398836e-006
-6.8238076e-008
5.8128213e-006
-9.4713289e-008
5.4978171e-006
-1.3171963e-007
5.062197e-006
-1.8211761e-007
4.4682991e-006
-2.4787385e-007
3.6884647e-006
-3.2371701e-007
2.736021e-006
-3.912031e-007
1.6964303e-006
-4.1196796e-007
7.5656486e-007
-3.4565775e-007
1.5524742e-007
-1.5287277e-007
3.7962972e-008
7.7027368e-006
5.1933771e-006
3.9373943e-006
3.2830227e-006
2.9198691e-006
2.7180944e-006
2.6040355e-006
2.5368796e-006
2.4932431e-006
2.4605338e-006
2.431179e-006
2.3999914e-006
2.3621168e-006
2.312118e-006
2.24388e-006
2.1491667e-006
2.017447e-006
1.8353294e-006
1.5874556e-006
1.2637386e-006
8.7253547e-007
4.6056752e-007
1.1490979e-007
-3.7962972e-008
)
;

boundaryField
{
    inlet
    {
        type            calculated;
        value           nonuniform List<scalar> 
20
(
-5.0012803e-006
-5.0012803e-006
-5.0012803e-006
-5.0012803e-006
-5.0012803e-006
-5.0012803e-006
-5.0012803e-006
-5.0012803e-006
-5.0012803e-006
-5.0012803e-006
-1.5003841e-005
-1.5003841e-005
-1.5003841e-005
-1.5003841e-005
-1.5003841e-005
-1.5003841e-005
-1.5003841e-005
-1.5003841e-005
-1.5003841e-005
-1.5003841e-005
)
;
    }
    walls
    {
        type            calculated;
        value           uniform 0;
    }
    outlet
    {
        type            calculated;
        value           nonuniform List<scalar> 10(2.9739846e-005 2.914593e-005 2.7960522e-005 2.618683e-005 2.3826991e-005 2.0880996e-005 1.7346958e-005 1.3223332e-005 8.5133528e-006 3.2264584e-006);
    }
    centreline
    {
        type            symmetryPlane;
        value           uniform 0;
    }
    frontAndBack
    {
        type            empty;
        value           nonuniform 0();
    }
}


// ************************************************************************* //
