/*--------------------------------*- C++ -*----------------------------------*\
| =========                 |                                                 |
| \\      /  F ield         | OpenFOAM: The Open Source CFD Toolbox           |
|  \\    /   O peration     | Version:  5.x                                   |
|   \\  /    A nd           | Web:      www.OpenFOAM.org                      |
|    \\/     M anipulation  |                                                 |
\*---------------------------------------------------------------------------*/
/*   Windows 32 and 64 bit porting by blueCAPE: http://www.bluecape.com.pt   *\
|  Based on Windows porting (2.0.x v4) by Symscape: http://www.symscape.com   |
\*---------------------------------------------------------------------------*/
FoamFile
{
    version     2.0;
    format      ascii;
    class       surfaceScalarField;
    location    "0.2";
    object      phi_0;
}
// * * * * * * * * * * * * * * * * * * * * * * * * * * * * * * * * * * * * * //

dimensions      [0 3 -1 0 0 0 0];

internalField   nonuniform List<scalar> 
1430
(
5.1476284e-006
-1.4634804e-007
5.3319387e-006
-1.8431035e-007
5.5143996e-006
-1.8246089e-007
5.6725056e-006
-1.5810598e-007
5.8052269e-006
-1.3272132e-007
5.9103393e-006
-1.0511238e-007
5.9933638e-006
-8.3024525e-008
6.0595741e-006
-6.6210257e-008
6.114818e-006
-5.5243902e-008
6.1651357e-006
-5.031764e-008
6.2165683e-006
-5.1432611e-008
6.2756042e-006
-5.9035889e-008
6.3500082e-006
-7.4404051e-008
6.4503082e-006
-1.0029997e-007
6.5914854e-006
-1.4117715e-007
6.7945884e-006
-2.0310304e-007
7.0938801e-006
-2.9929172e-007
7.5461911e-006
-4.5231094e-007
8.2391488e-006
-6.9295775e-007
9.3163271e-006
-1.0771783e-006
1.0930154e-005
-1.6138268e-006
1.3341696e-005
-2.4115419e-006
1.6663769e-005
-3.3220733e-006
2.0928962e-005
-4.2651926e-006
-4.8352969e-006
2.5764259e-005
5.1465669e-006
-2.9163461e-007
5.3344938e-006
-3.7223721e-007
5.515375e-006
-3.6334214e-007
5.6744943e-006
-3.1722525e-007
5.8066774e-006
-2.6490443e-007
5.9116688e-006
-2.1010372e-007
5.9943253e-006
-1.6568105e-007
6.0601456e-006
-1.3203052e-007
6.1150313e-006
-1.1012962e-007
6.1649873e-006
-1.0027365e-007
6.2159887e-006
-1.0243399e-007
6.2745001e-006
-1.1754728e-007
6.3482245e-006
-1.4812839e-007
6.4475177e-006
-1.9959316e-007
6.5872602e-006
-2.8091962e-007
6.7882184e-006
-4.0406133e-007
7.0839334e-006
-5.9500672e-007
7.5303776e-006
-8.9875509e-007
8.2140364e-006
-1.3766166e-006
9.2714341e-006
-2.134576e-006
1.0865579e-005
-3.2079718e-006
1.3214361e-005
-4.7603239e-006
1.650444e-005
-6.6121523e-006
2.0646506e-005
-8.4072581e-006
-9.6859606e-006
2.5497169e-005
5.1477624e-006
-4.381167e-007
5.3367177e-006
-5.6119251e-007
5.5186631e-006
-5.4528757e-007
5.6779594e-006
-4.7652149e-007
5.809881e-006
-3.9682607e-007
5.9143133e-006
-3.1453597e-007
5.9962808e-006
-2.4764859e-007
6.0613688e-006
-1.9711845e-007
6.1155466e-006
-1.643074e-007
6.1647695e-006
-1.4949658e-007
6.2149405e-006
-1.5260495e-007
6.2724021e-006
-1.7500893e-007
6.3447329e-006
-2.2045916e-007
6.442109e-006
-2.9696924e-007
6.5789901e-006
-4.1780074e-007
6.7755723e-006
-6.0064346e-007
7.064358e-006
-8.8379247e-007
7.4992178e-006
-1.3336149e-006
8.1631637e-006
-2.0405625e-006
9.1874815e-006
-3.1588938e-006
1.0725971e-005
-4.7464613e-006
1.2991517e-005
-7.0258694e-006
1.6151278e-005
-9.7719134e-006
2.0155463e-005
-1.2411443e-005
-1.4385512e-005
2.4855014e-005
5.149563e-006
-5.8639937e-007
5.3402841e-006
-7.5191358e-007
5.5237314e-006
-7.2873486e-007
5.683343e-006
-6.3613312e-007
5.8148782e-006
-5.2836127e-007
5.9184349e-006
-4.1809262e-007
5.999326e-006
-3.2853967e-007
6.0633548e-006
-2.6114724e-007
6.1164752e-006
-2.1742786e-007
6.1645874e-006
-1.9760874e-007
6.2135161e-006
-2.0153368e-007
6.2694269e-006
-2.3091972e-007
6.3396877e-006
-2.9071988e-007
6.434196e-006
-3.9147754e-007
6.5668469e-006
-5.5045166e-007
6.7569628e-006
-7.9075938e-007
7.0354903e-006
-1.1623199e-006
7.4533948e-006
-1.7515194e-006
8.0884286e-006
-2.6755964e-006
9.0635408e-006
-4.134006e-006
1.0520868e-005
-6.2037888e-006
1.26613e-005
-9.166301e-006
1.5624153e-005
-1.2734767e-005
1.9411715e-005
-1.6199005e-005
-1.8837232e-005
2.3863436e-005
5.1521317e-006
-7.3725074e-007
5.345314e-006
-9.4509592e-007
5.5307911e-006
-9.1421196e-007
5.6908187e-006
-7.9616069e-007
5.8218276e-006
-6.5937018e-007
5.9241763e-006
-5.2044131e-007
6.0036081e-006
-4.079714e-007
6.0662339e-006
-3.2377304e-007
6.1179442e-006
-2.6913822e-007
6.1645743e-006
-2.4423882e-007
6.2118569e-006
-2.488162e-007
6.2657338e-006
-2.8479663e-007
6.3332717e-006
-3.5825776e-007
6.4240096e-006
-4.8221548e-007
6.5511303e-006
-6.7757233e-007
6.7328026e-006
-9.724317e-007
6.9979636e-006
-1.427481e-006
7.3938865e-006
-2.1474423e-006
7.9912747e-006
-3.2729846e-006
8.9027929e-006
-5.0455241e-006
1.0253159e-005
-7.5541551e-006
1.2226624e-005
-1.1139766e-005
1.4930539e-005
-1.5438682e-005
1.8424562e-005
-1.9693028e-005
-2.2925122e-005
2.2512452e-005
5.1556406e-006
-8.9161098e-007
5.3520155e-006
-1.1414708e-006
5.5400946e-006
-1.1022911e-006
5.7006249e-006
-9.5669104e-007
5.8309308e-006
-7.8967603e-007
5.9317233e-006
-6.2123385e-007
6.009312e-006
-4.8556007e-007
6.0701676e-006
-3.8462866e-007
6.1201182e-006
-3.1908877e-007
6.1649038e-006
-2.8902443e-007
6.2101395e-006
-2.9405195e-007
6.261519e-006
-3.3617606e-007
6.325718e-006
-4.2245675e-007
6.4118327e-006
-5.6833022e-007
6.5321667e-006
-7.9790632e-007
6.7035202e-006
-1.1437852e-006
6.9523985e-006
-1.6763592e-006
7.321744e-006
-2.5167879e-006
7.8738173e-006
-3.8250579e-006
8.708372e-006
-5.8800788e-006
9.9269859e-006
-8.772769e-006
1.1694958e-005
-1.2907738e-005
1.4072595e-005
-1.7816318e-005
1.7186075e-005
-2.2806508e-005
-2.6562671e-005
2.0823623e-005
5.1602977e-006
-1.0506284e-006
5.3606356e-006
-1.3418087e-006
5.5519078e-006
-1.2935632e-006
5.7130127e-006
-1.117796e-006
5.8423943e-006
-9.1905768e-007
5.9412677e-006
-7.2010721e-007
6.0166264e-006
-5.6091881e-007
6.0753193e-006
-4.4332149e-007
6.123166e-006
-3.6693553e-007
6.1657461e-006
-3.3160449e-007
6.2085415e-006
-3.3684731e-007
6.2569906e-006
-3.8462513e-007
6.317271e-006
-4.8273716e-007
6.3979551e-006
-6.4901433e-007
6.5103215e-006
-9.1027272e-007
6.6696533e-006
-1.303117e-006
6.8996492e-006
-1.9063551e-006
7.2383327e-006
-2.8554714e-006
7.7384653e-006
-4.3251906e-006
8.4839138e-006
-6.6255272e-006
9.5485437e-006
-9.8373989e-006
1.1072813e-005
-1.4432007e-005
1.3048332e-005
-1.9791837e-005
1.5725623e-005
-2.5483799e-005
-2.9584498e-005
1.874745e-005
5.1663718e-006
-1.2157199e-006
5.3714183e-006
-1.5468551e-006
5.5664902e-006
-1.4886351e-006
5.7282101e-006
-1.2795158e-006
5.8563807e-006
-1.0472283e-006
5.9529532e-006
-8.1667976e-007
6.0256909e-006
-6.3365649e-007
6.0818186e-006
-4.9944915e-007
6.1272204e-006
-4.1233734e-007
6.1672354e-006
-3.7161942e-007
6.2071974e-006
-3.7680936e-007
6.2523233e-006
-4.2975104e-007
6.3081655e-006
-5.3857929e-007
6.3826646e-006
-7.2351341e-007
6.4859893e-006
-1.0135975e-006
6.6317856e-006
-1.4489133e-006
6.8406276e-006
-2.1151971e-006
7.1451048e-006
-3.1599485e-006
7.5878955e-006
-4.7679813e-006
8.2337951e-006
-7.2714269e-006
9.1249115e-006
-1.0728515e-005
1.0371417e-005
-1.5678513e-005
1.1904466e-005
-2.1324886e-005
1.4097402e-005
-2.7676734e-005
-3.1644936e-005
1.615784e-005
5.1742281e-006
-1.3886677e-006
5.3845438e-006
-1.7571708e-006
5.5840762e-006
-1.6881675e-006
5.7463661e-006
-1.4418058e-006
5.8729535e-006
-1.1738157e-006
5.9668337e-006
-9.1055993e-007
6.0365504e-006
-7.0337322e-007
6.0897145e-006
-5.5261323e-007
6.13231e-006
-4.5493279e-007
6.1694122e-006
-4.0872162e-007
6.2061864e-006
-4.135836e-007
6.2476031e-006
-4.711677e-007
6.2985544e-006
-5.8953057e-007
6.3662254e-006
-7.9118444e-007
6.4595504e-006
-1.1069224e-006
6.5904364e-006
-1.5797993e-006
6.7762744e-006
-2.3010351e-006
7.0436894e-006
-3.4273635e-006
7.4241333e-006
-5.1484252e-006
7.9631396e-006
-7.8104332e-006
8.6664668e-006
-1.1431843e-005
9.6113457e-006
-1.6623392e-005
1.0657497e-005
-2.2371037e-005
1.2311193e-005
-2.9330431e-005
-3.2350864e-005
1.301712e-005
5.1830309e-006
-1.5704183e-006
5.4010824e-006
-1.9752223e-006
5.6045668e-006
-1.8916519e-006
5.767578e-006
-1.6048169e-006
5.8919659e-006
-1.2982036e-006
5.9827902e-006
-1.0013842e-006
6.0491067e-006
-7.6968973e-007
6.0989046e-006
-6.0241112e-007
6.1382875e-006
-4.9431567e-007
6.1721808e-006
-4.4261488e-007
6.2054311e-006
-4.4683396e-007
6.24275e-006
-5.0848659e-007
6.2884481e-006
-6.3522859e-007
6.3487393e-006
-8.5147562e-007
6.4312203e-006
-1.1894034e-006
6.5459531e-006
-1.6945321e-006
6.7072232e-006
-2.4623053e-006
6.9351862e-006
-3.6553266e-006
7.2499929e-006
-5.4632319e-006
7.6774017e-006
-8.237842e-006
8.1946012e-006
-1.1949042e-005
8.8023514e-006
-1.7231142e-005
9.3064728e-006
-2.2875159e-005
1.0099513e-005
-3.0123471e-005
8.8128515e-006
-3.1064202e-005
2.8438409e-005
-2.6741507e-006
2.9422759e-005
-9.843499e-007
2.9665643e-005
-2.4288391e-007
2.9732523e-005
-6.6879449e-008
2.9753624e-005
-2.1101394e-008
2.9751765e-005
1.8592079e-009
2.9744975e-005
6.7896552e-009
2.9739343e-005
5.632111e-009
2.9736871e-005
2.4723272e-009
2.9736634e-005
2.3637986e-010
2.9737164e-005
-5.2949331e-010
2.9737512e-005
-3.4842919e-010
2.9737564e-005
-5.2170429e-011
2.9737515e-005
4.9297316e-011
2.9737482e-005
3.3144089e-011
2.9737476e-005
6.1401639e-012
2.9737479e-005
-2.7049831e-012
2.973748e-005
-1.7092566e-012
2.973748e-005
-1.0179398e-013
2.973748e-005
2.8366833e-013
2.973748e-005
6.9053088e-014
2.973748e-005
-2.0597666e-013
2.9737481e-005
-3.498849e-013
2.973748e-005
6.0589915e-013
9.3864374e-013
2.7949408e-005
-5.1263896e-006
2.8885359e-005
-1.9203006e-006
2.9090338e-005
-4.478629e-007
2.9151152e-005
-1.2769305e-007
2.9161173e-005
-3.1122995e-008
2.9157633e-005
5.3991863e-009
2.9150438e-005
1.3985126e-008
2.9145151e-005
1.0919138e-008
2.9142963e-005
4.6604834e-009
2.9142947e-005
2.5159821e-010
2.9143472e-005
-1.053745e-009
2.9143769e-005
-6.4601215e-010
2.9143802e-005
-8.4862675e-011
2.9143755e-005
9.6276126e-011
2.9143726e-005
6.1946558e-011
2.9143722e-005
1.0270863e-011
2.9143725e-005
-5.5184181e-012
2.9143726e-005
-3.1932647e-012
2.9143726e-005
-7.4060425e-014
2.9143726e-005
5.6353006e-013
2.9143726e-005
1.2913268e-013
2.9143726e-005
-4.065866e-013
2.9143727e-005
-6.4783699e-013
2.9143726e-005
1.2887523e-012
1.9787212e-012
2.7012403e-005
-7.2837786e-006
2.7789896e-005
-2.6977939e-006
2.7950613e-005
-6.085801e-007
2.7974889e-005
-1.5196892e-007
2.7973035e-005
-2.9269259e-008
2.7969874e-005
8.5606464e-009
2.7963597e-005
2.0262057e-008
2.7959191e-005
1.5325611e-008
2.7957791e-005
6.0597774e-009
2.7958073e-005
-3.0258163e-011
2.7958564e-005
-1.5449578e-009
2.795877e-005
-8.5200447e-010
2.7958771e-005
-8.5490772e-011
2.7958729e-005
1.3862699e-010
2.7958709e-005
8.1706823e-011
2.7958708e-005
1.1040938e-011
2.7958711e-005
-8.233694e-012
2.7958712e-005
-4.1835088e-012
2.7958712e-005
9.6954432e-014
2.7958711e-005
7.9561848e-013
2.7958711e-005
1.677576e-013
2.7958712e-005
-5.7498793e-013
2.7958712e-005
-8.9120486e-013
2.7958711e-005
1.9573129e-012
2.9053918e-012
2.5604216e-005
-9.0245592e-006
2.6148052e-005
-3.2416296e-006
2.6212949e-005
-6.7347733e-007
2.6203275e-005
-1.422946e-007
2.6196042e-005
-2.2035788e-008
2.6192933e-005
1.1669219e-008
2.6187768e-005
2.5426816e-008
2.6185151e-005
1.7942605e-008
2.6184828e-005
6.3834425e-009
2.6185349e-005
-5.5121132e-010
2.6185705e-005
-1.9010495e-009
2.618578e-005
-9.2685652e-010
2.6185745e-005
-5.1336211e-011
2.6185714e-005
1.6977108e-010
2.6185707e-005
8.8687703e-011
2.618571e-005
8.3798708e-012
2.6185712e-005
-1.0294466e-011
2.6185712e-005
-4.4714917e-012
2.6185712e-005
3.7847833e-013
2.6185712e-005
9.5201546e-013
2.6185712e-005
1.7923449e-013
2.6185712e-005
-7.2445895e-013
2.6185712e-005
-1.1078744e-012
2.6185712e-005
2.4479114e-012
3.5542158e-012
2.3704166e-005
-1.0216274e-005
2.3911643e-005
-3.4491068e-006
2.3859359e-005
-6.2119337e-007
2.3841893e-005
-1.248288e-007
2.3832733e-005
-1.2875632e-008
2.3828227e-005
1.6175321e-008
2.3825565e-005
2.8089363e-008
2.3825541e-005
1.7965766e-008
2.3826322e-005
5.6026861e-009
2.3826875e-005
-1.1036163e-009
2.3826971e-005
-1.9974573e-009
2.3826895e-005
-8.5075426e-010
2.3826838e-005
5.1437489e-012
2.3826828e-005
1.7978162e-010
2.3826836e-005
8.1474522e-011
2.382684e-005
3.5434875e-012
2.3826841e-005
-1.1004425e-011
2.3826841e-005
-3.9885586e-012
2.382684e-005
6.6648935e-013
2.382684e-005
9.7799883e-013
2.382684e-005
1.4219453e-013
2.3826841e-005
-8.2979099e-013
2.3826841e-005
-1.2813512e-012
2.3826841e-005
2.5981112e-012
3.7952161e-012
2.1253684e-005
-1.0646334e-005
2.1035303e-005
-3.2307256e-006
2.0909382e-005
-4.9527269e-007
2.0889227e-005
-1.0467348e-007
2.0878389e-005
-2.0379543e-009
2.0875844e-005
1.8720967e-008
2.0877669e-005
2.6264195e-008
2.088048e-005
1.5155218e-008
2.0882038e-005
4.0444943e-009
2.0882362e-005
-1.427592e-009
2.088213e-005
-1.7662351e-009
2.0881928e-005
-6.4799232e-010
2.0881875e-005
5.7592827e-011
2.0881893e-005
1.6173065e-010
2.0881912e-005
6.2723108e-011
2.0881917e-005
-1.234391e-012
2.0881916e-005
-9.9246761e-012
2.0881915e-005
-2.9177266e-012
2.0881915e-005
8.1623244e-013
2.0881915e-005
8.3815687e-013
2.0881915e-005
5.4490731e-014
2.0881915e-005
-8.3138371e-013
2.0881915e-005
-1.3366254e-012
2.0881915e-005
2.2944006e-012
3.5139769e-012
1.8149758e-005
-1.0048642e-005
1.7525309e-005
-2.6062762e-006
1.7372971e-005
-3.4293527e-007
1.734454e-005
-7.6241883e-008
1.7334624e-005
7.8778551e-009
1.7336572e-005
1.6772509e-008
1.7342978e-005
1.9858865e-008
1.73478e-005
1.0332909e-008
1.7349558e-005
2.2858971e-009
1.7349473e-005
-1.3417019e-009
1.7348965e-005
-1.2586324e-009
1.7348708e-005
-3.9100834e-010
1.7348686e-005
7.9503392e-011
1.7348729e-005
1.1854551e-010
1.7348753e-005
3.8830039e-011
1.7348756e-005
-3.8756248e-012
1.7348753e-005
-7.2682611e-012
1.7348752e-005
-1.6696987e-012
1.7348752e-005
7.4754353e-013
1.7348752e-005
5.8383684e-013
1.7348752e-005
-4.1660527e-014
1.7348752e-005
-7.1313016e-013
1.7348752e-005
-1.2325423e-012
1.7348753e-005
1.5651415e-012
2.6928418e-012
1.4291139e-005
-8.1819415e-006
1.3397815e-005
-1.7129519e-006
1.3243064e-005
-1.8818391e-007
1.32083e-005
-4.1478738e-008
1.3204894e-005
1.1284779e-008
1.3211226e-005
1.043969e-008
1.3220092e-005
1.099314e-008
1.3225311e-005
5.1135344e-009
1.3226712e-005
8.8582244e-010
1.3226247e-005
-8.7738779e-010
1.3225641e-005
-6.5239679e-010
1.3225416e-005
-1.6621494e-010
1.3225433e-005
6.3146164e-011
1.3225487e-005
6.4126017e-011
1.3225508e-005
1.733485e-011
1.3225508e-005
-3.6269733e-012
1.3225505e-005
-3.9150938e-012
1.3225504e-005
-6.5637082e-013
1.3225504e-005
4.8306636e-013
1.3225504e-005
2.9775737e-013
1.3225504e-005
-8.7196335e-014
1.3225504e-005
-4.870628e-013
1.3225504e-005
-9.3210099e-013
1.3225505e-005
6.5402536e-013
1.5130948e-012
9.6560821e-006
-4.8209033e-006
8.6555707e-006
-7.124406e-007
8.519782e-006
-5.2395147e-008
8.4921132e-006
-1.3809941e-008
8.4964325e-006
6.9653891e-009
8.5039923e-006
2.8799076e-009
8.5117205e-006
3.2649656e-009
8.5155891e-006
1.2449424e-009
8.5163218e-006
1.5309922e-010
8.5157502e-006
-3.0579403e-010
8.5152718e-006
-1.7399624e-010
8.5151386e-006
-3.2952394e-011
8.5151765e-006
2.5243338e-011
8.515222e-006
1.8586977e-011
8.5152355e-006
3.8615328e-012
8.5152334e-006
-1.5528454e-012
8.5152306e-006
-1.125085e-012
8.51523e-006
-1.081291e-013
8.5152304e-006
1.6784773e-013
8.5152306e-006
7.8905412e-014
8.5152306e-006
-5.9053578e-014
8.5152303e-006
-2.0415704e-013
8.5152299e-006
-4.4461824e-013
8.5152305e-006
4.1605658e-014
4.467842e-013
3.9919482e-006
3.2795076e-006
3.2271125e-006
3.2133025e-006
3.2202679e-006
3.2231478e-006
3.2264128e-006
3.2276577e-006
3.2278108e-006
3.227505e-006
3.227331e-006
3.2272981e-006
3.2273233e-006
3.2273419e-006
3.2273458e-006
3.2273442e-006
3.2273431e-006
3.227343e-006
3.2273431e-006
3.2273432e-006
3.2273432e-006
3.227343e-006
3.2273426e-006
3.2273426e-006
1.5591541e-005
-2.1581187e-006
1.6335452e-005
-2.7191326e-006
1.6954412e-005
-2.5106125e-006
1.7446177e-005
-2.0965815e-006
1.7803026e-005
-1.6550526e-006
1.8054417e-005
-1.2527749e-006
1.8230006e-005
-9.4527878e-007
1.8356764e-005
-7.2916915e-007
1.8453256e-005
-5.9080793e-007
1.8534188e-005
-5.2354637e-007
1.8611229e-005
-5.2387539e-007
1.8696018e-005
-5.9327525e-007
1.87995e-005
-7.3871137e-007
1.893259e-005
-9.8456556e-007
1.9111088e-005
-1.3679007e-006
1.9354331e-005
-1.937775e-006
1.9681329e-005
-2.7893032e-006
2.0118984e-005
-4.0929823e-006
2.0675372e-005
-6.0196201e-006
2.1288272e-005
-8.8507419e-006
2.1846248e-005
-1.2507017e-005
2.1671753e-005
-1.7056648e-005
1.9998302e-005
-2.1201708e-005
1.4705771e-005
-2.483094e-005
-1.6358431e-005
1.5737641e-005
-2.8919185e-006
1.6578951e-005
-3.5604427e-006
1.7235513e-005
-3.1671748e-006
1.770939e-005
-2.5704584e-006
1.8026269e-005
-1.9719316e-006
1.8229614e-005
-1.4561202e-006
1.8356185e-005
-1.0718491e-006
1.8438058e-005
-8.1104219e-007
1.8494451e-005
-6.4720141e-007
1.8537406e-005
-5.6650058e-007
1.8574776e-005
-5.6124597e-007
1.8612202e-005
-6.3070073e-007
1.8655764e-005
-7.8227363e-007
1.8708859e-005
-1.0376607e-006
1.8773823e-005
-1.4328646e-006
1.8853195e-005
-2.0171466e-006
1.8937992e-005
-2.8741006e-006
1.9008916e-005
-4.1639065e-006
1.9012256e-005
-6.0229601e-006
1.8807541e-005
-8.6460272e-006
1.8174982e-005
-1.1874458e-005
1.6498899e-005
-1.5380566e-005
1.3195635e-005
-1.7898443e-005
6.8688969e-006
-1.8504201e-005
-9.4895345e-006
1.5933516e-005
-3.8215937e-006
1.6862616e-005
-4.4895424e-006
1.7517321e-005
-3.8218801e-006
1.7938009e-005
-2.9911463e-006
1.8185008e-005
-2.2189311e-006
1.8317986e-005
-1.5890976e-006
1.8381691e-005
-1.135554e-006
1.8409526e-005
-8.3887785e-007
1.8419776e-005
-6.5745086e-007
1.8420341e-005
-5.6706566e-007
1.8414414e-005
-5.5531941e-007
1.8402612e-005
-6.1889809e-007
1.8384103e-005
-7.6376463e-007
1.8355043e-005
-1.0086006e-006
1.8306299e-005
-1.3841213e-006
1.8227173e-005
-1.9380204e-006
1.8088679e-005
-2.7356064e-006
1.7836118e-005
-3.9113454e-006
1.7384718e-005
-5.5715607e-006
1.6547651e-005
-7.8089596e-006
1.5096026e-005
-1.0422833e-005
1.2604126e-005
-1.2888665e-005
8.8275634e-006
-1.4121881e-005
3.4671411e-006
-1.3143779e-005
-6.0223934e-006
1.6151812e-005
-4.9695647e-006
1.7095136e-005
-5.4328668e-006
1.766157e-005
-4.3883134e-006
1.7961668e-005
-3.2912444e-006
1.8094128e-005
-2.3513914e-006
1.813021e-005
-1.6251793e-006
1.8118124e-005
-1.1234678e-006
1.8085851e-005
-8.0660528e-007
1.8047151e-005
-6.1875024e-007
1.800461e-005
-5.2452517e-007
1.795644e-005
-5.0714868e-007
1.7897892e-005
-5.6035097e-007
1.7821685e-005
-6.87557e-007
1.7717535e-005
-9.0445085e-007
1.7568434e-005
-1.2350201e-006
1.735036e-005
-1.7199465e-006
1.7025691e-005
-2.4109377e-006
1.6517909e-005
-3.4035633e-006
1.5728531e-005
-4.7821829e-006
1.4481861e-005
-6.5622893e-006
1.2595457e-005
-8.5364288e-006
9.8664263e-006
-1.0159635e-005
6.3190875e-006
-1.0574542e-005
2.1717292e-006
-8.9964206e-006
-3.8506642e-006
1.6331959e-005
-6.2976828e-006
1.7129906e-005
-6.2308137e-006
1.7469972e-005
-4.7283796e-006
1.7555239e-005
-3.3765118e-006
1.7519634e-005
-2.3157857e-006
1.7433765e-005
-1.5393107e-006
1.7336749e-005
-1.0264515e-006
1.7243395e-005
-7.13252e-007
1.715832e-005
-5.3367477e-007
1.707771e-005
-4.4391521e-007
1.6993979e-005
-4.2341746e-007
1.6897128e-005
-4.6349978e-007
1.677563e-005
-5.6605961e-007
1.6612998e-005
-7.4181806e-007
1.6387935e-005
-1.0099572e-006
1.6066821e-005
-1.3988325e-006
1.5606986e-005
-1.9511034e-006
1.492999e-005
-2.7265666e-006
1.3932733e-005
-3.7849259e-006
1.2473115e-005
-5.102671e-006
1.0427117e-005
-6.4904311e-006
7.7546814e-006
-7.4871992e-006
4.630636e-006
-7.4504966e-006
1.507111e-006
-5.8728956e-006
-2.3435532e-006
1.6373568e-005
-7.6674094e-006
1.6785561e-005
-6.6428071e-006
1.6730904e-005
-4.6737227e-006
1.6505286e-005
-3.1508934e-006
1.6255047e-005
-2.0655473e-006
1.603317e-005
-1.3174339e-006
1.5852198e-005
-8.4547936e-007
1.5705791e-005
-5.6684462e-007
1.5584575e-005
-4.1245915e-007
1.547686e-005
-3.3620015e-007
1.5369657e-005
-3.1621457e-007
1.5249279e-005
-3.4312164e-007
1.5100649e-005
-4.1742913e-007
1.4904411e-005
-5.4557981e-007
1.463597e-005
-7.4151689e-007
1.4260705e-005
-1.0235672e-006
1.3732167e-005
-1.4225654e-006
1.2980344e-005
-1.9747441e-006
1.1909753e-005
-2.7143342e-006
1.0416759e-005
-3.6096775e-006
8.4313834e-006
-4.5050554e-006
6.0105575e-006
-5.0663733e-006
3.4061155e-006
-4.8460546e-006
1.0770949e-006
-3.543875e-006
-1.2664582e-006
1.6141745e-005
-8.8053131e-006
1.5842e-005
-6.3430622e-006
1.5241369e-005
-4.0730919e-006
1.46509e-005
-2.5604247e-006
1.4178231e-005
-1.5928779e-006
1.3833941e-005
-9.7314445e-007
1.3588789e-005
-6.0032751e-007
1.3409286e-005
-3.8734163e-007
1.3270121e-005
-2.73294e-007
1.3151928e-005
-2.1800644e-007
1.3037938e-005
-2.022248e-007
1.2912723e-005
-2.1790689e-007
1.2759561e-005
-2.6426741e-007
1.2559437e-005
-3.4545506e-007
1.2287011e-005
-4.6909084e-007
1.1910636e-005
-6.4719304e-007
1.1385976e-005
-8.9790523e-007
1.0653528e-005
-1.2422954e-006
9.6359861e-006
-1.6967927e-006
8.261457e-006
-2.2351485e-006
6.5042472e-006
-2.7478456e-006
4.4633215e-006
-3.0254476e-006
2.4046057e-006
-2.7873387e-006
7.2555375e-007
-1.8648231e-006
-5.4090446e-007
1.5312363e-005
-9.1138352e-006
1.395879e-005
-4.9894895e-006
1.2770752e-005
-2.8850537e-006
1.1869294e-005
-1.6589664e-006
1.1248536e-005
-9.7212046e-007
1.0841856e-005
-5.6646375e-007
1.0576485e-005
-3.3495652e-007
1.0396379e-005
-2.0723576e-007
1.0264329e-005
-1.4124461e-007
1.015626e-005
-1.0993658e-007
1.0054642e-005
-1.0060732e-007
9.9444695e-006
-1.0773423e-007
9.8107407e-006
-1.3053861e-007
9.6365002e-006
-1.712145e-007
9.4001819e-006
-2.327726e-007
9.0748013e-006
-3.2181241e-007
8.6236416e-006
-4.4674557e-007
7.9990812e-006
-6.17735e-007
7.1440527e-006
-8.417641e-007
6.0125043e-006
-1.1036001e-006
4.6085047e-006
-1.343846e-006
3.0350134e-006
-1.4519562e-006
1.5336998e-006
-1.2860251e-006
4.2342283e-007
-7.5454608e-007
-1.1748162e-007
1.3190981e-005
-7.3009756e-006
1.0710756e-005
-2.5092641e-006
9.081629e-006
-1.2559268e-006
8.0769975e-006
-6.5433495e-007
7.4679872e-006
-3.631102e-007
7.1032566e-006
-2.0173312e-007
6.8823323e-006
-1.1403223e-007
6.7422451e-006
-6.7148482e-008
6.6446424e-006
-4.3641983e-008
6.5674266e-006
-3.2720717e-008
6.496187e-006
-2.9367717e-008
6.4196531e-006
-3.1200371e-008
6.3270019e-006
-3.7887314e-008
6.2057995e-006
-5.0012153e-008
6.0412783e-006
-6.8251407e-008
5.8141908e-006
-9.4724839e-008
5.4991701e-006
-1.3172487e-007
5.063549e-006
-1.8211394e-007
4.4696504e-006
-2.4786551e-007
3.6897693e-006
-3.2371903e-007
2.7371642e-006
-3.9124089e-007
1.697261e-006
-4.1205306e-007
7.5701334e-007
-3.4577743e-007
1.5540356e-007
-1.5293627e-007
3.7921954e-008
7.7028654e-006
5.1936012e-006
3.9376745e-006
3.2833395e-006
2.9202293e-006
2.7184962e-006
2.604464e-006
2.5373155e-006
2.4936735e-006
2.4609528e-006
2.4315851e-006
2.4003847e-006
2.3624974e-006
2.3124853e-006
2.2442339e-006
2.149509e-006
2.0177841e-006
1.8356702e-006
1.5878047e-006
1.2640857e-006
8.7284478e-007
4.6079173e-007
1.1501431e-007
-3.7921954e-008
)
;

boundaryField
{
    inlet
    {
        type            calculated;
        value           nonuniform List<scalar> 
20
(
-5.0012803e-006
-5.0012803e-006
-5.0012803e-006
-5.0012803e-006
-5.0012803e-006
-5.0012803e-006
-5.0012803e-006
-5.0012803e-006
-5.0012803e-006
-5.0012803e-006
-1.5003841e-005
-1.5003841e-005
-1.5003841e-005
-1.5003841e-005
-1.5003841e-005
-1.5003841e-005
-1.5003841e-005
-1.5003841e-005
-1.5003841e-005
-1.5003841e-005
)
;
    }
    walls
    {
        type            calculated;
        value           uniform 0;
    }
    outlet
    {
        type            calculated;
        value           nonuniform List<scalar> 10(2.9737479e-005 2.9143725e-005 2.795871e-005 2.6185711e-005 2.382684e-005 2.0881916e-005 1.7348754e-005 1.3225506e-005 8.5152316e-006 3.2273431e-006);
    }
    centreline
    {
        type            symmetryPlane;
        value           uniform 0;
    }
    frontAndBack
    {
        type            empty;
        value           nonuniform 0();
    }
}


// ************************************************************************* //
