/*--------------------------------*- C++ -*----------------------------------*\
| =========                 |                                                 |
| \\      /  F ield         | OpenFOAM: The Open Source CFD Toolbox           |
|  \\    /   O peration     | Version:  5.x                                   |
|   \\  /    A nd           | Web:      www.OpenFOAM.org                      |
|    \\/     M anipulation  |                                                 |
\*---------------------------------------------------------------------------*/
/*   Windows 32 and 64 bit porting by blueCAPE: http://www.bluecape.com.pt   *\
|  Based on Windows porting (2.0.x v4) by Symscape: http://www.symscape.com   |
\*---------------------------------------------------------------------------*/
FoamFile
{
    version     2.0;
    format      ascii;
    class       volSymmTensorField;
    location    "0.2";
    object      sigma;
}
// * * * * * * * * * * * * * * * * * * * * * * * * * * * * * * * * * * * * * //

dimensions      [0 2 -2 0 0 0 0];

internalField   nonuniform List<symmTensor> 
750
(
(-0.00037080759 2.4826316e-005 0 0.00036089633 0 0)
(-0.00048349335 2.9912247e-006 0 0.00048859326 0 0)
(-0.00050361364 -5.1447742e-006 0 0.00049005044 0 0)
(-0.00043181188 -8.6504492e-006 0 0.00042996612 0 0)
(-0.00036148706 -8.6694286e-006 0 0.00035692562 0 0)
(-0.0002923734 -7.9463213e-006 0 0.00029043871 0 0)
(-0.00023000593 -6.1890489e-006 0 0.0002284521 0 0)
(-0.00018692855 -4.3693837e-006 0 0.00018605488 0 0)
(-0.00015783041 -2.3652789e-006 0 0.00015715033 0 0)
(-0.00014587092 -2.6611657e-007 0 0.00014533778 0 0)
(-0.00014931306 1.6676039e-006 0 0.00014863893 0 0)
(-0.00017252634 4.3182533e-006 0 0.00017170864 0 0)
(-0.00021840737 7.7021306e-006 0 0.00021722533 0 0)
(-0.00028956171 1.1997765e-005 0 0.00028708661 0 0)
(-0.00040768974 1.8458014e-005 0 0.0004030819 0 0)
(-0.00058603157 2.8301672e-005 0 0.00057696552 0 0)
(-0.00085282371 4.3268846e-005 0 0.00083265306 0 0)
(-0.0012820865 6.7797407e-005 0 0.0012381003 0 0)
(-0.0019705237 0.00011034154 0 0.0018733528 0 0)
(-0.003074138 0.00017237276 0 0.0028246298 0 0)
(-0.0047974414 0.00027550528 0 0.0042746946 0 0)
(-0.0073726774 0.00041300499 0 0.0060618207 0 0)
(-0.010751856 0.00056582419 0 0.0084048019 0 0)
(-0.014642314 0.00081156422 0 0.010218827 0 0)
(-0.017961128 0.00058147261 0 0.011958723 0 0)
(-0.00037278384 7.4892085e-005 0 0.00036029309 0 0)
(-0.00048429468 9.1254734e-006 0 0.00049376924 0 0)
(-0.00050502012 -1.5863002e-005 0 0.0004888541 0 0)
(-0.00043186937 -2.5746017e-005 0 0.00043110527 0 0)
(-0.00036177415 -2.6154666e-005 0 0.00035660258 0 0)
(-0.0002911634 -2.3761921e-005 0 0.00028941857 0 0)
(-0.00022874956 -1.8386588e-005 0 0.00022717345 0 0)
(-0.00018652828 -1.3020269e-005 0 0.00018545802 0 0)
(-0.00015689387 -7.0157509e-006 0 0.00015613583 0 0)
(-0.00014482415 -6.8044912e-007 0 0.0001442243 0 0)
(-0.00014808605 5.0787125e-006 0 0.00014732178 0 0)
(-0.00017106772 1.3043447e-005 0 0.00017015116 0 0)
(-0.00021650381 2.3110712e-005 0 0.00021519602 0 0)
(-0.00028668106 3.5894542e-005 0 0.00028397521 0 0)
(-0.00040371139 5.521624e-005 0 0.00039879332 0 0)
(-0.00058008712 8.4389971e-005 0 0.00057057563 0 0)
(-0.00084291879 0.0001286365 0 0.00082185831 0 0)
(-0.0012662407 0.0002014525 0 0.0012209481 0 0)
(-0.0019446792 0.00032618188 0 0.0018458365 0 0)
(-0.0030238987 0.00049894529 0 0.0027699751 0 0)
(-0.0047278667 0.00082671719 0 0.0042063145 0 0)
(-0.0072226134 0.0011746789 0 0.0058996671 0 0)
(-0.010595283 0.001689851 0 0.0082873113 0 0)
(-0.014425027 0.0025002194 0 0.0098955065 0 0)
(-0.01756779 0.0017909294 0 0.011831841 0 0)
(-0.00037570686 0.00012551485 0 0.00036183976 0 0)
(-0.00048693882 1.4930955e-005 0 0.00049799518 0 0)
(-0.00050756363 -2.7158429e-005 0 0.0004902546 0 0)
(-0.00043259307 -4.2910206e-005 0 0.0004321102 0 0)
(-0.00036118092 -4.4032265e-005 0 0.0003558992 0 0)
(-0.00028978515 -3.9907957e-005 0 0.00028807314 0 0)
(-0.0002269663 -3.0705635e-005 0 0.00022542233 0 0)
(-0.00018466816 -2.1771628e-005 0 0.0001836749 0 0)
(-0.00015490995 -1.1820703e-005 0 0.00015421131 0 0)
(-0.00014275711 -1.3237077e-006 0 0.00014222988 0 0)
(-0.00014572229 8.2957774e-006 0 0.00014503281 0 0)
(-0.00016813542 2.1526549e-005 0 0.00016730293 0 0)
(-0.00021275029 3.8158993e-005 0 0.00021156841 0 0)
(-0.00028109343 5.9237316e-005 0 0.00027852637 0 0)
(-0.00039576416 9.1288278e-005 0 0.00039107245 0 0)
(-0.00056804657 0.00013925157 0 0.00055891979 0 0)
(-0.00082369955 0.00021195455 0 0.00080317341 0 0)
(-0.0012353388 0.00033159513 0 0.0011910945 0 0)
(-0.0018923753 0.00053367328 0 0.0017955427 0 0)
(-0.002929046 0.00083073931 0 0.0026782384 0 0)
(-0.0045762087 0.0013437646 0 0.004066468 0 0)
(-0.0069633 0.0019620554 0 0.0056565109 0 0)
(-0.010214487 0.002799488 0 0.0079671308 0 0)
(-0.014192895 0.0041078517 0 0.0094576035 0 0)
(-0.016721732 0.0029363751 0 0.011444827 0 0)
(-0.00037998969 0.00017660985 0 0.00036559581 0 0)
(-0.00049131293 2.0366785e-005 0 0.00050231217 0 0)
(-0.00051138293 -3.9190901e-005 0 0.00049402433 0 0)
(-0.00043379195 -6.1050065e-005 0 0.00043309286 0 0)
(-0.00036010665 -6.270964e-005 0 0.00035492278 0 0)
(-0.0002878558 -5.6699501e-005 0 0.00028604203 0 0)
(-0.00022448488 -4.3569211e-005 0 0.0002229227 0 0)
(-0.00018159905 -3.0882039e-005 0 0.00018067521 0 0)
(-0.0001519366 -1.7003067e-005 0 0.00015124161 0 0)
(-0.00013967043 -2.5244407e-006 0 0.00013916748 0 0)
(-0.00014226896 1.1010383e-005 0 0.00014159996 0 0)
(-0.00016372787 2.936363e-005 0 0.00016291592 0 0)
(-0.00020693 5.2427726e-005 0 0.00020577993 0 0)
(-0.00027301831 8.1614237e-005 0 0.00027047704 0 0)
(-0.00038381297 0.00012593447 0 0.00037916893 0 0)
(-0.00054993885 0.00019218676 0 0.00054090832 0 0)
(-0.00079519065 0.0002927289 0 0.00077478257 0 0)
(-0.0011885315 0.0004584451 0 0.0011445135 0 0)
(-0.0018113483 0.00073732302 0 0.0017151782 0 0)
(-0.0027961235 0.0011390251 0 0.0025478961 0 0)
(-0.0043376487 0.0018470503 0 0.0038362629 0 0)
(-0.0065925513 0.00270347 0 0.0053052416 0 0)
(-0.0095943252 0.0039030903 0 0.0074285214 0 0)
(-0.01377096 0.0055339135 0 0.0089052561 0 0)
(-0.01589196 0.004110893 0 0.010947297 0 0)
(-0.00038593297 0.00022782001 0 0.00037081867 0 0)
(-0.00049726887 2.5154361e-005 0 0.00050810029 0 0)
(-0.00051655279 -5.2229769e-005 0 0.00049918387 0 0)
(-0.00043538454 -8.0323853e-005 0 0.00043439338 0 0)
(-0.00035860599 -8.2295808e-005 0 0.00035349738 0 0)
(-0.0002852233 -7.4223413e-005 0 0.00028332315 0 0)
(-0.00022108148 -5.7115832e-005 0 0.00021953796 0 0)
(-0.00017755059 -4.0449269e-005 0 0.00017666459 0 0)
(-0.00014802737 -2.2618649e-005 0 0.00014734217 0 0)
(-0.00013553669 -4.2882889e-006 0 0.00013507406 0 0)
(-0.00013770134 1.3142931e-005 0 0.00013706155 0 0)
(-0.00015788492 3.63755e-005 0 0.00015710644 0 0)
(-0.00019937094 6.5763851e-005 0 0.00019827425 0 0)
(-0.00026238874 0.00010256877 0 0.00025990725 0 0)
(-0.000368084 0.00015871033 0 0.00036349378 0 0)
(-0.00052623728 0.00024234816 0 0.00051730291 0 0)
(-0.00075823749 0.00036838225 0 0.00073800441 0 0)
(-0.0011285282 0.00057549761 0 0.0010849391 0 0)
(-0.0017091382 0.00092203466 0 0.0016143745 0 0)
(-0.0026206093 0.0014281069 0 0.0023753304 0 0)
(-0.0040254877 0.0023082597 0 0.003535825 0 0)
(-0.0061214124 0.0033741664 0 0.0048609028 0 0)
(-0.0087794451 0.0049211739 0 0.0067084242 0 0)
(-0.012975082 0.0072111476 0 0.0080171695 0 0)
(-0.014914808 0.0052723378 0 0.010395445 0 0)
(-0.00039384906 0.00027919368 0 0.00037775234 0 0)
(-0.00050496868 2.9107721e-005 0 0.00051565462 0 0)
(-0.00052313453 -6.6555412e-005 0 0.00050564192 0 0)
(-0.0004373914 -0.00010127077 0 0.00043607506 0 0)
(-0.00035662356 -0.00010316068 0 0.000351591 0 0)
(-0.0002818226 -9.2750558e-005 0 0.00027982446 0 0)
(-0.00021669858 -7.1582401e-005 0 0.00021518982 0 0)
(-0.00017253176 -5.0688767e-005 0 0.00017167157 0 0)
(-0.00014317094 -2.8893055e-005 0 0.00014250264 0 0)
(-0.0001303807 -6.8813847e-006 0 0.00012996533 0 0)
(-0.00013207083 1.4515301e-005 0 0.00013147349 0 0)
(-0.00015066657 4.2225771e-005 0 0.00014991473 0 0)
(-0.0001900326 7.7823924e-005 0 0.00018900116 0 0)
(-0.00024941474 0.00012183367 0 0.00024698058 0 0)
(-0.00034895521 0.00018892573 0 0.00034443223 0 0)
(-0.00049739041 0.00028865825 0 0.00048861186 0 0)
(-0.00071329441 0.0004385822 0 0.00069327739 0 0)
(-0.0010553613 0.00068404429 0 0.0010122162 0 0)
(-0.0015823506 0.001095134 0 0.001488995 0 0)
(-0.0024081607 0.0016875371 0 0.0021670628 0 0)
(-0.0036408253 0.0027243348 0 0.0031662868 0 0)
(-0.0055426333 0.0039863172 0 0.0043102718 0 0)
(-0.0077044795 0.0059196405 0 0.0057359409 0 0)
(-0.012178223 0.0084836675 0 0.0070982702 0 0)
(-0.012835506 0.0060785733 0 0.0092316094 0 0)
(-0.0004041266 0.00033059036 0 0.00038703467 0 0)
(-0.00051449063 3.1846234e-005 0 0.00052477442 0 0)
(-0.00053128288 -8.2623152e-005 0 0.00051372948 0 0)
(-0.00043984586 -0.00012431238 0 0.00043810788 0 0)
(-0.00035403165 -0.00012552362 0 0.00034904613 0 0)
(-0.00027760749 -0.00011251808 0 0.00027549479 0 0)
(-0.00021125444 -8.6976532e-005 0 0.00020976981 0 0)
(-0.00016661949 -6.1729498e-005 0 0.00016577075 0 0)
(-0.00013741995 -3.599445e-005 0 0.0001367579 0 0)
(-0.00012427521 -1.0441317e-005 0 0.00012390706 0 0)
(-0.00012530762 1.4851117e-005 0 0.00012474832 0 0)
(-0.00014228269 4.6882279e-005 0 0.00014157082 0 0)
(-0.00017895879 8.8257304e-005 0 0.00017796952 0 0)
(-0.00023429677 0.00013898322 0 0.00023190038 0 0)
(-0.00032659547 0.00021599528 0 0.00032212621 0 0)
(-0.00046354222 0.00033103301 0 0.00045489141 0 0)
(-0.00066126033 0.00050200454 0 0.00064150332 0 0)
(-0.00097107439 0.00078058592 0 0.00092849509 0 0)
(-0.0014411887 0.0012436736 0 0.0013495759 0 0)
(-0.0021622497 0.0019117729 0 0.0019285006 0 0)
(-0.0031901732 0.0030853351 0 0.0027347455 0 0)
(-0.0048829986 0.0044883114 0 0.0036834932 0 0)
(-0.0064733805 0.0067638278 0 0.0046247938 0 0)
(-0.011230627 0.0094947765 0 0.0060798757 0 0)
(-0.009542862 0.0074714999 0 0.0065897559 0 0)
(-0.00041746517 0.00038221307 0 0.00039934984 0 0)
(-0.00052568165 3.2996703e-005 0 0.00053548389 0 0)
(-0.00054109664 -0.00010061545 0 0.00052354788 0 0)
(-0.00044270248 -0.00014981335 0 0.00044042994 0 0)
(-0.00035067512 -0.00014965331 0 0.00034569676 0 0)
(-0.00027246189 -0.00013363546 0 0.00027016837 0 0)
(-0.00020468816 -0.00010355163 0 0.00020318778 0 0)
(-0.00015967844 -7.3689423e-005 0 0.00015883283 0 0)
(-0.00013071565 -4.3895472e-005 0 0.00013003405 0 0)
(-0.00011725108 -1.5148344e-005 0 0.0001169212 0 0)
(-0.00011757209 1.4380073e-005 0 0.00011707142 0 0)
(-0.00013237513 4.9664723e-005 0 0.00013168127 0 0)
(-0.00016668105 9.7355659e-005 0 0.00016576669 0 0)
(-0.00021695248 0.00015377495 0 0.00021464722 0 0)
(-0.00030089975 0.00023964373 0 0.0002964897 0 0)
(-0.00042564536 0.00036860394 0 0.00041713734 0 0)
(-0.00060240178 0.0005583685 0 0.00058292432 0 0)
(-0.00087543737 0.00086584892 0 0.00083363883 0 0)
(-0.0012790679 0.0013748847 0 0.0011890507 0 0)
(-0.0018902041 0.002095317 0 0.0016622883 0 0)
(-0.0026665286 0.0033886855 0 0.0022337188 0 0)
(-0.0041181495 0.0048811925 0 0.0029511419 0 0)
(-0.0049518183 0.0075222843 0 0.0032195709 0 0)
(-0.0094427953 0.010666909 0 0.0043933689 0 0)
(-0.0070377135 0.0083474478 0 0.0044835014 0 0)
(-0.00043483803 0.00043381696 0 0.00041377056 0 0)
(-0.00053872212 3.2564752e-005 0 0.00055046036 0 0)
(-0.00055290676 -0.00012085787 0 0.0005340905 0 0)
(-0.00044589602 -0.0001779543 0 0.00044308742 0 0)
(-0.00034622519 -0.00017561049 0 0.00034144757 0 0)
(-0.00026626492 -0.00015542862 0 0.00026360911 0 0)
(-0.00019712398 -0.00012120334 0 0.00019569084 0 0)
(-0.0001515833 -8.6322135e-005 0 0.00015082822 0 0)
(-0.00012295724 -5.2401266e-005 0 0.00012228034 0 0)
(-0.00010938698 -2.0982791e-005 0 0.00010910387 0 0)
(-0.00010874587 1.2918738e-005 0 0.00010832566 0 0)
(-0.00012179936 5.181032e-005 0 0.0001212205 0 0)
(-0.00015242039 0.00010415114 0 0.00015164924 0 0)
(-0.00019766344 0.0001663063 0 0.00019551375 0 0)
(-0.00027238889 0.00025993826 0 0.00026819909 0 0)
(-0.00038290553 0.00040191442 0 0.0003748699 0 0)
(-0.00053828889 0.00060591961 0 0.00051924866 0 0)
(-0.00077214002 0.00093705862 0 0.00073170163 0 0)
(-0.001105717 0.0014828248 0 0.0010193388 0 0)
(-0.0016239099 0.0022151944 0 0.0013984243 0 0)
(-0.0021170657 0.003615562 0 0.0017248531 0 0)
(-0.003275757 0.0050787759 0 0.0021498958 0 0)
(-0.0031278091 0.0080176814 0 0.0016224071 0 0)
(-0.0072072143 0.011132838 0 0.002389784 0 0)
(-0.00084552853 0.011269086 0 -0.0020682767 0 0)
(-0.0004569444 0.00048597917 0 0.00042638831 0 0)
(-0.00055392703 3.0758133e-005 0 0.0005752254 0 0)
(-0.00056650018 -0.00014346827 0 0.0005425159 0 0)
(-0.00044921676 -0.00020855962 0 0.00044601825 0 0)
(-0.00034026404 -0.00020282795 0 0.00033593976 0 0)
(-0.00025876694 -0.00017862557 0 0.00025623865 0 0)
(-0.00018825546 -0.00013914005 0 0.00018705504 0 0)
(-0.00014240746 -9.8877344e-005 0 0.00014202333 0 0)
(-0.0001142032 -6.0908135e-005 0 0.00011378238 0 0)
(-0.00010069151 -2.7223562e-005 0 0.0001007154 0 0)
(-9.9179088e-005 1.182427e-005 0 9.9138324e-005 0 0)
(-0.00010956944 5.1816981e-005 0 0.00010924873 0 0)
(-0.00013751845 0.00011056325 0 0.00013698746 0 0)
(-0.00017675573 0.00017691886 0 0.00017497235 0 0)
(-0.00024185403 0.00027799899 0 0.00023837258 0 0)
(-0.0003379839 0.00042935302 0 0.00033092879 0 0)
(-0.00046832467 0.00064549706 0 0.0004496378 0 0)
(-0.00065983455 0.00099484591 0 0.00062039963 0 0)
(-0.00091953171 0.0015696537 0 0.00083792393 0 0)
(-0.0013064852 0.0022985002 0 0.0010817272 0 0)
(-0.0015177532 0.0037328469 0 0.0011691551 0 0)
(-0.002196627 0.0051320305 0 0.0011293295 0 0)
(-0.00096147849 0.0078061086 0 -0.00017192797 0 0)
(-0.0030352678 0.010126682 0 -0.0009847956 0 0)
(0.0030560904 0.011945059 0 -0.0076393835 0 0)
(-0.013934174 0.00052068774 0 0.0092549058 0 0)
(-0.007827843 0.00092803015 0 0.0057270443 0 0)
(-0.0029064192 0.0013355325 0 0.0021087471 0 0)
(-0.00078933111 0.0015702163 0 0.00057058395 0 0)
(-0.00022629053 0.0016813047 0 8.7728796e-005 0 0)
(-3.3700783e-005 0.0017147909 0 -6.0583108e-005 0 0)
(-4.3504565e-005 0.0017119356 0 -4.9167177e-005 0 0)
(-6.5064854e-005 0.0017068101 0 -2.4101464e-005 0 0)
(-8.606956e-005 0.0017033008 0 -2.9621407e-006 0 0)
(-9.1241798e-005 0.0017023814 0 2.4305679e-006 0 0)
(-9.0463784e-005 0.0017024745 0 1.7346942e-006 0 0)
(-8.897766e-005 0.0017026961 0 2.766319e-007 0 0)
(-8.8554592e-005 0.0017027517 0 -1.6233587e-007 0 0)
(-8.8555861e-005 0.0017027423 0 -1.602149e-007 0 0)
(-8.8671759e-005 0.0017027232 0 -4.5405153e-008 0 0)
(-8.8724206e-005 0.0017027141 0 7.172114e-009 0 0)
(-8.8727382e-005 0.0017027131 0 1.0237404e-008 0 0)
(-8.8718472e-005 0.001702714 0 1.2905147e-009 0 0)
(-8.8716036e-005 0.0017027144 0 -1.2084667e-009 0 0)
(-8.8716461e-005 0.0017027142 0 -8.2286692e-010 0 0)
(-8.8717157e-005 0.001702714 0 -1.760863e-010 0 0)
(-8.8718246e-005 0.0017027142 0 7.6474637e-010 0 0)
(-8.8718756e-005 0.0017027141 0 2.0790988e-009 0 0)
(-8.8722032e-005 0.0017027141 0 4.4244447e-009 0 0)
(-8.8723735e-005 0.0017027136 0 4.8797693e-009 0 0)
(-0.013462035 0.0016500512 0 0.00890162 0 0)
(-0.0075715789 0.0028368103 0 0.0054385555 0 0)
(-0.0031376761 0.0039841538 0 0.0019926726 0 0)
(-0.001270477 0.0047963276 0 0.00050319388 0 0)
(-0.00087749082 0.0050784757 0 7.3774628e-005 0 0)
(-0.0007603546 0.0051414765 0 -3.7535368e-005 0 0)
(-0.00076041355 0.0051405583 0 -4.1442372e-005 0 0)
(-0.00078351844 0.0051252915 0 -1.7026851e-005 0 0)
(-0.00079844201 0.0051177314 0 -1.8381824e-006 0 0)
(-0.00080202484 0.0051159864 0 1.9835437e-006 0 0)
(-0.00080166374 0.005116171 0 1.5173272e-006 0 0)
(-0.00080046311 0.0051167259 0 3.1126123e-007 0 0)
(-0.0007999667 0.0051169331 0 -1.4681921e-007 0 0)
(-0.00079995962 0.0051169132 0 -1.2575696e-007 0 0)
(-0.00080005305 0.0051168696 0 -2.2066751e-008 0 0)
(-0.00080008269 0.0051168546 0 1.0753925e-008 0 0)
(-0.00080008167 0.0051168542 0 9.333083e-009 0 0)
(-0.00080007373 0.0051168572 0 1.0194574e-009 0 0)
(-0.00080007176 0.0051168576 0 -9.9146056e-010 0 0)
(-0.00080007206 0.0051168573 0 -7.603537e-010 0 0)
(-0.00080007275 0.0051168576 0 -1.9774764e-010 0 0)
(-0.00080007364 0.0051168575 0 5.9818496e-010 0 0)
(-0.00080007427 0.0051168578 0 1.7549175e-009 0 0)
(-0.00080007815 0.0051168574 0 4.5333463e-009 0 0)
(-0.00080008016 0.005116859 0 5.0058702e-009 0 0)
(-0.012648124 0.002876333 0 0.0083781789 0 0)
(-0.0069659115 0.0048430548 0 0.0048691968 0 0)
(-0.0035734067 0.0069961827 0 0.0016327094 0 0)
(-0.002493621 0.0080484476 0 0.00049983976 0 0)
(-0.0022773739 0.0084346448 0 0.00013100097 0 0)
(-0.0022000725 0.0085873653 0 -1.5350457e-005 0 0)
(-0.0022167348 0.0085860468 0 -2.2974667e-005 0 0)
(-0.0022263865 0.0085692513 0 -9.4864386e-006 0 0)
(-0.0022341768 0.0085593874 0 -1.2202297e-008 0 0)
(-0.0022354325 0.0085577731 0 1.8629834e-006 0 0)
(-0.0022345807 0.0085585248 0 9.4441456e-007 0 0)
(-0.0022337796 0.0085591552 0 1.5695835e-007 0 0)
(-0.0022334166 0.008559395 0 -1.452917e-007 0 0)
(-0.002233426 0.0085593482 0 -8.7887361e-008 0 0)
(-0.0022334829 0.0085592882 0 -1.063321e-008 0 0)
(-0.0022334999 0.0085592702 0 1.0526944e-008 0 0)
(-0.0022334975 0.0085592717 0 6.9944064e-009 0 0)
(-0.0022334922 0.0085592759 0 5.8640845e-010 0 0)
(-0.0022334914 0.008559277 0 -9.030508e-010 0 0)
(-0.0022334918 0.0085592767 0 -5.1840583e-010 0 0)
(-0.0022334922 0.0085592766 0 -9.6560968e-011 0 0)
(-0.0022334928 0.0085592766 0 3.5794091e-010 0 0)
(-0.0022334936 0.0085592771 0 1.4040754e-009 0 0)
(-0.002233497 0.0085592765 0 4.0194493e-009 0 0)
(-0.0022334999 0.0085592809 0 4.3619115e-009 0 0)
(-0.011452457 0.0041884931 0 0.0074667493 0 0)
(-0.0060504804 0.0077705179 0 0.0035283881 0 0)
(-0.0047937624 0.0098817606 0 0.0015441476 0 0)
(-0.0041917773 0.011505574 0 0.00036934065 0 0)
(-0.0043310672 0.01200198 0 5.2217688e-005 0 0)
(-0.004396635 0.012096581 0 -1.7209884e-006 0 0)
(-0.0044185089 0.012083212 0 -7.4457235e-006 0 0)
(-0.0044183086 0.012064723 0 -2.119748e-006 0 0)
(-0.0044191182 0.012055641 0 9.4174617e-007 0 0)
(-0.0044186782 0.012054727 0 1.0598561e-006 0 0)
(-0.0044180228 0.01205576 0 3.4077619e-007 0 0)
(-0.0044176041 0.012056376 0 -2.8049584e-008 0 0)
(-0.0044174525 0.012056556 0 -1.026687e-007 0 0)
(-0.0044174594 0.012056488 0 -3.7499204e-008 0 0)
(-0.0044174766 0.01205643 0 1.9973724e-009 0 0)
(-0.00441748 0.012056417 0 7.7406768e-009 0 0)
(-0.0044174782 0.01205642 0 3.3904911e-009 0 0)
(-0.0044174775 0.012056425 0 3.6475169e-011 0 0)
(-0.0044174772 0.012056426 0 -4.7162578e-010 0 0)
(-0.0044174771 0.012056425 0 -2.7245834e-010 0 0)
(-0.004417477 0.012056425 0 -1.7807939e-011 0 0)
(-0.0044174773 0.012056425 0 8.3151484e-011 0 0)
(-0.0044174782 0.012056427 0 3.599492e-010 0 0)
(-0.0044174824 0.012056427 0 3.2237607e-009 0 0)
(-0.0044174866 0.012056433 0 3.2370724e-009 0 0)
(-0.0095389488 0.0056647174 0 0.0060016291 0 0)
(-0.006259455 0.010765003 0 0.0024584588 0 0)
(-0.0063308128 0.013322518 0 0.0010208414 0 0)
(-0.006821624 0.01508957 0 0.00026095403 0 0)
(-0.0072996122 0.015582614 0 6.3588866e-005 0 0)
(-0.007407356 0.015668491 0 2.4771347e-005 0 0)
(-0.0074192406 0.015656724 0 8.4112066e-006 0 0)
(-0.0074083396 0.015642574 0 3.7953166e-006 0 0)
(-0.0074031174 0.015636907 0 9.0859962e-007 0 0)
(-0.007401471 0.015636902 0 -9.0192006e-008 0 0)
(-0.0074012654 0.015637833 0 -2.5982746e-007 0 0)
(-0.0074013294 0.01563829 0 -1.3651264e-007 0 0)
(-0.0074013736 0.015638332 0 -2.551183e-008 0 0)
(-0.0074013539 0.015638267 0 1.0377605e-008 0 0)
(-0.0074013329 0.015638227 0 8.1821851e-009 0 0)
(-0.007401326 0.01563822 0 2.1167393e-009 0 0)
(-0.0074013274 0.015638224 0 -3.1071216e-010 0 0)
(-0.0074013294 0.015638227 0 -2.0155701e-010 0 0)
(-0.0074013298 0.015638227 0 2.769678e-011 0 0)
(-0.00740133 0.015638227 0 1.140987e-011 0 0)
(-0.00740133 0.015638227 0 -4.0354604e-011 0 0)
(-0.0074013298 0.015638227 0 -2.1512203e-010 0 0)
(-0.0074013309 0.015638229 0 -2.0526225e-010 0 0)
(-0.0074013333 0.01563823 0 1.0753183e-009 0 0)
(-0.0074013393 0.015638238 0 1.1004737e-009 0 0)
(-0.0074954827 0.0087520534 0 0.0036295198 0 0)
(-0.0068606202 0.014065897 0 0.0012508521 0 0)
(-0.0090283499 0.01733186 0 0.00039717338 0 0)
(-0.010576558 0.018922533 0 0.00015332197 0 0)
(-0.01119745 0.019285696 0 7.015023e-005 0 0)
(-0.011283821 0.019342785 0 4.2255829e-005 0 0)
(-0.011274102 0.019332448 0 1.8745219e-005 0 0)
(-0.011254977 0.019325676 0 7.1890456e-006 0 0)
(-0.011244486 0.019323584 0 -1.3552671e-007 0 0)
(-0.011242169 0.01932391 0 -1.2092315e-006 0 0)
(-0.011242726 0.01932434 0 -6.5006099e-007 0 0)
(-0.011243278 0.019324512 0 -1.0303164e-007 0 0)
(-0.011243426 0.019324503 0 6.5818532e-008 0 0)
(-0.011243375 0.019324475 0 4.6785105e-008 0 0)
(-0.011243324 0.019324461 0 7.3850941e-009 0 0)
(-0.011243311 0.019324459 0 -4.6029202e-009 0 0)
(-0.011243315 0.01932446 0 -2.9947701e-009 0 0)
(-0.01124332 0.019324461 0 -4.8648902e-011 0 0)
(-0.011243321 0.019324461 0 5.5067034e-010 0 0)
(-0.01124332 0.019324461 0 2.1262302e-010 0 0)
(-0.01124332 0.019324461 0 -6.7370312e-011 0 0)
(-0.01124332 0.019324461 0 -4.6664602e-010 0 0)
(-0.011243321 0.019324463 0 -7.5093361e-010 0 0)
(-0.011243321 0.019324465 0 -1.8933714e-009 0 0)
(-0.011243328 0.019324474 0 -1.6477623e-009 0 0)
(-0.0065232821 0.011400686 0 0.0014771511 0 0)
(-0.0089153727 0.018726794 0 -0.00028866431 0 0)
(-0.013604655 0.021673368 0 -3.3901752e-005 0 0)
(-0.015452832 0.022847004 0 9.7412482e-005 0 0)
(-0.01600475 0.023058418 0 8.8359679e-005 0 0)
(-0.01604115 0.02310238 0 5.6562017e-005 0 0)
(-0.016018702 0.023105897 0 2.4357144e-005 0 0)
(-0.015997196 0.023108495 0 7.6672969e-006 0 0)
(-0.015985196 0.023109538 0 -1.4292249e-006 0 0)
(-0.015983198 0.023109498 0 -1.9832221e-006 0 0)
(-0.015984387 0.023109208 0 -7.4961713e-007 0 0)
(-0.015985129 0.023109121 0 -5.8932973e-008 0 0)
(-0.015985381 0.023109119 0 1.3673821e-007 0 0)
(-0.015985311 0.023109149 0 6.3733333e-008 0 0)
(-0.015985246 0.023109158 0 5.475389e-009 0 0)
(-0.015985226 0.023109156 0 -9.6742171e-009 0 0)
(-0.015985231 0.023109153 0 -4.1860517e-009 0 0)
(-0.015985236 0.023109152 0 1.5209585e-010 0 0)
(-0.015985238 0.023109152 0 8.887946e-010 0 0)
(-0.015985237 0.023109153 0 4.0433685e-010 0 0)
(-0.015985236 0.023109152 0 -6.9449989e-011 0 0)
(-0.015985236 0.023109153 0 -6.8421968e-010 0 0)
(-0.015985237 0.023109154 0 -1.5716151e-009 0 0)
(-0.015985234 0.023109157 0 -4.6873539e-009 0 0)
(-0.015985241 0.023109164 0 -4.1516489e-009 0 0)
(-0.0065158901 0.016099682 0 -0.0017222284 0 0)
(-0.013527929 0.024104605 0 -0.0016549556 0 0)
(-0.019885045 0.0261193 0 -0.00024213365 0 0)
(-0.021226089 0.026761763 0 6.19748e-005 0 0)
(-0.021662744 0.026864797 0 9.4841854e-005 0 0)
(-0.021664539 0.026917659 0 5.8072302e-005 0 0)
(-0.021657468 0.026942938 0 2.3517261e-005 0 0)
(-0.021638098 0.026954376 0 4.4778102e-006 0 0)
(-0.021629743 0.026955691 0 -2.3300497e-006 0 0)
(-0.021628167 0.026954525 0 -2.1304257e-006 0 0)
(-0.021629405 0.02695353 0 -6.5776176e-007 0 0)
(-0.021630278 0.026953334 0 5.2813108e-008 0 0)
(-0.021630563 0.026953426 0 1.6053017e-007 0 0)
(-0.021630493 0.02695351 0 5.6525713e-008 0 0)
(-0.021630423 0.026953527 0 -2.084415e-009 0 0)
(-0.0216304 0.026953519 0 -1.0807182e-008 0 0)
(-0.021630405 0.026953512 0 -3.3216868e-009 0 0)
(-0.02163041 0.026953511 0 5.626764e-010 0 0)
(-0.021630411 0.026953512 0 9.7887354e-010 0 0)
(-0.021630411 0.026953512 0 3.8429791e-010 0 0)
(-0.02163041 0.026953512 0 -7.5196267e-011 0 0)
(-0.02163041 0.026953513 0 -7.7869189e-010 0 0)
(-0.021630409 0.026953514 0 -2.5264442e-009 0 0)
(-0.021630404 0.026953516 0 -6.2394043e-009 0 0)
(-0.021630406 0.026953517 0 -5.4826419e-009 0 0)
(-0.011751116 0.025019043 0 -0.0052550799 0 0)
(-0.021824308 0.03023491 0 -0.0026931196 0 0)
(-0.027378909 0.030493377 0 -0.00025344595 0 0)
(-0.027760316 0.030605323 0 3.0012794e-005 0 0)
(-0.028091297 0.030662369 0 9.649167e-005 0 0)
(-0.028130619 0.030754384 0 4.4031304e-005 0 0)
(-0.028165214 0.030797501 0 1.7226419e-005 0 0)
(-0.028155522 0.030812236 0 1.1483408e-006 0 0)
(-0.028150893 0.030812114 0 -2.3438429e-006 0 0)
(-0.02814833 0.030809446 0 -1.7401436e-006 0 0)
(-0.028149046 0.030807966 0 -3.8663603e-007 0 0)
(-0.028149771 0.030807824 0 1.0734961e-007 0 0)
(-0.02815007 0.030808019 0 1.3000078e-007 0 0)
(-0.02815003 0.030808131 0 3.5978802e-008 0 0)
(-0.028149965 0.030808143 0 -6.2180988e-009 0 0)
(-0.028149941 0.030808128 0 -8.5751678e-009 0 0)
(-0.028149943 0.03080812 0 -1.9134638e-009 0 0)
(-0.028149947 0.030808119 0 7.6655749e-010 0 0)
(-0.028149948 0.030808121 0 7.5973664e-010 0 0)
(-0.028149948 0.030808121 0 2.6666818e-010 0 0)
(-0.028149948 0.030808121 0 -1.0377535e-011 0 0)
(-0.028149947 0.030808122 0 -6.9962144e-010 0 0)
(-0.028149945 0.030808122 0 -2.5811565e-009 0 0)
(-0.028149938 0.030808123 0 -6.1283717e-009 0 0)
(-0.028149928 0.030808114 0 -4.9480466e-009 0 0)
(-0.034966039 0.042315471 0 -0.0098132604 0 0)
(-0.033350286 0.03568337 0 -0.0018002659 0 0)
(-0.039671453 0.036690645 0 -0.00016071434 0 0)
(-0.038285605 0.035984077 0 1.8531618e-005 0 0)
(-0.039206899 0.036336841 0 4.5965365e-005 0 0)
(-0.039193508 0.036378709 0 1.5408483e-005 0 0)
(-0.039312828 0.03644455 0 5.3348438e-006 0 0)
(-0.039296631 0.036446316 0 -5.2131459e-007 0 0)
(-0.039296579 0.036445611 0 -1.1567144e-006 0 0)
(-0.03928984 0.036441052 0 -7.0547314e-007 0 0)
(-0.039290011 0.036439917 0 -9.8557754e-008 0 0)
(-0.039290398 0.036439917 0 6.8231313e-008 0 0)
(-0.039290837 0.036440222 0 5.4705696e-008 0 0)
(-0.039290861 0.03644033 0 1.2181189e-008 0 0)
(-0.03929082 0.036440332 0 -3.7615326e-009 0 0)
(-0.03929079 0.036440312 0 -3.3647602e-009 0 0)
(-0.039290788 0.036440306 0 -5.080466e-010 0 0)
(-0.039290791 0.036440306 0 4.0950799e-010 0 0)
(-0.039290794 0.036440308 0 3.0786457e-010 0 0)
(-0.039290794 0.036440309 0 8.975846e-011 0 0)
(-0.039290795 0.036440309 0 -2.8668641e-011 0 0)
(-0.039290794 0.036440309 0 -4.3869204e-010 0 0)
(-0.039290791 0.036440308 0 -1.7518935e-009 0 0)
(-0.039290783 0.036440304 0 -3.3037845e-009 0 0)
(-0.039290759 0.036440288 0 -2.3023273e-009 0 0)
(-0.00051132662 0.00059839546 0 0.0004644649 0 0)
(-0.00058849887 2.3902351e-005 0 0.00063555598 0 0)
(-0.00059665695 -0.00019711663 0 0.00056404679 0 0)
(-0.00045464464 -0.0002696088 0 0.00044832575 0 0)
(-0.00033159856 -0.00025758239 0 0.00032620727 0 0)
(-0.00023621438 -0.00021860697 0 0.00023229549 0 0)
(-0.00016884991 -0.00016984449 0 0.00016616895 0 0)
(-0.0001228387 -0.00012034893 0 0.00012164843 0 0)
(-9.5232544e-005 -7.4078276e-005 0 9.3918252e-005 0 0)
(-8.1631495e-005 -3.4546332e-005 0 8.106187e-005 0 0)
(-7.8221716e-005 1.1164652e-005 0 7.7560788e-005 0 0)
(-8.6011537e-005 5.9408063e-005 0 8.4689079e-005 0 0)
(-0.00010396626 0.00012093062 0 0.00010312187 0 0)
(-0.00013225635 0.00019512729 0 0.00012944944 0 0)
(-0.00017749229 0.00030553384 0 0.00017250701 0 0)
(-0.00024389608 0.00047816822 0 0.0002361945 0 0)
(-0.00032565558 0.000704674 0 0.00030478411 0 0)
(-0.0004424081 0.0010660727 0 0.00040113742 0 0)
(-0.00055445571 0.0016675669 0 0.00048225674 0 0)
(-0.00070853115 0.0023711111 0 0.00050824261 0 0)
(-0.00064216196 0.0036952009 0 0.00035391209 0 0)
(-0.00054909831 0.004889141 0 -0.00032506221 0 0)
(0.0012974932 0.0069374208 0 -0.0019496179 0 0)
(0.0018866892 0.0075904045 0 -0.004319337 0 0)
(0.0097970054 0.0071890224 0 -0.012836904 0 0)
(-0.00063575657 0.00079597814 0 0.00056348218 0 0)
(-0.0006730338 1.3930733e-006 0 0.00073565914 0 0)
(-0.00064801055 -0.00029316009 0 0.00060486825 0 0)
(-0.00045385929 -0.00035993761 0 0.00044335692 0 0)
(-0.00029956854 -0.00032867109 0 0.00029458874 0 0)
(-0.00019324428 -0.00026347885 0 0.00018964318 0 0)
(-0.00012727711 -0.00019702398 0 0.00012546112 0 0)
(-8.2542916e-005 -0.00012989042 0 8.2435697e-005 0 0)
(-5.9026988e-005 -7.3971233e-005 0 5.8441775e-005 0 0)
(-4.638717e-005 -2.6221926e-005 0 4.6262149e-005 0 0)
(-4.0446218e-005 2.8068841e-005 0 4.0555653e-005 0 0)
(-4.1349179e-005 7.9812634e-005 0 4.100424e-005 0 0)
(-4.7180655e-005 0.00014881008 0 4.7462935e-005 0 0)
(-5.7335247e-005 0.00023353474 0 5.6267437e-005 0 0)
(-7.2318062e-005 0.00034563282 0 6.6674887e-005 0 0)
(-8.9730401e-005 0.00052861608 0 8.4470523e-005 0 0)
(-0.00010156965 0.00076067935 0 8.7407126e-005 0 0)
(-0.0001112603 0.0010997988 0 7.2226824e-005 0 0)
(-4.897294e-005 0.0016710106 0 -1.3499311e-005 0 0)
(6.8272931e-005 0.0022861742 0 -0.00023840702 0 0)
(0.00054962474 0.0031974881 0 -0.00081282142 0 0)
(0.0011635978 0.0037817645 0 -0.0018652783 0 0)
(0.0031499907 0.0042430391 0 -0.0038751754 0 0)
(0.0051973843 0.0019165104 0 -0.0073782784 0 0)
(0.0063250016 -0.001288965 0 -0.0092603018 0 0)
(-0.00081993977 0.0010330256 0 0.000724816 0 0)
(-0.00077374762 -3.2039194e-005 0 0.0008445593 0 0)
(-0.00068477965 -0.00038030071 0 0.00063346171 0 0)
(-0.00042527386 -0.00041517576 0 0.00041207629 0 0)
(-0.00024165057 -0.000342895 0 0.00023747181 0 0)
(-0.00013098684 -0.00024132585 0 0.00012736969 0 0)
(-7.1312447e-005 -0.00015435193 0 6.9864636e-005 0 0)
(-3.3766423e-005 -7.0926887e-005 0 3.3699802e-005 0 0)
(-1.5672341e-005 -3.8134319e-006 0 1.5624135e-005 0 0)
(-6.075682e-006 5.0253984e-005 0 5.8867533e-006 0 0)
(7.7062038e-007 0.00010437789 0 -5.8095258e-007 0 0)
(5.5396218e-006 0.0001582813 0 -6.1420899e-006 0 0)
(1.0912699e-005 0.00023112076 0 -1.310881e-005 0 0)
(2.1341715e-005 0.00031610356 0 -2.1736975e-005 0 0)
(3.2641137e-005 0.00042209824 0 -3.8485871e-005 0 0)
(5.7738486e-005 0.00058643742 0 -6.7273518e-005 0 0)
(0.00011203399 0.00082710859 0 -0.00012604886 0 0)
(0.00018363379 0.0011159007 0 -0.00022366186 0 0)
(0.00037638512 0.0015979061 0 -0.00044058948 0 0)
(0.00066035973 0.0020910003 0 -0.00080268195 0 0)
(0.0012494153 0.0027043391 0 -0.0014687107 0 0)
(0.0020773054 0.0029488678 0 -0.0025136701 0 0)
(0.0034882361 0.002758674 0 -0.0038679152 0 0)
(0.0046714336 0.00063998192 0 -0.005420994 0 0)
(0.0035929372 -0.0028497109 0 -0.0037864885 0 0)
(-0.0010572436 0.0013403336 0 0.00092657504 0 0)
(-0.00083942136 -5.9286299e-005 0 0.00091792497 0 0)
(-0.0006562943 -0.00040925158 0 0.00059649157 0 0)