/*--------------------------------*- C++ -*----------------------------------*\
| =========                 |                                                 |
| \\      /  F ield         | OpenFOAM: The Open Source CFD Toolbox           |
|  \\    /   O peration     | Version:  5.x                                   |
|   \\  /    A nd           | Web:      www.OpenFOAM.org                      |
|    \\/     M anipulation  |                                                 |
\*---------------------------------------------------------------------------*/
/*   Windows 32 and 64 bit porting by blueCAPE: http://www.bluecape.com.pt   *\
|  Based on Windows porting (2.0.x v4) by Symscape: http://www.symscape.com   |
\*---------------------------------------------------------------------------*/
FoamFile
{
    version     2.0;
    format      ascii;
    class       volSymmTensorField;
    location    "0.2";
    object      sigma_0;
}
// * * * * * * * * * * * * * * * * * * * * * * * * * * * * * * * * * * * * * //

dimensions      [0 2 -2 0 0 0 0];

internalField   nonuniform List<symmTensor> 
750
(
(-0.00037052583 2.4807355e-005 0 0.00036062848 0 0)
(-0.00048311104 2.9875756e-006 0 0.00048820876 0 0)
(-0.00050317541 -5.1412028e-006 0 0.00048963262 0 0)
(-0.00043140493 -8.6422839e-006 0 0.00042956515 0 0)
(-0.00036112985 -8.659371e-006 0 0.0003565778 0 0)
(-0.00029208552 -7.9360078e-006 0 0.00029015483 0 0)
(-0.00022980425 -6.1804489e-006 0 0.00022825389 0 0)
(-0.00018678127 -4.3621072e-006 0 0.00018590886 0 0)
(-0.00015773864 -2.3604793e-006 0 0.00015705917 0 0)
(-0.00014581235 -2.6285758e-007 0 0.00014528005 0 0)
(-0.0001492734 1.6700915e-006 0 0.00014859961 0 0)
(-0.00017249417 4.3191524e-006 0 0.00017167655 0 0)
(-0.00021839038 7.7025103e-006 0 0.00021720882 0 0)
(-0.00028954024 1.1996989e-005 0 0.00028706577 0 0)
(-0.0004076448 1.8454963e-005 0 0.00040303755 0 0)
(-0.00058596633 2.8296363e-005 0 0.00057690316 0 0)
(-0.00085267863 4.3257628e-005 0 0.00083251453 0 0)
(-0.0012817996 6.7778259e-005 0 0.0012378338 0 0)
(-0.0019700375 0.00011031553 0 0.0018729187 0 0)
(-0.0030735177 0.00017234629 0 0.002824119 0 0)
(-0.0047970312 0.00027549667 0 0.0042744328 0 0)
(-0.0073729905 0.00041302836 0 0.0060621476 0 0)
(-0.010753294 0.00056585264 0 0.008405791 0 0)
(-0.014644669 0.00081162693 0 0.010220119 0 0)
(-0.01796337 0.00058146159 0 0.011959504 0 0)
(-0.00037250016 7.4834917e-005 0 0.00036002587 0 0)
(-0.00048391104 9.1149494e-006 0 0.00049337938 0 0)
(-0.00050457976 -1.585104e-005 0 0.00048843659 0 0)
(-0.00043146206 -2.5720759e-005 0 0.00043070251 0 0)
(-0.00036141632 -2.6123407e-005 0 0.0003562551 0 0)
(-0.00029087709 -2.3730068e-005 0 0.00028913573 0 0)
(-0.00022854949 -1.83601e-005 0 0.00022697658 0 0)
(-0.00018638136 -1.2998002e-005 0 0.00018531305 0 0)
(-0.00015680232 -7.0001752e-006 0 0.00015604495 0 0)
(-0.00014476631 -6.7005593e-007 0 0.00014416732 0 0)
(-0.00014804699 5.0869559e-006 0 0.00014728306 0 0)
(-0.00017103583 1.3046883e-005 0 0.00017011934 0 0)
(-0.00021648791 2.3112788e-005 0 0.00021518062 0 0)
(-0.00028666028 3.5892913e-005 0 0.00028395514 0 0)
(-0.00040366701 5.5207991e-005 0 0.0003987495 0 0)
(-0.00058002356 8.4375018e-005 0 0.00057051517 0 0)
(-0.00084277657 0.0001286041 0 0.00082172287 0 0)
(-0.00126596 0.00020139744 0 0.0012206884 0 0)
(-0.0019442044 0.00032610515 0 0.0018454147 0 0)
(-0.0030232932 0.00049886649 0 0.0027694779 0 0)
(-0.004727465 0.00082669594 0 0.0042060554 0 0)
(-0.0072229104 0.0011747442 0 0.005899978 0 0)
(-0.010596641 0.0016899573 0 0.0082882676 0 0)
(-0.014427233 0.0025002805 0 0.009896771 0 0)
(-0.01756995 0.001790849 0 0.011832611 0 0)
(-0.0003754199 0.00012541947 0 0.00036157097 0 0)
(-0.00048655132 1.4915341e-005 0 0.00049759985 0 0)
(-0.00050711884 -2.7135253e-005 0 0.00048983404 0 0)
(-0.00043218393 -4.2865862e-005 0 0.00043170535 0 0)
(-0.00036082341 -4.3977481e-005 0 0.0003555523 0 0)
(-0.0002895007 -3.9852008e-005 0 0.00028779209 0 0)
(-0.00022676908 -3.0659666e-005 0 0.00022522829 0 0)
(-0.00018452264 -2.1732564e-005 0 0.00018353124 0 0)
(-0.00015481992 -1.1792132e-005 0 0.00015412185 0 0)
(-0.00014270043 -1.3041743e-006 0 0.00014217407 0 0)
(-0.00014568411 8.3114077e-006 0 0.00014499489 0 0)
(-0.00016810524 2.1534769e-005 0 0.00016727272 0 0)
(-0.00021273518 3.8164572e-005 0 0.00021155381 0 0)
(-0.00028107443 5.9236915e-005 0 0.00027850795 0 0)
(-0.00039572114 9.1276747e-005 0 0.00039103 0 0)
(-0.00056798607 0.00013922899 0 0.00055886223 0 0)
(-0.00082356355 0.00021190345 0 0.00080304387 0 0)
(-0.0012350709 0.00033150665 0 0.0011908471 0 0)
(-0.0018919216 0.00053355136 0 0.0017951395 0 0)
(-0.0029284637 0.00083063047 0 0.0026777595 0 0)
(-0.0045758227 0.0013437257 0 0.0040662193 0 0)
(-0.0069635821 0.0019621287 0 0.0056568048 0 0)
(-0.010215783 0.0027995735 0 0.0079680544 0 0)
(-0.014194847 0.0041083545 0 0.0094586496 0 0)
(-0.016723406 0.0029364144 0 0.011445524 0 0)
(-0.00037969705 0.00017647655 0 0.00036532249 0 0)
(-0.00049091849 2.0348444e-005 0 0.00050190983 0 0)
(-0.00051093157 -3.9153808e-005 0 0.00049359765 0 0)
(-0.00043337997 -6.0982751e-005 0 0.00043268545 0 0)
(-0.00035974986 -6.2627781e-005 0 0.00035457655 0 0)
(-0.00028757396 -5.6616239e-005 0 0.00028576381 0 0)
(-0.00022429127 -4.3501385e-005 0 0.00022273242 0 0)
(-0.00018145652 -3.0823577e-005 0 0.0001805343 0 0)
(-0.00015184894 -1.6958938e-005 0 0.00015115452 0 0)
(-0.00013961544 -2.4928885e-006 0 0.00013911336 0 0)
(-0.00014223247 1.1035989e-005 0 0.00014156369 0 0)
(-0.00016369949 2.9379206e-005 0 0.00016288754 0 0)
(-0.00020691653 5.2439671e-005 0 0.00020576684 0 0)
(-0.00027300182 8.1617548e-005 0 0.00027046122 0 0)
(-0.00038377242 0.00012592206 0 0.00037912881 0 0)
(-0.00054988276 0.00019216055 0 0.00054085518 0 0)
(-0.00079506327 0.0002926632 0 0.0007746616 0 0)
(-0.0011882808 0.00045832901 0 0.0011442824 0 0)
(-0.0018109247 0.00073716444 0 0.0017148037 0 0)
(-0.0027955924 0.0011388588 0 0.0025474639 0 0)
(-0.0043372919 0.0018469981 0 0.0038360362 0 0)
(-0.0065928038 0.0027035975 0 0.0053055013 0 0)
(-0.0095954746 0.0039032814 0 0.0074293365 0 0)
(-0.013773094 0.0055338318 0 0.008906444 0 0)
(-0.015893398 0.0041106798 0 0.010948093 0 0)
(-0.00038563103 0.00022764962 0 0.00037053751 0 0)
(-0.00049686421 2.5136333e-005 0 0.00050768784 0 0)
(-0.00051609182 -5.2173598e-005 0 0.00049874814 0 0)
(-0.00043496884 -8.022956e-005 0 0.00043398264 0 0)
(-0.00035825028 -8.2183062e-005 0 0.00035315226 0 0)
(-0.00028494497 -7.4109407e-005 0 0.00028304863 0 0)
(-0.00022089214 -5.7022196e-005 0 0.00021935205 0 0)
(-0.00017741317 -4.0368574e-005 0 0.00017652858 0 0)
(-0.00014794288 -2.2556749e-005 0 0.00014725837 0 0)
(-0.0001354838 -4.2411396e-006 0 0.00013502192 0 0)
(-0.00013766738 1.3181494e-005 0 0.00013702779 0 0)
(-0.00015785809 3.6400696e-005 0 0.00015707953 0 0)
(-0.0001993605 6.5785319e-005 0 0.00019826423 0 0)
(-0.0002623742 0.00010257885 0 0.00025989333 0 0)
(-0.00036804747 0.00015870163 0 0.00036345729 0 0)
(-0.0005261876 0.00024232074 0 0.00051725621 0 0)
(-0.00075812126 0.00036830482 0 0.0007378947 0 0)
(-0.0011282996 0.00057535717 0 0.00108473 0 0)
(-0.0017087566 0.00092184031 0 0.0016140407 0 0)
(-0.0026201233 0.0014279309 0 0.0023749361 0 0)
(-0.0040251721 0.0023082097 0 0.0035356219 0 0)
(-0.0061216451 0.0033742908 0 0.0048611352 0 0)
(-0.0087804373 0.0049213623 0 0.0067091495 0 0)
(-0.012976732 0.0072113068 0 0.0080180982 0 0)
(-0.014916097 0.0052718472 0 0.010396252 0 0)
(-0.00039353301 0.000278987 0 0.00037745882 0 0)
(-0.00050454995 2.9093013e-005 0 0.00051522821 0 0)
(-0.00052266101 -6.6476089e-005 0 0.00050519434 0 0)
(-0.00043697114 -0.0001011459 0 0.00043566031 0 0)
(-0.00035626945 -0.00010301376 0 0.00035124754 0 0)
(-0.00028154874 -9.2603314e-005 0 0.00027955468 0 0)
(-0.00021651437 -7.1460067e-005 0 0.00021500916 0 0)
(-0.00017240097 -5.0584003e-005 0 0.00017154207 0 0)
(-0.00014309019 -2.8811883e-005 0 0.00014242272 0 0)
(-0.00013033067 -6.8161537e-006 0 0.00012991592 0 0)
(-0.00013203963 1.4568096e-005 0 0.00013144244 0 0)
(-0.0001506443 4.226443e-005 0 0.00014989243 0 0)
(-0.00019002268 7.7855231e-005 0 0.00018899147 0 0)
(-0.00024940444 0.00012185448 0 0.00024697069 0 0)
(-0.00034892294 0.00018892256 0 0.00034440011 0 0)
(-0.00049734746 0.00028863174 0 0.00048857163 0 0)
(-0.00071319314 0.00043849752 0 0.0006931821 0 0)
(-0.001055157 0.00068388663 0 0.0010120308 0 0)
(-0.0015820086 0.0010949226 0 0.0014886979 0 0)
(-0.0024077597 0.0016873258 0 0.0021667435 0 0)
(-0.0036405754 0.0027242661 0 0.0031661307 0 0)
(-0.0055428529 0.0039864576 0 0.0043104779 0 0)
(-0.0077053142 0.0059197984 0 0.0057365608 0 0)
(-0.012179769 0.0084833962 0 0.0070993629 0 0)
(-0.012836169 0.0060779686 0 0.0092322532 0 0)
(-0.00040379021 0.00033034736 0 0.00038672293 0 0)
(-0.00051405385 3.1837486e-005 0 0.00052433039 0 0)
(-0.00053079602 -8.2521566e-005 0 0.00051326931 0 0)
(-0.00043942049 -0.0001241549 0 0.00043768874 0 0)
(-0.00035367977 -0.00012534331 0 0.00034870508 0 0)
(-0.00027733891 -0.00011233723 0 0.00027523066 0 0)
(-0.0002110765 -8.6825112e-005 0 0.00020959536 0 0)
(-0.00016649628 -6.1600655e-005 0 0.00016564889 0 0)
(-0.0001373443 -3.5893746e-005 0 0.00013668325 0 0)
(-0.00012422887 -1.0357266e-005 0 0.00012386123 0 0)
(-0.0001252801 1.4918657e-005 0 0.00012472097 0 0)
(-0.00014226235 4.6932123e-005 0 0.00014155032 0 0)
(-0.00017895332 8.8301349e-005 0 0.00017796395 0 0)
(-0.00023429106 0.00013901409 0 0.00023189519 0 0)
(-0.00032656961 0.00021599622 0 0.00032210048 0 0)
(-0.00046350731 0.00033100978 0 0.00045485888 0 0)
(-0.00066117463 0.00050191543 0 0.00064142336 0 0)
(-0.00097090086 0.00078041041 0 0.00092833922 0 0)
(-0.0014408992 0.0012434424 0 0.0013493295 0 0)
(-0.0021619066 0.0019115584 0 0.001928225 0 0)
(-0.0031899755 0.0030852854 0 0.0027346214 0 0)
(-0.0048831913 0.0044884533 0 0.0036836679 0 0)
(-0.0064740063 0.0067640053 0 0.0046252603 0 0)
(-0.011231335 0.0094948977 0 0.0060802955 0 0)
(-0.0095430327 0.0074706442 0 0.0065902495 0 0)
(-0.00041710106 0.00038193381 0 0.00039901337 0 0)
(-0.00052522352 3.2995393e-005 0 0.00053501897 0 0)
(-0.00054059239 -0.0001004878 0 0.00052307151 0 0)
(-0.00044227164 -0.00014962317 0 0.00044000636 0 0)
(-0.00035032714 -0.00014943959 0 0.00034536016 0 0)
(-0.00027219952 -0.00013342199 0 0.00026991073 0 0)
(-0.00020451841 -0.00010337323 0 0.00020302157 0 0)
(-0.00015956354 -7.3538909e-005 0 0.00015871931 0 0)
(-0.00013064552 -4.3778309e-005 0 0.00012996506 0 0)
(-0.00011720915 -1.5047441e-005 0 0.0001168797 0 0)
(-0.00011754816 1.4457707e-005 0 0.00011704747 0 0)
(-0.00013236072 4.9727918e-005 0 0.00013166663 0 0)
(-0.00016667692 9.7406529e-005 0 0.00016576259 0 0)
(-0.00021695068 0.00015381423 0 0.00021464576 0 0)
(-0.00030088136 0.00023964876 0 0.00029647044 0 0)
(-0.00042562123 0.00036858201 0 0.00041711514 0 0)
(-0.00060233481 0.0005582732 0 0.00058286338 0 0)
(-0.00087529319 0.00086565843 0 0.0008335122 0 0)
(-0.0012788347 0.0013746352 0 0.0011888579 0 0)
(-0.0018898723 0.0020951219 0 0.0016620283 0 0)
(-0.0026664085 0.0033886203 0 0.0022336593 0 0)
(-0.0041183337 0.0048813338 0 0.0029513053 0 0)
(-0.0049523439 0.0075223816 0 0.0032200047 0 0)
(-0.0094435072 0.010666509 0 0.0043940687 0 0)
(-0.0070379085 0.0083464551 0 0.0044840488 0 0)
(-0.00043443793 0.00043349951 0 0.00041340322 0 0)
(-0.00053824009 3.257033e-005 0 0.00054996929 0 0)
(-0.00055238434 -0.00012070828 0 0.00053359838 0 0)
(-0.0004454596 -0.00017773583 0 0.00044265925 0 0)
(-0.00034588263 -0.00017536893 0 0.00034111571 0 0)
(-0.00026600985 -0.00015519249 0 0.00026336 0 0)
(-0.00019696281 -0.00012100342 0 0.00019553336 0 0)
(-0.00015147853 -8.6156856e-005 0 0.0001507245 0 0)
(-0.00012289419 -5.2273345e-005 0 0.00012221847 0 0)
(-0.00010935008 -2.0872355e-005 0 0.00010906724 0 0)
(-0.00010872727 1.300449e-005 0 0.00010830722 0 0)
(-0.00012178768 5.1874679e-005 0 0.00012120865 0 0)
(-0.00015241987 0.00010420496 0 0.00015164831 0 0)
(-0.00019766734 0.00016634941 0 0.00019551776 0 0)
(-0.00027237883 0.00025994272 0 0.00026818827 0 0)
(-0.00038289221 0.00040188723 0 0.00037485837 0 0)
(-0.00053824422 0.00060581349 0 0.00051920907 0 0)
(-0.00077203712 0.00093684699 0 0.00073161558 0 0)
(-0.0011055473 0.0014825493 0 0.0010192059 0 0)
(-0.0016237231 0.0022149496 0 0.0013983091 0 0)
(-0.0021170113 0.0036155057 0 0.0017248556 0 0)
(-0.0032759915 0.0050788905 0 0.0021500991 0 0)
(-0.0031281998 0.0080176975 0 0.0016227865 0 0)
(-0.0072071576 0.011132361 0 0.0023900965 0 0)
(-0.0008448568 0.011267649 0 -0.0020679122 0 0)
(-0.00045650112 0.00048562041 0 0.00042598863 0 0)
(-0.00055341948 3.0767029e-005 0 0.00057469784 0 0)
(-0.00056595901 -0.00014330272 0 0.00054201059 0 0)
(-0.00044877577 -0.00020832006 0 0.00044558499 0 0)
(-0.00033993117 -0.00020257033 0 0.000335616 0 0)
(-0.00025852082 -0.0001783754 0 0.00025599934 0 0)
(-0.00018810376 -0.00013892991 0 0.0001869066 0 0)
(-0.0001423126 -9.8709489e-005 0 0.00014192913 0 0)
(-0.00011414814 -6.0780985e-005 0 0.00011372808 0 0)
(-0.00010066051 -2.7115438e-005 0 0.00010068477 0 0)
(-9.9164518e-005 1.1897131e-005 0 9.9123732e-005 0 0)
(-0.0001095645 5.188023e-005 0 0.00010924302 0 0)
(-0.00013752162 0.00011060865 0 0.00013699036 0 0)
(-0.00017676453 0.00017695129 0 0.00017498138 0 0)
(-0.00024184773 0.00027798933 0 0.00023836553 0 0)
(-0.00033798224 0.0004293145 0 0.00033092931 0 0)
(-0.00046830575 0.00064536978 0 0.00044962253 0 0)
(-0.00065978109 0.00099460725 0 0.00062036043 0 0)
(-0.00091942737 0.0015693522 0 0.00083785219 0 0)
(-0.0013064424 0.0022982242 0 0.0010817278 0 0)
(-0.0015178614 0.0037328071 0 0.0011692975 0 0)
(-0.0021969327 0.005132162 0 0.0011295945 0 0)
(-0.000961924 0.0078060341 0 -0.00017146927 0 0)
(-0.0030352458 0.010125988 0 -0.00098441692 0 0)
(0.0030575587 0.011942932 0 -0.0076394154 0 0)
(-0.013935202 0.0005206625 0 0.009255068 0 0)
(-0.0078271859 0.00092797144 0 0.0057262585 0 0)
(-0.0029049406 0.0013353549 0 0.0021073939 0 0)
(-0.00078766837 0.0015698713 0 0.00056900826 0 0)
(-0.00022502008 0.001680886 0 8.6499446e-005 0 0)
(-3.3041206e-005 0.0017141993 0 -6.1207628e-005 0 0)
(-4.3344229e-005 0.0017112332 0 -4.9298847e-005 0 0)
(-6.5120549e-005 0.0017060659 0 -2.4018041e-005 0 0)
(-8.6129672e-005 0.0017025579 0 -2.8756108e-006 0 0)
(-9.1252137e-005 0.0017016484 0 2.4661336e-006 0 0)
(-9.0434112e-005 0.0017017478 0 1.7302891e-006 0 0)
(-8.8944227e-005 0.00170197 0 2.6814208e-007 0 0)
(-8.8525657e-005 0.0017020248 0 -1.6620517e-007 0 0)
(-8.8530642e-005 0.0017020149 0 -1.603206e-007 0 0)
(-8.8647658e-005 0.0017019957 0 -4.4395568e-008 0 0)
(-8.8699397e-005 0.0017019866 0 7.4841981e-009 0 0)
(-8.8702264e-005 0.0017019857 0 1.0238962e-008 0 0)
(-8.8693306e-005 0.0017019866 0 1.2433665e-009 0 0)
(-8.86909e-005 0.001701987 0 -1.2250041e-009 0 0)
(-8.8691344e-005 0.0017019868 0 -8.2048424e-010 0 0)
(-8.8692041e-005 0.0017019866 0 -1.7373788e-010 0 0)
(-8.8693129e-005 0.0017019868 0 7.661026e-010 0 0)
(-8.8693641e-005 0.0017019867 0 2.0828136e-009 0 0)
(-8.8696942e-005 0.0017019867 0 4.4481321e-009 0 0)
(-8.8698644e-005 0.0017019861 0 4.9096887e-009 0 0)
(-0.013463054 0.0016499237 0 0.0089018089 0 0)
(-0.007570936 0.0028366729 0 0.00543784 0 0)
(-0.0031363749 0.0039836127 0 0.001991486 0 0)
(-0.0012689066 0.0047954579 0 0.00050181016 0 0)
(-0.00087628473 0.005077141 0 7.2752582e-005 0 0)
(-0.00075965033 0.0051396975 0 -3.8022578e-005 0 0)
(-0.00076005415 0.0051385377 0 -4.1567351e-005 0 0)
(-0.00078340163 0.0051231475 0 -1.6913848e-005 0 0)
(-0.00079829019 0.0051156149 0 -1.7678925e-006 0 0)
(-0.00080182985 0.0051138967 0 2.0050686e-006 0 0)
(-0.00080144262 0.0051140939 0 1.5126333e-006 0 0)
(-0.00080023942 0.0051146496 0 3.0490305e-007 0 0)
(-0.00079974478 0.0051148557 0 -1.5063366e-007 0 0)
(-0.00079974191 0.005114834 0 -1.2532411e-007 0 0)
(-0.00079983569 0.0051147903 0 -2.1329673e-008 0 0)
(-0.00079986487 0.0051147755 0 1.0977593e-008 0 0)
(-0.00079986362 0.0051147752 0 9.3173138e-009 0 0)
(-0.00079985565 0.0051147782 0 9.7279579e-010 0 0)
(-0.00079985371 0.0051147786 0 -1.0018962e-009 0 0)
(-0.00079985403 0.0051147783 0 -7.5861682e-010 0 0)
(-0.00079985472 0.0051147786 0 -1.9499919e-010 0 0)
(-0.00079985561 0.0051147785 0 5.9712705e-010 0 0)
(-0.00079985624 0.0051147789 0 1.7564938e-009 0 0)
(-0.00079986015 0.0051147784 0 4.5606925e-009 0 0)
(-0.00079986216 0.00511478 0 5.0368558e-009 0 0)
(-0.012648896 0.0028762645 0 0.0083783377 0 0)
(-0.006965313 0.0048427449 0 0.0048686821 0 0)
(-0.0035724498 0.0069952762 0 0.0016318528 0 0)
(-0.0024923508 0.008047048 0 0.00049880832 0 0)
(-0.0022762201 0.0084325229 0 0.00013030223 0 0)
(-0.0021992387 0.008584598 0 -1.5661563e-005 0 0)
(-0.0022161485 0.0085829375 0 -2.2985077e-005 0 0)
(-0.0022258945 0.0085660392 0 -9.3960065e-006 0 0)
(-0.002233667 0.0085562105 0 4.2537086e-008 0 0)
(-0.0022348898 0.0085546358 0 1.8736836e-006 0 0)
(-0.0022340212 0.008555402 0 9.3756376e-007 0 0)
(-0.0022332192 0.008556032 0 1.5109791e-007 0 0)
(-0.0022328583 0.0085562691 0 -1.4753237e-007 0 0)
(-0.0022328702 0.0085562202 0 -8.7347477e-008 0 0)
(-0.0022329273 0.0085561603 0 -1.0073931e-008 0 0)
(-0.002232944 0.0085561426 0 1.0676565e-008 0 0)
(-0.0022329414 0.0085561442 0 6.9671063e-009 0 0)
(-0.0022329361 0.0085561484 0 5.5048844e-010 0 0)
(-0.0022329353 0.0085561495 0 -9.0918871e-010 0 0)
(-0.0022329357 0.0085561491 0 -5.1570744e-010 0 0)
(-0.0022329361 0.0085561491 0 -9.5219709e-011 0 0)
(-0.0022329367 0.008556149 0 3.5655672e-010 0 0)
(-0.0022329375 0.0085561495 0 1.4058651e-009 0 0)
(-0.0022329409 0.008556149 0 4.0457131e-009 0 0)
(-0.0022329438 0.0085561534 0 4.3898786e-009 0 0)
(-0.011452982 0.0041880215 0 0.0074670249 0 0)
(-0.0060502627 0.0077701922 0 0.00352808 0 0)
(-0.0047929825 0.0098809902 0 0.0015435529 0 0)
(-0.0041907172 0.011503642 0 0.00036883068 0 0)
(-0.0043300002 0.011999158 0 5.1919943e-005 0 0)
(-0.0043956507 0.012093129 0 -1.7855007e-006 0 0)
(-0.004417578 0.012079472 0 -7.3903776e-006 0 0)
(-0.0044173946 0.012060925 0 -2.0525163e-006 0 0)
(-0.0044181946 0.012051901 0 9.684685e-007 0 0)
(-0.0044177403 0.012051025 0 1.0594467e-006 0 0)
(-0.0044170779 0.012052069 0 3.3437263e-007 0 0)
(-0.004416658 0.012052684 0 -3.224122e-008 0 0)
(-0.004416508 0.012052859 0 -1.0320143e-007 0 0)
(-0.0044165158 0.01205279 0 -3.6986232e-008 0 0)
(-0.004416533 0.012052732 0 2.2931596e-009 0 0)
(-0.0044165362 0.012052719 0 7.7948047e-009 0 0)
(-0.0044165344 0.012052723 0 3.352763e-009 0 0)
(-0.0044165338 0.012052727 0 1.8562832e-011 0 0)
(-0.0044165334 0.012052728 0 -4.7264567e-010 0 0)
(-0.0044165333 0.012052727 0 -2.6968359e-010 0 0)
(-0.0044165333 0.012052727 0 -1.6680458e-011 0 0)
(-0.0044165335 0.012052727 0 8.0876863e-011 0 0)
(-0.0044165344 0.012052729 0 3.5778823e-010 0 0)
(-0.0044165387 0.012052729 0 3.2473066e-009 0 0)
(-0.0044165429 0.012052736 0 3.2585556e-009 0 0)
(-0.009539198 0.0056646129 0 0.0060017711 0 0)
(-0.0062596035 0.010764334 0 0.0024586591 0 0)
(-0.0063305705 0.013321296 0 0.0010209057 0 0)
(-0.0068209788 0.015087408 0 0.00026100895 0 0)
(-0.0072986962 0.015579562 0 6.370442e-005 0 0)
(-0.0074062173 0.015664918 0 2.4892667e-005 0 0)
(-0.0074179956 0.015652979 0 8.484179e-006 0 0)
(-0.0074070605 0.015638831 0 3.8158037e-006 0 0)
(-0.007401847 0.015633223 0 9.0390494e-007 0 0)
(-0.0074002053 0.015633246 0 -9.9078496e-008 0 0)
(-0.0074000002 0.01563418 0 -2.6363204e-007 0 0)
(-0.0074000639 0.015634633 0 -1.3662711e-007 0 0)
(-0.0074001071 0.015634672 0 -2.4909002e-008 0 0)
(-0.007400087 0.015634606 0 1.0632169e-008 0 0)
(-0.007400066 0.015634566 0 8.177116e-009 0 0)
(-0.0074000592 0.01563456 0 2.0815517e-009 0 0)
(-0.0074000607 0.015634564 0 -3.2991943e-010 0 0)
(-0.0074000627 0.015634566 0 -1.991381e-010 0 0)
(-0.0074000631 0.015634567 0 3.0813343e-011 0 0)
(-0.0074000633 0.015634566 0 1.1923152e-011 0 0)
(-0.0074000632 0.015634566 0 -4.0337241e-011 0 0)
(-0.0074000631 0.015634567 0 -2.1786729e-010 0 0)
(-0.0074000642 0.015634568 0 -2.0794657e-010 0 0)
(-0.0074000666 0.015634569 0 1.0854789e-009 0 0)
(-0.0074000726 0.015634578 0 1.110836e-009 0 0)
(-0.007495545 0.0087516356 0 0.0036297706 0 0)
(-0.0068608034 0.014065359 0 0.001251272 0 0)
(-0.009028497 0.017330713 0 0.00039765387 0 0)
(-0.010576303 0.018920424 0 0.00015390676 0 0)
(-0.011196645 0.019282936 0 7.0608298e-005 0 0)
(-0.011282588 0.019339757 0 4.2487788e-005 0 0)
(-0.011272672 0.019329396 0 1.879459e-005 0 0)
(-0.011253485 0.019322664 0 7.1533066e-006 0 0)
(-0.011243027 0.019320613 0 -1.661645e-007 0 0)
(-0.011240732 0.019320948 0 -1.2193814e-006 0 0)
(-0.011241297 0.019321375 0 -6.4860449e-007 0 0)
(-0.011241848 0.019321544 0 -9.9878905e-008 0 0)
(-0.011241993 0.019321533 0 6.7151525e-008 0 0)
(-0.01124194 0.019321505 0 4.6584873e-008 0 0)
(-0.011241889 0.019321492 0 7.1088055e-009 0 0)
(-0.011241877 0.01932149 0 -4.6882677e-009 0 0)
(-0.011241881 0.019321491 0 -2.9782382e-009 0 0)
(-0.011241886 0.019321492 0 -3.0621098e-011 0 0)
(-0.011241886 0.019321492 0 5.5440757e-010 0 0)
(-0.011241886 0.019321492 0 2.1151487e-010 0 0)
(-0.011241886 0.019321492 0 -6.8977701e-011 0 0)
(-0.011241885 0.019321492 0 -4.6847122e-010 0 0)
(-0.011241887 0.019321494 0 -7.5609435e-010 0 0)
(-0.011241887 0.019321496 0 -1.9011104e-009 0 0)
(-0.011241894 0.019321505 0 -1.6529319e-009 0 0)
(-0.0065232888 0.011400149 0 0.0014774657 0 0)
(-0.0089156342 0.018726227 0 -0.00028799094 0 0)
(-0.013605187 0.021672318 0 -3.2902449e-005 0 0)
(-0.015452857 0.022845435 0 9.8392684e-005 0 0)
(-0.016004127 0.023056631 0 8.8993974e-005 0 0)
(-0.016040001 0.023100599 0 5.680038e-005 0 0)
(-0.016017284 0.023104179 0 2.4348194e-005 0 0)
(-0.015995718 0.023106811 0 7.5902077e-006 0 0)
(-0.015983752 0.023107853 0 -1.4729297e-006 0 0)
(-0.015981789 0.023107803 0 -1.9896168e-006 0 0)
(-0.01598299 0.02310751 0 -7.4356956e-007 0 0)
(-0.015983732 0.023107424 0 -5.3388016e-008 0 0)
(-0.015983979 0.023107423 0 1.376958e-007 0 0)
(-0.015983907 0.023107453 0 6.3230169e-008 0 0)
(-0.015983842 0.023107462 0 4.9624236e-009 0 0)
(-0.015983822 0.02310746 0 -9.7512256e-009 0 0)
(-0.015983828 0.023107457 0 -4.154665e-009 0 0)
(-0.015983833 0.023107456 0 1.8342247e-010 0 0)
(-0.015983834 0.023107456 0 8.9106373e-010 0 0)
(-0.015983834 0.023107456 0 4.0215956e-010 0 0)
(-0.015983833 0.023107456 0 -7.1233259e-011 0 0)
(-0.015983833 0.023107457 0 -6.8460161e-010 0 0)
(-0.015983834 0.023107458 0 -1.5808552e-009 0 0)
(-0.015983831 0.023107461 0 -4.7127105e-009 0 0)
(-0.015983837 0.023107467 0 -4.1746157e-009 0 0)
(-0.006515737 0.016098984 0 -0.0017217519 0 0)
(-0.013528048 0.02410408 0 -0.0016541221 0 0)
(-0.0198855 0.026118672 0 -0.00024088748 0 0)
(-0.021226218 0.026761209 0 6.3091129e-005 0 0)
(-0.021662432 0.026864548 0 9.5489352e-005 0 0)
(-0.021663759 0.026917655 0 5.8259716e-005 0 0)
(-0.021656372 0.026943019 0 2.3456046e-005 0 0)
(-0.02163693 0.026954429 0 4.3929261e-006 0 0)
(-0.021628588 0.026955707 0 -2.3771363e-006 0 0)
(-0.021627061 0.026954521 0 -2.1312713e-006 0 0)
(-0.021628315 0.026953528 0 -6.4935946e-007 0 0)
(-0.021629189 0.026953337 0 5.8145096e-008 0 0)
(-0.021629469 0.026953431 0 1.6092832e-007 0 0)
(-0.021629397 0.026953515 0 5.5734144e-008 0 0)
(-0.021629326 0.026953531 0 -2.5327766e-009 0 0)
(-0.021629305 0.026953523 0 -1.0843203e-008 0 0)
(-0.021629309 0.026953517 0 -3.2702657e-009 0 0)
(-0.021629314 0.026953516 0 5.8667956e-010 0 0)
(-0.021629315 0.026953516 0 9.7850143e-010 0 0)
(-0.021629315 0.026953517 0 3.8124884e-010 0 0)
(-0.021629315 0.026953517 0 -7.5152057e-011 0 0)
(-0.021629314 0.026953517 0 -7.7677031e-010 0 0)
(-0.021629313 0.026953518 0 -2.534407e-009 0 0)
(-0.021629308 0.026953521 0 -6.2801817e-009 0 0)
(-0.02162931 0.026953522 0 -5.5196216e-009 0 0)
(-0.011749933 0.025018012 0 -0.0052545853 0 0)
(-0.021823558 0.030234561 0 -0.0026922816 0 0)
(-0.027378792 0.030493599 0 -0.00025235057 0 0)
(-0.027760634 0.030606378 0 3.0922414e-005 0 0)
(-0.028091702 0.030664163 0 9.6990702e-005 0 0)
(-0.028130685 0.030756546 0 4.4132256e-005 0 0)
(-0.028164962 0.030799689 0 1.7157088e-005 0 0)
(-0.028155147 0.030814332 0 1.0745067e-006 0 0)
(-0.028150522 0.030814144 0 -2.3730108e-006 0 0)
(-0.028147999 0.030811458 0 -1.7372635e-006 0 0)
(-0.028148738 0.030809988 0 -3.7919994e-007 0 0)
(-0.028149466 0.030809854 0 1.1079629e-007 0 0)
(-0.028149761 0.030810051 0 1.298978e-007 0 0)
(-0.028149719 0.030810163 0 3.5272195e-008 0 0)
(-0.028149654 0.030810174 0 -6.532602e-009 0 0)
(-0.02814963 0.030810158 0 -8.5737529e-009 0 0)
(-0.028149632 0.030810151 0 -1.8676078e-009 0 0)
(-0.028149636 0.03081015 0 7.8207474e-010 0 0)
(-0.028149637 0.030810151 0 7.5736089e-010 0 0)
(-0.028149637 0.030810152 0 2.6412215e-010 0 0)
(-0.028149637 0.030810152 0 -9.092637e-012 0 0)
(-0.028149636 0.030810152 0 -6.9480725e-010 0 0)
(-0.028149635 0.030810153 0 -2.5829067e-009 0 0)
(-0.028149627 0.030810153 0 -6.1635111e-009 0 0)
(-0.028149618 0.030810145 0 -4.9828232e-009 0 0)
(-0.034962162 0.042313754 0 -0.0098129061 0 0)
(-0.033346947 0.035682995 0 -0.0017998128 0 0)
(-0.039670074 0.036691925 0 -0.00016019277 0 0)
(-0.038285839 0.035986963 0 1.8947108e-005 0 0)
(-0.039208099 0.036340833 0 4.6162796e-005 0 0)
(-0.039194738 0.036383083 0 1.5438745e-005 0 0)
(-0.039313803 0.036448876 0 5.2994789e-006 0 0)
(-0.039297421 0.036450499 0 -5.5375195e-007 0 0)
(-0.039297322 0.036449711 0 -1.1678609e-006 0 0)
(-0.039290611 0.036445143 0 -7.0376763e-007 0 0)
(-0.039290808 0.036444022 0 -9.5437946e-008 0 0)
(-0.039291202 0.036444031 0 6.944451e-008 0 0)
(-0.039291639 0.036444337 0 5.4547763e-008 0 0)
(-0.03929166 0.036444443 0 1.1869614e-008 0 0)
(-0.039291619 0.036444445 0 -3.8716555e-009 0 0)
(-0.039291589 0.036444425 0 -3.3551074e-009 0 0)
(-0.039291588 0.036444419 0 -4.8794378e-010 0 0)
(-0.039291591 0.036444419 0 4.146794e-010 0 0)
(-0.039291593 0.036444421 0 3.0641123e-010 0 0)
(-0.039291594 0.036444422 0 8.9037512e-011 0 0)
(-0.039291594 0.036444422 0 -2.6659221e-011 0 0)
(-0.039291594 0.036444422 0 -4.3439274e-010 0 0)
(-0.039291591 0.036444421 0 -1.7476959e-009 0 0)
(-0.039291582 0.036444417 0 -3.3195321e-009 0 0)
(-0.039291558 0.036444401 0 -2.3241719e-009 0 0)
(-0.00051078429 0.00059792838 0 0.00046398948 0 0)
(-0.00058794523 2.3895003e-005 0 0.0006349613 0 0)
(-0.00059608303 -0.0001969562 0 0.00056352498 0 0)
(-0.00045420246 -0.00026938274 0 0.00044789422 0 0)
(-0.00033128099 -0.00025735236 0 0.0003259014 0 0)
(-0.00023598333 -0.00021838243 0 0.00023207051 0 0)
(-0.00016872883 -0.00016968684 0 0.00016605181 0 0)
(-0.00012276353 -0.00012023394 0 0.00012157507 0 0)
(-9.5194982e-005 -7.4014165e-005 0 9.388227e-005 0 0)
(-8.1613313e-005 -3.4503156e-005 0 8.1043662e-005 0 0)
(-7.8219764e-005 1.1168012e-005 0 7.7557624e-005 0 0)
(-8.6015971e-005 5.9399223e-005 0 8.4693686e-005 0 0)
(-0.00010397619 0.00012090052 0 0.00010313293 0 0)
(-0.00013227568 0.00019509091 0 0.00012947035 0 0)
(-0.00017750824 0.00030543704 0 0.0001725202 0 0)
(-0.00024392214 0.0004780525 0 0.00023622365 0 0)
(-0.00032567389 0.00070447375 0 0.00030481295 0 0)
(-0.00044242455 0.0010657345 0 0.00040116938 0 0)
(-0.00055449122 0.0016671926 0 0.00048232953 0 0)
(-0.00070857155 0.0023708013 0 0.00050832984 0 0)
(-0.00064234132 0.0036951465 0 0.00035411381 0 0)
(-0.00054945614 0.0048892506 0 -0.00032472802 0 0)
(0.0012969924 0.0069373854 0 -0.0019491053 0 0)
(0.0018864842 0.0075897741 0 -0.0043187924 0 0)
(0.0097967717 0.0071871916 0 -0.012835868 0 0)
(-0.00063506015 0.00079527704 0 0.00056289448 0 0)
(-0.00067245051 1.3237345e-006 0 0.00073501853 0 0)
(-0.00064744241 -0.00029307589 0 0.00060436098 0 0)
(-0.00045345517 -0.00035983449 0 0.00044296112 0 0)
(-0.00029928725 -0.00032858031 0 0.00029431716 0 0)
(-0.00019307405 -0.00026343336 0 0.00018947627 0 0)
(-0.00012720483 -0.00019706288 0 0.00012539016 0 0)
(-8.2512483e-005 -0.0001299881 0 8.2404289e-005 0 0)
(-5.9022483e-005 -7.4127294e-005 0 5.8435367e-005 0 0)
(-4.6391357e-005 -2.6396256e-005 0 4.6264947e-005 0 0)
(-4.0460103e-005 2.7836215e-005 0 4.05726e-005 0 0)
(-4.1368006e-005 7.9562603e-005 0 4.1023008e-005 0 0)
(-4.7208023e-005 0.00014855817 0 4.7488835e-005 0 0)
(-5.7368551e-005 0.0002332713 0 5.6306714e-005 0 0)
(-7.2352853e-005 0.00034531697 0 6.6715231e-005 0 0)
(-8.9791529e-005 0.00052825914 0 8.4534799e-005 0 0)
(-0.00010163735 0.00076026947 0 8.7493906e-005 0 0)
(-0.00011133132 0.0010992718 0 7.2330283e-005 0 0)
(-4.9076503e-005 0.0016704363 0 -1.3346018e-005 0 0)
(6.8042733e-005 0.0022857199 0 -0.00023810606 0 0)
(0.00054927265 0.0031973499 0 -0.00081241115 0 0)
(0.0011632138 0.0037818435 0 -0.0018648631 0 0)
(0.0031496864 0.0042428486 0 -0.0038747542 0 0)
(0.0051972496 0.0019159243 0 -0.0073779497 0 0)
(0.0063251215 -0.0012905936 0 -0.0092607689 0 0)
(-0.00081918097 0.0010320073 0 0.00072420562 0 0)
(-0.00077326635 -3.2243634e-005 0 0.00084401974 0 0)
(-0.00068434761 -0.00038043238 0 0.00063308493 0 0)
(-0.00042498383 -0.00041537305 0 0.00041178623 0 0)
(-0.00024146967 -0.00034315688 0 0.00023729186 0 0)
(-0.00013090277 -0.00024167139 0 0.00012728424 0 0)
(-7.1294742e-005 -0.00015478693 0 6.9844352e-005 0 0)
(-3.3783549e-005 -7.1440007e-005 0 3.3714673e-005 0 0)
(-1.570055e-005 -4.3976752e-006 0 1.5651513e-005 0 0)
(-6.1026066e-006 4.9641301e-005 0 5.9148152e-006 0 0)
(7.4356686e-007 0.00010374216 0 -5.4959865e-007 0 0)
(5.5093037e-006 0.00015762617 0 -6.1074772e-006 0 0)
(1.0875845e-005 0.00023044877 0 -1.306866e-005 0 0)
(2.12987e-005 0.00031541686 0 -2.1683857e-005 0 0)
(3.2590347e-005 0.00042140761 0 -3.8415189e-005 0 0)
(5.7658456e-005 0.00058567584 0 -6.7175977e-005 0 0)
(0.00011191604 0.0008263218 0 -0.00012590158 0 0)
(0.0001834563 0.0011150387 0 -0.00022342695 0 0)
(0.00037610028 0.0015970566 0 -0.00044022421 0 0)
(0.00066003115 0.0020902861 0 -0.00080225815 0 0)
(0.0012490673 0.0027040146 0 -0.0014682681 0 0)
(0.002077037 0.0029487706 0 -0.0025133187 0 0)
(0.0034881229 0.0027585034 0 -0.0038677559 0 0)
(0.004671473 0.00063947 0 -0.0054210558 0 0)
(0.0035931877 -0.0028514273 0 -0.0037872038 0 0)
(-0.0010566513 0.0013389664 0 0.00092617123 0 0)
(-0.00083925487 -5.9659376e-005 0 0.0009177111 0 0)