/*--------------------------------*- C++ -*----------------------------------*\
| =========                 |                                                 |
| \\      /  F ield         | OpenFOAM: The Open Source CFD Toolbox           |
|  \\    /   O peration     | Version:  5.x                                   |
|   \\  /    A nd           | Web:      www.OpenFOAM.org                      |
|    \\/     M anipulation  |                                                 |
\*---------------------------------------------------------------------------*/
/*   Windows 32 and 64 bit porting by blueCAPE: http://www.bluecape.com.pt   *\
|  Based on Windows porting (2.0.x v4) by Symscape: http://www.symscape.com   |
\*---------------------------------------------------------------------------*/
FoamFile
{
    version     2.0;
    format      ascii;
    class       volVectorField;
    location    "0.2";
    object      U;
}
// * * * * * * * * * * * * * * * * * * * * * * * * * * * * * * * * * * * * * //

dimensions      [0 1 -1 0 0 0 0];

internalField   nonuniform List<vector> 
750
(
(0.039322686 -0.00014201681 0)
(0.040503751 -0.00017785042 0)
(0.0421117 -0.00017710316 0)
(0.04338133 -0.0001530439 0)
(0.04454297 -0.00012889461 0)
(0.045448904 -0.00010190868 0)
(0.046170305 -8.0570474e-005 0)
(0.046737859 -6.4420776e-005 0)
(0.047197113 -5.3695968e-005 0)
(0.047594524 -4.8900343e-005 0)
(0.047977343 -4.9996981e-005 0)
(0.048392259 -5.7407721e-005 0)
(0.048892365 -7.2357151e-005 0)
(0.04954522 -9.7550882e-005 0)
(0.050448265 -0.00013735233 0)
(0.051733574 -0.00019766858 0)
(0.053595834 -0.00029136342 0)
(0.056376529 -0.00044060918 0)
(0.060610794 -0.0006756081 0)
(0.067103941 -0.0010504861 0)
(0.077383662 -0.0015742348 0)
(0.091929029 -0.0023555716 0)
(0.11524491 -0.0032390338 0)
(0.14255068 -0.0041597384 0)
(0.1827492 -0.0046968073 0)
(0.039326388 -0.00042439029 0)
(0.040509543 -0.00053878431 0)
(0.042122551 -0.00052902106 0)
(0.04339505 -0.00046063777 0)
(0.044555703 -0.0003856903 0)
(0.04546001 -0.00030573868 0)
(0.046179112 -0.00024131349 0)
(0.046743822 -0.00019246866 0)
(0.047200027 -0.00016053103 0)
(0.047594846 -0.00014618382 0)
(0.047974693 -0.00014936858 0)
(0.048386135 -0.00017144873 0)
(0.048881499 -0.00021608436 0)
(0.049528321 -0.00029118832 0)
(0.050422574 -0.00040993918 0)
(0.051694379 -0.00058978421 0)
(0.053536354 -0.00086888681 0)
(0.0562842 -0.0013132 0)
(0.060461368 -0.0020120352 0)
(0.06686022 -0.003123183 0)
(0.0769712 -0.0046895365 0)
(0.0912704 -0.0069767355 0)
(0.11415383 -0.009669034 0)
(0.14086055 -0.012325648 0)
(0.18068528 -0.014088243 0)
(0.039332553 -0.00070685669 0)
(0.040521864 -0.00090385035 0)
(0.042145225 -0.00088048434 0)
(0.043422791 -0.00076930863 0)
(0.04458212 -0.00064171987 0)
(0.045483187 -0.00050899716 0)
(0.046197112 -0.00040115091 0)
(0.046756151 -0.0003194533 0)
(0.047206726 -0.00026640154 0)
(0.047596216 -0.00024249131 0)
(0.047970009 -0.00024761757 0)
(0.048374584 -0.00028406838 0)
(0.048860573 -0.00035791827 0)
(0.049495178 -0.00048222815 0)
(0.050371867 -0.00067863915 0)
(0.05161687 -0.00097599506 0)
(0.053417852 -0.0014369264 0)
(0.056099128 -0.0021698113 0)
(0.060162883 -0.0033225054 0)
(0.066371096 -0.0051486123 0)
(0.07615434 -0.0077372642 0)
(0.089933236 -0.011468017 0)
(0.11201883 -0.015945195 0)
(0.13752412 -0.020267832 0)
(0.17649655 -0.023394829 0)
(0.039341492 -0.00099211371 0)
(0.040541482 -0.0012718475 0)
(0.042180784 -0.0012342656 0)
(0.043465563 -0.0010784983 0)
(0.04462327 -0.00089718461 0)
(0.045519421 -0.00071080557 0)
(0.04622501 -0.00055921916 0)
(0.046775601 -0.00044477996 0)
(0.047218085 -0.00037056908 0)
(0.047599404 -0.00033699751 0)
(0.047964077 -0.00034384437 0)
(0.048358482 -0.00039414698 0)
(0.048830644 -0.00049638882 0)
(0.049446933 -0.0006685852 0)
(0.050297489 -0.00094040393 0)
(0.05150302 -0.0013516665 0)
(0.053243162 -0.0019882315 0)
(0.055826146 -0.002998753 0)
(0.059725274 -0.0045855818 0)
(0.065649747 -0.0070933047 0)
(0.074952876 -0.010652976 0)
(0.087956756 -0.015755667 0)
(0.10887429 -0.021906563 0)
(0.13248133 -0.027827313 0)
(0.17013859 -0.03238143 0)
(0.039354246 -0.0012816373 0)
(0.040569462 -0.0016437395 0)
(0.042230599 -0.0015915986 0)
(0.043524904 -0.0013883435 0)
(0.044680448 -0.0011518073 0)
(0.045569862 -0.00091058185 0)
(0.046263896 -0.00071481592 0)
(0.046803305 -0.00056774203 0)
(0.047235046 -0.00047234483 0)
(0.047605435 -0.00042897979 0)
(0.047957937 -0.00043726521 0)
(0.048338981 -0.00050074393 0)
(0.048793028 -0.00063020769 0)
(0.04938513 -0.00084847113 0)
(0.05020146 -0.0011927219 0)
(0.05135546 -0.001712828 0)
(0.053016091 -0.0025164561 0)
(0.05547127 -0.0037896453 0)
(0.059157436 -0.0057837189 0)
(0.064710541 -0.0089275361 0)
(0.073399805 -0.013385607 0)
(0.085357484 -0.019758436 0)
(0.10473942 -0.027435635 0)
(0.1258321 -0.034923049 0)
(0.16165913 -0.040690601 0)
(0.039372026 -0.0015769864 0)
(0.040607239 -0.0020210601 0)
(0.042296506 -0.0019534473 0)
(0.043602837 -0.0016990765 0)
(0.044755341 -0.0014052634 0)
(0.045635953 -0.001107694 0)
(0.046315213 -0.00086721658 0)
(0.046840643 -0.00068763808 0)
(0.047258763 -0.00057104819 0)
(0.047615694 -0.00051774195 0)
(0.047952905 -0.0005270963 0)
(0.048317491 -0.00060295318 0)
(0.04874936 -0.00075810199 0)
(0.049311753 -0.0010202333 0)
(0.050086163 -0.001433084 0)
(0.051176874 -0.0020557138 0)
(0.05274061 -0.00301588 0)
(0.055040202 -0.004533384 0)
(0.05846961 -0.0069011094 0)
(0.063576594 -0.010624709 0)
(0.071520352 -0.015886632 0)
(0.082173463 -0.023403125 0)
(0.099697319 -0.032395516 0)
(0.11749695 -0.041403767 0)
(0.15107743 -0.048194653 0)
(0.039396452 -0.0018802088 0)
(0.040656529 -0.0024051902 0)
(0.042380528 -0.00232095 0)
(0.043701481 -0.0020108736 0)
(0.044849733 -0.0016571722 0)
(0.045719084 -0.0013014499 0)
(0.046380543 -0.0010156656 0)
(0.04688895 -0.00080371417 0)
(0.047290428 -0.00066600709 0)
(0.047631584 -0.00060257442 0)
(0.047950217 -0.00061258053 0)
(0.048295515 -0.0006998401 0)
(0.04870133 -0.00087899543 0)
(0.049228907 -0.0011822046 0)
(0.049953986 -0.0016590359 0)
(0.0509705 -0.002376899 0)
(0.052421796 -0.0034810049 0)
(0.054541193 -0.0052211111 0)
(0.057674694 -0.007923705 0)
(0.06227172 -0.012160223 0)
(0.069348175 -0.018106978 0)
(0.078462743 -0.026611718 0)
(0.093795196 -0.036635311 0)
(0.10739404 -0.047014134 0)
(0.13894376 -0.054891171 0)
(0.039429929 -0.0021940564 0)
(0.04071915 -0.0027972694 0)
(0.042484565 -0.002695498 0)
(0.043822933 -0.0023238187 0)
(0.044965092 -0.0019069768 0)
(0.045820238 -0.0014911578 0)
(0.046461108 -0.0011594291 0)
(0.046949163 -0.00091516408 0)
(0.047331094 -0.0007565387 0)
(0.047654063 -0.00068277486 0)
(0.047950992 -0.00069291914 0)
(0.048273993 -0.0007907069 0)
(0.048650674 -0.00099168915 0)
(0.04913851 -0.0013328308 0)
(0.049807439 -0.0018684163 0)
(0.050739916 -0.0026731116 0)
(0.052065083 -0.0039072214 0)
(0.053982936 -0.0058457683 0)
(0.05678712 -0.0088397146 0)
(0.060821072 -0.013516541 0)
(0.066926986 -0.020008343 0)
(0.074292578 -0.029318896 0)
(0.087126536 -0.040039628 0)
(0.096155767 -0.051717078 0)
(0.12548258 -0.059621703 0)
(0.039475218 -0.0025215937 0)
(0.040797286 -0.0031988169 0)
(0.042609997 -0.0030782562 0)
(0.043968991 -0.0026379338 0)
(0.045101999 -0.0021539738 0)
(0.045939795 -0.0016760547 0)
(0.046557303 -0.0012976594 0)
(0.047021552 -0.0010212429 0)
(0.04738125 -0.00084196556 0)
(0.04768302 -0.00075764766 0)
(0.047955939 -0.00076744091 0)
(0.048253424 -0.00087466491 0)
(0.048598179 -0.0010953382 0)
(0.049042125 -0.0014708265 0)
(0.049648985 -0.0020593576 0)
(0.050488528 -0.0029417378 0)
(0.051675148 -0.0042902011 0)
(0.053375056 -0.0064005682 0)
(0.055822749 -0.0096383713 0)
(0.059241233 -0.014665644 0)
(0.064313498 -0.021548167 0)
(0.069781304 -0.031438787 0)
(0.079878753 -0.042526196 0)
(0.083886189 -0.055583817 0)
(0.11066472 -0.062774119 0)
(0.039533893 -0.0028639986 0)
(0.040893425 -0.0036148928 0)
(0.042757615 -0.0034682254 0)
(0.044140414 -0.0029534749 0)
(0.045259798 -0.0023978354 0)
(0.046076278 -0.0018549526 0)
(0.046668415 -0.0014297648 0)
(0.047105251 -0.0011213258 0)
(0.047439999 -0.00092157879 0)
(0.047717074 -0.00082658444 0)
(0.047964882 -0.00083538765 0)
(0.048232765 -0.00095120978 0)
(0.048543719 -0.0011892176 0)
(0.048939824 -0.0015950385 0)
(0.049480415 -0.0022299952 0)
(0.050218149 -0.0031803772 0)
(0.051255185 -0.0046273659 0)
(0.05272502 -0.0068822419 0)
(0.054791971 -0.010313379 0)
(0.057564742 -0.015600133 0)
(0.061570957 -0.022745832 0)
(0.065166009 -0.032943146 0)
(0.072061355 -0.044117894 0)
(0.070357206 -0.058136467 0)
(0.091154411 -0.0630214 0)
(0.21546006 -0.0026639852 0)
(0.22599145 -0.00099169783 0)
(0.22976716 -0.00025189171 0)
(0.2302036 -5.8536578e-005 0)
(0.23062492 -2.024344e-005 0)
(0.23060428 -6.6751421e-007 0)
(0.23057487 6.8343184e-006 0)
(0.23051308 5.1292988e-006 0)
(0.23048416 2.5973796e-006 0)
(0.23047572 4.2063319e-007 0)
(0.23047976 -5.1825782e-007 0)
(0.23048389 -3.8768868e-007 0)
(0.23048511 -6.3827592e-008 0)
(0.23048475 4.5357107e-008 0)
(0.23048435 3.1922074e-008 0)
(0.23048423 6.7674724e-009 0)
(0.23048425 -2.4850362e-009 0)
(0.23048427 -1.770403e-009 0)
(0.23048428 -2.0549758e-010 0)
(0.23048428 3.0563956e-010 0)
(0.23048428 8.857979e-011 0)
(0.23048428 -1.9969559e-010 0)
(0.23048428 -3.4450223e-010 0)
(0.23048428 5.7033411e-010 0)
(0.23048427 8.7348264e-010 0)
(0.21255796 -0.0076736417 0)
(0.22179416 -0.0028898699 0)
(0.22542028 -0.00066982817 0)
(0.22572248 -0.00020766875 0)
(0.22605686 -6.4873929e-005 0)
(0.22599918 5.2056771e-006 0)
(0.22596518 1.9362568e-005 0)
(0.22590575 1.5951714e-005 0)
(0.22587877 7.142882e-006 0)
(0.22587306 6.6470554e-007 0)
(0.22587761 -1.5022553e-006 0)
(0.2258813 -1.0072784e-006 0)
(0.22588219 -1.5195192e-007 0)
(0.22588182 1.3908382e-007 0)
(0.22588146 9.4733985e-008 0)
(0.22588137 1.7492433e-008 0)
(0.2258814 -7.822489e-009 0)
(0.22588142 -4.9650571e-009 0)
(0.22588142 -2.6513923e-010 0)
(0.22588142 8.0757069e-010 0)
(0.22588142 1.9362407e-010 0)
(0.22588142 -5.8503884e-010 0)
(0.22588142 -9.9867343e-010 0)
(0.22588142 1.8415233e-009 0)
(0.22588141 2.8298938e-009 0)
(0.20663046 -0.01221998 0)
(0.21333376 -0.0045267726 0)
(0.21682366 -0.001089654 0)
(0.21668677 -0.00028924151 0)
(0.21684727 -6.5347298e-005 0)
(0.21678922 1.1510644e-005 0)
(0.21676076 3.2162233e-005 0)
(0.21670756 2.5985561e-005 0)
(0.21668829 1.0894373e-005 0)
(0.21668703 4.229744e-007 0)
(0.21669193 -2.5081573e-006 0)
(0.21669474 -1.4918908e-006 0)
(0.21669514 -1.9003901e-007 0)
(0.21669476 2.2915974e-007 0)
(0.21669449 1.4639809e-007 0)
(0.21669445 2.342499e-008 0)
(0.21669447 -1.3237867e-008 0)
(0.21669449 -7.5352736e-009 0)
(0.21669449 -1.1593318e-010 0)
(0.21669449 1.3199009e-009 0)
(0.21669449 2.9580014e-010 0)
(0.21669449 -9.3865279e-010 0)
(0.21669449 -1.4228303e-009 0)
(0.21669449 3.1929555e-009 0)
(0.21669448 4.8363496e-009 0)
(0.19738864 -0.01605537 0)
(0.20095269 -0.0058640215 0)
(0.20363212 -0.0013216508 0)
(0.20299296 -0.0002990211 0)
(0.20306746 -4.6179278e-005 0)
(0.20301366 1.911826e-005 0)
(0.20298508 4.4706665e-005 0)
(0.20294702 3.3335141e-005 0)
(0.20294005 1.2828423e-005 0)
(0.2029433 -3.2820488e-007 0)
(0.20294761 -3.4018228e-006 0)
(0.20294895 -1.7991568e-006 0)
(0.20294879 -1.6124925e-007 0)
(0.20294842 3.0388455e-007 0)
(0.2029483 1.7342082e-007 0)
(0.20294831 2.1477191e-008 0)
(0.20294834 -1.8214476e-008 0)
(0.20294835 -8.8947694e-009 0)
(0.20294834 3.5250216e-010 0)
(0.20294834 1.7530357e-009 0)
(0.20294834 3.6079084e-010 0)
(0.20294834 -1.2837335e-009 0)
(0.20294834 -1.8880582e-009 0)
(0.20294834 4.4392002e-009 0)
(0.20294834 6.4928183e-009 0)
(0.18466088 -0.018885744 0)
(0.18441008 -0.0067380434 0)
(0.1854495 -0.0012698987 0)
(0.18469525 -0.00026724764 0)
(0.18476137 -4.142702e-005 0)
(0.18467322 2.4585913e-005 0)
(0.18465746 5.2906297e-005 0)
(0.1846451 3.6132916e-005 0)
(0.18465257 1.2333961e-005 0)
(0.18465862 -1.5025333e-006 0)
(0.18466084 -3.9015798e-006 0)
(0.1846603 -1.8162181e-006 0)
(0.18465965 -6.2794114e-008 0)
(0.18465943 3.4901566e-007 0)
(0.18465948 1.7329978e-007 0)
(0.18465954 1.3277477e-008 0)
(0.18465956 -2.1313935e-008 0)
(0.18465955 -8.6942275e-009 0)
(0.18465955 9.6086329e-010 0)
(0.18465955 1.9343622e-009 0)
(0.18465955 3.5113457e-010 0)
(0.18465955 -1.5277232e-009 0)
(0.18465955 -2.3768574e-009 0)
(0.18465955 5.2611709e-009 0)
(0.18465955 7.5002803e-009 0)
(0.16868553 -0.020672918 0)
(0.16262943 -0.006665662 0)
(0.1625942 -0.0011050277 0)
(0.16181694 -0.00022808844 0)
(0.16186619 -1.7272497e-005 0)
(0.16176339 3.4010464e-005 0)
(0.16178667 5.4616669e-005 0)
(0.16180611 3.3309483e-005 0)
(0.16182597 9.8127886e-006 0)
(0.16183195 -2.5070481e-006 0)
(0.16183091 -3.794919e-006 0)
(0.16182858 -1.5159444e-006 0)
(0.16182771 5.8694798e-008 0)
(0.16182776 3.4286276e-007 0)
(0.16182798 1.4533008e-007 0)
(0.16182806 2.6250381e-009 0)
(0.16182805 -2.1053637e-008 0)
(0.16182804 -7.0047285e-009 0)
(0.16182804 1.4637027e-009 0)
(0.16182804 1.8203174e-009 0)
(0.16182804 2.1055633e-010 0)
(0.16182804 -1.6514274e-009 0)
(0.16182804 -2.5808455e-009 0)
(0.16182804 5.1537587e-009 0)
(0.16182804 7.536454e-009 0)
(0.14811112 -0.020703565 0)
(0.1354209 -0.0058057443 0)
(0.1352904 -0.00084014842 0)
(0.13433375 -0.00018230803 0)
(0.13438823 5.4193434e-006 0)
(0.13430195 3.5720308e-005 0)
(0.1343734 4.6201123e-005 0)
(0.1344174 2.5506108e-005 0)
(0.13444395 6.2329218e-006 0)
(0.13444685 -2.8157894e-006 0)
(0.13444258 -3.0213499e-006 0)
(0.1344392 -1.0215254e-006 0)
(0.1344385 1.4366312e-007 0)
(0.13443885 2.801201e-007 0)
(0.13443916 9.9927051e-008 0)
(0.13443922 -5.7442447e-009 0)
(0.1344392 -1.724039e-008 0)
(0.13443918 -4.4993482e-009 0)
(0.13443918 1.5841464e-009 0)
(0.13443918 1.4106263e-009 0)
(0.13443918 2.041317e-012 0)
(0.13443918 -1.5511067e-009 0)
(0.13443918 -2.4678273e-009 0)
(0.13443918 4.0766925e-009 0)
(0.1344392 6.4322829e-009 0)
(0.12080132 -0.018073704 0)
(0.1032392 -0.0043266124 0)
(0.10342393 -0.00052629902 0)
(0.10222154 -0.00011611036 0)
(0.10236699 2.1258899e-005 0)
(0.10230884 2.7736181e-005 0)
(0.1024149 3.0154057e-005 0)
(0.10246518 1.4882107e-005 0)
(0.10249118 2.8746842e-006 0)
(0.10248969 -2.2525695e-006 0)
(0.10248381 -1.8385781e-006 0)
(0.10248048 -5.1583059e-007 0)
(0.1024802 1.5131369e-007 0)
(0.10248072 1.7779585e-007 0)
(0.10248103 5.2509775e-008 0)
(0.10248106 -8.333591e-009 0)
(0.10248103 -1.0935584e-008 0)
(0.10248101 -2.124419e-009 0)
(0.10248101 1.2477395e-009 0)
(0.10248102 8.5202645e-010 0)
(0.10248102 -1.6336799e-010 0)
(0.10248102 -1.218703e-009 0)
(0.10248101 -2.1550406e-009 0)
(0.10248101 2.2084182e-009 0)
(0.10248103 4.1369341e-009 0)
(0.086257434 -0.012983909 0)
(0.066258242 -0.002454324 0)
(0.066845871 -0.00019168528 0)
(0.065605834 -4.997614e-005 0)
(0.065871671 2.5905705e-005 0)
(0.065829073 1.2966896e-005 0)
(0.06593478 1.2915474e-005 0)
(0.06597055 5.0162649e-006 0)
(0.065989434 6.2809925e-007 0)
(0.065985106 -1.1442241e-006 0)
(0.065980145 -6.9364757e-007 0)
(0.065977844 -1.3985162e-007 0)
(0.065977942 9.1332328e-008 0)
(0.065978428 7.1696632e-008 0)
(0.065978644 1.5956978e-008 0)
(0.065978646 -5.510634e-009 0)
(0.065978614 -4.3291827e-009 0)
(0.065978602 -4.9623972e-010 0)
(0.065978604 6.3108116e-010 0)
(0.065978607 3.2717116e-010 0)
(0.065978608 -1.6774216e-010 0)
(0.065978607 -7.0090999e-010 0)
(0.065978605 -1.5024834e-009 0)
(0.065978598 1.7668354e-010 0)
(0.065978617 1.4941639e-009 0)
(0.040168818 -0.0068279289 0)
(0.024247029 -0.00013432332 0)
(0.025634617 -1.9498511e-006 0)
(0.024694755 6.6493703e-006 0)
(0.024997501 -3.533713e-006 0)
(0.024933764 -1.1449327e-006 0)
(0.024995907 -7.4253297e-007 0)
(0.02500243 7.7578217e-008 0)
(0.025010671 2.6400874e-008 0)
(0.025007234 1.2719886e-008 0)
(0.02500545 5.7973799e-009 0)
(0.025004656 6.3003865e-009 0)
(0.025004841 4.4803632e-009 0)
(0.025005053 1.5234808e-009 0)
(0.025005128 -4.1713415e-010 0)
(0.025005119 -4.1505623e-010 0)
(0.025005105 -1.1090977e-010 0)
(0.025005101 2.7859387e-011 0)
(0.025005103 7.159792e-012 0)
(0.025005104 -3.8855468e-011 0)
(0.025005104 -8.3799235e-011 0)
(0.025005103 -1.0262956e-010 0)
(0.025005102 -2.3171743e-010 0)
(0.025005095 1.5506161e-010 0)
(0.025005103 5.3040543e-010 0)
(0.039676217 -0.0035716333 0)
(0.041124725 -0.0044963352 0)
(0.043097553 -0.0042540677 0)
(0.044530024 -0.0035883842 0)
(0.045611412 -0.0028768715 0)
(0.046377542 -0.0022016944 0)
(0.04691373 -0.0016808006 0)
(0.047287376 -0.0013083909 0)
(0.047566791 -0.001068316 0)
(0.04778892 -0.00095210729 0)
(0.047983959 -0.00095800279 0)
(0.048187043 -0.0010880738 0)
(0.048424088 -0.0013560424 0)
(0.048717292 -0.0018147046 0)
(0.049117088 -0.0025294804 0)
(0.049641341 -0.0035938383 0)
(0.050360411 -0.0052034393 0)
(0.051348166 -0.0076879784 0)
(0.052631949 -0.011405039 0)
(0.054135738 -0.01701783 0)
(0.056017321 -0.024411724 0)
(0.056356899 -0.034493767 0)
(0.056727234 -0.044876316 0)
(0.043394939 -0.0572769 0)
(0.036326756 -0.04667281 0)
(0.03996987 -0.0048196911 0)
(0.041638921 -0.0060321224 0)
(0.043805559 -0.0054926317 0)
(0.04525916 -0.0045358616 0)
(0.04624622 -0.0035393529 0)
(0.046894011 -0.0026536738 0)
(0.047301292 -0.0019818245 0)
(0.047550741 -0.0015159834 0)
(0.047722266 -0.001220124 0)
(0.047843852 -0.0010758275 0)
(0.047943507 -0.0010714943 0)
(0.048037129 -0.001208709 0)
(0.048138961 -0.0015030021 0)
(0.048258129 -0.0019985148 0)
(0.048411286 -0.0027700782 0)
(0.048604828 -0.0039079336 0)
(0.048807808 -0.0055975513 0)
(0.049039618 -0.0081681367 0)
(0.049207834 -0.011911575 0)
(0.04897778 -0.017293765 0)
(0.048267946 -0.024049379 0)
(0.045413312 -0.031896794 0)
(0.040488405 -0.037952665 0)
(0.026124162 -0.040674485 0)
(0.010862052 -0.020870537 0)
(0.040381402 -0.0064137997 0)
(0.042285358 -0.0077659036 0)
(0.044578582 -0.0067892504 0)
(0.04593868 -0.0054274424 0)
(0.046746796 -0.0041036287 0)
(0.047209816 -0.0029905521 0)
(0.047439511 -0.0021726291 0)
(0.047539301 -0.0016270356 0)
(0.047582829 -0.0012876061 0)
(0.047592109 -0.0011188761 0)
(0.047586 -0.0011020856 0)
(0.047560232 -0.0012344097 0)
(0.047525534 -0.0015277237 0)
(0.047466577 -0.0020182428 0)
(0.047365191 -0.0027799063 0)
(0.047224762 -0.0039064224 0)
(0.046956066 -0.0055329075 0)
(0.046486397 -0.007962458 0)
(0.045687952 -0.011424106 0)
(0.044095863 -0.0161952 0)
(0.041418644 -0.021906965 0)
(0.036458778 -0.027624517 0)
(0.028909672 -0.031068258 0)
(0.01602435 -0.030289244 0)
(0.0025528424 -0.014423881 0)
(0.040901998 -0.0084336202 0)
(0.04292022 -0.009633239 0)
(0.045100199 -0.0080278252 0)
(0.046158916 -0.0061664124 0)
(0.046644927 -0.0044965586 0)
(0.046837831 -0.0031674815 0)
(0.046836709 -0.0022280741 0)
(0.046771088 -0.0016248124 0)
(0.046672894 -0.0012600073 0)
(0.046569132 -0.0010775823 0)
(0.046453052 -0.0010485786 0)
(0.046318454 -0.0011627244 0)
(0.046150189 -0.0014308633 0)
(0.045927389 -0.0018878285 0)
(0.045606732 -0.0025776556 0)
(0.045153317 -0.0036021936 0)
(0.04449251 -0.0050643028 0)
(0.043451746 -0.0071864297 0)
(0.041892628 -0.010160271 0)
(0.039343774 -0.014061744 0)
(0.035463675 -0.018491268 0)
(0.029542643 -0.022360999 0)
(0.021479622 -0.023712423 0)
(0.011040434 -0.02092587 0)
(0.00042770878 -0.0090186037 0)
(0.041429076 -0.010879275 0)
(0.043291226 -0.011415738 0)
(0.044897536 -0.0089790583 0)
(0.045360373 -0.006587531 0)
(0.045341409 -0.0046171703 0)
(0.045169296 -0.003132414 0)
(0.044903813 -0.0021249256 0)
(0.044657811 -0.0015007268 0)
(0.044425838 -0.0011375154 0)
(0.044215937 -0.00095474056 0)
(0.044008318 -0.00091630318 0)
(0.043782097 -0.0010074275 0)
(0.043508054 -0.0012313986 0)
(0.043152358 -0.0016173101 0)
(0.042670673 -0.0022048744 0)
(0.04198023 -0.0030574674 0)
(0.041020665 -0.0042757353 0)
(0.039593324 -0.0059968886 0)
(0.03752766 -0.0083668764 0)
(0.034437136 -0.011358889 0)
(0.029975635 -0.014576548 0)
(0.023842417 -0.017008369 0)
(0.016199998 -0.017234265 0)
(0.0078716389 -0.014028346 0)
(-5.2540687e-005 -0.0057393625 0)
(0.04170711 -0.013590094 0)
(0.043050526 -0.012720928 0)
(0.043429411 -0.009328101 0)
(0.042984171 -0.0064908671 0)
(0.042299247 -0.0043543584 0)
(0.041679246 -0.0028332503 0)
(0.041154728 -0.001853224 0)
(0.040734432 -0.0012623184 0)
(0.040398543 -0.00093048964 0)
(0.040107534 -0.0007652014 0)
(0.039839852 -0.00072412045 0)
(0.039552946 -0.00078802701 0)
(0.039217998 -0.00096075114 0)
(0.038782611 -0.0012550842 0)
(0.038205678 -0.0017084454 0)
(0.037392033 -0.0023595514 0)
(0.036267176 -0.0032828539 0)
(0.03466018 -0.0045673656 0)
(0.03237909 -0.0062990285 0)
(0.029133296 -0.008416491 0)
(0.024650762 -0.010575435 0)
(0.018878241 -0.012004268 0)
(0.012117311 -0.011661451 0)
(0.0056588518 -0.008802381 0)
(-0.00016229949 -0.0033035394 0)
(0.04141113 -0.016275577 0)
(0.04168104 -0.012949576 0)
(0.040140501 -0.0087538418 0)
(0.038557338 -0.0056998609 0)
(0.0371566 -0.0036410432 0)
(0.036102643 -0.0022672573 0)
(0.035367119 -0.0014233758 0)
(0.034831771 -0.00093409765 0)
(0.034435471 -0.00066731727 0)
(0.034112235 -0.00053717773 0)
(0.033822583 -0.00050080993 0)
(0.03352302 -0.00054107535 0)
(0.033174747 -0.00065679168 0)
(0.032731105 -0.00085803142 0)
(0.032139803 -0.0011646347 0)
(0.031323109 -0.0016068627 0)
(0.030193218 -0.0022289145 0)
(0.028613044 -0.0030858735 0)
(0.026404711 -0.0042204477 0)
(0.023357947 -0.005574805 0)
(0.019297543 -0.0068821828 0)
(0.01428546 -0.0076346036 0)
(0.008710096 -0.0071319469 0)
(0.0038733025 -0.0049623914 0)
(-0.0001927698 -0.0015988778 0)
(0.039768067 -0.018143249 0)
(0.038365928 -0.011504499 0)
(0.034242664 -0.0070165619 0)
(0.031646875 -0.0041979479 0)
(0.029716504 -0.0025180528 0)
(0.028419339 -0.0014950643 0)
(0.027595417 -0.0008980091 0)
(0.027044965 -0.00056410377 0)
(0.026659905 -0.00038944147 0)
(0.026361277 -0.00030588035 0)
(0.026099961 -0.00028122399 0)
(0.025835789 -0.00030191264 0)
(0.025530039 -0.00036561176 0)
(0.025144292 -0.00047893388 0)
(0.024629014 -0.00065052326 0)
(0.023922596 -0.00089848525 0)
(0.022946446 -0.0012467619 0)
(0.021591162 -0.0017236642 0)
(0.019716882 -0.0023482139 0)
(0.017171411 -0.0030793253 0)
(0.013871024 -0.0037566545 0)
(0.0099211492 -0.004083739 0)
(0.0057080977 -0.0036653627 0)
(0.0023417921 -0.0022765521 0)
(-0.00020204631 -0.00049670364 0)
(0.034588488 -0.016388136 0)
(0.031716034 -0.0077216841 0)
(0.024759583 -0.0043291953 0)
(0.021914319 -0.0023248123 0)
(0.019902345 -0.0013158855 0)
(0.018709596 -0.00074100208 0)
(0.017997684 -0.00042438886 0)
(0.017560194 -0.0002543622 0)
(0.017270223 -0.00016853996 0)
(0.017054491 -0.00012842678 0)
(0.016870116 -0.0001162278 0)
(0.016686035 -0.00012365371 0)
(0.016474373 -0.0001498896 0)
(0.016206483 -0.00019707956 0)
(0.015847826 -0.00026829302 0)
(0.015355444 -0.00037147475 0)
(0.014673297 -0.00051569581 0)
(0.013726284 -0.0007124024 0)
(0.012419519 -0.00096945907 0)
(0.010654259 -0.0012674656 0)
(0.0083864406 -0.0015346058 0)
(0.005739287 -0.001630908 0)
(0.0029976656 -0.0013940739 0)
(0.0010014587 -0.00070419746 0)
(-0.00022063216 1.9869632e-005 0)
(0.020545383 -0.012034577 0)
(0.017406101 -0.0023112746 0)
(0.010646065 -0.00038151509 0)
(0.0092376379 -0.0001548111 0)
(0.0078730882 -4.952789e-005 0)
(0.007221037 -1.7905415e-005 0)
(0.0068382739 -4.6266106e-006 0)
(0.0066223079 1.7969083e-006 0)
(0.0064883869 4.4626629e-006 0)
(0.0063950744 5.4063574e-006 0)
(0.0063183407 5.7312555e-006 0)
(0.0062430237 6.139755e-006 0)
(0.0061567866 6.9884557e-006 0)
(0.0060466473 8.2551653e-006 0)
(0.0058981685 1.0371121e-005 0)
(0.0056931861 1.3215527e-005 0)
(0.0054078746 1.7036972e-005 0)
(0.0050113867 2.2318256e-005 0)
(0.0044642019 2.8985675e-005 0)
(0.0037283184 3.7780946e-005 0)
(0.0027876639 4.6943779e-005 0)
(0.0017184846 6.3236302e-005 0)
(0.00064168012 7.2710891e-005 0)
(-1.1900503e-005 0.00011698339 0)
(-0.00018969899 0.00013172265 0)
)
;

boundaryField
{
    inlet
    {
        type            fixedValue;
        value           uniform (0.03876 0 0);
    }
    walls
    {
        type            fixedValue;
        value           uniform (0 0 0);
    }
    outlet
    {
        type            zeroGradient;
    }
    centreline
    {
        type            symmetryPlane;
    }
    frontAndBack
    {
        type            empty;
    }
}


// ************************************************************************* //
