/*--------------------------------*- C++ -*----------------------------------*\
| =========                 |                                                 |
| \\      /  F ield         | OpenFOAM: The Open Source CFD Toolbox           |
|  \\    /   O peration     | Version:  5.x                                   |
|   \\  /    A nd           | Web:      www.OpenFOAM.org                      |
|    \\/     M anipulation  |                                                 |
\*---------------------------------------------------------------------------*/
/*   Windows 32 and 64 bit porting by blueCAPE: http://www.bluecape.com.pt   *\
|  Based on Windows porting (2.0.x v4) by Symscape: http://www.symscape.com   |
\*---------------------------------------------------------------------------*/
FoamFile
{
    version     2.0;
    format      ascii;
    class       volVectorField;
    location    "0.2";
    object      U_0;
}
// * * * * * * * * * * * * * * * * * * * * * * * * * * * * * * * * * * * * * //

dimensions      [0 1 -1 0 0 0 0];

internalField   nonuniform List<vector> 
750
(
(0.03932232 -0.00014192888 0)
(0.040502681 -0.00017773575 0)
(0.04210954 -0.00017698142 0)
(0.043378272 -0.0001529305 0)
(0.044539009 -0.00012879398 0)
(0.045444228 -0.00010182867 0)
(0.046165069 -8.0510973e-005 0)
(0.046732232 -6.4380886e-005 0)
(0.047191242 -5.3670867e-005 0)
(0.0475885 -4.8884219e-005 0)
(0.047971212 -4.9986471e-005 0)
(0.048386068 -5.7401409e-005 0)
(0.048886137 -7.2352273e-005 0)
(0.049538948 -9.7544422e-005 0)
(0.050441936 -0.00013734121 0)
(0.051727128 -0.00019764579 0)
(0.053589141 -0.00029131401 0)
(0.056369302 -0.00044051771 0)
(0.060602647 -0.00067548685 0)
(0.067094778 -0.0010504009 0)
(0.077374155 -0.0015742913 0)
(0.09192074 -0.0023558535 0)
(0.11523991 -0.0032394716 0)
(0.14254939 -0.0041601231 0)
(0.18275024 -0.0046968217 0)
(0.039326019 -0.0004241273 0)
(0.040508464 -0.00053843537 0)
(0.042120373 -0.00052865678 0)
(0.043391969 -0.00046029578 0)
(0.044551718 -0.00038538914 0)
(0.045455311 -0.00030549863 0)
(0.046173857 -0.00024113581 0)
(0.046738178 -0.00019234939 0)
(0.047194142 -0.0001604563 0)
(0.047588809 -0.00014613565 0)
(0.04796855 -0.00014933712 0)
(0.048379934 -0.00017143041 0)
(0.048875262 -0.00021606968 0)
(0.049522041 -0.0002911694 0)
(0.050416239 -0.00040990609 0)
(0.05168793 -0.0005897167 0)
(0.053529664 -0.00086874025 0)
(0.056276988 -0.0013129284 0)
(0.060453252 -0.0020116725 0)
(0.0668511 -0.0031229257 0)
(0.076961733 -0.0046897043 0)
(0.091262126 -0.0069775736 0)
(0.11414879 -0.0096703467 0)
(0.14085914 -0.012326745 0)
(0.18068621 -0.014088288 0)
(0.039332178 -0.00070641767 0)
(0.040520764 -0.00090326212 0)
(0.042143007 -0.00087987652 0)
(0.04341966 -0.00076873637 0)
(0.044578083 -0.00064121862 0)
(0.04547844 -0.00050859769 0)
(0.046191816 -0.00040085622 0)
(0.046750472 -0.00031925577 0)
(0.047200812 -0.00026627783 0)
(0.04759015 -0.00024241145 0)
(0.047963842 -0.00024756569 0)
(0.04836836 -0.00028403847 0)
(0.048854318 -0.00035789437 0)
(0.049488882 -0.00048219725 0)
(0.050365519 -0.00067858485 0)
(0.051610414 -0.00097588439 0)
(0.053411164 -0.0014366855 0)
(0.056091943 -0.0021693644 0)
(0.060154829 -0.0033219078 0)
(0.066362073 -0.0051481859 0)
(0.076144959 -0.0077375359 0)
(0.08992498 -0.011469389 0)
(0.11201368 -0.015947393 0)
(0.13752272 -0.020269719 0)
(0.17649735 -0.023394957 0)
(0.039341105 -0.00099149445 0)
(0.040540347 -0.0012710142 0)
(0.0421785 -0.0012334099 0)
(0.043462354 -0.0010776942 0)
(0.044619152 -0.00089648329 0)
(0.045514597 -0.00071024829 0)
(0.046219648 -0.00055880949 0)
(0.046769868 -0.00044450642 0)
(0.047212124 -0.00037039728 0)
(0.047593293 -0.0003368866 0)
(0.047957869 -0.00034377317 0)
(0.048352223 -0.00039410619 0)
(0.048824358 -0.00049635681 0)
(0.049440609 -0.00066854282 0)
(0.050291118 -0.00094033008 0)
(0.05149655 -0.0013515155 0)
(0.053236476 -0.0019879016 0)
(0.055818998 -0.0029981403 0)
(0.059717311 -0.00458476 0)
(0.065640862 -0.0070927111 0)
(0.074943629 -0.010653343 0)
(0.087948551 -0.015757557 0)
(0.10886904 -0.021909589 0)
(0.13247966 -0.027829928 0)
(0.17013901 -0.032381706 0)
(0.039353838 -0.0012808305 0)
(0.040568273 -0.0016426531 0)
(0.042228222 -0.0015904887 0)
(0.043521586 -0.0013873052 0)
(0.044676219 -0.001150906 0)
(0.045564932 -0.00090986907 0)
(0.046258441 -0.00071429451 0)
(0.046797495 -0.00056739508 0)
(0.047229016 -0.00047212622 0)
(0.047599259 -0.00042883894 0)
(0.047951673 -0.00043717597 0)
(0.048332669 -0.00050069414 0)
(0.048786697 -0.00063016808 0)
(0.049378764 -0.00084841889 0)
(0.050195055 -0.0011926305 0)
(0.051348968 -0.0017126396 0)
(0.053009401 -0.0025160446 0)
(0.055464163 -0.0037888792 0)
(0.059149583 -0.005782688 0)
(0.064701835 -0.0089267892 0)
(0.073390768 -0.013386056 0)
(0.085349386 -0.019760804 0)
(0.10473401 -0.027439462 0)
(0.12582973 -0.034926346 0)
(0.16165889 -0.040691063 0)
(0.039371585 -0.0015759809 0)
(0.040605976 -0.0020197102 0)
(0.042294008 -0.0019520761 0)
(0.043599379 -0.0016978014 0)
(0.044750969 -0.0014041625 0)
(0.045630888 -0.0011068286 0)
(0.046309643 -0.00086658773 0)
(0.046834735 -0.00068722061 0)
(0.047252644 -0.00057078458 0)
(0.047609435 -0.00051757293 0)
(0.04794657 -0.00052699078 0)
(0.048311112 -0.00060289542 0)
(0.048742969 -0.00075805681 0)
(0.049305333 -0.0010201732 0)
(0.050079714 -0.0014329776 0)
(0.051170352 -0.0020554923 0)
(0.052733912 -0.0030153955 0)
(0.055033141 -0.004532481 0)
(0.058461887 -0.0068998877 0)
(0.063568113 -0.010623819 0)
(0.071511596 -0.015887154 0)
(0.08216553 -0.023405909 0)
(0.099691714 -0.032399984 0)
(0.11749385 -0.041407626 0)
(0.15107668 -0.048195485 0)
(0.039395961 -0.0018789891 0)
(0.040655169 -0.0024035644 0)
(0.042377881 -0.0023193086 0)
(0.043697854 -0.0020093592 0)
(0.044845193 -0.0016558728 0)
(0.045713861 -0.0013004358 0)
(0.046374837 -0.0010149344 0)
(0.046882926 -0.00080322973 0)
(0.047284205 -0.00066570078 0)
(0.04762523 -0.00060237967 0)
(0.047943801 -0.00061246059 0)
(0.048289057 -0.00069977621 0)
(0.04869487 -0.00087894673 0)
(0.049222427 -0.0011821377 0)
(0.049947486 -0.0016589179 0)
(0.050963944 -0.0023766502 0)
(0.052415096 -0.0034804574 0)
(0.054534189 -0.0052200881 0)
(0.057667121 -0.0079223186 0)
(0.062263508 -0.0121592 0)
(0.069339788 -0.018107566 0)
(0.078455082 -0.026614857 0)
(0.093789473 -0.03664037 0)
(0.10739064 -0.047018628 0)
(0.13894293 -0.05489258 0)
(0.039429371 -0.0021926019 0)
(0.040717674 -0.0027953548 0)
(0.042481748 -0.002693577 0)
(0.04381912 -0.0023220631 0)
(0.04496037 -0.0019054806 0)
(0.045814849 -0.0014899995 0)
(0.046455258 -0.0011586006 0)
(0.046943016 -0.00091461693 0)
(0.047324762 -0.00075619284 0)
(0.047647613 -0.00068255765 0)
(0.047944496 -0.00069278727 0)
(0.048267458 -0.00079063828 0)
(0.048644147 -0.00099163882 0)
(0.049131972 -0.0013327602 0)
(0.049800893 -0.0018682903 0)
(0.050733335 -0.0026728419 0)
(0.052058393 -0.0039066236 0)
(0.053976009 -0.005844647 0)
(0.056779728 -0.0088381944 0)
(0.06081322 -0.013515441 0)
(0.066919049 -0.020009001 0)
(0.074285324 -0.029322345 0)
(0.087120925 -0.040045185 0)
(0.09615239 -0.051722241 0)
(0.12548183 -0.059623711 0)
(0.039474574 -0.0025198802 0)
(0.040795682 -0.0031966007 0)
(0.042607004 -0.0030760477 0)
(0.043964989 -0.0026359362 0)
(0.0450971 -0.0021522838 0)
(0.045934244 -0.0016747575 0)
(0.046551319 -0.0012967392 0)
(0.04701529 -0.0010206373 0)
(0.04737482 -0.00084158421 0)
(0.047676491 -0.00075741233 0)
(0.047949382 -0.00076729903 0)
(0.04824683 -0.00087459286 0)
(0.048591601 -0.0010952897 0)
(0.049035549 -0.0014707556 0)
(0.049642416 -0.0020592268 0)
(0.050481947 -0.0029414543 0)
(0.051668497 -0.004289567 0)
(0.053368238 -0.0063993739 0)
(0.055815591 -0.0096367542 0)
(0.059233799 -0.01466451 0)
(0.064306062 -0.021548916 0)
(0.069774569 -0.031442507 0)
(0.079873397 -0.042532209 0)
(0.08388274 -0.055589521 0)
(0.11066386 -0.062776589 0)
(0.039533148 -0.0028619987 0)
(0.040891687 -0.0036123608 0)
(0.042754456 -0.0034657245 0)
(0.044136241 -0.0029512355 0)
(0.045254745 -0.0023959548 0)
(0.046070594 -0.0018535216 0)
(0.046662328 -0.0014287599 0)
(0.047098905 -0.0011206662 0)
(0.047433508 -0.00092116669 0)
(0.047710503 -0.000826335 0)
(0.047958296 -0.00083523936 0)
(0.048226155 -0.00095113634 0)
(0.048537129 -0.001189172 0)
(0.048933248 -0.0015949706 0)
(0.049473865 -0.0022298663 0)
(0.050211611 -0.0031800882 0)
(0.051248612 -0.0046267078 0)
(0.052718358 -0.0068809955 0)
(0.054785096 -0.010311702 0)
(0.05755774 -0.015598964 0)
(0.061564093 -0.022746674 0)
(0.065159917 -0.032947112 0)
(0.072056507 -0.044124292 0)
(0.070353969 -0.058142736 0)
(0.091152982 -0.063024472 0)
(0.215459 -0.0026635607 0)
(0.22598601 -0.00099121486 0)
(0.22975859 -0.00025154752 0)
(0.23019251 -5.8223207e-005 0)
(0.2306113 -1.9930637e-005 0)
(0.23058806 -4.1683347e-007 0)
(0.23055682 7.012397e-006 0)
(0.23049439 5.1697987e-006 0)
(0.23046549 2.5855137e-006 0)
(0.23045727 3.9773435e-007 0)
(0.23046142 -5.2744357e-007 0)
(0.23046558 -3.8792719e-007 0)
(0.23046678 -6.1846522e-008 0)
(0.2304664 4.5952593e-008 0)
(0.230466 3.1859022e-008 0)
(0.23046589 6.6021338e-009 0)
(0.23046591 -2.5408332e-009 0)
(0.23046593 -1.7582436e-009 0)
(0.23046594 -1.9151931e-010 0)
(0.23046593 3.0867073e-010 0)
(0.23046593 8.6998807e-011 0)
(0.23046593 -2.0109311e-010 0)
(0.23046593 -3.4761382e-010 0)
(0.23046594 5.6442678e-010 0)
(0.23046592 8.6996426e-010 0)
(0.21255703 -0.007672431 0)
(0.22178941 -0.0028884743 0)
(0.22541243 -0.0006687688 0)
(0.22571206 -0.00020672749 0)
(0.2260439 -6.3888999e-005 0)
(0.22598375 5.9871118e-006 0)
(0.22594819 1.9816037e-005 0)
(0.22588827 1.6066217e-005 0)
(0.22586138 7.0940218e-006 0)
(0.22585589 6.0220904e-007 0)
(0.22586054 -1.5262917e-006 0)
(0.22586423 -1.0059211e-006 0)
(0.22586511 -1.4653715e-007 0)
(0.22586473 1.4091977e-007 0)
(0.22586437 9.4413432e-008 0)
(0.22586428 1.6978981e-008 0)
(0.22586431 -7.9670042e-009 0)
(0.22586433 -4.925199e-009 0)
(0.22586433 -2.2573867e-010 0)
(0.22586433 8.1483848e-010 0)
(0.22586433 1.9083286e-010 0)
(0.22586433 -5.8957576e-010 0)
(0.22586433 -1.0109616e-009 0)
(0.22586433 1.8184118e-009 0)
(0.22586432 2.8118807e-009 0)
(0.20662983 -0.012218118 0)
(0.21333031 -0.0045245563 0)
(0.21681733 -0.0010878532 0)
(0.21667807 -0.00028767877 0)
(0.21683615 -6.3776744e-005 0)
(0.21677604 1.2789866e-005 0)
(0.2167465 3.2829309e-005 0)
(0.21669309 2.6134611e-005 0)
(0.21667402 1.0799011e-005 0)
(0.21667295 3.2244879e-007 0)
(0.21667792 -2.5427552e-006 0)
(0.21668072 -1.4875128e-006 0)
(0.21668111 -1.8143328e-007 0)
(0.21668071 2.3199722e-007 0)
(0.21668045 1.4574895e-007 0)
(0.21668041 2.2595402e-008 0)
(0.21668043 -1.3438963e-008 0)
(0.21668045 -7.4656511e-009 0)
(0.21668045 -5.4536496e-011 0)
(0.21668045 1.3302003e-009 0)
(0.21668045 2.9151311e-010 0)
(0.21668045 -9.4578692e-010 0)
(0.21668045 -1.4440761e-009 0)
(0.21668045 3.1431075e-009 0)
(0.21668044 4.7943058e-009 0)
(0.19738824 -0.016053062 0)
(0.20095096 -0.0058612913 0)
(0.20362839 -0.0013192579 0)
(0.2029873 -0.00029686486 0)
(0.20305995 -4.4144468e-005 0)
(0.2030049 2.0733148e-005 0)
(0.20297592 4.5489023e-005 0)
(0.20293799 3.3456195e-005 0)
(0.20293127 1.2681263e-005 0)
(0.20293465 -4.584809e-007 0)
(0.20293897 -3.4400778e-006 0)
(0.20294029 -1.7911263e-006 0)
(0.20294012 -1.4988287e-007 0)
(0.20293975 3.0712743e-007 0)
(0.20293963 1.7240883e-007 0)
(0.20293964 2.0442991e-008 0)
(0.20293967 -1.842734e-008 0)
(0.20293968 -8.79447e-009 0)
(0.20293967 4.2756806e-010 0)
(0.20293967 1.7647127e-009 0)
(0.20293967 3.5641887e-010 0)
(0.20293967 -1.2920238e-009 0)
(0.20293968 -1.91945e-009 0)
(0.20293968 4.3520668e-009 0)
(0.20293967 6.4173958e-009 0)
(0.18466092 -0.018883294 0)
(0.18441012 -0.006735025 0)
(0.1854491 -0.0012671634 0)
(0.1846939 -0.00026471994 0)
(0.18475935 -3.9029043e-005 0)
(0.18467115 2.6299835e-005 0)
(0.18465575 5.3654538e-005 0)
(0.18464376 3.6185853e-005 0)
(0.18465144 1.2143941e-005 0)
(0.18465752 -1.6410148e-006 0)
(0.1846597 -3.9353821e-006 0)
(0.18465914 -1.8039835e-006 0)
(0.18465848 -5.0190415e-008 0)
(0.18465826 3.5198213e-007 0)
(0.18465831 1.7195319e-007 0)
(0.18465838 1.2188883e-008 0)
(0.18465839 -2.1490996e-008 0)
(0.18465839 -8.5709866e-009 0)
(0.18465838 1.0373106e-009 0)
(0.18465838 1.9448171e-009 0)
(0.18465838 3.4756385e-010 0)
(0.18465838 -1.5360621e-009 0)
(0.18465839 -2.4172889e-009 0)
(0.18465839 5.1358981e-009 0)
(0.18465838 7.3912422e-009 0)
(0.16868625 -0.020670683 0)
(0.16263113 -0.0066627481 0)
(0.16259722 -0.001102294 0)
(0.16182061 -0.00022554598 0)
(0.16187073 -1.4951208e-005 0)
(0.16176916 3.5545662e-005 0)
(0.16179346 5.5210545e-005 0)
(0.16181336 3.3283326e-005 0)
(0.16183328 9.6089263e-006 0)
(0.16183915 -2.6321508e-006 0)
(0.16183803 -3.8183121e-006 0)
(0.16183569 -1.501183e-006 0)
(0.16183483 7.0485018e-008 0)
(0.16183489 3.44952e-007 0)
(0.1618351 1.438465e-007 0)
(0.16183518 1.6532237e-009 0)
(0.16183518 -2.1157053e-008 0)
(0.16183516 -6.8768827e-009 0)
(0.16183516 1.5289549e-009 0)
(0.16183516 1.8276674e-009 0)
(0.16183516 2.0942728e-010 0)
(0.16183516 -1.6582849e-009 0)
(0.16183516 -2.6262815e-009 0)
(0.16183516 5.0034422e-009 0)
(0.16183517 7.4081364e-009 0)
(0.14811225 -0.020701752 0)
(0.1354241 -0.00580334 0)
(0.13529635 -0.00083789082 0)
(0.13434182 -0.00018018394 0)
(0.13439866 7.218803e-006 0)
(0.13431458 3.6860349e-005 0)
(0.13438736 4.6582924e-005 0)
(0.13443172 2.542658e-005 0)
(0.13445813 6.0569918e-006 0)
(0.13446082 -2.9086171e-006 0)
(0.13445647 -3.0326979e-006 0)
(0.13445309 -1.0075839e-006 0)
(0.13445241 1.527011e-007 0)
(0.13445276 2.8115572e-007 0)
(0.13445307 9.857742e-008 0)
(0.13445314 -6.4583347e-009 0)
(0.13445311 -1.727129e-008 0)
(0.1344531 -4.3886022e-009 0)
(0.1344531 1.6298557e-009 0)
(0.1344531 1.4148815e-009 0)
(0.1344531 2.7000526e-012 0)
(0.1344531 -1.5563262e-009 0)
(0.1344531 -2.5131082e-009 0)
(0.1344531 3.9312086e-009 0)
(0.13445311 6.3105331e-009 0)
(0.1208026 -0.018072436 0)
(0.10324325 -0.0043249513 0)
(0.10343141 -0.00052476572 0)
(0.102232 -0.00011469051 0)
(0.10238056 2.2405483e-005 0)
(0.10232485 2.8390261e-005 0)
(0.10243213 3.0329548e-005 0)
(0.10248257 1.4798421e-005 0)
(0.10250828 2.758244e-006 0)
(0.10250656 -2.3053446e-006 0)
(0.10250062 -1.8411463e-006 0)
(0.1024973 -5.0574091e-007 0)
(0.10249704 1.5658465e-007 0)
(0.10249757 1.7803042e-007 0)
(0.10249788 5.1562362e-008 0)
(0.10249791 -8.7349372e-009 0)
(0.10249788 -1.0923774e-008 0)
(0.10249786 -2.0498154e-009 0)
(0.10249786 1.2723811e-009 0)
(0.10249786 8.5374249e-010 0)
(0.10249786 -1.6155847e-010 0)
(0.10249786 -1.2221208e-009 0)
(0.10249786 -2.1924417e-009 0)
(0.10249786 2.1010659e-009 0)
(0.10249788 4.0470424e-009 0)
(0.08625848 -0.012983217 0)
(0.066262121 -0.0024534882 0)
(0.066852861 -0.00019095194 0)
(0.065615592 -4.9350863e-005 0)
(0.065884081 2.6375499e-005 0)
(0.065843341 1.3200798e-005 0)
(0.065949827 1.2952717e-005 0)
(0.065985569 4.9668645e-006 0)
(0.066004171 5.7829664e-007 0)
(0.065999662 -1.1625259e-006 0)
(0.065994667 -6.9254939e-007 0)
(0.065992388 -1.3526325e-007 0)
(0.065992504 9.3216485e-008 0)
(0.065992993 7.1573919e-008 0)
(0.065993207 1.5540783e-008 0)
(0.065993207 -5.6463304e-009 0)
(0.065993175 -4.3080429e-009 0)
(0.065993164 -4.6457171e-010 0)
(0.065993166 6.3919732e-010 0)
(0.065993169 3.2758034e-010 0)
(0.06599317 -1.6580364e-010 0)
(0.065993168 -7.0212524e-010 0)
(0.065993166 -1.5232862e-009 0)
(0.06599316 1.144681e-010 0)
(0.065993178 1.4471647e-009 0)
(0.04016906 -0.0068278368 0)
(0.024249083 -0.0001342674 0)
(0.025638352 -1.9656739e-006 0)
(0.024699843 6.5989343e-006 0)
(0.025003729 -3.5679513e-006 0)
(0.024940668 -1.1533126e-006 0)
(0.02500303 -7.4691045e-007 0)
(0.025009478 7.4969317e-008 0)
(0.025017585 2.4794113e-008 0)
(0.025014079 1.2510355e-008 0)
(0.025012289 5.9777503e-009 0)
(0.025011506 6.4629572e-009 0)
(0.025011698 4.5236447e-009 0)
(0.025011911 1.5048197e-009 0)
(0.025011985 -4.3066568e-010 0)
(0.025011975 -4.1394382e-010 0)
(0.025011961 -1.0736525e-010 0)
(0.025011957 2.9590103e-011 0)
(0.025011959 7.2944035e-012 0)
(0.02501196 -3.8740208e-011 0)
(0.02501196 -8.3642451e-011 0)
(0.025011959 -1.0341311e-010 0)
(0.025011958 -2.3683669e-010 0)
(0.025011952 1.4018663e-010 0)
(0.025011959 5.2363024e-010 0)
(0.03967525 -0.0035690086 0)
(0.041122738 -0.0044931301 0)
(0.043094121 -0.0042509831 0)
(0.044525594 -0.0035856592 0)
(0.045606152 -0.0028746167 0)
(0.046371712 -0.0022000104 0)
(0.046907548 -0.0016796358 0)
(0.047280979 -0.0013076349 0)
(0.047560299 -0.0010678525 0)
(0.047782389 -0.00095183838 0)
(0.047977436 -0.00095784935 0)
(0.048180536 -0.0010879993 0)
(0.048417606 -0.0013560069 0)
(0.048710848 -0.0018146499 0)
(0.0491107 -0.0025293663 0)
(0.049635025 -0.0035935554 0)
(0.050354127 -0.0052027563 0)
(0.051341946 -0.0076866674 0)
(0.052625769 -0.011403296 0)
(0.054129691 -0.017016665 0)
(0.056011752 -0.0244128 0)
(0.056352292 -0.034498255 0)
(0.056723844 -0.044883361 0)
(0.043393026 -0.057283985 0)
(0.036325383 -0.046677001 0)
(0.039968626 -0.0048159218 0)
(0.041636851 -0.0060278449 0)
(0.043802273 -0.005488737 0)
(0.045255096 -0.0045324746 0)
(0.046241513 -0.0035366164 0)
(0.046888867 -0.0026516749 0)
(0.047295877 -0.001980473 0)
(0.047545227 -0.0015151472 0)
(0.047716741 -0.0012196391 0)
(0.047838358 -0.0010755624 0)
(0.047938046 -0.0010713575 0)
(0.04803172 -0.0012086689 0)
(0.048133617 -0.0015030092 0)
(0.04825287 -0.0019985125 0)
(0.048406102 -0.0027700232 0)
(0.048599799 -0.00390773 0)
(0.04880292 -0.0055969814 0)
(0.049034962 -0.0081669825 0)
(0.049203578 -0.011910074 0)
(0.048974046 -0.017293031 0)
(0.048264889 -0.024051136 0)
(0.045411151 -0.031902139 0)
(0.040487207 -0.037960567 0)
(0.026123641 -0.040682139 0)
(0.010861624 -0.020875225 0)
(0.040380148 -0.0064088637 0)
(0.04228385 -0.0077608509 0)
(0.044576484 -0.0067848238 0)
(0.045936282 -0.0054236194 0)
(0.046744099 -0.0041005581 0)
(0.047206867 -0.0029883361 0)
(0.047436459 -0.0021711915 0)
(0.047536254 -0.00162619 0)
(0.047579859 -0.0012871473 0)
(0.047589208 -0.0011186578 0)
(0.047583181 -0.0011020069 0)
(0.047557482 -0.0012344203 0)
(0.047522876 -0.0015277903 0)
(0.047464031 -0.0020183322 0)
(0.047362736 -0.0027799519 0)
(0.047222488 -0.0039063491 0)
(0.04695404 -0.0055325516 0)
(0.046484731 -0.0079616408 0)
(0.045686802 -0.01142305 0)
(0.04409537 -0.016194977 0)
(0.041418901 -0.021909269 0)
(0.036459556 -0.027630419 0)
(0.028910534 -0.031076552 0)
(0.016025096 -0.030296897 0)
(0.0025531025 -0.01442857 0)
(0.040901191 -0.0084279308 0)
(0.042920002 -0.0096280641 0)
(0.045100334 -0.0080234001 0)
(0.04615941 -0.0061625423 0)
(0.046645613 -0.00449341 0)
(0.046838573 -0.0031652083 0)
(0.046837561 -0.0022266548 0)
(0.046772046 -0.0016240373 0)
(0.046673986 -0.0012596317 0)
(0.046570345 -0.0010774335 0)
(0.046454356 -0.0010485593 0)
(0.046319841 -0.0011628039 0)
(0.046151649 -0.0014309899 0)
(0.045928921 -0.0018879988 0)
(0.045608376 -0.0025778263 0)
(0.045155096 -0.0036022769 0)
(0.044494521 -0.0050641782 0)
(0.043454108 -0.0071859518 0)
(0.041895514 -0.01015963 0)
(0.03934724 -0.014062006 0)
(0.035467626 -0.018493945 0)
(0.029546471 -0.022366905 0)
(0.021482477 -0.023720313 0)
(0.011042229 -0.020932954 0)
(0.00042803834 -0.009022667 0)
(0.041429136 -0.010873642 0)
(0.043292584 -0.011411255 0)
(0.044900148 -0.0089752554 0)
(0.045363976 -0.0065840981 0)
(0.045345741 -0.0046142901 0)
(0.045174064 -0.0031303225 0)
(0.044908891 -0.0021236408 0)
(0.044663117 -0.0015000798 0)
(0.044431299 -0.0011372382 0)
(0.044221542 -0.00095467755 0)
(0.044013988 -0.00091635338 0)
(0.043787832 -0.0010075531 0)
(0.043513818 -0.001231579 0)
(0.04315814 -0.0016175217 0)
(0.042676523 -0.0022051165 0)
(0.04198613 -0.0030576736 0)
(0.041026691 -0.0042757949 0)
(0.039599577 -0.0059967121 0)
(0.037534318 -0.0083666325 0)
(0.034444173 -0.011359441 0)
(0.029982657 -0.014579116 0)
(0.023848605 -0.017013521 0)
(0.016204355 -0.017240946 0)
(0.0078740273 -0.014034184 0)
(-5.2409784e-005 -0.0057424369 0)
(0.041708162 -0.013585446 0)
(0.043052993 -0.012717738 0)
(0.043433604 -0.0093253531 0)
(0.042989682 -0.0064882736 0)
(0.042305849 -0.0043520997 0)
(0.041686655 -0.0028315742 0)
(0.0411626 -0.0018521904 0)
(0.040742612 -0.0012618304 0)
(0.040406885 -0.00093032852 0)
(0.040115973 -0.00076520804 0)
(0.039848346 -0.00072421238 0)
(0.039561452 -0.00078816626 0)
(0.039226491 -0.00096093421 0)
(0.038791079 -0.0012553051 0)
(0.038214115 -0.0017086862 0)
(0.037400433 -0.0023597843 0)
(0.036275581 -0.0032829945 0)
(0.034668658 -0.0045673523 0)
(0.03238777 -0.0062989981 0)
(0.02914213 -0.0084170317 0)
(0.024659216 -0.010577456 0)
(0.018885359 -0.012008158 0)
(0.012122072 -0.011666373 0)
(0.0056612841 -0.0088065089 0)
(-0.00016238459 -0.0033056085 0)
(0.041412793 -0.016272429 0)
(0.041683696 -0.012947685 0)
(0.040144769 -0.0087521796 0)
(0.038562889 -0.0056982631 0)
(0.037163297 -0.003639573 0)
(0.036110281 -0.0022661193 0)
(0.035375307 -0.00142268 0)
(0.034840273 -0.00093378852 0)
(0.034444118 -0.00066724726 0)
(0.034120935 -0.00053722562 0)
(0.033831293 -0.00050090887 0)
(0.033531705 -0.00054120058 0)
(0.033183383 -0.00065694115 0)
(0.032739675 -0.00085820972 0)
(0.032148286 -0.0011648251 0)
(0.031331499 -0.0016070464 0)
(0.030201532 -0.0022290447 0)
(0.028621327 -0.0030859001 0)
(0.026413043 -0.0042204669 0)
(0.023366271 -0.0055751923 0)
(0.019305354 -0.0068834909 0)
(0.014291899 -0.0076370621 0)
(0.0087142125 -0.007134995 0)
(0.0038753532 -0.0049648198 0)
(-0.00019296723 -0.0016001026 0)
(0.039769664 -0.018141661 0)
(0.038368011 -0.011503601 0)
(0.034245959 -0.00701582 0)
(0.0316511 -0.0041972278 0)
(0.029721652 -0.0025173623 0)
(0.028425255 -0.0014944927 0)
(0.027601848 -0.00089764341 0)
(0.027051664 -0.00056395335 0)
(0.026666705 -0.00038942954 0)
(0.026368089 -0.00030593406 0)
(0.026106745 -0.00028130061 0)
(0.025842524 -0.00030199783 0)
(0.025536709 -0.00036570604 0)
(0.025150883 -0.00047903842 0)
(0.024635509 -0.0006506333 0)
(0.023928991 -0.00089858574 0)
(0.022952746 -0.0012468253 0)
(0.021597407 -0.0017236631 0)
(0.019723132 -0.0023482064 0)
(0.017177597 -0.0030794884 0)
(0.013876781 -0.0037572592 0)
(0.0099258306 -0.004084925 0)
(0.0057109785 -0.0036668296 0)
(0.0023432526 -0.0022776367 0)
(-0.00020219627 -0.00049729252 0)
(0.03458941 -0.016387582 0)
(0.031717322 -0.0077213301 0)
(0.024761543 -0.0043289133 0)
(0.021916738 -0.0023245921 0)
(0.019905291 -0.0013156639 0)
(0.018712981 -0.00074080817 0)
(0.018001408 -0.00042426638 0)
(0.017564088 -0.00025432356 0)
(0.017274161 -0.00016855596 0)
(0.017058411 -0.00012846699 0)
(0.016873993 -0.00011627455 0)
(0.016689861 -0.00012370102 0)
(0.016478144 -0.00014993815 0)
(0.016210191 -0.00019713136 0)
(0.015851464 -0.00026834584 0)
(0.015359011 -0.00037152316 0)
(0.014676805 -0.00051572354 0)
(0.013729768 -0.00071240065 0)
(0.012423022 -0.0009694452 0)
(0.010657745 -0.0012675013 0)
(0.0083896871 -0.0015347913 0)
(0.005741931 -0.0016312966 0)
(0.0029992532 -0.0013945839 0)
(0.0010022728 -0.00070452242 0)
(-0.00022069852 1.9672156e-005 0)
(0.0205456 -0.012034677 0)
(0.017406574 -0.0023112668 0)
(0.010646748 -0.00038157983 0)
(0.0092383969 -0.00015489227 0)
(0.0078739628 -4.9586349e-005 0)
(0.0072220222 -1.7943095e-005 0)
(0.0068393588 -4.6476759e-006 0)
(0.0066234354 1.7879997e-006 0)
(0.0064895119 4.4597623e-006 0)
(0.0063961736 5.4048906e-006 0)
(0.0063194067 5.730722e-006 0)
(0.0062440564 6.1404207e-006 0)
(0.0061577865 6.9903048e-006 0)
(0.0060476134 8.2582378e-006 0)
(0.0058990994 1.0375862e-005 0)
(0.0056940829 1.3223016e-005 0)
(0.0054087469 1.7048667e-005 0)
(0.005012257 2.233479e-005 0)
(0.0044650949 2.9008157e-005 0)
(0.0037292341 3.7812424e-005 0)
(0.0027885345 4.6987338e-005 0)
(0.0017192099 6.3303942e-005 0)
(0.00064206997 7.2751963e-005 0)
(-1.1712146e-005 0.00011704287 0)
(-0.00018970849 0.00013175165 0)
)
;

boundaryField
{
    inlet
    {
        type            fixedValue;
        value           uniform (0.03876 0 0);
    }
    walls
    {
        type            fixedValue;
        value           uniform (0 0 0);
    }
    outlet
    {
        type            zeroGradient;
    }
    centreline
    {
        type            symmetryPlane;
    }
    frontAndBack
    {
        type            empty;
    }
}


// ************************************************************************* //
