/*--------------------------------*- C++ -*----------------------------------*\
| =========                 |                                                 |
| \\      /  F ield         | OpenFOAM: The Open Source CFD Toolbox           |
|  \\    /   O peration     | Version:  5.x                                   |
|   \\  /    A nd           | Web:      www.OpenFOAM.org                      |
|    \\/     M anipulation  |                                                 |
\*---------------------------------------------------------------------------*/
/*   Windows 32 and 64 bit porting by blueCAPE: http://www.bluecape.com.pt   *\
|  Based on Windows porting (2.0.x v4) by Symscape: http://www.symscape.com   |
\*---------------------------------------------------------------------------*/
FoamFile
{
    version     2.0;
    format      ascii;
    class       volScalarField;
    location    "0.24";
    object      p;
}
// * * * * * * * * * * * * * * * * * * * * * * * * * * * * * * * * * * * * * //

dimensions      [0 2 -2 0 0 0 0];

internalField   nonuniform List<scalar> 
750
(
0.39443285
0.39478005
0.39444591
0.3943507
0.3940859
0.3938429
0.39355683
0.39326354
0.39296089
0.39265073
0.39233779
0.3920209
0.39169427
0.3913574
0.39101173
0.39063427
0.39021085
0.3897364
0.38913868
0.38828182
0.38738385
0.3848997
0.38374947
0.37511657
0.37122048
0.39443912
0.39477842
0.39445424
0.39435137
0.3940883
0.39384408
0.39355803
0.39326362
0.39296098
0.39265095
0.39233805
0.39202111
0.39169469
0.3913583
0.39101278
0.39063601
0.39021423
0.38974131
0.38914481
0.38830303
0.38738587
0.38498761
0.38372132
0.37534681
0.37139931
0.39444547
0.39478565
0.39446279
0.39435564
0.39409231
0.39384648
0.39355998
0.39326455
0.3929615
0.39265158
0.39233874
0.39202186
0.3916959
0.3913603
0.3910158
0.39064087
0.39022233
0.38975426
0.38916564
0.38834138
0.38743705
0.3851065
0.38384117
0.37561303
0.37198882
0.39445379
0.39479892
0.39447383
0.39436265
0.39409835
0.39384985
0.39356259
0.39326634
0.39296235
0.39265254
0.39233977
0.39202303
0.39169777
0.39136321
0.39102046
0.39064839
0.39023438
0.38977386
0.38919828
0.38839574
0.38752545
0.38525928
0.3840832
0.37597995
0.37281571
0.39446494
0.39481684
0.39448854
0.39437202
0.3941064
0.39385422
0.39356591
0.39326878
0.39296349
0.39265379
0.39234107
0.39202458
0.39170023
0.39136692
0.39102659
0.39065819
0.3902499
0.3897992
0.38924063
0.38846596
0.38764519
0.3854506
0.38441261
0.37645528
0.37397256
0.39447904
0.39483936
0.39450711
0.39438365
0.39411642
0.39385964
0.39356996
0.39327169
0.39296495
0.39265529
0.39234262
0.39202647
0.39170321
0.39137144
0.3910341
0.39067007
0.3902686
0.38982985
0.38929112
0.38855009
0.38779365
0.38567556
0.38483799
0.3769667
0.37573682
0.39449598
0.39486684
0.39452947
0.39439745
0.39412846
0.39386606
0.39357466
0.39327501
0.39296674
0.39265706
0.39234439
0.39202863
0.3917067
0.39137678
0.39104291
0.39068403
0.39029043
0.38986595
0.38934987
0.38864599
0.38797318
0.38593624
0.38541989
0.37760757
0.37830802
0.39451579
0.39489945
0.39455564
0.39441332
0.39414267
0.39387344
0.39357996
0.39327871
0.3929689
0.39265902
0.39234636
0.3920311
0.39171063
0.39138291
0.39105295
0.39070007
0.39031547
0.38990781
0.38941761
0.38875314
0.38818819
0.38624627
0.38616616
0.3785825
0.38224841
0.3945402
0.39493454
0.39458684
0.39443103
0.39415902
0.39388191
0.39358577
0.39328258
0.3929715
0.39266113
0.39234848
0.39203379
0.39171488
0.39138978
0.3910638
0.3907177
0.39034367
0.38995427
0.38949407
0.38887423
0.3884304
0.38664977
0.38703998
0.37983948
0.38708237
0.39457519
0.39496319
0.39462752
0.39444973
0.39417642
0.39389161
0.39359189
0.39328621
0.39297432
0.39266319
0.39235058
0.39203649
0.39171916
0.39139708
0.39107491
0.39073587
0.39037343
0.3900017
0.3895745
0.38901016
0.38864157
0.38718215
0.38784925
0.38160992
0.39203526
0.34971293
0.33886532
0.32279989
0.30907236
0.29445559
0.28013637
0.26570353
0.25133874
0.236967
0.22260543
0.20824315
0.19388221
0.17952046
0.16515883
0.15079715
0.13643552
0.12207388
0.10771225
0.093350619
0.078988986
0.064627352
0.050265718
0.035904084
0.021542452
0.0071808156
0.34957984
0.3387078
0.32275773
0.30901674
0.29442398
0.28011847
0.2656959
0.2513348
0.23696622
0.22260527
0.20824335
0.19388218
0.17952045
0.16515882
0.15079715
0.13643551
0.12207388
0.10771225
0.093350619
0.078988986
0.064627352
0.050265718
0.035904084
0.021542452
0.0071808159
0.34920268
0.33874056
0.32255557
0.30895127
0.29436943
0.28008176
0.26568811
0.25133121
0.23696564
0.22260496
0.20824351
0.19388218
0.17952045
0.1651588
0.15079714
0.13643551
0.12207388
0.10771225
0.09335062
0.078988986
0.064627352
0.050265718
0.035904085
0.021542452
0.0071808164
0.34867602
0.33887445
0.3222633
0.30887688
0.29433761
0.28005559
0.26568128
0.25132873
0.23696507
0.22260482
0.20824365
0.19388223
0.17952046
0.16515879
0.15079714
0.13643551
0.12207389
0.10771225
0.09335062
0.078988986
0.064627352
0.050265718
0.035904085
0.021542452
0.0071808169
0.34815687
0.3388693
0.32210633
0.30876127
0.29429847
0.28004197
0.26567453
0.25132657
0.23696441
0.22260494
0.20824377
0.19388228
0.17952047
0.16515878
0.15079714
0.13643551
0.12207389
0.10771225
0.09335062
0.078988986
0.064627352
0.050265718
0.035904085
0.021542452
0.0071808176
0.34752215
0.33883373
0.32200495
0.30864895
0.29423977
0.28002758
0.26566773
0.25132469
0.236964
0.22260517
0.20824386
0.1938823
0.17952047
0.16515877
0.15079713
0.13643551
0.12207389
0.10771225
0.09335062
0.078988986
0.064627352
0.050265718
0.035904085
0.021542452
0.0071808182
0.34667713
0.33887187
0.32180128
0.30857265
0.2941935
0.28001551
0.26566201
0.25132372
0.23696402
0.22260541
0.2082439
0.19388229
0.17952045
0.16515877
0.15079714
0.13643552
0.12207389
0.10771226
0.09335062
0.078988986
0.064627352
0.050265718
0.035904085
0.021542452
0.0071808188
0.3460425
0.33879719
0.32156642
0.30853078
0.29415929
0.2800064
0.26565752
0.25132374
0.23696446
0.22260573
0.20824393
0.19388225
0.17952041
0.16515876
0.15079714
0.13643552
0.12207389
0.10771225
0.09335062
0.078988986
0.064627352
0.050265718
0.035904085
0.021542452
0.0071808193
0.34500225
0.33872292
0.32144844
0.30851502
0.29413595
0.28000081
0.26565478
0.25132437
0.23696512
0.22260619
0.20824402
0.1938822
0.17952036
0.16515875
0.15079714
0.13643553
0.12207389
0.10771225
0.093350619
0.078988985
0.064627352
0.050265718
0.035904085
0.021542452
0.0071808198
0.34085347
0.33928004
0.32143645
0.30859533
0.29410896
0.28000394
0.26565131
0.25132489
0.23696512
0.22260647
0.20824409
0.19388219
0.17952034
0.16515874
0.15079714
0.13643553
0.12207389
0.10771225
0.093350619
0.078988985
0.064627352
0.050265718
0.035904085
0.021542453
0.0071808199
0.39467026
0.39500641
0.3947274
0.39448966
0.39421075
0.39391243
0.39360413
0.39329284
0.39297952
0.39266658
0.39235439
0.39204164
0.3917276
0.39141148
0.39109705
0.39077282
0.39043295
0.3900952
0.38973353
0.38929777
0.38897668
0.38833759
0.38913581
0.38665911
0.40512885
0.39481617
0.3951813
0.39487415
0.39458279
0.39427378
0.39395133
0.39362714
0.39330714
0.39298879
0.39267348
0.3923611
0.3920515
0.39174575
0.39143688
0.39113336
0.39083795
0.39053282
0.390238
0.38996573
0.38965261
0.38943277
0.389152
0.38944732
0.38800057
0.3940039
0.39502478
0.39541955
0.39504132
0.39469248
0.3943426
0.39399167
0.39364991
0.3933194
0.39299657
0.39267897
0.39236693
0.3920601
0.39176062
0.39146274
0.39116873
0.39089515
0.39062928
0.39037016
0.39016256
0.38995973
0.3898547
0.38981227
0.3901664
0.39016943
0.39286311
0.39533819
0.39570541
0.39523352
0.39481137
0.39441037
0.39402851
0.39367152
0.39332776
0.39300051
0.39268095
0.39236968
0.39206589
0.39176872
0.39148187
0.39120131
0.39093736
0.39070168
0.39047905
0.39031169
0.39018227
0.39013936
0.39020954
0.39056118
0.39103545
0.39201697
0.39581437
0.39602721
0.39544961
0.39493206
0.39447228
0.39405744
0.39368637
0.39333191
0.39299853
0.39267864
0.39236754
0.39206605
0.39177188
0.39148927
0.39122048
0.39096432
0.39074174
0.39054746
0.39040277
0.39031908
0.39031592
0.39043779
0.39078027
0.39135416
0.39174283
0.39654715
0.39636862
0.39567725
0.39504112
0.39452223
0.39407676
0.39368721
0.39332856
0.39299115
0.39267108
0.39236073
0.39205982
0.39176791
0.39148608
0.39122005
0.39097069
0.39074984
0.39056704
0.39043117
0.39036264
0.39037625
0.39051154
0.39080585
0.39135197
0.39154049
0.39766055
0.39669962
0.39587258
0.39511775
0.39454263
0.39407654
0.39367367
0.39331425
0.3929778
0.392658
0.39234836
0.39204717
0.39175449
0.3914716
0.39120199
0.39095121
0.39072547
0.39053757
0.39039699
0.39032347
0.39033561
0.39045766
0.39071003
0.39119948
0.3913295
0.39953415
0.39685651
0.39597846
0.39511723
0.39451022
0.39404154
0.39364268
0.39328828
0.39295664
0.39263907
0.39233017
0.39202797
0.39173238
0.39144477
0.39116775
0.39090662
0.39066787
0.39046205
0.39030207
0.39020701
0.39020015
0.39030236
0.39053107
0.39096781
0.39110157
0.40304236
0.39655324
0.39595886
0.3949809
0.39439232
0.3939515
0.39358077
0.39324403
0.39292353
0.39261164
0.39230433
0.39200043
0.39169988
0.39140346
0.39111363
0.39083392
0.3905706
0.39033282
0.39013516
0.38999924
0.38995632
0.3900415
0.39026783
0.39068275
0.39085768
0.40462506
0.39554605
0.39638454
0.39503598
0.3944446
0.39396821
0.3935843
0.39324151
0.39291901
0.39260631
0.39229847
0.39199378
0.39169186
0.39139334
0.39110045
0.39081649
0.3905472
0.39030167
0.39009388
0.38994672
0.38989191
0.3899662
0.39017083
0.39055548
0.39075272
)
;

boundaryField
{
    inlet
    {
        type            zeroGradient;
    }
    walls
    {
        type            zeroGradient;
    }
    outlet
    {
        type            fixedValue;
        value           uniform 0;
    }
    centreline
    {
        type            symmetryPlane;
    }
    frontAndBack
    {
        type            empty;
    }
}


// ************************************************************************* //
