/*--------------------------------*- C++ -*----------------------------------*\
| =========                 |                                                 |
| \\      /  F ield         | OpenFOAM: The Open Source CFD Toolbox           |
|  \\    /   O peration     | Version:  5.x                                   |
|   \\  /    A nd           | Web:      www.OpenFOAM.org                      |
|    \\/     M anipulation  |                                                 |
\*---------------------------------------------------------------------------*/
/*   Windows 32 and 64 bit porting by blueCAPE: http://www.bluecape.com.pt   *\
|  Based on Windows porting (2.0.x v4) by Symscape: http://www.symscape.com   |
\*---------------------------------------------------------------------------*/
FoamFile
{
    version     2.0;
    format      ascii;
    class       surfaceScalarField;
    location    "0.24";
    object      phi;
}
// * * * * * * * * * * * * * * * * * * * * * * * * * * * * * * * * * * * * * //

dimensions      [0 3 -1 0 0 0 0];

internalField   nonuniform List<scalar> 
1430
(
5.1652925e-006
-1.6401217e-007
5.3733066e-006
-2.0801401e-007
5.5805838e-006
-2.072772e-007
5.7615916e-006
-1.8100775e-007
5.9144316e-006
-1.5283992e-007
6.0356429e-006
-1.212113e-007
6.1306811e-006
-9.5038119e-008
6.2049821e-006
-7.4301008e-008
6.2653722e-006
-6.0390128e-008
6.3190229e-006
-5.3650615e-008
6.3724993e-006
-5.3476443e-008
6.4326604e-006
-6.0161073e-008
6.5079414e-006
-7.5281031e-008
6.609421e-006
-1.0147958e-007
6.75279e-006
-1.4336896e-007
6.960556e-006
-2.07766e-007
7.2694717e-006
-3.0891571e-007
7.7375476e-006
-4.6807593e-007
8.4481161e-006
-7.1056847e-007
9.5320953e-006
-1.0839792e-006
1.1126227e-005
-1.5941322e-006
1.3483498e-005
-2.3572705e-006
1.6734251e-005
-3.250753e-006
2.0945423e-005
-4.2111723e-006
-4.8317443e-006
2.5777167e-005
5.1642765e-006
-3.2700833e-007
5.3766524e-006
-4.203898e-007
5.5822268e-006
-4.128515e-007
5.7644707e-006
-3.6325165e-007
5.9166815e-006
-3.0505061e-007
6.0377572e-006
-2.4228697e-007
6.1323243e-006
-1.8960524e-007
6.2061643e-006
-1.4814089e-007
6.2661479e-006
-1.2037377e-007
6.3193838e-006
-1.0688646e-007
6.3723938e-006
-1.0648648e-007
6.4320017e-006
-1.1976896e-007
6.5065629e-006
-1.4984225e-007
6.6070015e-006
-2.0191813e-007
6.7488812e-006
-2.8524866e-007
6.9543688e-006
-4.1325361e-007
7.2595115e-006
-6.140584e-007
7.7214305e-006
-9.2999482e-007
8.4224247e-006
-1.4115627e-006
9.4866325e-006
-2.148187e-006
1.1061105e-005
-3.1686049e-006
1.3356491e-005
-4.6526568e-006
1.6575487e-005
-6.469749e-006
2.0663731e-005
-8.2994158e-006
-9.6768332e-006
2.5508819e-005
5.1660689e-006
-4.9179692e-007
5.380008e-006
-6.3432893e-007
5.587037e-006
-6.1988048e-007
5.7695764e-006
-5.4579098e-007
5.9215093e-006
-4.5698351e-007
6.0419014e-006
-3.6267912e-007
6.1356162e-006
-2.8331999e-007
6.2085719e-006
-2.2109655e-007
6.267742e-006
-1.7954396e-007
6.3201622e-006
-1.5930664e-007
6.3722582e-006
-1.5858251e-007
6.4307456e-006
-1.7825631e-007
6.5038569e-006
-2.2295355e-007
6.6023016e-006
-3.0036281e-007
6.7411845e-006
-4.2413159e-007
6.9420705e-006
-6.1413964e-007
7.2398701e-006
-9.1185794e-007
7.6896264e-006
-1.3797511e-006
8.3702966e-006
-2.0922329e-006
9.40123e-006
-3.1791204e-006
1.0920709e-005
-4.6880837e-006
1.313429e-005
-6.8662381e-006
1.6221944e-005
-9.5574029e-006
2.0171654e-005
-1.2249126e-005
-1.4368308e-005
2.4863129e-005
5.1687794e-006
-6.59296e-007
5.3852615e-006
-8.5081097e-007
5.5943103e-006
-8.2892934e-007
5.777327e-006
-7.2880768e-007
5.9288395e-006
-6.0849598e-007
6.0481722e-006
-4.8201179e-007
6.140565e-006
-3.7571279e-007
6.2122296e-006
-2.9276121e-007
6.2701926e-006
-2.3750697e-007
6.3213802e-006
-2.1049419e-007
6.3721065e-006
-2.0930884e-007
6.4289373e-006
-2.3508707e-007
6.4998877e-006
-2.9390393e-007
6.5953563e-006
-3.9583146e-007
6.7298064e-006
-5.5858169e-007
6.9238783e-006
-8.0821154e-007
7.210805e-006
-1.1987846e-006
7.6427161e-006
-1.8116622e-006
8.2935712e-006
-2.7430879e-006
9.2750094e-006
-4.1605585e-006
1.0714269e-005
-6.127343e-006
1.2804794e-005
-8.9567636e-006
1.569696e-005
-1.2449569e-005
1.9430534e-005
-1.59827e-005
-1.8807378e-005
2.3869604e-005
5.1725908e-006
-8.3060644e-007
5.3924726e-006
-1.0706928e-006
5.6041526e-006
-1.0406093e-006
5.787752e-006
-9.1240709e-007
5.9386753e-006
-7.5941926e-007
6.0565593e-006
-5.9989576e-007
6.1471656e-006
-4.6631908e-007
6.2171284e-006
-3.6272399e-007
6.2734908e-006
-2.9386947e-007
6.3230223e-006
-2.6002565e-007
6.3719362e-006
-2.5822269e-007
6.4265997e-006
-2.8975063e-007
6.4947001e-006
-3.6200435e-007
6.5862501e-006
-4.8738144e-007
6.7148982e-006
-6.872298e-007
6.9000709e-006
-9.9338418e-007
7.1728354e-006
-1.471549e-006
7.581607e-006
-2.2204338e-006
8.1936037e-006
-3.3550846e-006
9.1107917e-006
-5.0777466e-006
1.0444191e-005
-7.4607424e-006
1.2371082e-005
-1.0883654e-005
1.500958e-005
-1.5088067e-005
1.8451123e-005
-1.9424242e-005
-2.2874858e-005
2.2518602e-005
5.1776679e-006
-1.006994e-006
5.4017476e-006
-1.2947726e-006
5.6166477e-006
-1.2555094e-006
5.8008827e-006
-1.096642e-006
5.9509906e-006
-9.0952723e-007
6.0670082e-006
-7.1591328e-007
6.1553669e-006
-5.5467786e-007
6.2232155e-006
-4.3057255e-007
6.27758e-006
-3.48234e-007
6.3250305e-006
-3.0747613e-007
6.3716951e-006
-3.0488734e-007
6.4237123e-006
-3.4176775e-007
6.4883103e-006
-4.2660237e-007
6.5750292e-006
-5.7410033e-007
6.6965675e-006
-8.087681e-007
6.870878e-006
-1.1676947e-006
7.1263798e-006
-1.7270508e-006
7.5070839e-006
-2.601138e-006
8.0721419e-006
-3.9201425e-006
8.9112676e-006
-5.9168723e-006
1.0114163e-005
-8.6636378e-006
1.1840233e-005
-1.2609724e-005
1.4159847e-005
-1.7407682e-005
1.7220528e-005
-2.2484923e-005
-2.6478977e-005
2.0824646e-005
5.1841815e-006
-1.1898951e-006
5.4131782e-006
-1.5237693e-006
5.6318173e-006
-1.4741485e-006
5.8166716e-006
-1.2814963e-006
5.9656729e-006
-1.0585285e-006
6.0793835e-006
-8.2962393e-007
6.1650372e-006
-6.4033156e-007
6.2303426e-006
-4.9587788e-007
6.2823074e-006
-4.001988e-007
6.3272489e-006
-3.5241763e-007
6.3712474e-006
-3.4888586e-007
6.4201734e-006
-3.9069372e-007
6.4806532e-006
-4.8708227e-007
6.5616891e-006
-6.5513619e-007
6.6748878e-006
-9.2196679e-007
6.8365158e-006
-1.3293226e-006
7.0719438e-006
-1.9624788e-006
7.4201887e-006
-2.9493829e-006
7.9311105e-006
-4.4310643e-006
8.6795011e-006
-6.6652629e-006
9.7297056e-006
-9.7138423e-006
1.1217303e-005
-1.4097322e-005
1.3139468e-005
-1.9329846e-005
1.5759473e-005
-2.5104928e-005
-2.9456965e-005
1.8737461e-005
5.1923236e-006
-1.3809384e-006
5.426782e-006
-1.7582277e-006
5.6495881e-006
-1.6969546e-006
5.8349523e-006
-1.4668605e-006
5.9824599e-006
-1.2060361e-006
6.0934035e-006
-9.4056749e-007
6.1759099e-006
-7.2283796e-007
6.238231e-006
-5.5819897e-007
6.2873828e-006
-4.493506e-007
6.3294135e-006
-3.9444837e-007
6.3703377e-006
-3.8981003e-007
6.4157406e-006
-4.3609663e-007
6.4715616e-006
-5.4290329e-007
6.5461407e-006
-7.2971531e-007
6.6498575e-006
-1.0256836e-006
6.7971834e-006
-1.4766485e-006
7.0101438e-006
-2.1754393e-006
7.3220979e-006
-3.261337e-006
7.7727325e-006
-4.8816989e-006
8.4198816e-006
-7.3124119e-006
9.2978287e-006
-1.0591789e-005
1.0511709e-005
-1.5311202e-005
1.1994117e-005
-2.0812255e-005
1.4126793e-005
-2.7237604e-005
-3.1470322e-005
1.6140151e-005
5.2023534e-006
-1.5820115e-006
5.4424541e-006
-1.9983283e-006
5.6698222e-006
-1.9243226e-006
5.8554276e-006
-1.6524659e-006
6.000934e-006
-1.3515425e-006
6.1086309e-006
-1.0482643e-006
6.1875388e-006
-8.0174582e-007
6.2464404e-006
-6.1710054e-007
6.2923442e-006
-4.9525439e-007
6.3310791e-006
-4.3318328e-007
6.3685655e-006
-4.2729639e-007
6.4100446e-006
-4.7757576e-007
6.4607292e-006
-5.9358786e-007
6.5281621e-006
-7.9714822e-007
6.6214067e-006
-1.1189282e-006
6.7530521e-006
-1.6082939e-006
6.9416561e-006
-2.3640433e-006
7.214223e-006
-3.5339038e-006
7.599509e-006
-5.2669849e-006
8.1381791e-006
-7.851082e-006
8.8288082e-006
-1.1282419e-005
9.7447568e-006
-1.6227151e-005
1.0747398e-005
-2.1814895e-005
1.2343118e-005
-2.8833325e-005
-3.2127845e-005
1.300064e-005
5.2130995e-006
-1.7938305e-006
5.4611213e-006
-2.2463499e-006
5.6919506e-006
-2.1551518e-006
5.8777358e-006
-1.8382509e-006
6.0204428e-006
-1.4942495e-006
6.1244236e-006
-1.152245e-006
6.1993025e-006
-8.7662465e-007
6.254343e-006
-6.7214106e-007
6.2965517e-006
-5.3746307e-007
6.331665e-006
-4.6829648e-007
6.3653607e-006
-4.6099214e-007
6.4025288e-006
-5.1474381e-007
6.4477008e-006
-6.3875989e-007
6.5073832e-006
-8.5683064e-007
6.5893026e-006
-1.2008475e-006
6.7041528e-006
-1.723144e-006
6.8668524e-006
-2.5267429e-006
7.0975701e-006
-3.7646214e-006
7.414522e-006
-5.5839368e-006
7.8393579e-006
-8.2759179e-006
8.3429373e-006
-1.1785998e-005
8.9241344e-006
-1.6808348e-005
9.3916072e-006
-2.2282369e-005
1.0137041e-005
-2.9578759e-005
8.8109936e-006
-3.0801797e-005
2.8500736e-005
-2.7235685e-006
2.9528623e-005
-1.0278875e-006
2.9784592e-005
-2.5596905e-007
2.9849348e-005
-6.475636e-008
2.9868267e-005
-1.891866e-008
2.9874493e-005
-6.2259807e-009
2.9880958e-005
-6.4652711e-009
2.988386e-005
-2.9017719e-009
2.9883764e-005
9.5487539e-011
2.9882442e-005
1.3223646e-009
2.9881437e-005
1.0050249e-009
2.9881066e-005
3.7075807e-010
2.9881077e-005
-1.0524223e-011
2.9881156e-005
-7.9575961e-011
2.9881192e-005
-3.5823762e-011
2.9881192e-005
3.0024985e-013
2.9881184e-005
7.5683479e-012
2.9881181e-005
3.3234951e-012
2.9881181e-005
-8.4483925e-014
2.9881182e-005
-6.6164201e-013
2.9881182e-005
-3.3174956e-013
2.9881182e-005
-7.6715109e-014
2.9881182e-005
1.9717694e-013
2.9881181e-005
1.3063354e-012
1.2324912e-012
2.8003276e-005
-5.2180251e-006
2.8975569e-005
-2.0001804e-006
2.9192962e-005
-4.733619e-007
2.9250264e-005
-1.220589e-007
2.9257917e-005
-2.6571857e-008
2.92632e-005
-1.1509325e-008
2.9268253e-005
-1.1518134e-008
2.9270977e-005
-5.6254556e-009
2.927079e-005
2.8219163e-010
2.926963e-005
2.4825039e-009
2.9268729e-005
1.90568e-009
2.9268416e-005
6.8415894e-010
2.9268433e-005
-2.7323311e-011
2.9268505e-005
-1.5221052e-010
2.9268536e-005
-6.6236511e-011
2.9268535e-005
1.3247826e-012
2.9268528e-005
1.4304018e-011
2.9268525e-005
6.0623625e-012
2.9268526e-005
-2.3656533e-013
2.9268526e-005
-1.2545898e-012
2.9268526e-005
-6.2504151e-013
2.9268526e-005
-1.1663775e-013
2.9268526e-005
4.2266973e-013
2.9268525e-005
2.4160439e-012
2.3299715e-012
2.7049802e-005
-7.4046987e-006
2.7853913e-005
-2.8042905e-006
2.8022243e-005
-6.4169227e-007
2.803875e-005
-1.3856586e-007
2.8036295e-005
-2.4116518e-008
2.8042465e-005
-1.7679504e-008
2.8046872e-005
-1.5925499e-008
2.8048774e-005
-7.5278545e-009
2.8048459e-005
5.9716501e-010
2.8047533e-005
3.4089901e-009
2.804686e-005
2.5787122e-009
2.804666e-005
8.8381361e-010
2.8046693e-005
-5.9824856e-011
2.804675e-005
-2.0911574e-010
2.804677e-005
-8.6651435e-011
2.8046768e-005
3.6142115e-012
2.8046763e-005
1.9399007e-011
2.8046761e-005
7.7660209e-012
2.8046761e-005
-5.0981213e-013
2.8046762e-005
-1.707254e-012
2.8046762e-005
-8.1106699e-013
2.8046762e-005
-8.8714724e-014
2.8046762e-005
6.6199878e-013
2.8046761e-005
3.2469304e-012
3.108258e-012
2.5623576e-005
-9.1586704e-006
2.6176677e-005
-3.3573911e-006
2.6239312e-005
-7.043272e-007
2.6221929e-005
-1.2118371e-007
2.6216838e-005
-1.9024745e-008
2.6221871e-005
-2.2712426e-008
2.6223912e-005
-1.7967067e-008
2.6224342e-005
-7.958158e-009
2.6223849e-005
1.0907123e-009
2.6223254e-005
4.0043419e-009
2.6222927e-005
2.905294e-009
2.6222882e-005
9.282527e-010
2.6222927e-005
-1.0450307e-010
2.6222959e-005
-2.4145722e-010
2.6222966e-005
-9.3106376e-011
2.6222962e-005
7.1537089e-012
2.622296e-005
2.2106755e-011
2.6222959e-005
8.1321202e-012
2.622296e-005
-8.7951813e-013
2.622296e-005
-1.9567677e-012
2.622296e-005
-8.472493e-013
2.622296e-005
-1.2592709e-014
2.622296e-005
8.7862642e-013
2.6222959e-005
3.7077145e-012
3.4712969e-012
2.3703623e-005
-1.0343691e-005
2.3898608e-005
-3.5523768e-006
2.383737e-005
-6.4308859e-007
2.3817174e-005
-1.0098768e-007
2.381121e-005
-1.3061169e-008
2.3810448e-005
-2.1950166e-008
2.3808859e-005
-1.6378624e-008
2.3807796e-005
-6.8947808e-009
2.3807254e-005
1.6325956e-009
2.3807137e-005
4.121512e-009
2.3807233e-005
2.8093544e-009
2.3807344e-005
8.1667373e-010
2.3807387e-005
-1.4671902e-010
2.3807387e-005
-2.4163592e-010
2.3807378e-005
-8.4379992e-011
2.3807374e-005
1.0885021e-011
2.3807375e-005
2.1815604e-011
2.3807376e-005
7.1591454e-012
2.3807376e-005
-1.2367177e-012
2.3807376e-005
-1.9500605e-012
2.3807376e-005
-7.5534956e-013
2.3807376e-005
8.9542179e-014
2.3807376e-005
1.0441216e-012
2.3807376e-005
3.7167011e-012
3.3724008e-012
2.1230285e-005
-1.074933e-005
2.0987325e-005
-3.3094169e-006
2.0850581e-005
-5.0634464e-007
2.0831438e-005
-8.1844783e-008
2.0822932e-005
-4.5549695e-009
2.0817554e-005
-1.6571897e-008
2.0813373e-005
-1.2198094e-008
2.0811354e-005
-4.8755831e-009
2.0811027e-005
1.9603182e-009
2.0811498e-005
3.6503658e-009
2.0811995e-005
2.3116489e-009
2.0812217e-005
5.9527647e-010
2.0812236e-005
-1.6563438e-010
2.0812201e-005
-2.0738241e-010
2.0812181e-005
-6.3759954e-011
2.0812179e-005
1.2985125e-011
2.0812182e-005
1.8467583e-011
2.0812184e-005
5.2282945e-012
2.0812184e-005
-1.4038675e-012
2.0812184e-005
-1.6701464e-012
2.0812184e-005
-5.7406485e-013
2.0812184e-005
1.7415363e-013
2.0812184e-005
1.0982976e-012
2.0812184e-005
3.2645133e-012
2.8491561e-012
1.8108843e-005
-1.0120712e-005
1.7457215e-005
-2.6577883e-006
1.7295593e-005
-3.4472312e-007
1.7271532e-005
-5.7783361e-008
1.7261621e-005
5.3563444e-009
1.7254395e-005
-9.3467865e-009
1.7249213e-005
-7.0157087e-009
1.7246961e-005
-2.6238821e-009
1.7247084e-005
1.8378066e-009
1.7248077e-005
2.6571043e-009
1.7248829e-005
1.559338e-009
1.7249082e-005
3.422606e-010
1.7249063e-005
-1.4653893e-010
1.7249002e-005
-1.4636511e-010
1.7248977e-005
-3.8387927e-011
1.7248978e-005
1.1952231e-011
1.7248984e-005
1.2861134e-011
1.7248986e-005
3.0036102e-012
1.7248986e-005
-1.2581006e-012
1.7248985e-005
-1.1792112e-012
1.7248985e-005
-3.4985042e-013
1.7248985e-005
1.9875711e-013
1.7248985e-005
9.7001472e-013
1.7248986e-005
2.435077e-012
2.0360382e-012
1.4244167e-005
-8.2247287e-006
1.3327051e-005
-1.7406717e-006
1.316832e-005
-1.8599241e-007
1.3140042e-005
-2.9505562e-008
1.3134758e-005
1.0640913e-008
1.3128826e-005
-3.4150888e-009
1.3124432e-005
-2.6215194e-009
1.3122708e-005
-8.9983085e-010
1.3123314e-005
1.2313953e-009
1.3124536e-005
1.4356799e-009
1.3125313e-005
7.8197766e-010
1.312552e-005
1.3566761e-010
1.3125467e-005
-9.359003e-011
1.3125397e-005
-7.6789049e-011
1.3125375e-005
-1.6442559e-011
1.3125379e-005
7.8209645e-012
1.3125385e-005
6.6433219e-012
1.3125387e-005
1.1848325e-012
1.3125387e-005
-8.1840534e-013
1.3125386e-005
-6.2924948e-013
1.3125386e-005
-1.5802545e-013
1.3125386e-005
1.534972e-013
1.3125386e-005
6.6412205e-013
1.3125387e-005
1.4158794e-012
1.1326077e-012
9.6151201e-006
-4.8392084e-006
8.5976667e-006
-7.2321825e-007
8.4631265e-006
-5.1452173e-008
8.4426891e-006
-9.06817e-009
8.4458022e-006
7.5278899e-009
8.4430925e-006
-7.0544534e-010
8.4406616e-006
-1.9061991e-010
8.4398689e-006
-1.0714577e-010
8.4406465e-006
4.537943e-010
8.4416664e-006
4.1581814e-010
8.4422368e-006
2.1150909e-010
8.4423497e-006
2.2793871e-011
8.4422882e-006
-3.2119361e-011
8.4422332e-006
-2.1776881e-011
8.4422202e-006
-3.3954895e-012
8.4422253e-006
2.7113922e-012
8.4422301e-006
1.8289259e-012
8.4422311e-006
1.9263853e-013
8.4422306e-006
-2.9052858e-013
8.4422301e-006
-1.880812e-013
8.44223e-006
-4.2816185e-014
8.4422301e-006
5.6874835e-014
8.4422305e-006
2.6138608e-013
8.4422314e-006
4.8664377e-013
3.7370774e-013
3.9717852e-006
3.248567e-006
3.1971148e-006
3.1880467e-006
3.1955746e-006
3.1948691e-006
3.1946785e-006
3.1945713e-006
3.1950251e-006
3.195441e-006
3.1956525e-006
3.1956753e-006
3.1956431e-006
3.1956214e-006
3.195618e-006
3.1956207e-006
3.1956225e-006
3.1956227e-006
3.1956224e-006
3.1956222e-006
3.1956222e-006
3.1956222e-006
3.1956225e-006
3.195623e-006
1.568873e-005
-2.4787195e-006
1.6525719e-005
-3.0833391e-006
1.7217807e-005
-2.8472395e-006
1.7773215e-005
-2.3936578e-006
1.817999e-005
-1.9010252e-006
1.8466169e-005
-1.4384233e-006
1.8663638e-005
-1.074094e-006
1.8802677e-005
-8.1117916e-007
1.8904701e-005
-6.3948729e-007
1.8986857e-005
-5.5045222e-007
1.9063341e-005
-5.3747618e-007
1.9146341e-005
-5.9774403e-007
1.9246675e-005
-7.3909374e-007
1.9375739e-005
-9.8589469e-007
1.9549974e-005
-1.3750825e-006
1.9789384e-005
-1.9625543e-006
2.0112705e-005
-2.8500635e-006
2.0545135e-005
-4.1970519e-006
2.1092351e-005
-6.1311527e-006
2.1681601e-005
-8.8651681e-006
2.218893e-005
-1.2293327e-005
2.1940208e-005
-1.6559627e-005
2.0181797e-005
-2.0523957e-005
1.4798852e-005
-2.4195814e-005
-1.6002945e-005
1.5833703e-005
-3.3085816e-006
1.6743015e-005
-3.9926511e-006
1.74492e-005
-3.5534243e-006
1.7966174e-005
-2.9106315e-006
1.8317738e-005
-2.2525893e-006
1.8545885e-005
-1.6665703e-006
1.8686908e-005
-1.2151172e-006
1.877453e-005
-8.9880102e-007
1.8831385e-005
-6.9634255e-007
1.8871981e-005
-5.910479e-007
1.8905883e-005
-5.7137886e-007
1.8939205e-005
-6.3106592e-007
1.8977809e-005
-7.7769734e-007
1.9024204e-005
-1.0322897e-006
1.9081332e-005
-1.4322106e-006
1.9151013e-005
-2.0322358e-006
1.9222116e-005
-2.9211663e-006
1.9272758e-005
-4.2476934e-006
1.9246922e-005
-6.1053175e-006
1.9004155e-005
-8.622401e-006
1.8325214e-005
-1.1614385e-005
1.6598122e-005
-1.4832535e-005
1.3254958e-005
-1.7180794e-005
6.9049052e-006
-1.7845761e-005
-9.0980401e-006
1.5998919e-005
-4.3036598e-006
1.694755e-005
-4.9412824e-006
1.7611217e-005
-4.2170906e-006
1.8042388e-005
-3.3418027e-006
1.8300613e-005
-2.5108149e-006
1.8443098e-005
-1.8090544e-006
1.8511004e-005
-1.2830237e-006
1.8537548e-005
-9.2534473e-007
1.8543506e-005
-7.023004e-007
1.8538629e-005
-5.8617173e-007
1.8527338e-005
-5.6008781e-007
1.8510056e-005
-6.1378393e-007
1.8485684e-005
-7.533253e-007
1.8449436e-005
-9.9604159e-007
1.8391454e-005
-1.3742283e-006
1.8299184e-005
-1.9399658e-006
1.8140866e-005
-2.7628488e-006
1.7861499e-005
-3.9683265e-006
1.7376785e-005
-5.6206027e-006
1.6502411e-005
-7.7480273e-006
1.5023588e-005
-1.0135562e-005
1.2527401e-005
-1.2336348e-005
8.7701372e-006
-1.342353e-005
3.4438474e-006
-1.2519472e-005
-5.6541926e-006
1.6158459e-005
-5.4582783e-006
1.7061839e-005
-5.844662e-006
1.7590018e-005
-4.7452695e-006
1.7861795e-005
-3.61358e-006
1.797605e-005
-2.6250693e-006
1.8000897e-005
-1.8339018e-006
1.7980423e-005
-1.2625497e-006
1.7939659e-005
-8.8458092e-007
1.789299e-005
-6.5563142e-007
1.7843602e-005
-5.3678295e-007
1.7789673e-005
-5.0615883e-007
1.7726342e-005
-5.504539e-007
1.7645816e-005
-6.7279926e-007
1.7536614e-005
-8.8683912e-007
1.7379757e-005
-1.2173708e-006
1.7150074e-005
-1.7102827e-006
1.6807352e-005
-2.4201268e-006
1.6273716e-005
-3.4346911e-006
1.545638e-005
-4.8032667e-006
1.4191237e-005
-6.4828839e-006
1.2311344e-005
-8.2556693e-006
9.6304829e-006
-9.6554871e-006
6.1643428e-006
-9.9573896e-006
2.1059062e-006
-8.461035e-006
-3.5482864e-006
1.6271072e-005
-6.7255091e-006
1.6983255e-005
-6.5568451e-006
1.7249138e-005
-5.0111521e-006
1.7272373e-005
-3.6368149e-006
1.7189849e-005
-2.5425462e-006
1.707138e-005
-1.7154321e-006
1.695289e-005
-1.1440599e-006
1.6845309e-005
-7.7699975e-007
1.6750477e-005
-5.6079951e-007
1.6663224e-005
-4.4952985e-007
1.6575057e-005
-4.1799168e-007
1.6475959e-005
-4.5135592e-007
1.6352789e-005
-5.4962938e-007
1.6188388e-005
-7.2243814e-007
1.5960409e-005
-9.8939166e-007
1.5633373e-005
-1.3832468e-006
1.5162432e-005
-1.9491858e-006
1.4467427e-005
-2.7396869e-006
1.3452177e-005
-3.7880166e-006
1.1996319e-005
-5.0270255e-006
9.9952306e-006
-6.254581e-006
7.4169114e-006
-7.0771678e-006
4.4199293e-006
-6.9604074e-006
1.4213718e-006
-5.4624775e-006
-2.1269146e-006
1.6264693e-005
-7.9863616e-006
1.6575474e-005
-6.8676255e-006
1.6433792e-005
-4.8694705e-006
1.6129622e-005
-3.3326453e-006
1.5813661e-005
-2.2265848e-006
1.5544128e-005
-1.4458988e-006
1.5332666e-005
-9.3259836e-007
1.5168546e-005
-6.1287989e-007
1.503747e-005
-4.2972354e-007
1.4924737e-005
-3.3679656e-007
1.4815375e-005
-3.0862989e-007
1.4695304e-005
-3.3128458e-007
1.4548164e-005
-4.0248918e-007
1.4353922e-005
-5.281969e-007
1.4087865e-005
-7.2333444e-007
1.3712994e-005
-1.0083758e-006
1.3180353e-005
-1.4165448e-006
1.2419675e-005
-1.9790085e-006
1.1342652e-005
-2.7109939e-006
9.8683338e-006
-3.552707e-006
7.9513793e-006
-4.3376265e-006
5.6506372e-006
-4.7764257e-006
3.192573e-006
-4.5023432e-006
9.9769632e-007
-3.2676009e-006
-1.1292182e-006
1.6018964e-005
-9.0014843e-006
1.5629058e-005
-6.4777196e-006
1.4951177e-005
-4.1915894e-006
1.4285473e-005
-2.6669411e-006
1.3745904e-005
-1.6870164e-006
1.3350651e-005
-1.0506459e-006
1.3072271e-005
-6.5421817e-007
1.2874644e-005
-4.152526e-007
1.2727059e-005
-2.8213858e-007
1.2606177e-005
-2.1591504e-007
1.2492629e-005
-1.950813e-007
1.2369816e-005
-2.0847166e-007
1.2220512e-005
-2.5318503e-007
1.202513e-005
-3.3281473e-007
1.1757936e-005
-4.5614065e-007
1.1385837e-005
-6.3627686e-007
1.0861886e-005
-8.9259436e-007
1.0126865e-005
-1.2439867e-006
9.1099703e-006
-1.6940995e-006
7.7586418e-006
-2.2013785e-006
6.0709129e-006
-2.6498976e-006
4.146741e-006
-2.8522537e-006
2.2254203e-006
-2.5810225e-006
6.6420445e-007
-1.706385e-006
-4.6501379e-007
1.5207538e-005
-9.205181e-006
1.3787416e-005
-5.0575983e-006
1.253834e-005
-2.9425133e-006
1.1577881e-005
-1.7064818e-006
1.0904079e-005
-1.0132147e-006
1.0454913e-005
-6.0148e-007
1.0160648e-005
-3.5995256e-007
9.9650888e-006
-2.1969384e-007
9.8271103e-006
-1.4416009e-007
9.7186076e-006
-1.0741234e-007
9.6192733e-006
-9.5746948e-008
9.5127935e-006
-1.0199191e-007
9.383783e-006
-1.2417456e-007
9.2151303e-006
-1.6416204e-007
8.9846693e-006
-2.2567966e-007
8.6643615e-006
-3.1596901e-007
8.2157351e-006
-4.439679e-007
7.5907478e-006
-6.189994e-007
6.7383919e-006
-8.417436e-007
5.626855e-006
-1.0898416e-006
4.2772986e-006
-1.3003412e-006
2.7968153e-006
-1.3717704e-006
1.4035132e-006
-1.1877203e-006
3.8043139e-007
-6.8330323e-007
-8.4582402e-008
1.3123226e-005
-7.3245664e-006
1.059712e-005
-2.5314919e-006
8.9271648e-006
-1.272558e-006
7.8861374e-006
-6.6545442e-007
7.2455026e-006
-3.7257993e-007
6.8540071e-006
-2.099845e-007
6.6140383e-006
-1.1998373e-007
6.4641356e-006
-6.9791234e-008
6.3636721e-006
-4.3696574e-008
6.2875359e-006
-3.1276132e-008
6.2191098e-006
-2.7320852e-008
6.146123e-006
-2.9005147e-008
6.0575206e-006
-3.5572165e-008
5.940871e-006
-4.7512441e-008
5.7810023e-006
-6.5810914e-008
5.5577461e-006
-9.2712803e-008
5.2446293e-006
-1.3085112e-007
4.8084032e-006
-1.8277327e-007
4.2154514e-006
-2.4879175e-007
3.4471108e-006
-3.2150095e-007
2.5273679e-006
-3.8059829e-007
1.5468209e-006
-3.9122341e-007
6.7733898e-007
-3.1823841e-007
1.3002608e-007
-1.3599031e-007
4.5443689e-008
7.6792745e-006
5.1477826e-006
3.8752246e-006
3.2097702e-006
2.8371903e-006
2.6272057e-006
2.507222e-006
2.4374308e-006
2.3937342e-006
2.3624581e-006
2.3351372e-006
2.306132e-006
2.2705599e-006
2.2230474e-006
2.1572365e-006
2.0645237e-006
1.9336726e-006
1.7508994e-006
1.5021076e-006
1.1806067e-006
8.0000842e-007
4.0878502e-007
9.0546619e-008
-4.5443689e-008
)
;

boundaryField
{
    inlet
    {
        type            calculated;
        value           nonuniform List<scalar> 
20
(
-5.0012803e-006
-5.0012803e-006
-5.0012803e-006
-5.0012803e-006
-5.0012803e-006
-5.0012803e-006
-5.0012803e-006
-5.0012803e-006
-5.0012803e-006
-5.0012803e-006
-1.5003841e-005
-1.5003841e-005
-1.5003841e-005
-1.5003841e-005
-1.5003841e-005
-1.5003841e-005
-1.5003841e-005
-1.5003841e-005
-1.5003841e-005
-1.5003841e-005
)
;
    }
    walls
    {
        type            calculated;
        value           uniform 0;
    }
    outlet
    {
        type            calculated;
        value           nonuniform List<scalar> 10(2.9881179e-005 2.9268524e-005 2.804676e-005 2.6222959e-005 2.3807376e-005 2.0812184e-005 1.7248987e-005 1.3125388e-005 8.4422321e-006 3.1956233e-006);
    }
    centreline
    {
        type            symmetryPlane;
        value           uniform 0;
    }
    frontAndBack
    {
        type            empty;
        value           nonuniform 0();
    }
}


// ************************************************************************* //
