/*--------------------------------*- C++ -*----------------------------------*\
| =========                 |                                                 |
| \\      /  F ield         | OpenFOAM: The Open Source CFD Toolbox           |
|  \\    /   O peration     | Version:  5.x                                   |
|   \\  /    A nd           | Web:      www.OpenFOAM.org                      |
|    \\/     M anipulation  |                                                 |
\*---------------------------------------------------------------------------*/
/*   Windows 32 and 64 bit porting by blueCAPE: http://www.bluecape.com.pt   *\
|  Based on Windows porting (2.0.x v4) by Symscape: http://www.symscape.com   |
\*---------------------------------------------------------------------------*/
FoamFile
{
    version     2.0;
    format      ascii;
    class       surfaceScalarField;
    location    "0.24";
    object      phi_0;
}
// * * * * * * * * * * * * * * * * * * * * * * * * * * * * * * * * * * * * * //

dimensions      [0 3 -1 0 0 0 0];

internalField   nonuniform List<scalar> 
1430
(
5.1652054e-006
-1.6392504e-007
5.3731012e-006
-2.0789578e-007
5.580256e-006
-2.0715475e-007
5.7611523e-006
-1.8089627e-007
5.9138952e-006
-1.5274283e-007
6.0350289e-006
-1.2113365e-007
6.1300089e-006
-9.4979991e-008
6.2042705e-006
-7.4261526e-008
6.2646349e-006
-6.0364442e-008
6.3182692e-006
-5.3634279e-008
6.3717362e-006
-5.3467012e-008
6.4318921e-006
-6.0155899e-008
6.5071694e-006
-7.5277228e-008
6.6086436e-006
-1.0147426e-007
6.752002e-006
-1.4335842e-007
6.9597454e-006
-2.0774338e-007
7.2686178e-006
-3.0887236e-007
7.7366319e-006
-4.6801405e-007
8.4471467e-006
-7.1051475e-007
9.5311354e-006
-1.0839888e-006
1.1125391e-005
-1.5942555e-006
1.3482906e-005
-2.3575151e-006
1.6733933e-005
-3.2510276e-006
2.0945294e-005
-4.2113607e-006
-4.8317898e-006
2.5777084e-005
5.1641886e-006
-3.2683331e-007
5.3764427e-006
-4.2014979e-007
5.5818954e-006
-4.1260732e-007
5.7640269e-006
-3.6302773e-007
5.916141e-006
-3.0485695e-007
6.0371391e-006
-2.4213171e-007
6.1316486e-006
-1.8948941e-007
6.2054493e-006
-1.4806226e-007
6.2654076e-006
-1.2032268e-007
6.3186274e-006
-1.0685409e-007
6.3716282e-006
-1.0646784e-007
6.4312311e-006
-1.1975875e-007
6.5057887e-006
-1.498348e-007
6.6062221e-006
-2.0190768e-007
6.7480916e-006
-2.8522794e-007
6.9535573e-006
-4.1320903e-007
7.2586576e-006
-6.1397265e-007
7.7205157e-006
-9.2987215e-007
8.4214575e-006
-1.4114564e-006
9.4856747e-006
-2.148206e-006
1.1060271e-005
-3.1688519e-006
1.3355899e-005
-4.6531431e-006
1.6575172e-005
-6.4703007e-006
2.0663604e-005
-8.2997933e-006
-9.6769299e-006
2.5508744e-005
5.1659772e-006
-4.915302e-007
5.3797921e-006
-6.339647e-007
5.5866979e-006
-6.1951303e-007
5.7691245e-006
-5.4545431e-007
5.920961e-006
-4.5669345e-007
6.041276e-006
-3.6244678e-007
6.1349338e-006
-2.8314713e-007
6.2078509e-006
-2.2097944e-007
6.2669963e-006
-1.7946806e-007
6.319401e-006
-1.592588e-007
6.3714883e-006
-1.5855509e-007
6.4299709e-006
-1.7824134e-007
6.5030788e-006
-2.2294271e-007
6.6015188e-006
-3.0034765e-007
6.7403922e-006
-4.2410141e-007
6.9412575e-006
-6.140743e-007
7.2390165e-006
-9.1173167e-007
7.6887142e-006
-1.3795698e-006
8.3693341e-006
-2.0920763e-006
9.400278e-006
-3.1791499e-006
1.0919879e-005
-4.6884525e-006
1.3133697e-005
-6.8669616e-006
1.6221635e-005
-9.5582386e-006
2.0171539e-005
-1.2249698e-005
-1.4368462e-005
2.4863071e-005
5.1686823e-006
-6.5893217e-007
5.3850369e-006
-8.5031927e-007
5.5939606e-006
-8.2843677e-007
5.7768642e-006
-7.2835791e-007
5.9282806e-006
-6.0810986e-007
6.0475371e-006
-4.817032e-007
6.1398739e-006
-3.7548391e-007
6.211501e-006
-2.9260659e-007
6.2694401e-006
-2.3740715e-007
6.320613e-006
-2.1043169e-007
6.3713311e-006
-2.0927326e-007
6.4281576e-006
-2.3506779e-007
6.499105e-006
-2.9389012e-007
6.5945696e-006
-3.9581222e-007
6.7290113e-006
-5.5854312e-007
6.9230643e-006
-8.0812727e-007
7.2099533e-006
-1.1986207e-006
7.6418091e-006
-1.8114256e-006
8.2926171e-006
-2.7428844e-006
9.2740668e-006
-4.1605995e-006
1.0713444e-005
-6.1278301e-006
1.28042e-005
-8.9577173e-006
1.5696651e-005
-1.245069e-005
1.9430426e-005
-1.5983473e-005
-1.8807598e-005
2.3869563e-005
5.1724869e-006
-8.3013873e-007
5.3922378e-006
-1.0700701e-006
5.6037908e-006
-1.0399898e-006
5.787277e-006
-9.1184411e-007
5.9381048e-006
-7.5893765e-007
6.0559137e-006
-5.9951204e-007
6.1464653e-006
-4.6603555e-007
6.2163919e-006
-3.6253316e-007
6.2727316e-006
-2.9374681e-007
6.3222494e-006
-2.5994953e-007
6.3711559e-006
-2.5817976e-007
6.4258157e-006
-2.897276e-007
6.4939137e-006
-3.6198814e-007
6.5854605e-006
-4.8735895e-007
6.7141016e-006
-6.8718424e-007
6.8992578e-006
-9.9328344e-007
7.1719883e-006
-1.4713512e-006
7.5807093e-006
-2.2201466e-006
8.192663e-006
-3.3548381e-006
9.109864e-006
-5.0778005e-006
1.0443376e-005
-7.4613425e-006
1.2370487e-005
-1.0884828e-005
1.5009262e-005
-1.5089465e-005
1.8451014e-005
-1.9425225e-005
-2.287515e-005
2.2518566e-005
5.1775563e-006
-1.0064147e-006
5.401502e-006
-1.2940158e-006
5.6162739e-006
-1.2547617e-006
5.8003959e-006
-1.0959661e-006
5.9504092e-006
-9.08951e-007
6.0663532e-006
-7.1545597e-007
6.154659e-006
-5.5434139e-007
6.2224729e-006
-4.3034708e-007
6.2768159e-006
-3.4808982e-007
6.324254e-006
-3.0738759e-007
6.3709123e-006
-3.0483808e-007
6.4229264e-006
-3.4174171e-007
6.4875227e-006
-4.2658444e-007
6.5742394e-006
-5.7407564e-007
6.6957725e-006
-8.0871732e-007
6.8700693e-006
-1.1675803e-006
7.1255418e-006
-1.7268236e-006
7.5062017e-006
-2.6008065e-006
8.0712226e-006
-3.9198589e-006
8.9103631e-006
-5.916941e-006
1.0113365e-005
-8.6643445e-006
1.1839641e-005
-1.2611104e-005
1.4159514e-005
-1.7409338e-005
1.7220413e-005
-2.2486124e-005
-2.6479374e-005
2.0824637e-005
5.1840618e-006
-1.1891962e-006
5.4129224e-006
-1.5228765e-006
5.631433e-006
-1.4732723e-006
5.8161756e-006
-1.2807087e-006
5.9650835e-006
-1.057859e-006
6.0787225e-006
-8.2909491e-007
6.1643253e-006
-6.3994424e-007
6.2295978e-006
-4.9561956e-007
6.2815426e-006
-4.0003459e-007
6.326473e-006
-3.5231803e-007
6.3704664e-006
-3.4883142e-007
6.4193902e-006
-3.9066554e-007
6.4798691e-006
-4.8706339e-007
6.5609041e-006
-6.5511059e-007
6.6740996e-006
-9.2191279e-007
6.8357171e-006
-1.3291978e-006
7.0711213e-006
-1.9622278e-006
7.4193297e-006
-2.9490149e-006
7.9302229e-006
-4.4307521e-006
8.6786301e-006
-6.6653483e-006
9.7289328e-006
-9.7146472e-006
1.1216718e-005
-1.4098889e-005
1.313913e-005
-1.933175e-005
1.5759377e-005
-2.510637e-005
-2.9457512e-005
1.8737514e-005
5.192196e-006
-1.3801119e-006
5.4265181e-006
-1.7571986e-006
5.6491968e-006
-1.695951e-006
5.8344515e-006
-1.4659633e-006
5.9818678e-006
-1.2052753e-006
6.092742e-006
-9.3996904e-007
6.1751999e-006
-7.2240216e-007
6.2374901e-006
-5.5790978e-007
6.2866236e-006
-4.4916812e-007
6.3286447e-006
-3.943391e-007
6.3695649e-006
-3.897516e-007
6.414967e-006
-4.3606764e-007
6.470788e-006
-5.4288442e-007
6.5453674e-006
-7.2968998e-007
6.6490832e-006
-1.0256286e-006
6.7964021e-006
-1.4765167e-006
7.0093443e-006
-2.1751699e-006
7.3212706e-006
-3.2609412e-006
7.7718862e-006
-4.8813676e-006
8.4190536e-006
-7.3125157e-006
9.2970893e-006
-1.0592683e-005
1.051114e-005
-1.5312939e-005
1.1993785e-005
-2.0814396e-005
1.4126723e-005
-2.7239308e-005
-3.1471035e-005
1.6140246e-005
5.2022187e-006
-1.5810502e-006
5.4421855e-006
-1.9971653e-006
5.669429e-006
-1.9231945e-006
5.8549285e-006
-1.6514627e-006
6.0003465e-006
-1.3506933e-006
6.1079768e-006
-1.0475993e-006
6.1868389e-006
-8.0126423e-007
6.2457118e-006
-6.1678264e-007
6.2915994e-006
-4.950557e-007
6.3303259e-006
-4.3306561e-007
6.3678093e-006
-4.2723503e-007
6.4092895e-006
-4.7754776e-007
6.4599753e-006
-5.9357025e-007
6.5274096e-006
-7.9712428e-007
6.6206554e-006
-1.1188744e-006
6.7522973e-006
-1.6081586e-006
6.9408884e-006
-2.3637611e-006
7.2134372e-006
-3.53349e-006
7.5987134e-006
-5.2666438e-006
8.1374052e-006
-7.8512074e-006
8.8281143e-006
-1.1283392e-005
9.7442137e-006
-1.6229039e-005
1.0747063e-005
-2.1817245e-005
1.2343043e-005
-2.8835288e-005
-3.2128735e-005
1.3000742e-005
5.21296e-006
-1.7927298e-006
5.4608517e-006
-2.2450568e-006
5.6915624e-006
-2.1539051e-006
5.8772464e-006
-1.8371465e-006
6.019869e-006
-1.4933158e-006
6.1237866e-006
-1.1515168e-006
6.1986228e-006
-8.7610034e-007
6.253637e-006
-6.7179683e-007
6.2958317e-006
-5.372503e-007
6.3309382e-006
-4.6817215e-007
6.3646319e-006
-4.6092874e-007
6.4018022e-006
-5.1471802e-007
6.4469771e-006
-6.3874511e-007
6.5066626e-006
-8.5680973e-007
6.5885851e-006
-1.2007969e-006
6.7034343e-006
-1.7230078e-006
6.866127e-006
-2.5264537e-006
7.0968369e-006
-3.7641998e-006
7.4137884e-006
-5.5835952e-006
7.8386509e-006
-8.27607e-006
8.3423061e-006
-1.1787047e-005
8.9236363e-006
-1.6810369e-005
9.391285e-006
-2.2284894e-005
1.0136941e-005
-2.9580945e-005
8.8110462e-006
-3.080284e-005
2.8500572e-005
-2.7234885e-006
2.9528461e-005
-1.0278891e-006
2.9784579e-005
-2.5611747e-007
2.9849564e-005
-6.4985474e-008
2.986873e-005
-1.9165434e-008
2.987512e-005
-6.3908628e-009
2.988164e-005
-6.5201913e-009
2.9884535e-005
-2.8946443e-009
2.9884418e-005
1.1734189e-010
2.9883083e-005
1.3347435e-009
2.9882077e-005
1.0055974e-009
2.988171e-005
3.6699248e-010
2.9881723e-005
-1.290997e-011
2.9881803e-005
-7.9936205e-011
2.9881839e-005
-3.5445038e-011
2.9881838e-005
5.8146337e-013
2.988183e-005
7.6224013e-012
2.9881827e-005
3.2925738e-012
2.9881827e-005
-1.0574001e-013
2.9881828e-005
-6.6339468e-013
2.9881828e-005
-3.2855205e-013
2.9881828e-005
-7.6031427e-014
2.9881828e-005
1.9622943e-013
2.9881827e-005
1.3115045e-012
1.2390629e-012
2.8003139e-005
-5.2178834e-006
2.8975451e-005
-2.0002003e-006
2.9192979e-005
-4.7364576e-007
2.9250502e-005
-1.2250866e-007
2.9258388e-005
-2.7051932e-008
2.9263817e-005
-1.1819401e-008
2.9268916e-005
-1.1619255e-008
2.9271629e-005
-5.6075844e-009
2.927142e-005
3.2598086e-010
2.9270248e-005
2.5063995e-009
2.9269347e-005
1.9066424e-009
2.9269037e-005
6.7683318e-010
2.9269056e-005
-3.1864372e-011
2.9269129e-005
-1.5284096e-010
2.9269159e-005
-6.5493896e-011
2.9269158e-005
1.8430728e-012
2.9269151e-005
1.4398087e-011
2.9269149e-005
6.0025202e-012
2.9269149e-005
-2.7600143e-013
2.9269149e-005
-1.2576063e-012
2.926915e-005
-6.1923384e-013
2.926915e-005
-1.152529e-013
2.9269149e-005
4.2146262e-013
2.9269148e-005
2.4280448e-012
2.3447733e-012
2.7049715e-005
-7.4045271e-006
2.7853848e-005
-2.8043334e-006
2.8022302e-005
-6.4209964e-007
2.8039021e-005
-1.3922754e-007
2.8036752e-005
-2.4783372e-008
2.8043025e-005
-1.8092607e-008
2.8047459e-005
-1.6052999e-008
2.8049346e-005
-7.4943464e-009
2.8049011e-005
6.6102242e-010
2.8048075e-005
3.4422169e-009
2.8047402e-005
2.579434e-009
2.8047205e-005
8.7343135e-010
2.804724e-005
-6.5963524e-011
2.8047297e-005
-2.0987159e-010
2.8047317e-005
-8.560545e-011
2.8047314e-005
4.3005632e-012
2.8047309e-005
1.9509675e-011
2.8047307e-005
7.681185e-012
2.8047308e-005
-5.6167274e-013
2.8047308e-005
-1.7106053e-012
2.8047308e-005
-8.0334422e-013
2.8047308e-005
-8.6830002e-014
2.8047308e-005
6.6129443e-013
2.8047307e-005
3.2673818e-012
3.1322396e-012
2.5623531e-005
-9.1584955e-006
2.6176671e-005
-3.3574726e-006
2.6239423e-005
-7.0485176e-007
2.6222195e-005
-1.2199951e-007
2.6217203e-005
-1.9791742e-008
2.6222281e-005
-2.3170442e-008
2.6224324e-005
-1.8095783e-008
2.6224737e-005
-7.9077297e-009
2.6224229e-005
1.1688761e-009
2.6223629e-005
4.0427817e-009
2.6223303e-005
2.9047433e-009
2.6223261e-005
9.1586614e-010
2.6223306e-005
-1.1138338e-010
2.6223338e-005
-2.4215696e-010
2.6223345e-005
-9.1862827e-011
2.6223341e-005
7.9125009e-012
2.6223338e-005
2.2208306e-011
2.6223338e-005
8.0301929e-012
2.6223338e-005
-9.3609322e-013
2.6223339e-005
-1.9592244e-012
2.6223339e-005
-8.3848767e-013
2.6223339e-005
-1.0804933e-014
2.6223338e-005
8.7874987e-013
2.6223338e-005
3.7367191e-012
3.5037955e-012
2.3703622e-005
-1.0343551e-005
2.3898682e-005
-3.5525324e-006
2.3837503e-005
-6.4367341e-007
2.3817343e-005
-1.0183893e-007
2.3811375e-005
-1.3824493e-008
2.3810593e-005
-2.23882e-008
2.3808984e-005
-1.6486721e-008
2.3807908e-005
-6.8320024e-009
2.3807362e-005
1.7149527e-009
2.3807246e-005
4.1590004e-009
2.3807344e-005
2.8068398e-009
2.3807456e-005
8.0390938e-010
2.3807498e-005
-1.5330179e-010
2.3807498e-005
-2.4210481e-010
2.3807489e-005
-8.3093416e-011
2.3807485e-005
1.16044e-011
2.3807486e-005
2.1887014e-011
2.3807486e-005
7.052683e-012
2.3807487e-005
-1.2894494e-012
2.3807487e-005
-1.9506136e-012
2.3807487e-005
-7.4683805e-013
2.3807487e-005
9.0788954e-014
2.3807486e-005
1.0454012e-012
2.3807486e-005
3.7517392e-012
3.4100581e-012
2.1230348e-005
-1.0749262e-005
2.0987444e-005
-3.309628e-006
2.0850665e-005
-5.0689517e-007
2.0831432e-005
-8.2605203e-008
2.0822819e-005
-5.2121894e-009
2.081736e-005
-1.6929174e-008
2.0813146e-005
-1.2272224e-008
2.0811125e-005
-4.8107913e-009
2.0810805e-005
2.0340445e-009
2.0811284e-005
3.6805074e-009
2.0811783e-005
2.3075065e-009
2.0812003e-005
5.840451e-010
2.0812021e-005
-1.7096109e-010
2.0811986e-005
-2.0753775e-010
2.0811966e-005
-6.2612413e-011
2.0811964e-005
1.3564126e-011
2.0811967e-005
1.8500246e-011
2.0811969e-005
5.1326747e-012
2.0811969e-005
-1.4454466e-012
2.0811969e-005
-1.6686621e-012
2.0811969e-005
-5.6701778e-013
2.0811969e-005
1.7483243e-013
2.0811969e-005
1.1008788e-012
2.0811969e-005
3.3001342e-012
2.8861332e-012
1.8108955e-005
-1.0120703e-005
1.7457316e-005
-2.6579894e-006
1.7295578e-005
-3.4515692e-007
1.7271323e-005
-5.8350085e-008
1.7261225e-005
4.8857014e-009
1.7253882e-005
-9.586928e-009
1.7248665e-005
-7.0550278e-009
1.7246425e-005
-2.5705284e-009
1.7246568e-005
1.8913824e-009
1.7247572e-005
2.6762573e-009
1.7248324e-005
1.5549129e-009
1.7248574e-005
3.3415726e-010
1.7248553e-005
-1.5003261e-010
1.7248492e-005
-1.4626988e-010
1.7248467e-005
-3.7541061e-011
1.7248468e-005
1.2331096e-011
1.7248474e-005
1.2862481e-011
1.7248476e-005
2.9327877e-012
1.7248476e-005
-1.2846196e-012
1.7248476e-005
-1.1765724e-012
1.7248475e-005
-3.4500104e-013
1.7248475e-005
1.9904055e-013
1.7248475e-005
9.7304691e-013
1.7248476e-005
2.4644668e-012
2.0658996e-012
1.4244284e-005
-8.22474e-006
1.3327104e-005
-1.740809e-006
1.31682e-005
-1.8625377e-007
1.3139679e-005
-2.9828542e-008
1.3134181e-005
1.0383923e-008
1.312813e-005
-3.536017e-009
1.312371e-005
-2.6357446e-009
1.3122008e-005
-8.6810936e-010
1.312264e-005
1.2598299e-009
1.3123871e-005
1.4444357e-009
1.3124647e-005
7.7882399e-010
1.312485e-005
1.3133072e-010
1.3124795e-005
-9.5246653e-011
1.3124726e-005
-7.6618201e-011
1.3124704e-005
-1.5975215e-011
1.3124709e-005
8.0028846e-012
1.3124715e-005
6.6317441e-012
1.3124717e-005
1.1457174e-012
1.3124716e-005
-8.3067433e-013
1.3124716e-005
-6.2694207e-013
1.3124715e-005
-1.5554884e-013
1.3124715e-005
1.5357206e-013
1.3124716e-005
6.6631419e-013
1.3124717e-005
1.4337102e-012
1.1506805e-012
9.6152136e-006
-4.8392115e-006
8.5976718e-006
-7.2326714e-007
8.4629584e-006
-5.1540391e-008
8.4423054e-006
-9.1754802e-009
8.4452408e-006
7.4485545e-009
8.4424444e-006
-7.3963018e-010
8.4400018e-006
-1.9313059e-010
8.4392309e-006
-9.7303742e-011
8.440029e-006
4.6176829e-010
8.4410556e-006
4.178264e-010
8.4416241e-006
2.1035534e-010
8.4417338e-006
2.1563863e-011
8.4416711e-006
-3.2516666e-011
8.4416162e-006
-2.1686766e-011
8.4416034e-006
-3.2547686e-012
8.4416087e-006
2.7568577e-012
8.4416135e-006
1.8215097e-012
8.4416145e-006
1.809509e-013
8.4416139e-006
-2.9337659e-013
8.4416135e-006
-1.8711096e-013
8.4416134e-006
-4.2227326e-014
8.4416134e-006
5.6756416e-014
8.4416138e-006
2.6200451e-013
8.4416148e-006
4.9244272e-013
3.7981519e-013
3.9718347e-006
3.2485675e-006
3.1970272e-006
3.1878517e-006
3.1953003e-006
3.1945606e-006
3.1943675e-006
3.1942702e-006
3.194732e-006
3.1951498e-006
3.1953601e-006
3.1953817e-006
3.1953492e-006
3.1953275e-006
3.1953242e-006
3.195327e-006
3.1953288e-006
3.195329e-006
3.1953287e-006
3.1953285e-006
3.1953285e-006
3.1953285e-006
3.1953288e-006
3.1953293e-006
1.5688309e-005
-2.4771973e-006
1.6524924e-005
-3.0816721e-006
1.7216719e-005
-2.8457001e-006
1.7771859e-005
-2.3922861e-006
1.8178414e-005
-1.8998701e-006
1.8464428e-005
-1.4375308e-006
1.8661789e-005
-1.0734613e-006
1.8800764e-005
-8.1077202e-007
1.8902758e-005
-6.392442e-007
1.8984906e-005
-5.5032027e-007
1.9061392e-005
-5.3741416e-007
1.9144402e-005
-5.9772807e-007
1.9244753e-005
-7.3909684e-007
1.9373837e-005
-9.8589358e-007
1.9548092e-005
-1.3750519e-006
1.9787519e-005
-1.9624346e-006
2.0110855e-005
-2.84979e-006
2.0543317e-005
-4.1966612e-006
2.1090586e-005
-6.1308641e-006
2.1679952e-005
-8.8654369e-006
2.2187506e-005
-1.2294601e-005
2.1939103e-005
-1.6561966e-005
2.0181064e-005
-2.0526855e-005
1.4798533e-005
-2.4198414e-005
-1.6004307e-005
1.5833344e-005
-3.3067007e-006
1.6742433e-005
-3.9907608e-006
1.7448457e-005
-3.5517237e-006
1.7965279e-005
-2.9091081e-006
1.8316709e-005
-2.2513006e-006
1.8544751e-005
-1.665573e-006
1.8685704e-005
-1.2144142e-006
1.8773291e-005
-8.9835895e-007
1.8830139e-005
-6.9609162e-007
1.8870743e-005
-5.9092479e-007
1.8904662e-005
-5.7133273e-007
1.8938002e-005
-6.3106852e-007
1.8976629e-005
-7.7772402e-007
1.9023054e-005
-1.0323186e-006
1.9080217e-005
-1.4322145e-006
1.9149942e-005
-2.0321597e-006
1.9221104e-005
-2.9209517e-006
1.9271821e-005
-4.2473786e-006
1.9246097e-005
-6.10514e-006
1.9003476e-005
-8.6228159e-006
1.8324695e-005
-1.161582e-005
1.6597757e-005
-1.4835029e-005
1.3254709e-005
-1.7183807e-005
6.9047483e-006
-1.7848453e-005
-9.0995585e-006
1.5998737e-005
-4.3015972e-006
1.6947362e-005
-4.9393852e-006
1.7611047e-005
-4.2154089e-006
1.8042221e-005
-3.3402821e-006
1.8300435e-005
-2.5095147e-006
1.8442898e-005
-1.8080359e-006
1.8510786e-005
-1.2823024e-006
1.8537329e-005
-9.2490193e-007
1.8543303e-005
-7.0206498e-007
1.853845e-005
-5.8607197e-007
1.8527181e-005
-5.6006428e-007
1.8509922e-005
-6.1380918e-007
1.8485574e-005
-7.5337621e-007
1.8449355e-005
-9.9609942e-007
1.839141e-005
-1.3742692e-006
1.8299192e-005
-1.9399424e-006
1.8140953e-005
-2.762712e-006
1.7861681e-005
-3.968107e-006
1.7377078e-005
-5.6205366e-006
1.6502816e-005
-7.7485547e-006
1.5024038e-005
-1.0137042e-005
1.2527783e-005
-1.2338773e-005
8.7703656e-006
-1.3426389e-005
3.443902e-006
-1.252199e-005
-5.6556565e-006
1.6158524e-005
-5.4562806e-006
1.7062113e-005
-5.8429741e-006
1.7590485e-005
-4.7437806e-006
1.7862422e-005
-3.6122193e-006
1.7976795e-005
-2.6238876e-006
1.8001718e-005
-1.8329591e-006
1.7981294e-005
-1.2618779e-006
1.7940568e-005
-8.8417629e-007
1.7893933e-005
-6.5542959e-007
1.7844572e-005
-5.3671083e-007
1.7790665e-005
-5.0615785e-007
1.7727354e-005
-5.5049802e-007
1.7646844e-005
-6.7286576e-007
1.7537659e-005
-8.869148e-007
1.738083e-005
-1.2174406e-006
1.7151193e-005
-1.7103047e-006
1.6808541e-005
-2.4200599e-006
1.6274999e-005
-3.4345649e-006
1.5457742e-005
-4.8032796e-006
1.4192601e-005
-6.4834139e-006
1.2312602e-005
-8.2570431e-006
9.6314804e-006
-9.6576519e-006
6.1649646e-006
-9.9598737e-006
2.1061428e-006
-8.4631681e-006
-3.5495137e-006
1.6271374e-005
-6.7238139e-006
1.6983899e-005
-6.5554986e-006
1.7250081e-005
-5.0099624e-006
1.7273587e-005
-3.6357253e-006
1.719129e-005
-2.5415905e-006
1.7072988e-005
-1.7146578e-006
1.6954612e-005
-1.1435014e-006
1.68471e-005
-7.7666441e-007
1.6752311e-005
-5.6064082e-007
1.6665085e-005
-4.494853e-007
1.6576936e-005
-4.1800829e-007
1.6477846e-005
-4.5140813e-007
1.6354682e-005
-5.4970167e-007
1.6190286e-005
-7.2251903e-007
1.5962317e-005
-9.8947119e-007
1.5635305e-005
-1.3832929e-006
1.5164409e-005
-1.9491638e-006
1.4469467e-005
-2.7396229e-006
1.3454254e-005
-3.7880671e-006
1.1998319e-005
-5.0274781e-006
9.9969814e-006
-6.2557059e-006
7.418248e-006
-7.0789185e-006
4.4207559e-006
-6.9623815e-006
1.4217032e-006
-5.4641154e-006
-2.1278105e-006
1.6265134e-005
-7.985107e-006
1.6576288e-005
-6.8666526e-006
1.6434935e-005
-4.8686089e-006
1.6131078e-005
-3.3318683e-006
1.5815398e-005
-2.2259106e-006
1.5546084e-005
-1.4453439e-006
1.5334772e-005
-9.3218923e-007
1.5170742e-005
-6.1263493e-007
1.5039715e-005
-4.2961356e-007
1.4927005e-005
-3.367753e-007
1.4817652e-005
-3.0865571e-007
1.4697579e-005
-3.3133506e-007
1.4550432e-005
-4.0255443e-007
1.4356182e-005
-5.2826925e-007
1.4090116e-005
-7.2340561e-007
1.3715248e-005
-1.0084247e-006
1.3182631e-005
-1.416546e-006
1.2421986e-005
-1.9789783e-006
1.1344961e-005
-2.7110421e-006
9.8705185e-006
-3.5530355e-006
7.9532412e-006
-4.3384286e-006
5.6520105e-006
-4.7776878e-006
3.1933955e-006
-4.5037665e-006
9.980171e-007
-3.268737e-006
-1.1297934e-006
1.6019432e-005
-9.0006978e-006
1.562987e-005
-6.4770905e-006
1.4952289e-005
-4.1910281e-006
1.4286879e-005
-2.6664581e-006
1.3747579e-005
-1.6866114e-006
1.3352544e-005
-1.0503088e-006
1.307432e-005
-6.5396448e-007
1.2876786e-005
-4.1510151e-007
1.2729248e-005
-2.8207516e-007
1.2608382e-005
-2.1591001e-007
1.2494834e-005
-1.9510686e-007
1.2372011e-005
-2.0851209e-007
1.222269e-005
-2.5323374e-007
1.2027289e-005
-3.3286878e-007
1.1760077e-005
-4.5619354e-007
1.1387968e-005
-6.3631498e-007
1.0864025e-005
-8.926035e-007
1.0129019e-005
-1.2439724e-006
9.1121075e-006
-1.6941302e-006
7.7606491e-006
-2.2015771e-006
6.0726037e-006
-2.6503832e-006
4.1479602e-006
-2.8530443e-006
2.2261197e-006
-2.5819259e-006
6.6445997e-007
-1.7070773e-006
-4.6533338e-007
1.520794e-005
-9.204797e-006
1.3788108e-005
-5.0572586e-006
1.2539294e-005
-2.9422143e-006
1.1579078e-005
-1.7062417e-006
1.0905491e-005
-1.0130241e-006
1.0456502e-005
-6.013205e-007
1.0162369e-005
-3.5983125e-007
9.966891e-006
-2.196234e-007
9.8289495e-006
-1.4413361e-007
9.7204548e-006
-1.0741534e-007
9.621113e-006
-9.5765103e-008
9.5146177e-006
-1.0201682e-007
9.3855871e-006
-1.2420314e-007
9.216912e-006
-1.6419366e-007
8.986429e-006
-2.2571047e-007
8.6661058e-006
-3.1599177e-007
8.2174781e-006
-4.4397583e-007
7.5924982e-006
-6.1899252e-007
6.7401224e-006
-8.4175441e-007
5.628477e-006
-1.0899316e-006
4.2786676e-006
-1.3005738e-006
2.7977891e-006
-1.3721658e-006
1.4040481e-006
-1.188185e-006
3.8061289e-007
-6.83642e-007
-8.472048e-008
1.3123503e-005
-7.3244588e-006
1.0597623e-005
-2.5313786e-006
8.9278698e-006
-1.2724614e-006
7.8870138e-006
-6.6538573e-007
7.2465177e-006
-3.725279e-007
6.8551396e-006
-2.0994244e-007
6.6152606e-006
-1.1995223e-007
6.4654114e-006
-6.9774228e-008
6.3649697e-006
-4.3691942e-008
6.2888342e-006
-3.1279831e-008
6.2203978e-006
-2.7328773e-008
6.1473957e-006
-2.9014699e-008
6.0587753e-006
-3.5582712e-008
5.9421056e-006
-4.7524032e-008
5.7822172e-006
-6.582202e-008
5.5589469e-006
-9.2721446e-008
5.2458258e-006
-1.308547e-007
4.8096039e-006
-1.8277066e-007
4.2166411e-006
-2.487915e-007
3.4482312e-006
-3.2152173e-007
2.5283213e-006
-3.8066385e-007
1.5474953e-006
-3.9133976e-007
6.7769209e-007
-3.1838175e-007
1.3013246e-007
-1.3608235e-007
4.5411992e-008
7.6793822e-006
5.1480036e-006
3.8755422e-006
3.2101565e-006
2.8376286e-006
2.6276862e-006
2.5077339e-006
2.4379597e-006
2.3942678e-006
2.3629879e-006
2.3356591e-006
2.3066444e-006
2.2710617e-006
2.2235377e-006
2.1577157e-006
2.0649942e-006
1.9341396e-006
1.7513689e-006
1.5025774e-006
1.1810557e-006
8.0039186e-007
4.090521e-007
9.0670354e-008
-4.5411992e-008
)
;

boundaryField
{
    inlet
    {
        type            calculated;
        value           nonuniform List<scalar> 
20
(
-5.0012803e-006
-5.0012803e-006
-5.0012803e-006
-5.0012803e-006
-5.0012803e-006
-5.0012803e-006
-5.0012803e-006
-5.0012803e-006
-5.0012803e-006
-5.0012803e-006
-1.5003841e-005
-1.5003841e-005
-1.5003841e-005
-1.5003841e-005
-1.5003841e-005
-1.5003841e-005
-1.5003841e-005
-1.5003841e-005
-1.5003841e-005
-1.5003841e-005
)
;
    }
    walls
    {
        type            calculated;
        value           uniform 0;
    }
    outlet
    {
        type            calculated;
        value           nonuniform List<scalar> 10(2.9881826e-005 2.9269147e-005 2.8047306e-005 2.6223338e-005 2.3807487e-005 2.081197e-005 1.7248477e-005 1.3124718e-005 8.4416155e-006 3.1953296e-006);
    }
    centreline
    {
        type            symmetryPlane;
        value           uniform 0;
    }
    frontAndBack
    {
        type            empty;
        value           nonuniform 0();
    }
}


// ************************************************************************* //
