/*--------------------------------*- C++ -*----------------------------------*\
| =========                 |                                                 |
| \\      /  F ield         | OpenFOAM: The Open Source CFD Toolbox           |
|  \\    /   O peration     | Version:  5.x                                   |
|   \\  /    A nd           | Web:      www.OpenFOAM.org                      |
|    \\/     M anipulation  |                                                 |
\*---------------------------------------------------------------------------*/
/*   Windows 32 and 64 bit porting by blueCAPE: http://www.bluecape.com.pt   *\
|  Based on Windows porting (2.0.x v4) by Symscape: http://www.symscape.com   |
\*---------------------------------------------------------------------------*/
FoamFile
{
    version     2.0;
    format      ascii;
    class       volSymmTensorField;
    location    "0.24";
    object      sigma_0;
}
// * * * * * * * * * * * * * * * * * * * * * * * * * * * * * * * * * * * * * //

dimensions      [0 2 -2 0 0 0 0];

internalField   nonuniform List<symmTensor> 
750
(
(-0.00042362097 2.8341622e-005 0 0.00041111992 0 0)
(-0.00055636264 3.3153949e-006 0 0.00056152787 0 0)
(-0.00058616266 -6.3652026e-006 0 0.00056865913 0 0)
(-0.00050844663 -1.0769988e-005 0 0.00050522057 0 0)
(-0.00042891375 -1.1151793e-005 0 0.00042247129 0 0)
(-0.00034772445 -1.0499063e-005 0 0.00034490665 0 0)
(-0.00026932067 -8.4235072e-006 0 0.00026707176 0 0)
(-0.00021522518 -6.3270918e-006 0 0.00021404896 0 0)
(-0.00017549058 -3.8641693e-006 0 0.00017468352 0 0)
(-0.00015698501 -1.4679599e-006 0 0.00015629875 0 0)
(-0.00015702518 7.1324793e-007 0 0.00015629488 0 0)
(-0.00017776346 3.5729671e-006 0 0.0001769278 0 0)
(-0.00022108541 7.0838903e-006 0 0.00021981084 0 0)
(-0.0002934274 1.1619354e-005 0 0.00029086378 0 0)
(-0.00041546514 1.8499633e-005 0 0.00041075581 0 0)
(-0.00059842765 2.8814308e-005 0 0.00058883342 0 0)
(-0.00088093339 4.4823657e-005 0 0.00085949883 0 0)
(-0.0013337622 7.0462124e-005 0 0.001286041 0 0)
(-0.0020481065 0.00011344495 0 0.001942109 0 0)
(-0.0031542571 0.00017440268 0 0.0028893916 0 0)
(-0.0048204068 0.00027427508 0 0.0042830121 0 0)
(-0.0072631411 0.00040775761 0 0.0059707549 0 0)
(-0.010484705 0.000561085 0 0.008231552 0 0)
(-0.014251395 0.00080618526 0 0.010017266 0 0)
(-0.017680419 0.00058834097 0 0.011876478 0 0)
(-0.00042622468 8.5471015e-005 0 0.0004106743 0 0)
(-0.00055759347 1.0055741e-005 0 0.00056791105 0 0)
(-0.00058810373 -1.9699582e-005 0 0.00056754497 0 0)
(-0.00050862849 -3.2168803e-005 0 0.00050673799 0 0)
(-0.00042935428 -3.3722643e-005 0 0.00042212842 0 0)
(-0.00034619957 -3.1495448e-005 0 0.00034365766 0 0)
(-0.00026777812 -2.517014e-005 0 0.00026551212 0 0)
(-0.00021465513 -1.8903045e-005 0 0.00021321661 0 0)
(-0.00017444473 -1.1590007e-005 0 0.00017354209 0 0)
(-0.00015585952 -4.3803407e-006 0 0.00015508457 0 0)
(-0.00015572745 2.1747452e-006 0 0.00015490847 0 0)
(-0.00017614163 1.0712868e-005 0 0.00017520929 0 0)
(-0.00021906615 2.1182923e-005 0 0.00021765631 0 0)
(-0.00029039611 3.4698222e-005 0 0.00028759727 0 0)
(-0.00041138087 5.525619e-005 0 0.00040636081 0 0)
(-0.00059211055 8.5805138e-005 0 0.00058203969 0 0)
(-0.00087047411 0.00013315225 0 0.00084812617 0 0)
(-0.0013168559 0.00020904869 0 0.0012677833 0 0)
(-0.0020206726 0.00033531567 0 0.0019129234 0 0)
(-0.0031023419 0.00050574648 0 0.0028333452 0 0)
(-0.0047503746 0.00082314316 0 0.004214819 0 0)
(-0.0071162883 0.0011591118 0 0.0058117303 0 0)
(-0.01033665 0.0016756517 0 0.0081156737 0 0)
(-0.014051189 0.0024955399 0 0.0096945558 0 0)
(-0.017303069 0.0018139089 0 0.011749729 0 0)
(-0.00043021905 0.00014316446 0 0.00041294747 0 0)
(-0.00056136279 1.6200283e-005 0 0.00057352706 0 0)
(-0.0005916883 -3.3906513e-005 0 0.00056971038 0 0)
(-0.00050978853 -5.3786609e-005 0 0.00050821411 0 0)
(-0.00042873618 -5.6859792e-005 0 0.00042134624 0 0)
(-0.00034447333 -5.3027508e-005 0 0.00034197777 0 0)
(-0.00026546304 -4.215142e-005 0 0.00026323823 0 0)
(-0.00021240898 -3.1689085e-005 0 0.00021104493 0 0)
(-0.00017217342 -1.9643723e-005 0 0.00017134816 0 0)
(-0.00015355575 -7.6651488e-006 0 0.00015286245 0 0)
(-0.00015309502 3.3038217e-006 0 0.00015235977 0 0)
(-0.00017307673 1.7515784e-005 0 0.00017224608 0 0)
(-0.00021499151 3.4755148e-005 0 0.0002137133 0 0)
(-0.00028458984 5.7102743e-005 0 0.00028194825 0 0)
(-0.00040309579 9.1157904e-005 0 0.00039833204 0 0)
(-0.00057941304 0.0001414248 0 0.00056973632 0 0)
(-0.00085009714 0.0002192478 0 0.00082833992 0 0)
(-0.0012836566 0.00034416367 0 0.0012357412 0 0)
(-0.0019652282 0.00054881389 0 0.0018598473 0 0)
(-0.0030048944 0.00083950627 0 0.0027396775 0 0)
(-0.0045979147 0.0013386513 0 0.004074797 0 0)
(-0.0068614459 0.0019394321 0 0.0055721297 0 0)
(-0.0099617847 0.0027856016 0 0.0077987412 0 0)
(-0.013840724 0.0040520217 0 0.0092787351 0 0)
(-0.016507629 0.0029543737 0 0.011364169 0 0)
(-0.00043621941 0.00020131107 0 0.00041818648 0 0)
(-0.00056755916 2.1657406e-005 0 0.00057966112 0 0)
(-0.00059705026 -4.9204241e-005 0 0.00057492073 0 0)
(-0.00051163812 -7.6725999e-005 0 0.00050978102 0 0)
(-0.0004275621 -8.1037624e-005 0 0.00042026857 0 0)
(-0.00034207117 -7.5385884e-005 0 0.00033943124 0 0)
(-0.00026224262 -5.9719148e-005 0 0.00025998322 0 0)
(-0.00020871463 -4.4929376e-005 0 0.00020743384 0 0)
(-0.00016876912 -2.8227926e-005 0 0.00016794592 0 0)
(-0.00015007144 -1.1595824e-005 0 0.00014941403 0 0)
(-0.00014929149 3.9177943e-006 0 0.0001485872 0 0)
(-0.00016821127 2.3452984e-005 0 0.00016739894 0 0)
(-0.00020901359 4.7511944e-005 0 0.00020778158 0 0)
(-0.00027601748 7.8368643e-005 0 0.00027341693 0 0)
(-0.00039062692 0.00012560395 0 0.00038592685 0 0)
(-0.00056038027 0.00019491024 0 0.00055082492 0 0)
(-0.00081980306 0.00030240404 0 0.00079820154 0 0)
(-0.0012339261 0.00047505287 0 0.0011863935 0 0)
(-0.0018797403 0.00075710384 0 0.001775393 0 0)
(-0.0028656211 0.0011539362 0 0.0026036072 0 0)
(-0.0043572843 0.0018415701 0 0.0038434292 0 0)
(-0.0064974752 0.0026715217 0 0.0052273709 0 0)
(-0.0093635509 0.0038702383 0 0.0072740222 0 0)
(-0.01340265 0.0055597395 0 0.0087056195 0 0)
(-0.015658429 0.004166826 0 0.010826945 0 0)
(-0.00044471444 0.00025950347 0 0.00042565654 0 0)
(-0.00057595157 2.6124833e-005 0 0.00058785004 0 0)
(-0.00060424629 -6.5839371e-005 0 0.00058197772 0 0)
(-0.00051403376 -0.00010098657 0 0.00051179727 0 0)
(-0.00042588895 -0.00010624217 0 0.00041865486 0 0)
(-0.0003388076 -9.8483507e-005 0 0.00033603352 0 0)
(-0.00025788268 -7.8012861e-005 0 0.00025562983 0 0)
(-0.00020370034 -5.8572322e-005 0 0.00020249019 0 0)
(-0.00016428535 -3.7137629e-005 0 0.00016344452 0 0)
(-0.00014547417 -1.6101138e-005 0 0.00014486771 0 0)
(-0.00014410515 3.8797675e-006 0 0.00014343734 0 0)
(-0.00016211967 2.8864252e-005 0 0.00016135016 0 0)
(-0.00020096498 5.9269776e-005 0 0.00019980248 0 0)
(-0.00026483859 9.8276461e-005 0 0.00026228678 0 0)
(-0.00037428234 0.00015808528 0 0.00036966952 0 0)
(-0.00053540593 0.00024547335 0 0.00052599623 0 0)
(-0.00078049384 0.00038053237 0 0.00075911369 0 0)
(-0.0011697425 0.00059663846 0 0.0011227401 0 0)
(-0.0017711053 0.0009472549 0 0.0016685631 0 0)
(-0.002683838 0.0014447628 0 0.0024264045 0 0)
(-0.0040422279 0.0023015483 0 0.0035423223 0 0)
(-0.0060343266 0.0033395921 0 0.0047910714 0 0)
(-0.0085754554 0.0048874331 0 0.006568142 0 0)
(-0.01267793 0.0071896001 0 0.0078537287 0 0)
(-0.014709352 0.0053569748 0 0.010273706 0 0)
(-0.00045616303 0.00031786729 0 0.00043574147 0 0)
(-0.00058668474 2.9520384e-005 0 0.00059839507 0 0)
(-0.00061322425 -8.3831756e-005 0 0.00059066861 0 0)
(-0.00051694084 -0.00012685982 0 0.00051426589 0 0)
(-0.00042362711 -0.00013233536 0 0.0004164417 0 0)
(-0.00033458981 -0.00012225053 0 0.00033166799 0 0)
(-0.00025231787 -9.6920715e-005 0 0.00025007653 0 0)
(-0.00019750942 -7.2434451e-005 0 0.00019634391 0 0)
(-0.00015864586 -4.6216964e-005 0 0.00015780111 0 0)
(-0.00013975142 -2.1180681e-005 0 0.00013920046 0 0)
(-0.00013792164 3.7634094e-006 0 0.00013731318 0 0)
(-0.00015417522 3.3134009e-005 0 0.00015344737 0 0)
(-0.00019128454 7.0316517e-005 0 0.00019018755 0 0)
(-0.00025124746 0.00011672489 0 0.00024877457 0 0)
(-0.00035419422 0.00018822164 0 0.00034968078 0 0)
(-0.00050515414 0.00029259733 0 0.00049589092 0 0)
(-0.00073269158 0.00045326012 0 0.00071159459 0 0)
(-0.0010919971 0.00070903705 0 0.001045626 0 0)
(-0.0016382337 0.001123438 0 0.001537524 0 0)
(-0.002461554 0.0017092925 0 0.0022103191 0 0)
(-0.0036518187 0.0027203755 0 0.0031694593 0 0)
(-0.0054671207 0.0039487183 0 0.0042512115 0 0)
(-0.0075323082 0.0058876198 0 0.005613372 0 0)
(-0.011892111 0.0085507722 0 0.0068952568 0 0)
(-0.012693024 0.0062016841 0 0.0091018003 0 0)
(-0.00047107811 0.00037646378 0 0.00044919483 0 0)
(-0.0005997142 3.1620842e-005 0 0.00061090812 0 0)
(-0.00062401086 -0.0001033192 0 0.00060122036 0 0)
(-0.00052029177 -0.00015434175 0 0.00051705277 0 0)
(-0.00042056192 -0.00015931338 0 0.00041338099 0 0)
(-0.00032937809 -0.00014637326 0 0.00032627215 0 0)
(-0.00024561606 -0.00011588154 0 0.00024339204 0 0)
(-0.00019009346 -8.624561e-005 0 0.00018893783 0 0)
(-0.00015183129 -5.5212374e-005 0 0.00015097119 0 0)
(-0.00013291291 -2.6258356e-005 0 0.00013243664 0 0)
(-0.00013029433 2.9774825e-006 0 0.0001297239 0 0)
(-0.00014535558 3.7575654e-005 0 0.00014466011 0 0)
(-0.00017972903 8.0496356e-005 0 0.00017872975 0 0)
(-0.00023515764 0.00013377755 0 0.00023275248 0 0)
(-0.00033057776 0.0002163196 0 0.0003261179 0 0)
(-0.00046964659 0.00033647507 0 0.00046051872 0 0)
(-0.00067765197 0.00051937818 0 0.00065682725 0 0)
(-0.0010024328 0.00081008455 0 0.00095665627 0 0)
(-0.0014876063 0.001277994 0 0.0013889357 0 0)
(-0.0022135664 0.0019330705 0 0.0019693838 0 0)
(-0.0031996652 0.0030806394 0 0.0027378338 0 0)
(-0.0048181175 0.004454159 0 0.0036325777 0 0)
(-0.00633384 0.006735656 0 0.0045215526 0 0)
(-0.01109222 0.009467905 0 0.0059962248 0 0)
(-0.0094916579 0.0076105867 0 0.0064980001 0 0)
(-0.0004902101 0.00043559177 0 0.0004666617 0 0)
(-0.00061457426 3.2298441e-005 0 0.00062516213 0 0)
(-0.00063655665 -0.00012405749 0 0.00061354347 0 0)
(-0.00052395169 -0.00018342426 0 0.00051997207 0 0)
(-0.00041642764 -0.00018660358 0 0.00040917965 0 0)
(-0.00032301554 -0.00017059953 0 0.00031963889 0 0)
(-0.00023751995 -0.00013455629 0 0.00023528099 0 0)
(-0.00018154675 -9.9443445e-005 0 0.00018041081 0 0)
(-0.000143961 -6.3409628e-005 0 0.00014305923 0 0)
(-0.00012499358 -3.1216528e-005 0 0.00012454751 0 0)
(-0.00012189273 3.6872151e-006 0 0.00012139372 0 0)
(-0.00013470501 4.1041775e-005 0 0.00013407244 0 0)
(-0.00016664909 9.050251e-005 0 0.00016570394 0 0)
(-0.00021700525 0.0001498918 0 0.00021465658 0 0)
(-0.00030390453 0.00024236548 0 0.00029962399 0 0)
(-0.00042949675 0.00037651361 0 0.00042060276 0 0)
(-0.00061484215 0.00057972299 0 0.00059418472 0 0)
(-0.00090077296 0.00090053204 0 0.00085563994 0 0)
(-0.0013159528 0.0014152071 0 0.0012195249 0 0)
(-0.0019329526 0.0021215601 0 0.0016939054 0 0)
(-0.0026695337 0.0033891147 0 0.0022301047 0 0)
(-0.0040605222 0.0048521701 0 0.0029056354 0 0)
(-0.004837378 0.0075095289 0 0.003127279 0 0)
(-0.0092907573 0.010750501 0 0.0042417263 0 0)
(-0.0069469693 0.0085207962 0 0.004350842 0 0)
(-0.00051452373 0.00049529353 0 0.00048702014 0 0)
(-0.00063122453 3.1936377e-005 0 0.00064415399 0 0)
(-0.00065090686 -0.00014576731 0 0.00062617065 0 0)
(-0.00052766542 -0.00021316762 0 0.00052301599 0 0)
(-0.00041075459 -0.00021399786 0 0.00040380359 0 0)
(-0.00031541546 -0.00019301649 0 0.00031159906 0 0)
(-0.00022820467 -0.00015227416 0 0.00022599262 0 0)
(-0.00017158524 -0.00011116075 0 0.00017060795 0 0)
(-0.00013471921 -7.0146023e-005 0 0.00013384429 0 0)
(-0.00011610113 -3.4924925e-005 0 0.00011573042 0 0)
(-0.00011201616 4.2662056e-006 0 0.00011158736 0 0)
(-0.00012339183 4.6304839e-005 0 0.00012284046 0 0)
(-0.00015206179 0.00010092286 0 0.00015128717 0 0)
(-0.00019665302 0.00016546901 0 0.0001944767 0 0)
(-0.00027373854 0.00026659071 0 0.00026965196 0 0)
(-0.00038473013 0.00041436954 0 0.00037629347 0 0)
(-0.00054643314 0.00063262457 0 0.00052635911 0 0)
(-0.0007896252 0.00097846449 0 0.00074622699 0 0)
(-0.001130964 0.0015300651 0 0.0010386598 0 0)
(-0.0016410158 0.0022520548 0 0.0014073495 0 0)
(-0.0021072832 0.0036191643 0 0.0017101638 0 0)
(-0.0032194619 0.0050584641 0 0.0021044583 0 0)
(-0.0030447461 0.0080286636 0 0.0015388797 0 0)
(-0.0072003063 0.011214933 0 0.002321446 0 0)
(-0.0009295175 0.011495002 0 -0.0021585416 0 0)
(-0.00054437727 0.00055630074 0 0.00050561262 0 0)
(-0.00064963737 3.1344662e-005 0 0.00067434215 0 0)
(-0.00066666786 -0.00016832434 0 0.00063588597 0 0)
(-0.00053105627 -0.00024383625 0 0.0005263014 0 0)
(-0.00040310624 -0.00023982852 0 0.00039697295 0 0)
(-0.00030571579 -0.00021415692 0 0.00030204648 0 0)
(-0.00021749709 -0.00016748704 0 0.00021559935 0 0)
(-0.000160659 -0.00011999926 0 0.00016009863 0 0)
(-0.00012435171 -7.4116466e-005 0 0.00012383345 0 0)
(-0.00010610102 -3.5896041e-005 0 0.00010610906 0 0)
(-0.00010142426 8.4479141e-006 0 0.00010134529 0 0)
(-0.00011045395 5.2347961e-005 0 0.00011020871 0 0)
(-0.00013619335 0.00011287712 0 0.0001357258 0 0)
(-0.00017468127 0.0001824574 0 0.00017288904 0 0)
(-0.00024245091 0.00029084835 0 0.00023888206 0 0)
(-0.00033737268 0.00044867512 0 0.00032963746 0 0)
(-0.00047079259 0.00068079878 0 0.00045135293 0 0)
(-0.00067085639 0.0010438822 0 0.00062879766 0 0)
(-0.00093414573 0.0016236501 0 0.00084700878 0 0)
(-0.0013081609 0.0023406463 0 0.001078514 0 0)
(-0.0014866241 0.003738902 0 0.0011366596 0 0)
(-0.0021373473 0.0051156211 0 0.0010785465 0 0)
(-0.00088174472 0.0078423124 0 -0.00026132528 0 0)
(-0.0030203253 0.010259688 0 -0.0010778882 0 0)
(0.0028325382 0.012276548 0 -0.0076558782 0 0)
(-0.013814658 0.00053052594 0 0.0092537783 0 0)
(-0.0079368485 0.00094943146 0 0.0058502632 0 0)
(-0.0030979166 0.0013686101 0 0.0022816362 0 0)
(-0.00099870631 0.0016238409 0 0.00076450608 0 0)
(-0.00040534833 0.0017479363 0 0.00025752489 0 0)
(-0.00015864918 0.0017998572 0 5.596142e-005 0 0)
(-0.00010730184 0.0018141821 0 7.6649068e-006 0 0)
(-8.8847513e-005 0.0018166888 0 -7.7166925e-006 0 0)
(-8.9095554e-005 0.0018165847 0 -7.4714883e-006 0 0)
(-9.0822647e-005 0.0018159186 0 -5.4706062e-006 0 0)
(-9.470017e-005 0.001815231 0 -1.5586725e-006 0 0)
(-9.6074725e-005 0.0018149982 0 -1.0237592e-007 0 0)
(-9.6498797e-005 0.0018149511 0 3.1859167e-007 0 0)
(-9.6320471e-005 0.0018149705 0 1.4359058e-007 0 0)
(-9.619044e-005 0.0018149841 0 1.072835e-008 0 0)
(-9.6144684e-005 0.0018149859 0 -3.5896036e-008 0 0)
(-9.616554e-005 0.0018149816 0 -1.5715321e-008 0 0)
(-9.6178066e-005 0.0018149795 0 -2.9250136e-009 0 0)
(-9.6183024e-005 0.0018149788 0 1.9531109e-009 0 0)
(-9.6182022e-005 0.001814979 0 9.5881134e-010 0 0)
(-9.6181264e-005 0.001814979 0 1.757272e-010 0 0)
(-9.618135e-005 0.001814979 0 2.3714388e-010 0 0)
(-9.6181433e-005 0.0018149789 0 3.8159102e-010 0 0)
(-9.6179787e-005 0.0018149791 0 -1.1475338e-009 0 0)
(-9.6180248e-005 0.0018149791 0 -1.2280778e-009 0 0)
(-0.013341244 0.0016880336 0 0.0088928603 0 0)
(-0.0076753167 0.002878237 0 0.0055492658 0 0)
(-0.0033184075 0.0040796689 0 0.0021488139 0 0)
(-0.0014812389 0.0049477199 0 0.00067048457 0 0)
(-0.0010763974 0.0052801664 0 0.00022524803 0 0)
(-0.00090592037 0.0054083664 0 5.1891572e-005 0 0)
(-0.00087927998 0.0054373786 0 1.370735e-005 0 0)
(-0.00086104174 0.0054484849 0 -5.4678898e-006 0 0)
(-0.00086089492 0.0054481605 0 -6.1803541e-006 0 0)
(-0.00086164364 0.0054467992 0 -4.7988532e-006 0 0)
(-0.00086473239 0.0054449563 0 -1.3642695e-006 0 0)
(-0.00086602762 0.005444311 0 4.0238761e-008 0 0)
(-0.0008662997 0.0054442433 0 3.0898388e-007 0 0)
(-0.00086612518 0.005444316 0 1.2920878e-007 0 0)
(-0.00086600086 0.0054443574 0 3.2630804e-009 0 0)
(-0.00086596552 0.0054443629 0 -2.7560255e-008 0 0)
(-0.00086597611 0.0054443541 0 -1.3378457e-008 0 0)
(-0.00086598739 0.0054443485 0 -1.1402504e-009 0 0)
(-0.00086599018 0.0054443476 0 1.768612e-009 0 0)
(-0.00086598943 0.0054443477 0 9.9449395e-010 0 0)
(-0.00086598866 0.0054443481 0 1.2046224e-010 0 0)
(-0.00086598881 0.0054443483 0 1.8662395e-010 0 0)
(-0.00086598875 0.0054443478 0 2.6164747e-010 0 0)
(-0.00086598717 0.005444348 0 -1.1980115e-009 0 0)
(-0.00086598781 0.0054443483 0 -1.3059134e-009 0 0)
(-0.012556176 0.0029118963 0 0.0083652746 0 0)
(-0.007063262 0.0049176055 0 0.0049475513 0 0)
(-0.0037028528 0.007211233 0 0.0017076464 0 0)
(-0.0027297452 0.0082595228 0 0.00065942097 0 0)
(-0.0025034943 0.0087544837 0 0.00024084038 0 0)
(-0.0024194196 0.0090026295 0 5.7563301e-005 0 0)
(-0.0024136287 0.0090654877 0 7.8757221e-006 0 0)
(-0.002406275 0.0090764375 0 -3.8076253e-006 0 0)
(-0.0024048022 0.0090762299 0 -5.2580186e-006 0 0)
(-0.0024051839 0.0090733318 0 -3.3273064e-006 0 0)
(-0.0024066081 0.0090708608 0 -9.0509986e-007 0 0)
(-0.0024073378 0.0090700433 0 9.0919429e-008 0 0)
(-0.002407476 0.0090699754 0 2.403339e-007 0 0)
(-0.0024073579 0.0090700793 0 1.0440795e-007 0 0)
(-0.0024072595 0.0090701458 0 -3.0769345e-009 0 0)
(-0.0024072361 0.0090701498 0 -2.1117293e-008 0 0)
(-0.0024072416 0.0090701367 0 -9.1099014e-009 0 0)
(-0.0024072481 0.0090701295 0 -3.2580452e-010 0 0)
(-0.0024072497 0.0090701282 0 1.430688e-009 0 0)
(-0.0024072492 0.0090701287 0 7.3532908e-010 0 0)
(-0.0024072489 0.0090701294 0 1.011338e-010 0 0)
(-0.0024072486 0.0090701289 0 3.0637241e-011 0 0)
(-0.0024072487 0.0090701291 0 7.3082614e-011 0 0)
(-0.0024072472 0.0090701287 0 -1.1471939e-009 0 0)
(-0.0024072477 0.0090701286 0 -1.3630134e-009 0 0)
(-0.011386168 0.0042821032 0 0.0074355554 0 0)
(-0.0061199478 0.0078887571 0 0.0035637588 0 0)
(-0.0049399911 0.010047535 0 0.0016221863 0 0)
(-0.0044152755 0.01181889 0 0.00044173735 0 0)
(-0.0046004159 0.012439298 0 0.00010671228 0 0)
(-0.0046942407 0.012635578 0 2.9309e-005 0 0)
(-0.0047256308 0.012686431 0 3.6173455e-006 0 0)
(-0.0047251206 0.012694841 0 -2.7011059e-006 0 0)
(-0.0047237576 0.012693242 0 -3.193733e-006 0 0)
(-0.004722549 0.012689236 0 -1.6804515e-006 0 0)
(-0.0047224665 0.012686639 0 -3.7894684e-007 0 0)
(-0.0047226141 0.012685893 0 1.0305644e-007 0 0)
(-0.0047226567 0.012685867 0 1.3893569e-007 0 0)
(-0.0047226153 0.012686005 0 4.8770594e-008 0 0)
(-0.0047225788 0.01268607 0 -4.0119169e-009 0 0)
(-0.0047225657 0.012686071 0 -1.0679582e-008 0 0)
(-0.0047225645 0.012686057 0 -3.5918976e-009 0 0)
(-0.004722566 0.01268605 0 4.5137337e-010 0 0)
(-0.0047225664 0.012686049 0 8.362518e-010 0 0)
(-0.0047225663 0.01268605 0 3.1890245e-010 0 0)
(-0.004722566 0.01268605 0 2.9254092e-011 0 0)
(-0.004722566 0.01268605 0 -1.420538e-012 0 0)
(-0.004722566 0.01268605 0 -2.4901193e-011 0 0)
(-0.0047225649 0.01268605 0 -1.0268289e-009 0 0)
(-0.0047225652 0.012686049 0 -1.1366062e-009 0 0)
(-0.0094602073 0.0057884131 0 0.0059338682 0 0)
(-0.0063002533 0.010859589 0 0.0024614619 0 0)
(-0.0064370602 0.0135579 0 0.0010057427 0 0)
(-0.0070298642 0.015444711 0 0.00025763811 0 0)
(-0.0075902326 0.016061597 0 5.852352e-005 0 0)
(-0.0077669208 0.016244794 0 1.6312771e-005 0 0)
(-0.0078178348 0.016287782 0 1.1165889e-006 0 0)
(-0.0078207358 0.01629279 0 -6.1293457e-007 0 0)
(-0.007818847 0.01629015 0 -5.4305865e-007 0 0)
(-0.0078156376 0.016285995 0 -2.3788556e-008 0 0)
(-0.0078143075 0.016283904 0 9.8130337e-008 0 0)
(-0.0078139463 0.016283406 0 4.1502836e-008 0 0)
(-0.007813946 0.016283429 0 1.8615406e-009 0 0)
(-0.0078140089 0.016283552 0 -5.1866627e-009 0 0)
(-0.0078140289 0.016283596 0 -1.8779662e-009 0 0)
(-0.0078140245 0.016283595 0 1.135904e-009 0 0)
(-0.0078140165 0.016283583 0 1.5544101e-009 0 0)
(-0.0078140132 0.016283579 0 5.9378142e-010 0 0)
(-0.0078140125 0.016283578 0 3.7244825e-011 0 0)
(-0.007814013 0.016283579 0 -3.6488681e-011 0 0)
(-0.0078140134 0.016283579 0 -2.4977222e-013 0 0)
(-0.0078140134 0.016283579 0 -5.3401721e-011 0 0)
(-0.007814013 0.016283579 0 -2.5807013e-011 0 0)
(-0.0078140125 0.016283579 0 -5.3878104e-010 0 0)
(-0.007814012 0.016283576 0 -6.2973459e-010 0 0)
(-0.0074919083 0.0088403871 0 0.0035901374 0 0)
(-0.0068645366 0.014211309 0 0.0011706125 0 0)
(-0.0090944437 0.017547026 0 0.00032797633 0 0)
(-0.010745578 0.019255845 0 8.3444831e-005 0 0)
(-0.011476288 0.019722982 0 8.2159391e-006 0 0)
(-0.01164805 0.019844758 0 -9.42246e-007 0 0)
(-0.011690743 0.019863219 0 -6.4352036e-007 0 0)
(-0.011692503 0.019863245 0 2.0999383e-006 0 0)
(-0.011688172 0.01985959 0 2.0984828e-006 0 0)
(-0.011683481 0.019856663 0 1.2992653e-006 0 0)
(-0.011681455 0.019855553 0 3.9425208e-007 0 0)
(-0.011680751 0.019855343 0 -7.375554e-008 0 0)
(-0.01168075 0.019855365 0 -1.249033e-007 0 0)
(-0.011680898 0.019855425 0 -4.0638605e-008 0 0)
(-0.01168096 0.019855444 0 5.9163056e-009 0 0)
(-0.011680962 0.019855443 0 1.2578706e-008 0 0)
(-0.011680949 0.019855438 0 5.1153943e-009 0 0)
(-0.011680942 0.019855436 0 1.882891e-010 0 0)
(-0.011680941 0.019855436 0 -7.1798033e-010 0 0)
(-0.011680942 0.019855436 0 -3.3055276e-010 0 0)
(-0.011680942 0.019855436 0 -3.372834e-011 0 0)
(-0.011680942 0.019855436 0 -8.2659918e-011 0 0)
(-0.011680942 0.019855436 0 7.5767581e-011 0 0)
(-0.011680943 0.019855436 0 2.4110678e-010 0 0)
(-0.011680941 0.019855433 0 1.3977376e-010 0 0)
(-0.0065114524 0.011524381 0 0.0014001739 0 0)
(-0.0089033514 0.018847105 0 -0.00040143001 0 0)
(-0.013604174 0.021847054 0 -0.00016339465 0 0)
(-0.015546928 0.023086911 0 -2.5122625e-005 0 0)
(-0.01619239 0.02334319 0 -8.774942e-006 0 0)
(-0.016300642 0.023401578 0 -3.5835916e-006 0 0)
(-0.016329333 0.023403704 0 1.9674207e-006 0 0)
(-0.016329946 0.023402525 0 5.1393718e-006 0 0)
(-0.016326061 0.023400935 0 3.994763e-006 0 0)
(-0.016321962 0.023400503 0 1.9989861e-006 0 0)
(-0.016319827 0.02340041 0 4.6299814e-007 0 0)
(-0.016318937 0.023400386 0 -1.9218985e-007 0 0)
(-0.016318905 0.023400331 0 -2.0628122e-007 0 0)
(-0.016319073 0.0234003 0 -6.1339188e-008 0 0)
(-0.01631917 0.023400296 0 1.5698318e-008 0 0)
(-0.016319178 0.023400301 0 1.9762735e-008 0 0)
(-0.016319164 0.023400305 0 7.3228979e-009 0 0)
(-0.016319155 0.023400306 0 -5.1178688e-010 0 0)
(-0.016319153 0.023400305 0 -1.2340691e-009 0 0)
(-0.016319154 0.023400305 0 -4.4075083e-010 0 0)
(-0.016319155 0.023400305 0 -3.3086124e-011 0 0)
(-0.016319155 0.023400305 0 -1.3520436e-010 0 0)
(-0.016319155 0.023400304 0 1.5326103e-010 0 0)
(-0.016319156 0.023400304 0 1.1274599e-009 0 0)
(-0.016319154 0.023400302 0 1.0255672e-009 0 0)
(-0.0065170675 0.016238322 0 -0.0018319753 0 0)
(-0.013514331 0.024197578 0 -0.0017873994 0 0)
(-0.01983175 0.026203829 0 -0.00039575617 0 0)
(-0.021209705 0.026837634 0 -7.6050743e-005 0 0)
(-0.021667804 0.026905728 0 -7.2048289e-006 0 0)
(-0.02169579 0.026918936 0 -7.9500269e-008 0 0)
(-0.021721657 0.026916707 0 4.9589562e-006 0 0)
(-0.021724319 0.026919342 0 5.871567e-006 0 0)
(-0.021725059 0.026921127 0 4.2902445e-006 0 0)
(-0.021723023 0.026922844 0 2.0596462e-006 0 0)
(-0.021721171 0.026923493 0 4.1214104e-007 0 0)
(-0.021720127 0.026923486 0 -2.4131868e-007 0 0)
(-0.021720029 0.026923303 0 -1.9950668e-007 0 0)
(-0.02172017 0.026923215 0 -4.8259394e-008 0 0)
(-0.02172027 0.026923207 0 1.990267e-008 0 0)
(-0.021720287 0.026923225 0 1.9900839e-008 0 0)
(-0.021720274 0.026923234 0 5.6010244e-009 0 0)
(-0.021720266 0.026923235 0 -9.4972334e-010 0 0)
(-0.021720264 0.026923234 0 -1.3071673e-009 0 0)
(-0.021720265 0.026923234 0 -3.8774175e-010 0 0)
(-0.021720265 0.026923234 0 -4.3020315e-011 0 0)
(-0.021720266 0.026923234 0 -1.6027179e-010 0 0)
(-0.021720266 0.026923234 0 1.6876877e-010 0 0)
(-0.021720268 0.026923234 0 1.7644137e-009 0 0)
(-0.021720266 0.026923232 0 1.7015137e-009 0 0)
(-0.011902757 0.025180082 0 -0.0053683123 0 0)
(-0.021848707 0.030262897 0 -0.0028286542 0 0)
(-0.027281889 0.030432557 0 -0.00039493627 0 0)
(-0.027568056 0.030439388 0 -8.4257986e-005 0 0)
(-0.027802758 0.030400536 0 1.1347919e-005 0 0)
(-0.027815708 0.0304092 0 3.9803843e-006 0 0)
(-0.027857317 0.030413786 0 6.9466516e-006 0 0)
(-0.027866809 0.030421498 0 4.8498915e-006 0 0)
(-0.027873723 0.030426753 0 3.4863881e-006 0 0)
(-0.027873379 0.030429952 0 1.3209194e-006 0 0)
(-0.027872146 0.03043074 0 1.8597289e-007 0 0)
(-0.027871107 0.030430581 0 -2.1437357e-007 0 0)
(-0.027870891 0.030430286 0 -1.4344682e-007 0 0)
(-0.02787097 0.030430171 0 -2.4038557e-008 0 0)
(-0.027871062 0.030430176 0 2.0091303e-008 0 0)
(-0.027871088 0.030430205 0 1.4882876e-008 0 0)
(-0.027871081 0.030430217 0 3.1558793e-009 0 0)
(-0.027871074 0.030430218 0 -1.214437e-009 0 0)
(-0.027871072 0.030430216 0 -1.003736e-009 0 0)
(-0.027871073 0.030430215 0 -2.4634666e-010 0 0)
(-0.027871073 0.030430215 0 -5.9787627e-011 0 0)
(-0.027871073 0.030430215 0 -1.9762066e-010 0 0)
(-0.027871073 0.030430215 0 -3.7393127e-011 0 0)
(-0.027871076 0.030430216 0 1.5232012e-009 0 0)
(-0.027871075 0.030430217 0 1.6606067e-009 0 0)
(-0.035347505 0.042494228 0 -0.0098975957 0 0)
(-0.033512409 0.03561202 0 -0.0018750724 0 0)
(-0.039472234 0.036393128 0 -0.00022220943 0 0)
(-0.03779843 0.035500213 0 -3.0629209e-005 0 0)
(-0.038500301 0.035707298 0 1.6848744e-005 0 0)
(-0.038388036 0.035661654 0 2.6336695e-006 0 0)
(-0.038487959 0.03569526 0 3.2739557e-006 0 0)
(-0.038489417 0.035697911 0 1.8352828e-006 0 0)
(-0.038506084 0.035707353 0 1.3786212e-006 0 0)
(-0.038506226 0.03571006 0 4.9026036e-007 0 0)
(-0.038506455 0.035711109 0 5.9587423e-008 0 0)
(-0.038505426 0.035710771 0 -8.58769e-008 0 0)
(-0.038505138 0.035710469 0 -5.3185427e-008 0 0)
(-0.038505124 0.035710361 0 -6.6446425e-009 0 0)
(-0.038505218 0.035710388 0 8.8864306e-009 0 0)
(-0.038505255 0.035710421 0 5.5396354e-009 0 0)
(-0.038505259 0.035710433 0 8.6793323e-010 0 0)
(-0.038505253 0.035710431 0 -6.6002759e-010 0 0)
(-0.03850525 0.035710429 0 -4.1746908e-010 0 0)
(-0.03850525 0.035710428 0 -1.0775217e-010 0 0)
(-0.038505251 0.035710428 0 -7.3111678e-011 0 0)
(-0.03850525 0.035710428 0 -1.4940174e-010 0 0)
(-0.038505249 0.035710428 0 -1.7114368e-010 0 0)
(-0.03850525 0.035710428 0 8.0962167e-010 0 0)
(-0.03850525 0.035710433 0 1.0895954e-009 0 0)
(-0.00061496343 0.00069200942 0 0.00055484077 0 0)
(-0.00068860931 3.1217598e-005 0 0.00074236786 0 0)
(-0.00069883882 -0.00021437569 0 0.00065646248 0 0)
(-0.00053471148 -0.00029387691 0 0.00052616715 0 0)
(-0.00038999546 -0.00028026249 0 0.00038242177 0 0)
(-0.00028031388 -0.0002395281 0 0.00027536373 0 0)
(-0.00019293599 -0.00018001316 0 0.00018971648 0 0)
(-0.00013718317 -0.00012213879 0 0.00013560034 0 0)
(-0.00010187406 -6.6428061e-005 0 0.00010046873 0 0)
(-8.4493357e-005 -2.2129627e-005 0 8.3841332e-005 0 0)
(-7.825922e-005 3.1306489e-005 0 7.7802839e-005 0 0)
(-8.4300902e-005 7.9528524e-005 0 8.3018071e-005 0 0)
(-0.00010210795 0.0001479008 0 0.00010078037 0 0)
(-0.00012840296 0.00022287117 0 0.00012520681 0 0)
(-0.0001749677 0.00034497453 0 0.000170097 0 0)
(-0.00023917521 0.00051860799 0 0.00023020832 0 0)
(-0.00032275918 0.00076156505 0 0.00029954664 0 0)
(-0.0004431697 0.0011411762 0 0.00039803256 0 0)
(-0.00054932708 0.0017417448 0 0.0004695852 0 0)
(-0.00069862733 0.002427814 0 0.00048975332 0 0)
(-0.00060944101 0.0037124353 0 0.00031750413 0 0)
(-0.00049123589 0.0048870266 0 -0.00038189657 0 0)
(0.0013757465 0.0069754161 0 -0.0020397893 0 0)
(0.001923285 0.0077155586 0 -0.0044221961 0 0)
(0.009857599 0.0074656954 0 -0.013036107 0 0)
(-0.00075668468 0.00093575176 0 0.00066400084 0 0)
(-0.00076697861 2.4660606e-005 0 0.00083913686 0 0)
(-0.00073910148 -0.00028839885 0 0.00068586063 0 0)
(-0.00052058838 -0.00035115578 0 0.00050898192 0 0)
(-0.00034835395 -0.00031432602 0 0.00034228519 0 0)
(-0.00022447016 -0.00024081703 0 0.00022064698 0 0)
(-0.00014187596 -0.00015961761 0 0.00014003091 0 0)
(-8.8798306e-005 -8.2224752e-005 0 8.9051696e-005 0 0)
(-5.9826873e-005 -1.5447921e-005 0 5.9636805e-005 0 0)
(-4.4607926e-005 4.0993323e-005 0 4.4574265e-005 0 0)
(-3.7827409e-005 9.567209e-005 0 3.7446505e-005 0 0)
(-3.7765469e-005 0.00015831343 0 3.7041417e-005 0 0)
(-4.2179393e-005 0.0002264003 0 4.2281155e-005 0 0)
(-5.1544596e-005 0.0003122945 0 4.8814786e-005 0 0)
(-6.5593309e-005 0.0004343199 0 5.8557637e-005 0 0)
(-7.9494886e-005 0.00062485692 0 7.2413014e-005 0 0)
(-9.0712048e-005 0.00086520581 0 7.1115899e-005 0 0)
(-9.2839667e-005 0.001221374 0 4.6030081e-005 0 0)
(-2.8170822e-005 0.0017882043 0 -4.4964096e-005 0 0)
(0.00010602485 0.0023772052 0 -0.00029039405 0 0)
(0.00060383941 0.0032383335 0 -0.00087956917 0 0)
(0.0012159708 0.0037971038 0 -0.0019269622 0 0)
(0.003185257 0.0043138287 0 -0.0039360474 0 0)
(0.005210182 0.0020421875 0 -0.0074247136 0 0)
(0.0063094273 -0.0010216422 0 -0.0091884759 0 0)
(-0.00093420302 0.00122707 0 0.0008122959 0 0)
(-0.00083588904 1.4883323e-005 0 0.00091516585 0 0)
(-0.00073984325 -0.00033681622 0 0.00068046171 0 0)
(-0.00046347529 -0.00035416314 0 0.00045089151 0 0)
(-0.0002676648 -0.00026597529 0 0.00026391786 0 0)
(-0.00014583608 -0.00015135278 0 0.00014315604 0 0)
(-7.5139419e-005 -4.6874882e-005 0 7.3943895e-005 0 0)
(-3.1509735e-005 5.0045597e-005 0 3.1581896e-005 0 0)
(-1.1073244e-005 0.00012818098 0 1.0945547e-005 0 0)
(-1.4409114e-006 0.00018802519 0 5.6359575e-007 0 0)
(5.6499794e-006 0.00025072356 0 -6.8157465e-006 0 0)
(1.0251625e-005 0.00030562528 0 -1.255561e-005 0 0)
(1.6553026e-005 0.00037930554 0 -1.9839739e-005 0 0)
(2.7821512e-005 0.00047037512 0 -3.1462481e-005 0 0)
(4.0163232e-005 0.00057635663 0 -5.0877032e-005 0 0)
(7.0989177e-005 0.00075324333 0 -8.5098321e-005 0 0)
(0.00012993775 0.00099375754 0 -0.00015136528 0 0)
(0.00021051197 0.0012932938 0 -0.00026307073 0 0)
(0.00041767745 0.0017631676 0 -0.00049828991 0 0)
(0.00070054166 0.0022269032 0 -0.00086094968 0 0)
(0.0012943667 0.0027739073 0 -0.0015301879 0 0)
(0.0021034434 0.0029881103 0 -0.0025566914 0 0)
(0.0034875267 0.0028204042 0 -0.0038755517 0 0)
(0.0046508857 0.00074813447 0 -0.0053938503 0 0)
(0.0035509644 -0.0025702522 0 -0.0036723609 0 0)
(-0.0011256228 0.0015829427 0 0.00096316095 0 0)
(-0.00084130992 7.7863886e-006 0 0.00092575781 0 0)
(-0.00065337257 -0.00032924433 0 0.00058985432 0 0)