/*--------------------------------*- C++ -*----------------------------------*\
| =========                 |                                                 |
| \\      /  F ield         | OpenFOAM: The Open Source CFD Toolbox           |
|  \\    /   O peration     | Version:  5.x                                   |
|   \\  /    A nd           | Web:      www.OpenFOAM.org                      |
|    \\/     M anipulation  |                                                 |
\*---------------------------------------------------------------------------*/
/*   Windows 32 and 64 bit porting by blueCAPE: http://www.bluecape.com.pt   *\
|  Based on Windows porting (2.0.x v4) by Symscape: http://www.symscape.com   |
\*---------------------------------------------------------------------------*/
FoamFile
{
    version     2.0;
    format      ascii;
    class       volSymmTensorField;
    location    "0.24";
    object      sigma;
}
// * * * * * * * * * * * * * * * * * * * * * * * * * * * * * * * * * * * * * //

dimensions      [0 2 -2 0 0 0 0];

internalField   nonuniform List<symmTensor> 
750
(
(-0.00042387438 2.8357899e-005 0 0.00041136089 0 0)
(-0.0005567184 3.3149678e-006 0 0.00056188249 0 0)
(-0.00058656106 -6.3738026e-006 0 0.000569038 0 0)
(-0.00050881476 -1.0782989e-005 0 0.00050558099 0 0)
(-0.00042923708 -1.1166411e-005 0 0.00042278505 0 0)
(-0.00034799345 -1.0514039e-005 0 0.00034517081 0 0)
(-0.00026951435 -8.4370995e-006 0 0.00026726186 0 0)
(-0.00021536262 -6.3391927e-006 0 0.00021418472 0 0)
(-0.00017557713 -3.8741143e-006 0 0.00017476934 0 0)
(-0.00015703933 -1.4766422e-006 0 0.00015635241 0 0)
(-0.00015706355 7.0667218e-007 0 0.00015633302 0 0)
(-0.00017778392 3.5666293e-006 0 0.00017694811 0 0)
(-0.00022109647 7.0784291e-006 0 0.00021982148 0 0)
(-0.00029344508 1.1615123e-005 0 0.00029088118 0 0)
(-0.00041549954 1.8497395e-005 0 0.00041078971 0 0)
(-0.00059848793 2.8814471e-005 0 0.00058889126 0 0)
(-0.00088106795 4.4828235e-005 0 0.00085962723 0 0)
(-0.0013339883 7.0470048e-005 0 0.0012862503 0 0)
(-0.0020483986 0.00011345164 0 0.0019423651 0 0)
(-0.0031544709 0.00017440113 0 0.0028895581 0 0)
(-0.0048202974 0.00027426101 0 0.0042828892 0 0)
(-0.0072624512 0.0004077346 0 0.0059702301 0 0)
(-0.010483501 0.00056106876 0 0.0082308061 0 0)
(-0.014249803 0.00080618349 0 0.010016495 0 0)
(-0.017679544 0.00058838311 0 0.011876265 0 0)
(-0.00042648272 8.5520059e-005 0 0.00041091768 0 0)
(-0.00055795202 1.005462e-005 0 0.00056827227 0 0)
(-0.00058850516 -1.9725664e-005 0 0.00056792471 0 0)
(-0.00050899733 -3.22074e-005 0 0.00050710028 0 0)
(-0.00042967843 -3.3766338e-005 0 0.00042244216 0 0)
(-0.00034646702 -3.1539949e-005 0 0.00034392067 0 0)
(-0.00026797026 -2.5210521e-005 0 0.00026570062 0 0)
(-0.00021479186 -1.8938803e-005 0 0.00021335148 0 0)
(-0.00017453054 -1.1619389e-005 0 0.00017362708 0 0)
(-0.00015591343 -4.4062282e-006 0 0.00015513764 0 0)
(-0.00015576565 2.1556904e-006 0 0.00015494638 0 0)
(-0.00017616137 1.0694009e-005 0 0.00017522896 0 0)
(-0.00021907623 2.1166821e-005 0 0.00021766593 0 0)
(-0.00029041343 3.4685958e-005 0 0.00028761433 0 0)
(-0.00041141435 5.5249743e-005 0 0.00040639376 0 0)
(-0.00059216898 8.5805723e-005 0 0.00058209557 0 0)
(-0.00087060595 0.00013316594 0 0.0008482518 0 0)
(-0.0013170777 0.00020907142 0 0.0012679884 0 0)
(-0.0020209592 0.00033533514 0 0.0019131739 0 0)
(-0.0031025515 0.00050574739 0 0.0028335087 0 0)
(-0.0047502657 0.00082310347 0 0.0042146979 0 0)
(-0.007115614 0.0011590344 0 0.0058112194 0 0)
(-0.010335462 0.0016756149 0 0.0081149219 0 0)
(-0.014049622 0.0024955357 0 0.0096937719 0 0)
(-0.017302292 0.001814025 0 0.01174952 0 0)
(-0.0004304849 0.00014324667 0 0.00041319686 0 0)
(-0.00056172825 1.6198042e-005 0 0.00057389631 0 0)
(-0.00059209537 -3.3949794e-005 0 0.00057009436 0 0)
(-0.00051015962 -5.3849567e-005 0 0.00050857877 0 0)
(-0.00042906024 -5.693127e-005 0 0.00042165961 0 0)
(-0.00034473919 -5.3100345e-005 0 0.00034223923 0 0)
(-0.00026565275 -4.2217248e-005 0 0.00026342432 0 0)
(-0.00021254347 -3.1747072e-005 0 0.00021117754 0 0)
(-0.00017225775 -1.969123e-005 0 0.00017143177 0 0)
(-0.00015360838 -7.7068901e-006 0 0.00015291431 0 0)
(-0.00015313176 3.2733949e-006 0 0.00015239627 0 0)
(-0.00017309575 1.748583e-005 0 0.00017226505 0 0)
(-0.00021500037 3.472965e-005 0 0.00021372178 0 0)
(-0.00028460573 5.7083829e-005 0 0.00028196392 0 0)
(-0.00040312796 9.1148508e-005 0 0.00039836391 0 0)
(-0.00057946757 0.00014142688 0 0.00056978844 0 0)
(-0.0008502235 0.00021927211 0 0.00082846027 0 0)
(-0.0012838687 0.00034420403 0 0.0012359373 0 0)
(-0.001965503 0.00054885119 0 0.0018600875 0 0)
(-0.0030050969 0.00083950339 0 0.0027398359 0 0)
(-0.004597808 0.0013385902 0 0.0040746797 0 0)
(-0.0068607931 0.0019393127 0 0.0055716328 0 0)
(-0.0099606088 0.0027855532 0 0.0077979953 0 0)
(-0.013839161 0.0040519417 0 0.00927797 0 0)
(-0.016506942 0.0029545431 0 0.011363933 0 0)
(-0.00043649701 0.00020142699 0 0.0004184464 0 0)
(-0.00056793508 2.165384e-005 0 0.00058004071 0 0)
(-0.00059746536 -4.9264177e-005 0 0.00057531216 0 0)
(-0.00051201243 -7.6811974e-005 0 0.00051014849 0 0)
(-0.00042788563 -8.113479e-005 0 0.00042058137 0 0)
(-0.00034233493 -7.5484705e-005 0 0.00033969037 0 0)
(-0.00026242883 -5.9807579e-005 0 0.00026016571 0 0)
(-0.00020884586 -4.5006924e-005 0 0.00020756318 0 0)
(-0.00016885116 -2.8291368e-005 0 0.00016802723 0 0)
(-0.00015012183 -1.1650623e-005 0 0.00014946373 0 0)
(-0.00014932605 3.8786336e-006 0 0.00014862161 0 0)
(-0.00016822852 2.3414199e-005 0 0.0001674162 0 0)
(-0.00020902143 4.7479749e-005 0 0.00020778898 0 0)
(-0.00027603167 7.834536e-005 0 0.00027343108 0 0)
(-0.00039065584 0.00012559372 0 0.00038595559 0 0)
(-0.00056042997 0.00019491662 0 0.00055087231 0 0)
(-0.0008199204 0.00030244053 0 0.00079831319 0 0)
(-0.0012341258 0.0004751097 0 0.0011865778 0 0)
(-0.0018799994 0.00075715526 0 0.0017756197 0 0)
(-0.0028658039 0.0011539473 0 0.0026037497 0 0)
(-0.0043571784 0.001841498 0 0.0038433149 0 0)
(-0.0064968557 0.0026713649 0 0.0052269025 0 0)
(-0.009362444 0.003870125 0 0.0072733081 0 0)
(-0.013401112 0.0055598675 0 0.0087048084 0 0)
(-0.015657478 0.0041671135 0 0.010826487 0 0)
(-0.00044500811 0.00025965365 0 0.00042593089 0 0)
(-0.00057634037 2.6120113e-005 0 0.00058824227 0 0)
(-0.00060467105 -6.5914137e-005 0 0.00058237813 0 0)
(-0.00051441168 -0.00010109258 0 0.00051216791 0 0)
(-0.00042621149 -0.00010636184 0 0.00041896656 0 0)
(-0.00033906854 -9.8604194e-005 0 0.00033628955 0 0)
(-0.00025806428 -7.811981e-005 0 0.0002558077 0 0)
(-0.00020382685 -5.8665049e-005 0 0.00020261487 0 0)
(-0.0001643646 -3.7212691e-005 0 0.00016352289 0 0)
(-0.00014552181 -1.6164423e-005 0 0.0001449147 0 0)
(-0.0001441361 3.8347904e-006 0 0.00014346816 0 0)
(-0.00016213576 2.8822211e-005 0 0.00016136624 0 0)
(-0.00020097127 5.9234806e-005 0 0.00019980849 0 0)
(-0.00026484946 9.825246e-005 0 0.00026229761 0 0)
(-0.00037430782 0.0001580791 0 0.00036969476 0 0)
(-0.00053544976 0.00024548642 0 0.000526038 0 0)
(-0.00078059948 0.00038058413 0 0.00075921413 0 0)
(-0.0011699233 0.00059671893 0 0.0011229064 0 0)
(-0.0017713418 0.00094732841 0 0.0016687689 0 0)
(-0.0026840026 0.0014447829 0 0.0024265368 0 0)
(-0.0040421214 0.0023014705 0 0.0035422145 0 0)
(-0.0060337592 0.0033394111 0 0.0047906481 0 0)
(-0.0085744596 0.0048873054 0 0.0065674822 0 0)
(-0.012676611 0.0071895901 0 0.007853001 0 0)
(-0.014708533 0.005357339 0 0.010273235 0 0)
(-0.00045647708 0.0003180529 0 0.00043603412 0 0)
(-0.00058708807 2.9515418e-005 0 0.00059880149 0 0)
(-0.00061365939 -8.3918301e-005 0 0.00059107854 0 0)
(-0.00051732229 -0.00012698136 0 0.00051463951 0 0)
(-0.00042394811 -0.00013246946 0 0.0004167517 0 0)
(-0.00033484696 -0.00012238691 0 0.00033192002 0 0)
(-0.00025249349 -9.7039842e-005 0 0.0002502484 0 0)
(-0.00019763052 -7.2535706e-005 0 0.0001964632 0 0)
(-0.0001587211 -4.6297466e-005 0 0.00015787547 0 0)
(-0.00013979578 -2.1246739e-005 0 0.00013924409 0 0)
(-0.00013794974 3.7211903e-006 0 0.00013734122 0 0)
(-0.00015418911 3.3093598e-005 0 0.0001534615 0 0)
(-0.0001912875 7.0284062e-005 0 0.00019019015 0 0)
(-0.00025125546 0.00011670696 0 0.00024878246 0 0)
(-0.00035421567 0.00018822422 0 0.00034970229 0 0)
(-0.00050518967 0.00029262276 0 0.00049592431 0 0)
(-0.00073278293 0.00045333363 0 0.0007116807 0 0)
(-0.0010921588 0.00070914089 0 0.0010457735 0 0)
(-0.0016384459 0.0011235329 0 0.0015377067 0 0)
(-0.0024617068 0.0017093269 0 0.0022104415 0 0)
(-0.0036517158 0.0027203054 0 0.0031693601 0 0)
(-0.0054666281 0.0039485289 0 0.0042508468 0 0)
(-0.0075314386 0.0058875042 0 0.0056127625 0 0)
(-0.01189092 0.0085510359 0 0.0068944321 0 0)
(-0.012692354 0.0062022816 0 0.0091012016 0 0)
(-0.00047141659 0.00037668692 0 0.00044950936 0 0)
(-0.00060013237 3.1617403e-005 0 0.00061132871 0 0)
(-0.00062445615 -0.00010341314 0 0.0006016395 0 0)
(-0.00052067598 -0.00015447226 0 0.00051742846 0 0)
(-0.00042087985 -0.00015945777 0 0.00041368778 0 0)
(-0.00032963039 -0.00014651683 0 0.00032651909 0 0)
(-0.00024578522 -0.000116004 0 0.00024355739 0 0)
(-0.0001902076 -8.6347034e-005 0 0.00018905023 0 0)
(-0.00015190117 -5.5288995e-005 0 0.00015104017 0 0)
(-0.00013295354 -2.6317395e-005 0 0.00013247667 0 0)
(-0.0001303176 2.9418832e-006 0 0.00012974722 0 0)
(-0.00014536647 3.7546664e-005 0 0.00014467106 0 0)
(-0.00017973154 8.0477676e-005 0 0.0001787319 0 0)
(-0.00023516153 0.00013377238 0 0.00023275655 0 0)
(-0.00033059233 0.00021633934 0 0.00032613254 0 0)
(-0.00046967348 0.00033652147 0 0.00046054327 0 0)
(-0.0006777297 0.00051947599 0 0.00065689949 0 0)
(-0.0010025691 0.00081022032 0 0.00095677786 0 0)
(-0.0014877797 0.001278129 0 0.0013890812 0 0)
(-0.0022137144 0.0019331209 0 0.0019694945 0 0)
(-0.0031995857 0.0030805812 0 0.0027377513 0 0)
(-0.004817689 0.0044539951 0 0.0036322548 0 0)
(-0.0063330987 0.0067355701 0 0.0045210034 0 0)
(-0.01109142 0.0094679266 0 0.005995679 0 0)
(-0.0094913822 0.0076111707 0 0.0064975941 0 0)
(-0.00049057647 0.00043585518 0 0.00046700073 0 0)
(-0.00061500539 3.2299178e-005 0 0.000625595 0 0)
(-0.0006370103 -0.00012415237 0 0.00061397007 0 0)
(-0.00052433713 -0.0001835566 0 0.00052034814 0 0)
(-0.00041674118 -0.00018674468 0 0.00040948187 0 0)
(-0.00032326172 -0.0001707398 0 0.00031987921 0 0)
(-0.00023768177 -0.00013467111 0 0.00023543905 0 0)
(-0.00018165316 -9.9533478e-005 0 0.00018051569 0 0)
(-0.00014402478 -6.3470897e-005 0 0.0001431221 0 0)
(-0.00012502988 -3.1258769e-005 0 0.00012458314 0 0)
(-0.00012191248 3.6737947e-006 0 0.0001214134 0 0)
(-0.00013471427 4.1035226e-005 0 0.0001340819 0 0)
(-0.00016664579 9.0502713e-005 0 0.00016570038 0 0)
(-0.00021700448 0.00014990997 0 0.00021465571 0 0)
(-0.0003039156 0.00024241408 0 0.00029963511 0 0)
(-0.00042951293 0.0003765887 0 0.00042061659 0 0)
(-0.00061489998 0.00057985456 0 0.00059423615 0 0)
(-0.00090087929 0.00090070602 0 0.00085573206 0 0)
(-0.0013160888 0.0014153814 0 0.0012196352 0 0)
(-0.0019330246 0.0021216693 0 0.001693944 0 0)
(-0.0026694452 0.0033890916 0 0.0022300053 0 0)
(-0.0040601505 0.0048520453 0 0.0029053501 0 0)
(-0.0048367738 0.0075095074 0 0.0031267903 0 0)
(-0.0092900233 0.01075088 0 0.004240996 0 0)
(-0.0069464224 0.008521563 0 0.0043501699 0 0)
(-0.00051492059 0.00049560067 0 0.00048738468 0 0)
(-0.00063166556 3.1945235e-005 0 0.00064459867 0 0)
(-0.00065136579 -0.00014585518 0 0.00062660053 0 0)
(-0.00052804919 -0.00021328848 0 0.0005233901 0 0)
(-0.00041106064 -0.00021412578 0 0.00040409891 0 0)
(-0.00031565448 -0.00019314023 0 0.00031183245 0 0)
(-0.00022835735 -0.00015236838 0 0.00022614158 0 0)
(-0.00017168347 -0.00011122688 0 0.00017070491 0 0)
(-0.00013477529 -7.0179101e-005 0 0.0001338998 0 0)
(-0.00011613251 -3.4936579e-005 0 0.00011576109 0 0)
(-0.00011203131 4.2839807e-006 0 0.00011160254 0 0)
(-0.00012339645 4.6330634e-005 0 0.00012284534 0 0)
(-0.00015205694 0.00010095948 0 0.00015128189 0 0)
(-0.00019664785 0.00016552202 0 0.00019447109 0 0)
(-0.00027374214 0.00026667831 0 0.00026965545 0 0)
(-0.00038473732 0.00041448404 0 0.00037629811 0 0)
(-0.00054647082 0.00063279836 0 0.00052639067 0 0)
(-0.00078970405 0.00097868131 0 0.00074629186 0 0)
(-0.0011310488 0.0015302834 0 0.00103872 0 0)
(-0.0016410613 0.0022521915 0 0.0014073724 0 0)
(-0.0021071533 0.0036191751 0 0.0017100328 0 0)
(-0.00321914 0.0050583948 0 0.0021042019 0 0)
(-0.0030443117 0.0080287751 0 0.0015384277 0 0)
(-0.0072001986 0.011215288 0 0.0023210775 0 0)
(-0.00092981346 0.01149588 0 -0.0021589829 0 0)
(-0.00054480541 0.0005566553 0 0.0005060011 0 0)
(-0.00065008314 3.1368091e-005 0 0.00067480248 0 0)
(-0.00066712816 -0.00016839774 0 0.00063631387 0 0)
(-0.00053143487 -0.00024393969 0 0.00052667252 0 0)
(-0.00040340346 -0.00023992883 0 0.00039726161 0 0)
(-0.0003059431 -0.000214249 0 0.00030226907 0 0)
(-0.00021764006 -0.00016754602 0 0.00021573923 0 0)
(-0.00016074931 -0.00012002773 0 0.00016018791 0 0)
(-0.00012439987 -7.4107528e-005 0 0.00012388165 0 0)
(-0.00010612556 -3.5859252e-005 0 0.00010613364 0 0)
(-0.00010143299 8.4997525e-006 0 0.00010135379 0 0)
(-0.00011045624 5.2428827e-005 0 0.00011021107 0 0)
(-0.00013618539 0.00011296365 0 0.00013571785 0 0)
(-0.00017467104 0.00018256056 0 0.00017287856 0 0)
(-0.00024244872 0.00029098086 0 0.00023887812 0 0)
(-0.00033736609 0.00044884581 0 0.00032962598 0 0)
(-0.00047080148 0.00068103695 0 0.00045135711 0 0)
(-0.00067092728 0.001044142 0 0.00062885129 0 0)
(-0.00093419486 0.0016239127 0 0.00084703227 0 0)
(-0.0013081496 0.0023408287 0 0.0010784826 0 0)
(-0.0014864392 0.0037389546 0 0.0011364785 0 0)
(-0.0021370638 0.0051155982 0 0.0010782974 0 0)
(-0.0008813832 0.0078425694 0 -0.00026176685 0 0)
(-0.0030201622 0.010260313 0 -0.0010784181 0 0)
(0.0028316803 0.012277828 0 -0.0076560136 0 0)
(-0.013814238 0.00053057814 0 0.0092537742 0 0)
(-0.0079371217 0.00094952639 0 0.0058506051 0 0)
(-0.0030982947 0.0013687525 0 0.0022819699 0 0)
(-0.00099904673 0.0016240288 0 0.00076479626 0 0)
(-0.00040562753 0.0017481912 0 0.00025776337 0 0)
(-0.00015893524 0.0018001384 0 5.6201402e-005 0 0)
(-0.00010756183 0.0018145065 0 7.8894958e-006 0 0)
(-8.902997e-005 0.0018170327 0 -7.5684327e-006 0 0)
(-8.9179753e-005 0.0018169429 0 -7.4238518e-006 0 0)
(-9.0850863e-005 0.001816284 0 -5.4800032e-006 0 0)
(-9.4717791e-005 0.0018155961 0 -1.5785785e-006 0 0)
(-9.6099411e-005 0.0018153619 0 -1.1501831e-007 0 0)
(-9.6533152e-005 0.0018153134 0 3.1569442e-007 0 0)
(-9.6359187e-005 0.0018153324 0 1.4508956e-007 0 0)
(-9.6229019e-005 0.0018153461 0 1.2089951e-008 0 0)
(-9.6182161e-005 0.001815348 0 -3.5626234e-008 0 0)
(-9.6202648e-005 0.0018153437 0 -1.5821851e-008 0 0)
(-9.6215181e-005 0.0018153416 0 -3.021971e-009 0 0)
(-9.6220212e-005 0.0018153409 0 1.9285593e-009 0 0)
(-9.6219244e-005 0.0018153411 0 9.6816083e-010 0 0)
(-9.6218485e-005 0.0018153411 0 1.8484579e-010 0 0)
(-9.6218561e-005 0.0018153412 0 2.3633354e-010 0 0)
(-9.6218642e-005 0.001815341 0 3.7401641e-010 0 0)
(-9.6216977e-005 0.0018153412 0 -1.1692159e-009 0 0)
(-9.621743e-005 0.0018153412 0 -1.2504898e-009 0 0)
(-0.013340824 0.0016882157 0 0.0088928195 0 0)
(-0.0076755502 0.0028784471 0 0.0055495495 0 0)
(-0.0033187914 0.0040800117 0 0.0021491111 0 0)
(-0.0014816277 0.004948298 0 0.000670681 0 0)
(-0.0010768537 0.0052808446 0 0.00022548317 0 0)
(-0.00090635146 0.0054092131 0 5.2068487e-005 0 0)
(-0.00087977498 0.0054382776 0 1.3906832e-005 0 0)
(-0.00086148682 0.0054494509 0 -5.3350593e-006 0 0)
(-0.00086125527 0.0054491705 0 -6.1410982e-006 0 0)
(-0.00086196069 0.0054478247 0 -4.8052119e-006 0 0)
(-0.00086503492 0.0054459824 0 -1.3834098e-006 0 0)
(-0.00086633779 0.0054453318 0 3.0181223e-008 0 0)
(-0.00086661746 0.0054452611 0 3.0683628e-007 0 0)
(-0.00086644644 0.0054453327 0 1.3063353e-007 0 0)
(-0.00086632163 0.0054453745 0 4.0883981e-009 0 0)
(-0.00086628582 0.0054453802 0 -2.7274643e-008 0 0)
(-0.00086629602 0.0054453714 0 -1.3484506e-008 0 0)
(-0.00086630731 0.0054453658 0 -1.2206612e-009 0 0)
(-0.00086631016 0.0054453649 0 1.7544909e-009 0 0)
(-0.00086630943 0.005445365 0 1.0022213e-009 0 0)
(-0.00086630867 0.0054453654 0 1.285783e-010 0 0)
(-0.0008663088 0.0054453656 0 1.853934e-010 0 0)
(-0.00086630874 0.0054453651 0 2.5644515e-010 0 0)
(-0.00086630714 0.0054453653 0 -1.2175016e-009 0 0)
(-0.00086630777 0.0054453656 0 -1.3251457e-009 0 0)
(-0.012555819 0.0029121052 0 0.0083651862 0 0)
(-0.007063493 0.0049178904 0 0.0049477426 0 0)
(-0.0037030042 0.0072122276 0 0.0017075025 0 0)
(-0.002730472 0.0082601153 0 0.00065978588 0 0)
(-0.0025041373 0.0087554159 0 0.00024099855 0 0)
(-0.0024202244 0.0090037754 0 5.7733952e-005 0 0)
(-0.0024145111 0.0090668045 0 8.0246329e-006 0 0)
(-0.0024071547 0.0090778535 0 -3.7151563e-006 0 0)
(-0.0024056424 0.0090776964 0 -5.2231389e-006 0 0)
(-0.0024059892 0.009074832 0 -3.3378623e-006 0 0)
(-0.0024074026 0.0090723555 0 -9.2033389e-007 0 0)
(-0.0024081365 0.0090715294 0 8.3356396e-008 0 0)
(-0.0024082796 0.0090714573 0 2.3868539e-007 0 0)
(-0.0024081643 0.0090715594 0 1.05745e-007 0 0)
(-0.0024080655 0.0090716265 0 -2.3813473e-009 0 0)
(-0.0024080417 0.0090716309 0 -2.0948465e-008 0 0)
(-0.0024080469 0.0090716179 0 -9.2023791e-009 0 0)
(-0.0024080534 0.0090716106 0 -3.8366119e-010 0 0)
(-0.0024080551 0.0090716093 0 1.419953e-009 0 0)
(-0.0024080547 0.0090716098 0 7.4376488e-010 0 0)
(-0.0024080543 0.0090716105 0 1.0596783e-010 0 0)
(-0.002408054 0.0090716101 0 3.0300817e-011 0 0)
(-0.0024080541 0.0090716102 0 6.6590808e-011 0 0)
(-0.0024080525 0.0090716099 0 -1.1578148e-009 0 0)
(-0.002408053 0.0090716097 0 -1.3752357e-009 0 0)
(-0.01138591 0.0042824756 0 0.0074354508 0 0)
(-0.0061202102 0.0078893324 0 0.0035637594 0 0)
(-0.0049403972 0.010048147 0 0.0016222799 0 0)
(-0.0044159361 0.011819787 0 0.00044178669 0 0)
(-0.0046013152 0.012440409 0 0.00010675588 0 0)
(-0.0046953901 0.012636882 0 2.938388e-005 0 0)
(-0.0047269311 0.012687903 0 3.6963399e-006 0 0)
(-0.0047264762 0.012696434 0 -2.6522653e-006 0 0)
(-0.0047251104 0.012694893 0 -3.1763306e-006 0 0)
(-0.0047238889 0.012690922 0 -1.6887204e-006 0 0)
(-0.0047237951 0.012688315 0 -3.8770672e-007 0 0)
(-0.0047239422 0.012687559 0 9.9227316e-008 0 0)
(-0.0047239865 0.012687528 0 1.3831405e-007 0 0)
(-0.0047239463 0.012687664 0 4.9556305e-008 0 0)
(-0.0047239098 0.01268773 0 -3.6505111e-009 0 0)
(-0.0047238966 0.012687731 0 -1.0615493e-008 0 0)
(-0.0047238953 0.012687717 0 -3.647547e-009 0 0)
(-0.0047238968 0.012687711 0 4.2343982e-010 0 0)
(-0.0047238972 0.01268771 0 8.3253173e-010 0 0)
(-0.0047238971 0.01268771 0 3.2455938e-010 0 0)
(-0.0047238969 0.012687711 0 3.1385561e-011 0 0)
(-0.0047238968 0.012687711 0 -2.35639e-012 0 0)
(-0.0047238969 0.012687711 0 -2.8378189e-011 0 0)
(-0.0047238957 0.012687711 0 -1.0289632e-009 0 0)
(-0.0047238959 0.012687709 0 -1.1408553e-009 0 0)
(-0.0094597833 0.005789231 0 0.0059334648 0 0)
(-0.0063005113 0.010859793 0 0.0024615443 0 0)
(-0.0064374923 0.013558637 0 0.0010056255 0 0)
(-0.0070306069 0.015445589 0 0.00025756789 0 0)
(-0.0075912649 0.016062593 0 5.8491294e-005 0 0)
(-0.0077682528 0.01624597 0 1.6303136e-005 0 0)
(-0.0078193778 0.016289125 0 1.1143258e-006 0 0)
(-0.0078223801 0.016294246 0 -6.1457395e-007 0 0)
(-0.0078205276 0.01629166 0 -5.4402812e-007 0 0)
(-0.0078173237 0.016287527 0 -2.6499191e-008 0 0)
(-0.0078159822 0.016285424 0 9.7354078e-008 0 0)
(-0.0078156158 0.016284917 0 4.1735044e-008 0 0)
(-0.0078156137 0.016284935 0 2.0765494e-009 0 0)
(-0.0078156763 0.016285057 0 -5.1134982e-009 0 0)
(-0.0078156968 0.016285103 0 -1.8894167e-009 0 0)
(-0.0078156925 0.016285101 0 1.1155809e-009 0 0)
(-0.0078156846 0.01628509 0 1.5514178e-009 0 0)
(-0.0078156812 0.016285085 0 5.9730742e-010 0 0)
(-0.0078156806 0.016285085 0 3.8990168e-011 0 0)
(-0.007815681 0.016285085 0 -3.60661e-011 0 0)
(-0.0078156815 0.016285086 0 -7.7074251e-013 0 0)
(-0.0078156814 0.016285086 0 -5.3819265e-011 0 0)
(-0.0078156811 0.016285085 0 -2.5157797e-011 0 0)
(-0.0078156805 0.016285085 0 -5.3398909e-010 0 0)
(-0.00781568 0.016285083 0 -6.249697e-010 0 0)
(-0.0074919715 0.0088407372 0 0.0035900457 0 0)
(-0.0068646458 0.01421192 0 0.0011703122 0 0)
(-0.0090948465 0.017547636 0 0.00032779321 0 0)
(-0.01074627 0.019256473 0 8.3342936e-005 0 0)
(-0.011477282 0.019723709 0 8.128642e-006 0 0)
(-0.011649287 0.019845605 0 -1.0411365e-006 0 0)
(-0.01169217 0.019864173 0 -7.1957961e-007 0 0)
(-0.011694026 0.01986426 0 2.0524164e-006 0 0)
(-0.011689772 0.019860646 0 2.086599e-006 0 0)
(-0.011685092 0.01985772 0 1.3040035e-006 0 0)
(-0.011683058 0.0198566 0 4.0131141e-007 0 0)
(-0.011682345 0.019856385 0 -7.0211274e-008 0 0)
(-0.011682339 0.019856405 0 -1.2442416e-007 0 0)
(-0.011682486 0.019856465 0 -4.12457e-008 0 0)
(-0.011682548 0.019856484 0 5.5759698e-009 0 0)
(-0.011682551 0.019856483 0 1.2521769e-008 0 0)
(-0.011682538 0.019856478 0 5.1691558e-009 0 0)
(-0.011682531 0.019856476 0 2.1743011e-010 0 0)
(-0.01168253 0.019856476 0 -7.1458157e-010 0 0)
(-0.011682531 0.019856476 0 -3.3535023e-010 0 0)
(-0.011682531 0.019856476 0 -3.6144923e-011 0 0)
(-0.011682531 0.019856476 0 -8.191499e-011 0 0)
(-0.011682531 0.019856476 0 7.7842179e-011 0 0)
(-0.011682532 0.019856476 0 2.5391994e-010 0 0)
(-0.01168253 0.019856473 0 1.5217646e-010 0 0)
(-0.0065114668 0.011524972 0 0.0013998657 0 0)
(-0.0089034471 0.018847521 0 -0.00040175751 0 0)
(-0.013604397 0.0218474 0 -0.00016360577 0 0)
(-0.015547409 0.023087224 0 -2.5241258e-005 0 0)
(-0.016193045 0.023343525 0 -8.8948409e-006 0 0)
(-0.016301369 0.023401933 0 -3.7309423e-006 0 0)
(-0.01633015 0.023404069 0 1.848147e-006 0 0)
(-0.016330832 0.023402894 0 5.0662371e-006 0 0)
(-0.016327026 0.023401302 0 3.9812648e-006 0 0)
(-0.016322951 0.023400866 0 2.0105217e-006 0 0)
(-0.016320814 0.023400771 0 4.7538259e-007 0 0)
(-0.016319915 0.023400748 0 -1.8697904e-007 0 0)
(-0.016319876 0.023400692 0 -2.058203e-007 0 0)
(-0.016320042 0.023400661 0 -6.2568286e-008 0 0)
(-0.01632014 0.023400657 0 1.515249e-008 0 0)
(-0.016320149 0.023400663 0 1.9716041e-008 0 0)
(-0.016320135 0.023400666 0 7.4113903e-009 0 0)
(-0.016320125 0.023400667 0 -4.6627344e-010 0 0)
(-0.016320124 0.023400666 0 -1.2339887e-009 0 0)
(-0.016320125 0.023400666 0 -4.4788275e-010 0 0)
(-0.016320125 0.023400666 0 -3.6405965e-011 0 0)
(-0.016320125 0.023400666 0 -1.331388e-010 0 0)
(-0.016320126 0.023400666 0 1.5901386e-010 0 0)
(-0.016320127 0.023400666 0 1.1435082e-009 0 0)
(-0.016320125 0.023400663 0 1.0412009e-009 0 0)
(-0.0065171036 0.016238949 0 -0.0018324102 0 0)
(-0.013514433 0.024197855 0 -0.0017877184 0 0)
(-0.01983176 0.026203892 0 -0.00039593601 0 0)
(-0.021209826 0.026837607 0 -7.612343e-005 0 0)
(-0.021667825 0.026905635 0 -7.301702e-006 0 0)
(-0.021695646 0.026918764 0 -2.2360098e-007 0 0)
(-0.021721435 0.026916443 0 4.8317379e-006 0 0)
(-0.021724123 0.026919011 0 5.8043839e-006 0 0)
(-0.021724924 0.026920769 0 4.2814338e-006 0 0)
(-0.02172292 0.026922486 0 2.0717809e-006 0 0)
(-0.021721078 0.026923141 0 4.2686727e-007 0 0)
(-0.021720027 0.02692314 0 -2.3600637e-007 0 0)
(-0.021719922 0.026922958 0 -1.9978713e-007 0 0)
(-0.021720061 0.02692287 0 -4.9358689e-008 0 0)
(-0.02172016 0.026922862 0 1.9302806e-008 0 0)
(-0.021720178 0.026922879 0 1.9903734e-008 0 0)
(-0.021720166 0.026922889 0 5.6923044e-009 0 0)
(-0.021720157 0.02692289 0 -9.0413262e-010 0 0)
(-0.021720155 0.026922889 0 -1.3108459e-009 0 0)
(-0.021720156 0.026922888 0 -3.9618109e-010 0 0)
(-0.021720157 0.026922888 0 -4.5782783e-011 0 0)
(-0.021720157 0.026922889 0 -1.5621337e-010 0 0)
(-0.021720157 0.026922888 0 1.7834151e-010 0 0)
(-0.02172016 0.026922888 0 1.7800065e-009 0 0)
(-0.021720158 0.026922887 0 1.7155286e-009 0 0)
(-0.011903338 0.025180693 0 -0.0053687589 0 0)
(-0.021848753 0.030262926 0 -0.0028289761 0 0)
(-0.027281598 0.030432323 0 -0.00039510915 0 0)
(-0.027567576 0.030439 0 -8.4290033e-005 0 0)
(-0.027801877 0.030400103 0 1.1260748e-005 0 0)
(-0.027814469 0.030408585 0 3.877221e-006 0 0)
(-0.027855848 0.030413009 0 6.8554644e-006 0 0)
(-0.027865306 0.030420615 0 4.8061228e-006 0 0)
(-0.027872261 0.030425834 0 3.4843238e-006 0 0)
(-0.02787196 0.03042904 0 1.33445e-006 0 0)
(-0.027870743 0.030429846 0 1.9619903e-007 0 0)
(-0.027869704 0.030429696 0 -2.1091922e-007 0 0)
(-0.027869481 0.030429402 0 -1.4401285e-007 0 0)
(-0.027869558 0.030429286 0 -2.4996139e-008 0 0)
(-0.02786965 0.03042929 0 1.9705751e-008 0 0)
(-0.027869676 0.030429319 0 1.4915843e-008 0 0)
(-0.02786967 0.030429331 0 3.2350026e-009 0 0)
(-0.027869663 0.030429332 0 -1.187148e-009 0 0)
(-0.027869661 0.03042933 0 -1.0095077e-009 0 0)
(-0.027869661 0.030429329 0 -2.5343956e-010 0 0)
(-0.027869662 0.030429329 0 -6.1229374e-011 0 0)
(-0.027869662 0.03042933 0 -1.9304698e-010 0 0)
(-0.027869662 0.03042933 0 -2.5971916e-011 0 0)
(-0.027869665 0.03042933 0 1.538343e-009 0 0)
(-0.027869663 0.030429331 0 1.6709802e-009 0 0)
(-0.035348205 0.04249462 0 -0.0098979473 0 0)
(-0.033512132 0.035611552 0 -0.0018752553 0 0)
(-0.039470926 0.036392227 0 -0.0002222489 0 0)
(-0.037796576 0.035499256 0 -3.0635728e-005 0 0)
(-0.038497931 0.035706307 0 1.6846377e-005 0 0)
(-0.03838521 0.035660538 0 2.6085701e-006 0 0)
(-0.038484862 0.035693996 0 3.2463316e-006 0 0)
(-0.038486234 0.035696546 0 1.8214877e-006 0 0)
(-0.038502917 0.035705958 0 1.3785929e-006 0 0)
(-0.038503109 0.035708682 0 4.9597175e-007 0 0)
(-0.038503368 0.035709754 0 6.3604217e-008 0 0)
(-0.038502345 0.035709426 0 -8.4777102e-008 0 0)
(-0.038502053 0.035709124 0 -5.3508979e-008 0 0)
(-0.038502036 0.035709014 0 -7.0534304e-009 0 0)
(-0.038502129 0.035709041 0 8.7515578e-009 0 0)
(-0.038502167 0.035709073 0 5.5604791e-009 0 0)
(-0.038502171 0.035709085 0 9.0028748e-010 0 0)
(-0.038502165 0.035709084 0 -6.5115718e-010 0 0)
(-0.038502162 0.035709081 0 -4.2075309e-010 0 0)
(-0.038502162 0.035709081 0 -1.1080355e-010 0 0)
(-0.038502162 0.035709081 0 -7.318069e-011 0 0)
(-0.038502162 0.03570908 0 -1.4622687e-010 0 0)
(-0.038502161 0.03570908 0 -1.6250378e-010 0 0)
(-0.038502161 0.035709081 0 8.1694369e-010 0 0)
(-0.038502162 0.035709085 0 1.0909752e-009 0 0)
(-0.00061544908 0.00069248581 0 0.00055526019 0 0)
(-0.00068905122 3.1286263e-005 0 0.00074283709 0 0)
(-0.0006992852 -0.00021438903 0 0.00065686377 0 0)
(-0.00053506882 -0.00029389717 0 0.00052651385 0 0)
(-0.00039026511 -0.00028026288 0 0.00038268127 0 0)
(-0.00028052281 -0.00023951446 0 0.00027556857 0 0)
(-0.00019305682 -0.00017995504 0 0.00018983574 0 0)
(-0.00013725428 -0.0001220408 0 0.00013566959 0 0)
(-0.00010190551 -6.628749e-005 0 0.00010050153 0 0)
(-8.4504971e-005 -2.195938e-005 0 8.3851505e-005 0 0)
(-7.8259025e-005 3.1510923e-005 0 7.780259e-005 0 0)
(-8.4288221e-005 7.9722256e-005 0 8.3006833e-005 0 0)
(-0.00010209887 0.0001481413 0 0.00010076736 0 0)
(-0.0001283863 0.00022311634 0 0.0001251872 0 0)
(-0.00017495538 0.00034527021 0 0.0001700829 0 0)
(-0.00023915667 0.00051890164 0 0.00023017958 0 0)
(-0.00032275022 0.00076193464 0 0.00029952419 0 0)
(-0.00044316516 0.001141595 0 0.00039800411 0 0)
(-0.00054931877 0.0017421254 0 0.00046953718 0 0)
(-0.00069857526 0.0024280965 0 0.00048966 0 0)
(-0.00060929588 0.0037125693 0 0.00031733634 0 0)
(-0.00049100694 0.0048871067 0 -0.00038214132 0 0)
(0.0013760519 0.0069757152 0 -0.002040194 0 0)
(0.0019234648 0.0077161501 0 -0.0044226882 0 0)
(0.0098579289 0.0074667074 0 -0.013037028 0 0)
(-0.0007571915 0.00093644649 0 0.00066441232 0 0)
(-0.00076733864 2.4814216e-005 0 0.00083953606 0 0)
(-0.00073945014 -0.0002882899 0 0.00068616857 0 0)
(-0.00052085396 -0.00035099742 0 0.00050924527 0 0)
(-0.00034855937 -0.0003141246 0 0.0003424885 0 0)
(-0.00022461141 -0.00024057306 0 0.00022078934 0 0)
(-0.00014195019 -0.00015930991 0 0.00014010648 0 0)
(-8.8832717e-005 -8.1870708e-005 0 8.9087876e-005 0 0)
(-5.9834897e-005 -1.5050681e-005 0 5.9645711e-005 0 0)
(-4.4596153e-005 4.1456791e-005 0 4.4562141e-005 0 0)
(-3.7814552e-005 9.6111722e-005 0 3.7432311e-005 0 0)
(-3.774947e-005 0.00015881164 0 3.7020711e-005 0 0)
(-4.2157173e-005 0.00022689811 0 4.2255328e-005 0 0)
(-5.1518652e-005 0.00031279504 0 4.8778857e-005 0 0)
(-6.5563195e-005 0.00043486102 0 5.8518429e-005 0 0)
(-7.9453337e-005 0.00062543964 0 7.235659e-005 0 0)
(-9.0669924e-005 0.00086581427 0 7.1039944e-005 0 0)
(-9.2754362e-005 0.0012220361 0 4.5901963e-005 0 0)
(-2.8064131e-005 0.0017887938 0 -4.5126068e-005 0 0)
(0.00010617103 0.0023776627 0 -0.00029061175 0 0)
(0.0006040268 0.003238601 0 -0.00087982425 0 0)
(0.0012161191 0.0037973059 0 -0.0019271709 0 0)
(0.0031853286 0.0043142751 0 -0.0039362521 0 0)
(0.0052101921 0.002042817 0 -0.0074248695 0 0)
(0.0063093818 -0.0010205667 0 -0.0091882081 0 0)
(-0.00093460316 0.0012279831 0 0.00081257693 0 0)
(-0.00083605682 1.5127795e-005 0 0.00091536235 0 0)
(-0.00073998944 -0.00033655449 0 0.00068058042 0 0)
(-0.00046357662 -0.0003538019 0 0.00045099791 0 0)
(-0.00026774439 -0.00026552627 0 0.00026400211 0 0)
(-0.00014589913 -0.00015085549 0 0.0001432252 0 0)
(-7.5155923e-005 -4.6282267e-005 0 7.3959921e-005 0 0)
(-3.1506595e-005 5.0689075e-005 0 3.1577759e-005 0 0)
(-1.1057049e-005 0.00012887264 0 1.0926421e-005 0 0)
(-1.4219566e-006 0.00018874397 0 5.3970606e-007 0 0)
(5.6694816e-006 0.00025148653 0 -6.8444342e-006 0 0)
(1.0267386e-005 0.00030639296 0 -1.2585331e-005 0 0)
(1.6571664e-005 0.00038006355 0 -1.9866525e-005 0 0)
(2.784492e-005 0.00047118728 0 -3.1506915e-005 0 0)
(4.0188662e-005 0.00057716117 0 -5.0930982e-005 0 0)
(7.1040696e-005 0.00075409703 0 -8.5178351e-005 0 0)
(0.00013000157 0.00099459451 0 -0.00015147287 0 0)
(0.00021060589 0.0012941593 0 -0.00026323075 0 0)
(0.00041781374 0.0017639372 0 -0.00049850829 0 0)
(0.00070064758 0.0022275218 0 -0.00086114157 0 0)
(0.00129448 0.0027742656 0 -0.0015303733 0 0)
(0.0021034588 0.0029883677 0 -0.002556788 0 0)
(0.0034874276 0.0028207899 0 -0.0038754876 0 0)
(0.0046507352 0.00074866925 0 -0.0053936583 0 0)
(0.003550803 -0.0025691215 0 -0.0036719256 0 0)
(-0.0011257663 0.001584003 0 0.00096317222 0 0)
(-0.00084121243 8.0716786e-006 0 0.00092567662 0 0)
(-0.00065325612 -0.00032889434 0 0.00058973122 0 0)
(-0.00033039419 -0.00026012508 0 0.00032009001 0 0)