/*--------------------------------*- C++ -*----------------------------------*\
| =========                 |                                                 |
| \\      /  F ield         | OpenFOAM: The Open Source CFD Toolbox           |
|  \\    /   O peration     | Version:  5.x                                   |
|   \\  /    A nd           | Web:      www.OpenFOAM.org                      |
|    \\/     M anipulation  |                                                 |
\*---------------------------------------------------------------------------*/
/*   Windows 32 and 64 bit porting by blueCAPE: http://www.bluecape.com.pt   *\
|  Based on Windows porting (2.0.x v4) by Symscape: http://www.symscape.com   |
\*---------------------------------------------------------------------------*/
FoamFile
{
    version     2.0;
    format      ascii;
    class       volVectorField;
    location    "0.24";
    object      U;
}
// * * * * * * * * * * * * * * * * * * * * * * * * * * * * * * * * * * * * * //

dimensions      [0 1 -1 0 0 0 0];

internalField   nonuniform List<vector> 
750
(
(0.039391253 -0.00015897799 0)
(0.040713062 -0.00020049251 0)
(0.042535364 -0.00020099487 0)
(0.043980746 -0.00017505441 0)
(0.045316188 -0.00014831931 0)
(0.046360365 -0.00011742316 0)
(0.047190807 -9.2187735e-005 0)
(0.047835026 -7.2238879e-005 0)
(0.048342312 -5.8681959e-005 0)
(0.048770955 -5.2139309e-005 0)
(0.049174143 -5.1989622e-005 0)
(0.049600035 -5.8491831e-005 0)
(0.050106422 -7.3218772e-005 0)
(0.050766809 -9.8696186e-005 0)
(0.051680376 -0.00013950023 0)
(0.052988669 -0.00020220464 0)
(0.054900371 -0.00030072376 0)
(0.05777966 -0.00045590708 0)
(0.062158202 -0.00069260277 0)
(0.068778815 -0.0010569291 0)
(0.079032762 -0.0015552089 0)
(0.093303886 -0.0023030677 0)
(0.11605064 -0.0031706493 0)
(0.14283375 -0.0041067478 0)
(0.18272235 -0.0046946357 0)
(0.039396329 -0.0004753369 0)
(0.040722102 -0.00060780093 0)
(0.042551702 -0.00060055414 0)
(0.044000906 -0.00052700439 0)
(0.045335444 -0.00044379428 0)
(0.046377739 -0.00035229871 0)
(0.047205234 -0.00027600581 0)
(0.04784597 -0.00021584797 0)
(0.048349706 -0.00017540356 0)
(0.048775445 -0.00015580276 0)
(0.049175282 -0.00015527303 0)
(0.049597426 -0.0001747037 0)
(0.050098837 -0.00021858575 0)
(0.050753018 -0.00029459748 0)
(0.051657345 -0.00041626881 0)
(0.052951545 -0.00060321622 0)
(0.054841827 -0.0008966671 0)
(0.057686161 -0.0013586403 0)
(0.062005213 -0.0020628175 0)
(0.068530111 -0.0031428756 0)
(0.07861541 -0.0046323217 0)
(0.092643108 -0.0068201382 0)
(0.11496508 -0.0094633196 0)
(0.14114748 -0.012172961 0)
(0.18066729 -0.014079764 0)
(0.039405198 -0.00079235835 0)
(0.040741027 -0.0010203897 0)
(0.042585242 -0.00099991853 0)
(0.044041219 -0.00088034323 0)
(0.045374665 -0.00073840034 0)
(0.046413166 -0.0005864845 0)
(0.047234169 -0.00045868432 0)
(0.047867973 -0.0003581998 0)
(0.048365025 -0.00029102208 0)
(0.04878488 -0.0002583597 0)
(0.04917791 -0.00025733519 0)
(0.049592665 -0.00028937364 0)
(0.050084135 -0.00036201392 0)
(0.050725783 -0.00048777661 0)
(0.051611685 -0.0006889828 0)
(0.052877864 -0.00099801137 0)
(0.054724871 -0.0014825855 0)
(0.057498564 -0.0022446957 0)
(0.061699356 -0.0034061486 0)
(0.06802904 -0.0051810358 0)
(0.07778829 -0.0076425557 0)
(0.091303166 -0.011209799 0)
(0.11284453 -0.015599594 0)
(0.1377893 -0.020005907 0)
(0.1764853 -0.023369058 0)
(0.039418455 -0.0011136031 0)
(0.040770624 -0.0014372344 0)
(0.042636705 -0.0014024665 0)
(0.044102129 -0.0012344899 0)
(0.04543424 -0.0010324111 0)
(0.046466943 -0.00081891445 0)
(0.047277733 -0.0006392023 0)
(0.047901119 -0.0004984918 0)
(0.048388489 -0.00040469813 0)
(0.048799482 -0.00035893989 0)
(0.049182176 -0.00035715571 0)
(0.049586012 -0.00040135677 0)
(0.050062777 -0.00050191121 0)
(0.050685589 -0.00067610163 0)
(0.0515442 -0.00095447287 0)
(0.052768944 -0.0013816746 0)
(0.054551712 -0.0020507311 0)
(0.05722103 -0.0031015775 0)
(0.061249541 -0.0047006586 0)
(0.067289353 -0.0071380566 0)
(0.076570118 -0.010522094 0)
(0.089322278 -0.015398281 0)
(0.10971572 -0.021425371 0)
(0.13276408 -0.027461796 0)
(0.17015133 -0.032334786 0)
(0.039437517 -0.001441208 0)
(0.040811809 -0.0018596455 0)
(0.042706746 -0.0018096954 0)
(0.044184186 -0.001589616 0)
(0.045514242 -0.0013255018 0)
(0.04653903 -0.0010488979 0)
(0.047335829 -0.00081668657 0)
(0.047945376 -0.00063590779 0)
(0.048420029 -0.00051564982 0)
(0.048819171 -0.00045672071 0)
(0.049187921 -0.0004539115 0)
(0.04957759 -0.00050959263 0)
(0.050034991 -0.00063694631 0)
(0.050632907 -0.00085775071 0)
(0.051455729 -0.0012100115 0)
(0.052626282 -0.0017500867 0)
(0.054325206 -0.0025944833 0)
(0.056858776 -0.0039184991 0)
(0.060664329 -0.005928356 0)
(0.06632429 -0.0089835718 0)
(0.074989638 -0.013220653 0)
(0.086713742 -0.019307822 0)
(0.10560395 -0.026819258 0)
(0.1261897 -0.034450737 0)
(0.16171571 -0.04062183 0)
(0.039463885 -0.001777368 0)
(0.04086559 -0.0022894095 0)
(0.042796073 -0.0022226573 0)
(0.044287919 -0.0019459423 0)
(0.045614646 -0.0016172675 0)
(0.046629058 -0.001275688 0)
(0.047407976 -0.0009902884 0)
(0.048000393 -0.00076963026 0)
(0.048459227 -0.00062310002 0)
(0.048843467 -0.00055088169 0)
(0.049194732 -0.00054669184 0)
(0.049567008 -0.00061317829 0)
(0.050000842 -0.00076582369 0)
(0.05056794 -0.001030858 0)
(0.051346774 -0.0014529845 0)
(0.052451031 -0.0020992884 0)
(0.054047769 -0.0031077655 0)
(0.056415943 -0.0046857384 0)
(0.05995161 -0.0070726502 0)
(0.065153141 -0.010692064 0)
(0.073069358 -0.015690455 0)
(0.083510991 -0.022867003 0)
(0.1005929 -0.031664443 0)
(0.11794928 -0.040844837 0)
(0.15116265 -0.048074337 0)
(0.039499397 -0.0021247448 0)
(0.040932876 -0.0027278933 0)
(0.042905101 -0.0026424514 0)
(0.044413263 -0.0023035254 0)
(0.045734814 -0.0019072042 0)
(0.046735897 -0.0014984704 0)
(0.047493217 -0.0011590729 0)
(0.048065078 -0.00089883306 0)
(0.048504888 -0.00072632433 0)
(0.048871193 -0.00064056989 0)
(0.049201362 -0.00063474595 0)
(0.049553396 -0.00071118382 0)
(0.049959633 -0.00088724135 0)
(0.050490385 -0.0011937754 0)
(0.051217551 -0.0016809826 0)
(0.052244144 -0.0024255347 0)
(0.05372177 -0.003584592 0)
(0.055898032 -0.0053937938 0)
(0.059122185 -0.0081181571 0)
(0.063794259 -0.012235696 0)
(0.070839269 -0.017882452 0)
(0.079765175 -0.02599971 0)
(0.094715167 -0.035792714 0)
(0.10787784 -0.046342255 0)
(0.13899196 -0.054688442 0)
(0.039546466 -0.002486605 0)
(0.041014264 -0.0031759506 0)
(0.043033481 -0.0030702477 0)
(0.044559411 -0.0026622133 0)
(0.045873028 -0.002194594 0)
(0.046857155 -0.0017163644 0)
(0.047589581 -0.0013221935 0)
(0.04813727 -0.0010226401 0)
(0.048554872 -0.00082446554 0)
(0.048899963 -0.00072503778 0)
(0.049206122 -0.00071717048 0)
(0.049534499 -0.00080272674 0)
(0.049909838 -0.0010001709 0)
(0.050399187 -0.0013448738 0)
(0.051067722 -0.0018915163 0)
(0.052005934 -0.0027254546 0)
(0.053349973 -0.0040200071 0)
(0.055311839 -0.0060347606 0)
(0.058187635 -0.0090521821 0)
(0.062269939 -0.013593091 0)
(0.068345221 -0.01975635 0)
(0.075540589 -0.028640272 0)
(0.08803748 -0.039100063 0)
(0.096623534 -0.050924818 0)
(0.12547899 -0.059325044 0)
(0.039607513 -0.0028662452 0)
(0.041110452 -0.0036345904 0)
(0.043179869 -0.0035067695 0)
(0.044725059 -0.0030216394 0)
(0.046026118 -0.0024784835 0)
(0.046989551 -0.0019283879 0)
(0.047693543 -0.0014787464 0)
(0.048213561 -0.0011402606 0)
(0.048605815 -0.00091670872 0)
(0.048925948 -0.00080338935 0)
(0.049205948 -0.00079330172 0)
(0.04950717 -0.00088709546 0)
(0.049848874 -0.0011034982 0)
(0.050292229 -0.0014826802 0)
(0.050895903 -0.0020828569 0)
(0.051736693 -0.0029962679 0)
(0.052934881 -0.0044093761 0)
(0.054665092 -0.0066018562 0)
(0.057162087 -0.0098630524 0)
(0.060606034 -0.014742826 0)
(0.065645218 -0.021270108 0)
(0.070952362 -0.030700961 0)
(0.080761675 -0.041492831 0)
(0.084385282 -0.054686326 0)
(0.11066664 -0.062407461 0)
(0.039683205 -0.0032647724 0)
(0.04122245 -0.0041087105 0)
(0.043342104 -0.0039499838 0)
(0.044907366 -0.0033817797 0)
(0.046189719 -0.0027583351 0)
(0.047127633 -0.0021334742 0)
(0.047800273 -0.001627924 0)
(0.048289134 -0.0012509842 0)
(0.048652686 -0.0010022641 0)
(0.0489443 -0.00087509593 0)
(0.049196692 -0.00086240962 0)
(0.049466753 -0.00096346907 0)
(0.049772804 -0.0011966352 0)
(0.050166299 -0.0016061024 0)
(0.050699953 -0.0022528937 0)
(0.05143509 -0.0032358037 0)
(0.052478086 -0.0047508076 0)
(0.053962811 -0.0070914734 0)
(0.0560575 -0.010544932 0)
(0.058836273 -0.015677931 0)
(0.062794151 -0.022445006 0)
(0.066228653 -0.032152773 0)
(0.072875409 -0.043006678 0)
(0.070848558 -0.057123535 0)
(0.091250819 -0.062544178 0)
(0.21568722 -0.0027141231 0)
(0.22671859 -0.0010367733 0)
(0.23066838 -0.00026710011 0)
(0.23112539 -5.4090713e-005 0)
(0.23149191 -1.7565801e-005 0)
(0.23148399 -5.7038668e-006 0)
(0.23156415 -8.3300806e-006 0)
(0.2315947 -3.1068704e-006 0)
(0.23160535 -3.0348816e-008 0)
(0.23159437 1.3863821e-006 0)
(0.23158432 1.0379548e-006 0)
(0.23157896 3.6829183e-007 0)
(0.23157845 -9.7177496e-009 0)
(0.23157917 -8.014952e-008 0)
(0.23157967 -3.6949689e-008 0)
(0.23157973 -4.9824844e-010 0)
(0.23157967 7.7885097e-009 0)
(0.23157962 3.3074032e-009 0)
(0.23157961 -3.7418651e-011 0)
(0.23157962 -7.0267246e-010 0)
(0.23157962 -3.2717974e-010 0)
(0.23157962 -9.9548829e-011 0)
(0.23157962 1.7216367e-010 0)
(0.23157962 1.346389e-009 0)
(0.2315796 1.2621112e-009 0)
(0.21275737 -0.0078144332 0)
(0.22241385 -0.0030112062 0)
(0.22619094 -0.00070267359 0)
(0.22651996 -0.00020424738 0)
(0.22677805 -5.7092707e-005 0)
(0.22674969 -1.8153458e-005 0)
(0.22681802 -1.7854895e-005 0)
(0.22684577 -8.7479338e-006 0)
(0.22685418 3.148114e-007 0)
(0.22684459 3.7362862e-006 0)
(0.22683546 2.9020941e-006 0)
(0.22683084 1.0565227e-006 0)
(0.22683047 -3.2492096e-008 0)
(0.22683115 -2.3132535e-007 0)
(0.22683159 -1.0209378e-007 0)
(0.22683163 1.021346e-009 0)
(0.22683157 2.176552e-008 0)
(0.22683153 9.4140648e-009 0)
(0.22683152 -2.6284685e-010 0)
(0.22683153 -1.9123959e-009 0)
(0.22683153 -9.7699422e-010 0)
(0.22683153 -2.0223469e-010 0)
(0.22683153 6.0526483e-010 0)
(0.22683153 3.694329e-009 0)
(0.22683152 3.5640258e-009 0)
(0.20676822 -0.012432157 0)
(0.21375893 -0.0047146996 0)
(0.21738881 -0.0011499511 0)
(0.21721162 -0.00026885582 0)
(0.21729831 -5.3311786e-005 0)
(0.21729397 -3.0687647e-005 0)
(0.2173548 -2.7074129e-005 0)
(0.21737588 -1.3250821e-005 0)
(0.21738001 8.1878305e-007 0)
(0.21737238 5.7966017e-006 0)
(0.21736519 4.4764951e-006 0)
(0.21736205 1.5938007e-006 0)
(0.21736202 -7.5028988e-008 0)
(0.21736259 -3.5959412e-007 0)
(0.2173629 -1.5423218e-007 0)
(0.21736291 4.4398418e-009 0)
(0.21736286 3.3615373e-008 0)
(0.21736283 1.408878e-008 0)
(0.21736283 -6.63965e-010 0)
(0.21736284 -2.937391e-009 0)
(0.21736284 -1.4455399e-009 0)
(0.21736284 -2.2182383e-010 0)
(0.21736284 1.0566123e-009 0)
(0.21736284 5.6495875e-009 0)
(0.21736282 5.4488088e-009 0)
(0.19747048 -0.016305449 0)
(0.20115518 -0.0060868823 0)
(0.20387469 -0.0013892275 0)
(0.20314862 -0.00026024019 0)
(0.20319055 -3.4715539e-005 0)
(0.20319652 -3.8403362e-005 0)
(0.203235 -3.4389073e-005 0)
(0.20323885 -1.5710215e-005 0)
(0.20323822 1.5203933e-006 0)
(0.20323256 7.3933425e-006 0)
(0.20322864 5.5122886e-006 0)
(0.20322755 1.8406269e-006 0)
(0.20322791 -1.5438021e-007 0)
(0.20322828 -4.4972978e-007 0)
(0.2032284 -1.8204733e-007 0)
(0.20322838 9.9399552e-009 0)
(0.20322835 4.1606343e-008 0)
(0.20322834 1.6129853e-008 0)
(0.20322834 -1.3089647e-009 0)
(0.20322835 -3.657598e-009 0)
(0.20322835 -1.6743145e-009 0)
(0.20322835 -1.3596091e-010 0)
(0.20322834 1.5063786e-009 0)
(0.20322834 6.9519671e-009 0)
(0.20322834 6.6079715e-009 0)
(0.18469673 -0.019149689 0)
(0.18435435 -0.0069536158 0)
(0.18530588 -0.001318675 0)
(0.18449883 -0.00021977092 0)
(0.18457257 -3.6445576e-005 0)
(0.18452494 -4.6743224e-005 0)
(0.18452826 -3.519646e-005 0)
(0.18451224 -1.5115733e-005 0)
(0.18450811 2.6216742e-006 0)
(0.18450538 8.169222e-006 0)
(0.18450588 5.7544056e-006 0)
(0.18450697 1.7625079e-006 0)
(0.18450758 -2.4817123e-007 0)
(0.18450766 -4.861765e-007 0)
(0.18450758 -1.7917278e-007 0)
(0.18450752 1.7711767e-008 0)
(0.18450752 4.421478e-008 0)
(0.18450753 1.544043e-008 0)
(0.18450753 -2.0890183e-009 0)
(0.18450753 -3.9356946e-009 0)
(0.18450753 -1.6219904e-009 0)
(0.18450753 8.2930067e-011 0)
(0.18450753 1.9065596e-009 0)
(0.18450753 7.4186891e-009 0)
(0.18450753 6.8758795e-009 0)
(0.1686113 -0.020904923 0)
(0.16233366 -0.0068414911 0)
(0.16215224 -0.0011343239 0)
(0.16135703 -0.00017932047 0)
(0.16144054 -1.8974187e-005 0)
(0.16134052 -3.9107711e-005 0)
(0.16132028 -2.8577556e-005 0)
(0.16129016 -1.1772204e-005 0)
(0.16128507 3.6562711e-006 0)
(0.1612868 7.8332987e-006 0)
(0.16129189 5.1342916e-006 0)
(0.16129469 1.4054576e-006 0)
(0.16129529 -3.1757106e-007 0)
(0.16129501 -4.5095012e-007 0)
(0.16129476 -1.4809796e-007 0)
(0.16129469 2.4279165e-008 0)
(0.16129472 4.0311459e-008 0)
(0.16129475 1.2340109e-008 0)
(0.16129475 -2.6895086e-009 0)
(0.16129475 -3.6217374e-009 0)
(0.16129475 -1.3116563e-009 0)
(0.16129475 2.6938464e-010 0)
(0.16129474 2.1268217e-009 0)
(0.16129474 6.964521e-009 0)
(0.16129475 6.2161901e-009 0)
(0.14790393 -0.020866036 0)
(0.13498486 -0.0059307231 0)
(0.13468384 -0.00084654208 0)
(0.13375667 -0.00013737083 0)
(0.13385455 1.2358596e-006 0)
(0.13372853 -2.5291294e-005 0)
(0.13370123 -1.8734799e-005 0)
(0.13366478 -7.1437034e-006 0)
(0.13366202 3.9482412e-006 0)
(0.1336686 6.2851098e-006 0)
(0.13367693 3.8115879e-006 0)
(0.13368047 9.005376e-007 0)
(0.13368081 -3.2353568e-007 0)
(0.13368021 -3.5093132e-007 0)
(0.13367986 -9.8904662e-008 0)
(0.13367982 2.596515e-008 0)
(0.13367987 3.1027647e-008 0)
(0.13367991 7.8950285e-009 0)
(0.13367991 -2.750751e-009 0)
(0.1336799 -2.8306305e-009 0)
(0.1336799 -8.9429156e-010 0)
(0.1336799 4.0444849e-010 0)
(0.1336799 2.1001478e-009 0)
(0.1336799 5.6361119e-009 0)
(0.13367991 4.8040198e-009 0)
(0.12053068 -0.018182352 0)
(0.10276694 -0.0043999885 0)
(0.10281831 -0.00052304591 0)
(0.10168725 -8.4496186e-005 0)
(0.10187072 1.9751895e-005 0)
(0.10174878 -1.1114818e-005 0)
(0.10173297 -8.5960659e-006 0)
(0.10169911 -2.9206682e-006 0)
(0.10170135 3.2258507e-006 0)
(0.10171068 3.9937393e-006 0)
(0.1017198 2.2157511e-006 0)
(0.10172298 4.1903608e-007 0)
(0.10172295 -2.4873231e-007 0)
(0.1017222 -2.1558212e-007 0)
(0.10172186 -4.9201867e-008 0)
(0.10172186 2.0606055e-008 0)
(0.10172193 1.8832127e-008 0)
(0.10172195 3.6795236e-009 0)
(0.10172195 -2.1381069e-009 0)
(0.10172195 -1.7458728e-009 0)
(0.10172195 -4.6796859e-010 0)
(0.10172194 3.7870932e-010 0)
(0.10172195 1.6755598e-009 0)
(0.10172195 3.7961053e-009 0)
(0.10172196 3.0815514e-009 0)
(0.086006245 -0.013046424 0)
(0.065854115 -0.0024934432 0)
(0.066372491 -0.00019455363 0)
(0.065217689 -4.0144919e-005 0)
(0.065521097 2.3968634e-005 0)
(0.065422563 -2.9960343e-006 0)
(0.065428944 -1.0788693e-006 0)
(0.06540486 -4.2419836e-007 0)
(0.065411207 1.7303336e-006 0)
(0.065419336 1.6446721e-006 0)
(0.065426494 8.2944789e-007 0)
(0.065428471 9.6773767e-008 0)
(0.065428194 -1.2060118e-007 0)
(0.065427552 -8.3677303e-008 0)
(0.065427326 -1.3495461e-008 0)
(0.065427348 1.0333784e-008 0)
(0.065427405 7.1356851e-009 0)
(0.065427423 8.5960128e-010 0)
(0.06542742 -1.070709e-009 0)
(0.065427415 -7.0268336e-010 0)
(0.065427413 -1.5970036e-010 0)
(0.065427413 1.9332913e-010 0)
(0.065427415 8.8235088e-010 0)
(0.065427419 1.8030056e-009 0)
(0.065427429 1.405913e-009 0)
(0.04005291 -0.0068250652 0)
(0.024031542 -0.00012917857 0)
(0.025383232 9.2276477e-006 0)
(0.024491437 1.6058301e-005 0)
(0.024822804 1.7539049e-006 0)
(0.024740264 1.0702271e-006 0)
(0.024766529 9.2841838e-008 0)
(0.024754085 5.089913e-008 0)
(0.024760124 -7.6817108e-008 0)
(0.024763109 -8.0993218e-009 0)
(0.024766112 2.5942511e-010 0)
(0.024766626 -4.7262802e-009 0)
(0.024766429 -4.5402177e-009 0)
(0.024766151 -1.8710445e-009 0)
(0.02476608 -2.4628157e-010 0)
(0.024766098 1.735891e-010 0)
(0.024766121 -1.0358664e-011 0)
(0.024766126 -7.9955072e-011 0)
(0.024766124 -6.6585856e-011 0)
(0.024766122 -3.412487e-011 0)
(0.024766121 3.885756e-012 0)
(0.024766121 3.8926519e-011 0)
(0.024766122 1.8010215e-010 0)
(0.024766125 8.7983136e-011 0)
(0.02476613 -1.8470786e-011 0)
(0.039859541 -0.0040917999 0)
(0.041477244 -0.0051101514 0)
(0.043693263 -0.0048391876 0)
(0.045294823 -0.0041047048 0)
(0.046525713 -0.0033076156 0)
(0.047400668 -0.0025297414 0)
(0.04800551 -0.0019108422 0)
(0.048423227 -0.0014572919 0)
(0.048722905 -0.0011590857 0)
(0.048951707 -0.0010048363 0)
(0.049147621 -0.00098591295 0)
(0.049346557 -0.0010993863 0)
(0.049577034 -0.0013614443 0)
(0.049862691 -0.0018229081 0)
(0.050249659 -0.0025484994 0)
(0.050761367 -0.0036481326 0)
(0.051476894 -0.0053315348 0)
(0.052448778 -0.0079030245 0)
(0.053719893 -0.011641001 0)
(0.055189864 -0.017081395 0)
(0.056980723 -0.024058815 0)
(0.057149473 -0.033602622 0)
(0.057317055 -0.043637513 0)
(0.043725382 -0.056101981 0)
(0.036504959 -0.04601803 0)
(0.040179127 -0.0055375646 0)
(0.041958048 -0.0068162142 0)
(0.044300399 -0.0062056126 0)
(0.045867195 -0.0051626432 0)
(0.046956433 -0.0040560336 0)
(0.047680253 -0.0030410278 0)
(0.048137835 -0.0022487678 0)
(0.048412487 -0.0016827915 0)
(0.048588735 -0.0013172226 0)
(0.048706942 -0.001126622 0)
(0.048798396 -0.001096025 0)
(0.048882014 -0.0012149045 0)
(0.048973551 -0.0014983264 0)
(0.049075095 -0.0019957881 0)
(0.049215371 -0.0027779696 0)
(0.049379493 -0.0039481089 0)
(0.049559335 -0.0057050337 0)
(0.049749176 -0.0083539882 0)
(0.049853794 -0.012102907 0)
(0.049533925 -0.017285732 0)
(0.048717784 -0.023583524 0)
(0.045730406 -0.030874902 0)
(0.040682206 -0.036585189 0)
(0.026232707 -0.039398524 0)
(0.010946882 -0.020142741 0)
(0.040560802 -0.0073024663 0)
(0.042466081 -0.0086465437 0)
(0.044812387 -0.0075662177 0)
(0.04619125 -0.006111853 0)
(0.047027983 -0.0046689638 0)
(0.047520993 -0.0034141234 0)
(0.047767752 -0.0024590099 0)
(0.04787391 -0.0017990499 0)
(0.047904709 -0.0013798868 0)
(0.047903304 -0.0011625907 0)
(0.047879969 -0.0011167622 0)
(0.047844147 -0.0012295761 0)
(0.047793354 -0.0015134686 0)
(0.047715604 -0.0020003401 0)
(0.047599436 -0.0027706078 0)
(0.047428375 -0.003923082 0)
(0.047118349 -0.005603707 0)
(0.046590308 -0.0080985186 0)
(0.045714127 -0.011548167 0)
(0.044027267 -0.016106379 0)
(0.041250442 -0.02136809 0)
(0.036244033 -0.026541964 0)
(0.028735057 -0.029673174 0)
(0.015910338 -0.029030536 0)
(0.002544456 -0.013663345 0)
(0.040984262 -0.0094007303 0)
(0.042878976 -0.010494212 0)
(0.044962339 -0.0087743681 0)
(0.045931476 -0.0068334556 0)
(0.046355867 -0.0050573662 0)
(0.046518161 -0.0035931655 0)
(0.046491417 -0.0025097051 0)
(0.046406159 -0.0017865127 0)
(0.046285968 -0.001340498 0)
(0.04616119 -0.0011081011 0)
(0.046031325 -0.0010524131 0)
(0.045882298 -0.001147507 0)
(0.045702513 -0.0014063982 0)
(0.045469502 -0.0018565137 0)
(0.045132096 -0.0025487645 0)
(0.044658084 -0.0035940723 0)
(0.043957381 -0.0050978433 0)
(0.04286276 -0.0072692308 0)
(0.041225731 -0.010225617 0)
(0.038611599 -0.013916428 0)
(0.034698953 -0.017923307 0)
(0.028842307 -0.021312362 0)
(0.020977474 -0.022420433 0)
(0.010740798 -0.01979047 0)
(0.00038978303 -0.008356456 0)
(0.04136655 -0.011792238 0)
(0.043027219 -0.012144069 0)
(0.044417809 -0.0096067788 0)
(0.044704408 -0.007161755 0)
(0.044542269 -0.0051113193 0)
(0.044272638 -0.0035123227 0)
(0.043941001 -0.0023788821 0)
(0.043647259 -0.001639316 0)
(0.043390331 -0.0012000901 0)
(0.043155881 -0.00097145865 0)
(0.042937401 -0.00090907844 0)
(0.042701295 -0.00098492713 0)
(0.042423006 -0.0011995033 0)
(0.042065486 -0.0015807428 0)
(0.041575203 -0.0021651279 0)
(0.04087795 -0.0030299131 0)
(0.039896765 -0.0042799591 0)
(0.038433403 -0.0060353133 0)
(0.036310074 -0.0083843431 0)
(0.033184802 -0.011200063 0)
(0.028777528 -0.014062436 0)
(0.022824239 -0.01611141 0)
(0.015490797 -0.016153637 0)
(0.0074799513 -0.013104829 0)
(-8.1280678e-005 -0.0052388393 0)
(0.041506894 -0.014323682 0)
(0.042655769 -0.01324736 0)
(0.042769433 -0.00978816 0)
(0.042113323 -0.0069195076 0)
(0.041241971 -0.0047318551 0)
(0.040469653 -0.003129831 0)
(0.039852806 -0.0020539043 0)
(0.039370055 -0.0013696813 0)
(0.039002759 -0.00097271425 0)
(0.038694166 -0.00077030888 0)
(0.038417304 -0.00071018544 0)
(0.038129051 -0.00076400701 0)
(0.037796402 -0.00092901083 0)
(0.037366786 -0.0012181477 0)
(0.036794795 -0.0016698427 0)
(0.035987488 -0.0023272083 0)
(0.034858918 -0.0032726533 0)
(0.033235641 -0.0045807194 0)
(0.030923899 -0.0062939044 0)
(0.027674078 -0.008285055 0)
(0.023294913 -0.010182675 0)
(0.017770929 -0.011327143 0)
(0.011385257 -0.010856683 0)
(0.0052739025 -0.0081435087 0)
(-0.00016572865 -0.0029697022 0)
(0.041144495 -0.016770499 0)
(0.04127766 -0.013286432 0)
(0.039491937 -0.0090507828 0)
(0.037711539 -0.0059713325 0)
(0.036126979 -0.0038837196 0)
(0.034913335 -0.0024649178 0)
(0.034074007 -0.0015582618 0)
(0.033474878 -0.0010047726 0)
(0.033046996 -0.00069151194 0)
(0.032712432 -0.00053457197 0)
(0.032420327 -0.00048559503 0)
(0.032125038 -0.00051961585 0)
(0.031785199 -0.0006310647 0)
(0.031352737 -0.00082800677 0)
(0.030774735 -0.0011338392 0)
(0.029971905 -0.00158072 0)
(0.028849451 -0.0022160412 0)
(0.027266183 -0.0030896282 0)
(0.025047388 -0.0042124646 0)
(0.022012988 -0.0054853868 0)
(0.018062432 -0.0066293173 0)
(0.013295233 -0.0071959524 0)
(0.0080861786 -0.0066112086 0)
(0.0035572055 -0.0045545472 0)
(-0.00017603122 -0.0014022916 0)
(0.039529844 -0.018402362 0)
(0.038040075 -0.011690035 0)
(0.03371539 -0.0071726832 0)
(0.030972444 -0.0043343763 0)
(0.028894974 -0.002637177 0)
(0.02747227 -0.0015961389 0)
(0.026555983 -0.00097014643 0)
(0.0259501 -0.00060094738 0)
(0.025540088 -0.00039958245 0)
(0.025235786 -0.00030067102 0)
(0.024977968 -0.00026930917 0)
(0.024721761 -0.00028721522 0)
(0.02442716 -0.00034902555 0)
(0.024054639 -0.00046043879 0)
(0.023554616 -0.00063164403 0)
(0.02286334 -0.0008831109 0)
(0.02189793 -0.0012392463 0)
(0.020544529 -0.0017265745 0)
(0.018666062 -0.0023459986 0)
(0.016138732 -0.0030374045 0)
(0.012924203 -0.0036313685 0)
(0.009167434 -0.0038541764 0)
(0.0052495752 -0.0033897675 0)
(0.0021147094 -0.0020715707 0)
(-0.00018345969 -0.00040028201 0)
(0.034449981 -0.016484437 0)
(0.031496747 -0.0078028821 0)
(0.02440332 -0.0043976832 0)
(0.021470393 -0.0023751036 0)
(0.019367502 -0.0013579895 0)
(0.018100671 -0.00077724892 0)
(0.017327294 -0.00045011777 0)
(0.016852927 -0.00026610987 0)
(0.016548506 -0.00016958794 0)
(0.01633232 -0.0001234975 0)
(0.016153886 -0.00010886112 0)
(0.015978278 -0.0001155961 0)
(0.015776429 -0.00014127317 0)
(0.015519695 -0.00018767047 0)
(0.015173275 -0.00025899366 0)
(0.014692498 -0.00036352898 0)
(0.014018498 -0.0005117624 0)
(0.013072501 -0.00071360789 0)
(0.011761597 -0.00097069961 0)
(0.010004858 -0.0012552086 0)
(0.0077901202 -0.0014893356 0)
(0.0052613953 -0.0015457143 0)
(0.0027110136 -0.0012854336 0)
(0.00086616309 -0.00062983903 0)
(-0.00020722346 5.3965864e-005 0)
(0.020509186 -0.012024356 0)
(0.017316668 -0.0023149418 0)
(0.01050001 -0.00037713833 0)
(0.0090631894 -0.00014763422 0)
(0.0076700939 -4.3557938e-005 0)
(0.0069964151 -1.2882118e-005 0)
(0.0065940119 -1.5394213e-006 0)
(0.0063668523 3.2898282e-006 0)
(0.006230086 4.9877413e-006 0)
(0.0061392454 5.637371e-006 0)
(0.0060673963 5.8430568e-006 0)
(0.0059976464 6.1363257e-006 0)
(0.0059171844 6.8969552e-006 0)
(0.0058132882 8.0653479e-006 0)
(0.0056713549 1.0017262e-005 0)
(0.0054724294 1.2592576e-005 0)
(0.0051912409 1.6042776e-005 0)
(0.0047948167 2.0658645e-005 0)
(0.0042440525 2.6443159e-005 0)
(0.0035067102 3.4035562e-005 0)
(0.0025813815 4.2669829e-005 0)
(0.0015512704 5.7451657e-005 0)
(0.00054741662 7.1244742e-005 0)
(-5.0041174e-005 0.0001111481 0)
(-0.00018324036 0.0001278921 0)
)
;

boundaryField
{
    inlet
    {
        type            fixedValue;
        value           uniform (0.03876 0 0);
    }
    walls
    {
        type            fixedValue;
        value           uniform (0 0 0);
    }
    outlet
    {
        type            zeroGradient;
    }
    centreline
    {
        type            symmetryPlane;
    }
    frontAndBack
    {
        type            empty;
    }
}


// ************************************************************************* //
