/*--------------------------------*- C++ -*----------------------------------*\
| =========                 |                                                 |
| \\      /  F ield         | OpenFOAM: The Open Source CFD Toolbox           |
|  \\    /   O peration     | Version:  5.x                                   |
|   \\  /    A nd           | Web:      www.OpenFOAM.org                      |
|    \\/     M anipulation  |                                                 |
\*---------------------------------------------------------------------------*/
/*   Windows 32 and 64 bit porting by blueCAPE: http://www.bluecape.com.pt   *\
|  Based on Windows porting (2.0.x v4) by Symscape: http://www.symscape.com   |
\*---------------------------------------------------------------------------*/
FoamFile
{
    version     2.0;
    format      ascii;
    class       volVectorField;
    location    "0.24";
    object      U_0;
}
// * * * * * * * * * * * * * * * * * * * * * * * * * * * * * * * * * * * * * //

dimensions      [0 1 -1 0 0 0 0];

internalField   nonuniform List<vector> 
750
(
(0.039390922 -0.00015889409 0)
(0.040712016 -0.00020037899 0)
(0.042533252 -0.00020087631 0)
(0.043977766 -0.00017494667 0)
(0.045312364 -0.00014822505 0)
(0.046355871 -0.00011734798 0)
(0.047185784 -9.2131325e-005 0)
(0.04782963 -7.2200447e-005 0)
(0.048336678 -5.8656962e-005 0)
(0.048765161 -5.212334e-005 0)
(0.049168255 -5.1980299e-005 0)
(0.049594095 -5.848681e-005 0)
(0.050100454 -7.3215112e-005 0)
(0.050760809 -9.8690907e-005 0)
(0.051674326 -0.00013948991 0)
(0.052982506 -0.00020218245 0)
(0.054893969 -0.00030068137 0)
(0.057772826 -0.00045584665 0)
(0.062150843 -0.00069255038 0)
(0.068771143 -0.0010569382 0)
(0.079025565 -0.001555328 0)
(0.093298102 -0.0023033049 0)
(0.11604726 -0.0031709145 0)
(0.14283219 -0.0041069316 0)
(0.18272189 -0.0046946702 0)
(0.039395987 -0.0004750841 0)
(0.040721035 -0.00060745506 0)
(0.04254956 -0.00060019938 0)
(0.043997893 -0.00052667971 0)
(0.045331588 -0.00044351246 0)
(0.046373214 -0.00035207298 0)
(0.047200182 -0.00027583706 0)
(0.047840547 -0.0002157333 0)
(0.048344048 -0.00017532899 0)
(0.048769628 -0.00015575536 0)
(0.049169375 -0.00015524564 0)
(0.049591467 -0.00017468867 0)
(0.050092851 -0.00021857483 0)
(0.050747001 -0.00029458205 0)
(0.051651281 -0.0004162382 0)
(0.052945372 -0.00060315078 0)
(0.054835421 -0.00089654134 0)
(0.057679331 -0.0013584608 0)
(0.061997867 -0.0020626618 0)
(0.068522458 -0.0031429025 0)
(0.078608233 -0.0046326808 0)
(0.092637336 -0.006820848 0)
(0.1149617 -0.0094641201 0)
(0.14114596 -0.012173504 0)
(0.18066684 -0.014079885 0)
(0.039404836 -0.0007919325 0)
(0.040739922 -0.001019806 0)
(0.042583042 -0.00099932667 0)
(0.044038142 -0.00087980041 0)
(0.045370746 -0.00073793161 0)
(0.046408581 -0.00058610868 0)
(0.047229063 -0.0004584042 0)
(0.047862501 -0.00035800977 0)
(0.048359323 -0.00029089872 0)
(0.048779024 -0.0002582817 0)
(0.049171967 -0.00025729033 0)
(0.049586674 -0.00028934911 0)
(0.050078119 -0.00036199596 0)
(0.050719738 -0.00048775152 0)
(0.051605597 -0.00068893308 0)
(0.052871673 -0.00099790418 0)
(0.054718459 -0.001482379 0)
(0.057491745 -0.0022443999 0)
(0.061692038 -0.0034058929 0)
(0.068021434 -0.0051810834 0)
(0.077781155 -0.0076431535 0)
(0.091297415 -0.011210974 0)
(0.11284111 -0.015600941 0)
(0.13778792 -0.02000683 0)
(0.17648488 -0.023369316 0)
(0.039418064 -0.0011129952 0)
(0.040769463 -0.001436407 0)
(0.042634427 -0.0014016342 0)
(0.044098968 -0.0012337282 0)
(0.045430237 -0.0010317559 0)
(0.046462279 -0.00081838992 0)
(0.047272556 -0.00063881252 0)
(0.047895584 -0.00049822801 0)
(0.04838273 -0.00040452738 0)
(0.048793576 -0.00035883258 0)
(0.049176189 -0.00035709443 0)
(0.04957998 -0.00040132333 0)
(0.050056724 -0.00050188696 0)
(0.050679509 -0.00067606802 0)
(0.051538086 -0.0009544057 0)
(0.052762735 -0.0013815285 0)
(0.054545302 -0.0020504485 0)
(0.057214238 -0.0031011709 0)
(0.061242276 -0.0047003079 0)
(0.067281823 -0.0071381259 0)
(0.076563053 -0.010522926 0)
(0.08931655 -0.015399911 0)
(0.10971225 -0.021427262 0)
(0.13276275 -0.027463096 0)
(0.17015097 -0.032335162 0)
(0.039437086 -0.0014404059 0)
(0.040810581 -0.0018585676 0)
(0.042704377 -0.0018086189 0)
(0.044180929 -0.001588635 0)
(0.045510146 -0.0013246609 0)
(0.046534279 -0.0010482265 0)
(0.047330575 -0.0008161895 0)
(0.047939775 -0.00063557241 0)
(0.048414214 -0.00051543365 0)
(0.048813217 -0.0004565859 0)
(0.049181895 -0.00045383496 0)
(0.049571524 -0.00050955127 0)
(0.050028907 -0.0006369171 0)
(0.050626801 -0.00085770981 0)
(0.051449596 -0.0012099291 0)
(0.052620068 -0.0017499062 0)
(0.054318814 -0.0025941308 0)
(0.056852037 -0.0039179887 0)
(0.060657156 -0.0059279169 0)
(0.066316878 -0.0089836614 0)
(0.074982683 -0.01322171 0)
(0.086708058 -0.019309888 0)
(0.10560044 -0.026821706 0)
(0.12618827 -0.034452448 0)
(0.16171543 -0.040622295 0)
(0.039463406 -0.0017763575 0)
(0.040864289 -0.0022880745 0)
(0.04279361 -0.0022213333 0)
(0.044284567 -0.0019447418 0)
(0.045610461 -0.0016162422 0)
(0.046624227 -0.0012748725 0)
(0.047402657 -0.00098968689 0)
(0.047994739 -0.00076922617 0)
(0.04845337 -0.00062284087 0)
(0.048837481 -0.00055072146 0)
(0.049188681 -0.00054660203 0)
(0.049560924 -0.00061313059 0)
(0.049994746 -0.00076579 0)
(0.050561827 -0.0010308116 0)
(0.051340645 -0.0014528905 0)
(0.052444839 -0.0020990785 0)
(0.054041425 -0.0031073509 0)
(0.056409296 -0.0046851354 0)
(0.059944583 -0.007072133 0)
(0.065145917 -0.010692177 0)
(0.073062573 -0.015691722 0)
(0.083505398 -0.022869484 0)
(0.10058933 -0.031667402 0)
(0.11794767 -0.040846924 0)
(0.15116245 -0.048074976 0)
(0.039498862 -0.0021235104 0)
(0.040931504 -0.002726296 0)
(0.042902554 -0.002640878 0)
(0.044409834 -0.0023021069 0)
(0.045730562 -0.0019059966 0)
(0.04673101 -0.0014975139 0)
(0.047487859 -0.0011583706 0)
(0.048059401 -0.00089836358 0)
(0.04849902 -0.00072602476 0)
(0.048865207 -0.00064038699 0)
(0.049195321 -0.00063464494 0)
(0.04954733 -0.00071113047 0)
(0.04995356 -0.00088720535 0)
(0.050484303 -0.0011937262 0)
(0.051211465 -0.00168088 0)
(0.052238014 -0.0024253012 0)
(0.05371552 -0.0035841258 0)
(0.055891532 -0.0053931133 0)
(0.059115371 -0.0081175761 0)
(0.063787312 -0.012235849 0)
(0.070832727 -0.017883918 0)
(0.079759728 -0.026002574 0)
(0.094711556 -0.035796175 0)
(0.10787621 -0.046344815 0)
(0.13899205 -0.054689361 0)
(0.039545869 -0.0024851305 0)
(0.041012829 -0.003174089 0)
(0.043030873 -0.0030684255 0)
(0.044555936 -0.0026605798 0)
(0.045868748 -0.0021932073 0)
(0.046852254 -0.0017152709 0)
(0.04758423 -0.0013213949 0)
(0.048131617 -0.0010221087 0)
(0.048549041 -0.00082412883 0)
(0.048894028 -0.00072483461 0)
(0.049200139 -0.0007170604 0)
(0.049528503 -0.00080267075 0)
(0.049903844 -0.0010001341 0)
(0.050393189 -0.0013448238 0)
(0.051061734 -0.0018914095 0)
(0.051999922 -0.0027252041 0)
(0.053343874 -0.0040195001 0)
(0.055305544 -0.0060340173 0)
(0.058181108 -0.0090515547 0)
(0.062263345 -0.013593276 0)
(0.068338993 -0.019758003 0)
(0.075535348 -0.028643483 0)
(0.088033913 -0.039103985 0)
(0.096621967 -0.050927855 0)
(0.12547942 -0.059326283 0)
(0.039606852 -0.0028645161 0)
(0.041108971 -0.0036324664 0)
(0.043177233 -0.0035047019 0)
(0.044721583 -0.0030197967 0)
(0.046021863 -0.0024769224 0)
(0.046984696 -0.0019271627 0)
(0.047688261 -0.0014778564 0)
(0.048207995 -0.0011396713 0)
(0.048600087 -0.00091633859 0)
(0.048920133 -0.00080316869 0)
(0.049200087 -0.00079318535 0)
(0.049501311 -0.00088703967 0)
(0.04984303 -0.001103462 0)
(0.050286386 -0.0014826317 0)
(0.050890081 -0.0020827506 0)
(0.051730871 -0.0029960083 0)
(0.052929002 -0.0044088402 0)
(0.054659075 -0.0066010633 0)
(0.057155922 -0.009862397 0)
(0.060599866 -0.014743044 0)
(0.065639397 -0.021271925 0)
(0.070947425 -0.030704482 0)
(0.0807582 -0.0414972 0)
(0.084383581 -0.054689868 0)
(0.11066715 -0.062408934 0)
(0.03968248 -0.003262777 0)
(0.041220946 -0.0041063283 0)
(0.043339486 -0.0039476805 0)
(0.044903948 -0.0033797352 0)
(0.046185558 -0.0027566059 0)
(0.047122897 -0.0021321225 0)
(0.047795137 -0.001626948 0)
(0.048283735 -0.0012503415 0)
(0.04864714 -0.0010018644 0)
(0.048938687 -0.00087486099 0)
(0.04919104 -0.00086228797 0)
(0.049461108 -0.00096341645 0)
(0.049767189 -0.0011966032 0)
(0.050160695 -0.0016060583 0)
(0.050694386 -0.0022527912 0)
(0.051429538 -0.0032355388 0)
(0.052472498 -0.0047502515 0)
(0.053957161 -0.0070906589 0)
(0.056051782 -0.010544264 0)
(0.058830621 -0.015678197 0)
(0.062788849 -0.022446964 0)
(0.066224172 -0.032156569 0)
(0.072872167 -0.043011421 0)
(0.070846825 -0.057127606 0)
(0.091250987 -0.062546105 0)
(0.21568639 -0.002714039 0)
(0.22671691 -0.0010367672 0)
(0.23066755 -0.00026722215 0)
(0.23112602 -5.4339532e-005 0)
(0.23149462 -1.7805666e-005 0)
(0.23148846 -5.8811732e-006 0)
(0.2315694 -8.386243e-006 0)
(0.23160002 -3.1006851e-006 0)
(0.23161049 -1.2530969e-008 0)
(0.23159936 1.399317e-006 0)
(0.23158927 1.0384727e-006 0)
(0.23158394 3.6480733e-007 0)
(0.23158346 -1.2029204e-008 0)
(0.23158419 -8.058249e-008 0)
(0.23158469 -3.6657965e-008 0)
(0.23158474 -2.3845042e-010 0)
(0.23158467 7.8477329e-009 0)
(0.23158463 3.2778466e-009 0)
(0.23158462 -5.8035417e-011 0)
(0.23158463 -7.0501695e-010 0)
(0.23158463 -3.2386612e-010 0)
(0.23158463 -9.908327e-011 0)
(0.23158463 1.711624e-010 0)
(0.23158463 1.3502105e-009 0)
(0.23158461 1.2675428e-009 0)
(0.21275665 -0.0078142041 0)
(0.22241247 -0.0030112296 0)
(0.22619046 -0.00070313252 0)
(0.22652074 -0.00020487643 0)
(0.22678093 -5.7823536e-005 0)
(0.22675413 -1.8641037e-005 0)
(0.22682314 -1.801494e-005 0)
(0.22685092 -8.7260603e-006 0)
(0.22685913 3.7754219e-007 0)
(0.2268494 3.7717205e-006 0)
(0.22684024 2.9037698e-006 0)
(0.22683564 1.0456829e-006 0)
(0.2268353 -3.9400264e-008 0)
(0.22683599 -2.3230556e-007 0)
(0.22683642 -1.0101016e-007 0)
(0.22683646 1.7867532e-009 0)
(0.2268364 2.1917362e-008 0)
(0.22683636 9.3253292e-009 0)
(0.22683635 -3.2327708e-010 0)
(0.22683636 -1.9172498e-009 0)
(0.22683636 -9.683338e-010 0)
(0.22683636 -2.0016817e-010 0)
(0.22683636 6.0265582e-010 0)
(0.22683636 3.7101184e-009 0)
(0.22683634 3.583813e-009 0)
(0.20676774 -0.01243183 0)
(0.21375809 -0.0047147453 0)
(0.21738859 -0.001150627 0)
(0.21721279 -0.00026995045 0)
(0.2173013 -5.4454834e-005 0)
(0.21729808 -3.1420104e-005 0)
(0.21735938 -2.7306021e-005 0)
(0.21738041 -1.3203694e-005 0)
(0.21738434 9.2567687e-007 0)
(0.2173766 5.8530905e-006 0)
(0.21736937 4.4785952e-006 0)
(0.21736626 1.5761591e-006 0)
(0.21736626 -8.5787324e-008 0)
(0.21736683 -3.6100369e-007 0)
(0.21736713 -1.524107e-007 0)
(0.21736715 5.6466449e-009 0)
(0.21736709 3.3826107e-008 0)
(0.21736707 1.3945327e-008 0)
(0.21736707 -7.5666623e-010 0)
(0.21736707 -2.9439268e-009 0)
(0.21736707 -1.4319192e-009 0)
(0.21736707 -2.1838103e-010 0)
(0.21736707 1.0542166e-009 0)
(0.21736707 5.6806898e-009 0)
(0.21736706 5.4860199e-009 0)
(0.19747021 -0.016305125 0)
(0.20115482 -0.0060869664 0)
(0.2038749 -0.0013901131 0)
(0.20315015 -0.00026173959 0)
(0.20319312 -3.6136398e-005 0)
(0.20319962 -3.927883e-005 0)
(0.20323825 -3.4649761e-005 0)
(0.20324198 -1.5627877e-005 0)
(0.20324121 1.6611521e-006 0)
(0.20323546 7.4660226e-006 0)
(0.20323154 5.5129648e-006 0)
(0.20323048 1.817906e-006 0)
(0.20323085 -1.6745101e-007 0)
(0.20323122 -4.5127853e-007 0)
(0.20323134 -1.7976058e-007 0)
(0.20323132 1.1397611e-008 0)
(0.20323128 4.182551e-008 0)
(0.20323127 1.5943583e-008 0)
(0.20323128 -1.4181038e-009 0)
(0.20323128 -3.6640715e-009 0)
(0.20323128 -1.657651e-009 0)
(0.20323128 -1.3215037e-010 0)
(0.20323128 1.5059965e-009 0)
(0.20323128 7.0000351e-009 0)
(0.20323127 6.6636507e-009 0)
(0.18469646 -0.019149351 0)
(0.18435465 -0.0069538596 0)
(0.18530668 -0.0013197938 0)
(0.18450008 -0.00022144584 0)
(0.18457394 -3.8002568e-005 0)
(0.18452615 -4.7640171e-005 0)
(0.1845293 -3.5435005e-005 0)
(0.18451314 -1.5002222e-005 0)
(0.18450896 2.7828887e-006 0)
(0.18450621 8.2464559e-006 0)
(0.18450673 5.7515068e-006 0)
(0.18450783 1.7372416e-006 0)
(0.18450844 -2.6174265e-007 0)
(0.18450852 -4.8738498e-007 0)
(0.18450844 -1.7664035e-007 0)
(0.18450838 1.9200768e-008 0)
(0.18450838 4.4391547e-008 0)
(0.18450839 1.5231047e-008 0)
(0.18450839 -2.198948e-009 0)
(0.18450839 -3.9392641e-009 0)
(0.18450839 -1.6046153e-009 0)
(0.18450839 8.6262188e-011 0)
(0.18450839 1.9079257e-009 0)
(0.18450839 7.4826846e-009 0)
(0.18450839 6.9463586e-009 0)
(0.16861138 -0.020904675 0)
(0.16233458 -0.0068418852 0)
(0.16215314 -0.0011354776 0)
(0.1613574 -0.00018093806 0)
(0.16144007 -2.0425946e-005 0)
(0.16133923 -3.9904377e-005 0)
(0.16131856 -2.8757261e-005 0)
(0.16128835 -1.1642496e-005 0)
(0.16128331 3.8144548e-006 0)
(0.16128513 7.9014362e-006 0)
(0.16129025 5.1273883e-006 0)
(0.16129304 1.3812393e-006 0)
(0.16129363 -3.2949488e-007 0)
(0.16129335 -4.5158234e-007 0)
(0.16129309 -1.4564979e-007 0)
(0.16129303 2.5578148e-008 0)
(0.16129306 4.0413709e-008 0)
(0.16129308 1.2136617e-008 0)
(0.16129309 -2.7839934e-009 0)
(0.16129308 -3.6204047e-009 0)
(0.16129308 -1.2961023e-009 0)
(0.16129308 2.7108787e-010 0)
(0.16129308 2.1304296e-009 0)
(0.16129308 7.0364426e-009 0)
(0.16129309 6.292111e-009 0)
(0.14790468 -0.020866015 0)
(0.13498586 -0.005931139 0)
(0.13468439 -0.00084753461 0)
(0.13375586 -0.00013870028 0)
(0.13385212 1.1495139e-007 0)
(0.13372483 -2.5880424e-005 0)
(0.13369698 -1.8842258e-005 0)
(0.13366054 -7.0222809e-006 0)
(0.13365795 4.0761767e-006 0)
(0.13366467 6.3331914e-006 0)
(0.13367303 3.8027381e-006 0)
(0.13367655 8.8122191e-007 0)
(0.13367686 -3.3223619e-007 0)
(0.13367626 -3.5090053e-007 0)
(0.13367591 -9.6918891e-008 0)
(0.13367587 2.6907711e-008 0)
(0.13367592 3.1050984e-008 0)
(0.13367596 7.7291888e-009 0)
(0.13367596 -2.8175394e-009 0)
(0.13367595 -2.8258241e-009 0)
(0.13367595 -8.8252899e-010 0)
(0.13367595 4.0536265e-010 0)
(0.13367595 2.1063465e-009 0)
(0.13367595 5.7021025e-009 0)
(0.13367596 4.871907e-009 0)
(0.12053174 -0.018182368 0)
(0.10276775 -0.0044003362 0)
(0.10281829 -0.00052373933 0)
(0.1016854 -8.5385908e-005 0)
(0.10186694 1.9037275e-005 0)
(0.10174362 -1.145949e-005 0)
(0.10172733 -8.6414515e-006 0)
(0.10169357 -2.8351926e-006 0)
(0.10169605 3.305753e-006 0)
(0.10170553 4.0193271e-006 0)
(0.10171466 2.2075278e-006 0)
(0.10171781 4.0703713e-007 0)
(0.10171775 -2.5359411e-007 0)
(0.101717 -2.1518117e-007 0)
(0.10171666 -4.7921087e-008 0)
(0.10171666 2.1133014e-008 0)
(0.10171673 1.8809766e-008 0)
(0.10171676 3.5720581e-009 0)
(0.10171676 -2.1738834e-009 0)
(0.10171675 -1.7403866e-009 0)
(0.10171675 -4.6099388e-010 0)
(0.10171675 3.7900607e-010 0)
(0.10171675 1.6811619e-009 0)
(0.10171675 3.8429667e-009 0)
(0.10171676 3.1290093e-009 0)
(0.086007287 -0.013046411 0)
(0.065854606 -0.0024936062 0)
(0.066372028 -0.00019485963 0)
(0.065215545 -4.0514014e-005 0)
(0.065517282 2.3677745e-005 0)
(0.065417686 -3.1174937e-006 0)
(0.06542377 -1.0864659e-006 0)
(0.065399808 -3.8735533e-007 0)
(0.065406368 1.7608822e-006 0)
(0.065414603 1.6526242e-006 0)
(0.065421761 8.2467539e-007 0)
(0.065423707 9.1929499e-008 0)
(0.065423412 -1.2216228e-007 0)
(0.065422768 -8.3357905e-008 0)
(0.065422546 -1.2951757e-008 0)
(0.065422569 1.0511481e-008 0)
(0.065422626 7.1100359e-009 0)
(0.065422645 8.1431322e-010 0)
(0.065422641 -1.0819918e-009 0)
(0.065422636 -6.9903238e-010 0)
(0.065422634 -1.5719612e-010 0)
(0.065422634 1.928977e-010 0)
(0.065422636 8.8434202e-010 0)
(0.065422641 1.8241848e-009 0)
(0.065422651 1.4272924e-009 0)
(0.040053504 -0.0068251468 0)
(0.024031788 -0.0001292294 0)
(0.025382964 9.19087e-006 0)
(0.024490332 1.6055652e-005 0)
(0.024820894 1.7465334e-006 0)
(0.024737924 1.0714613e-006 0)
(0.024764087 8.9811271e-008 0)
(0.024751706 5.0249524e-008 0)
(0.024757834 -7.6392987e-008 0)
(0.024760855 -7.6409294e-009 0)
(0.024763853 6.0786833e-010 0)
(0.024764354 -4.759813e-009 0)
(0.024764151 -4.5337563e-009 0)
(0.024763873 -1.8756697e-009 0)
(0.024763803 -2.3154556e-010 0)
(0.024763822 1.7442813e-010 0)
(0.024763845 -1.1655786e-011 0)
(0.02476385 -8.1284233e-011 0)
(0.024763848 -6.6675192e-011 0)
(0.024763846 -3.3985091e-011 0)
(0.024763845 3.8426351e-012 0)
(0.024763845 3.9267458e-011 0)
(0.024763846 1.8127644e-010 0)
(0.024763849 9.232451e-011 0)
(0.024763854 -1.501136e-011 0)
(0.039858705 -0.004089255 0)
(0.041475745 -0.0051072537 0)
(0.04369078 -0.0048364413 0)
(0.04529165 -0.0041022713 0)
(0.046521889 -0.0033055633 0)
(0.047396339 -0.002528151 0)
(0.048000845 -0.0019097059 0)
(0.048418339 -0.0014565514 0)
(0.048717904 -0.0011586347 0)
(0.048946678 -0.0010045778 0)
(0.04914257 -0.00098578671 0)
(0.049341532 -0.0010993435 0)
(0.049572048 -0.0013614239 0)
(0.049857744 -0.0018228788 0)
(0.050244777 -0.0025484172 0)
(0.050756538 -0.0036478705 0)
(0.051472074 -0.005330955 0)
(0.052444046 -0.0079022173 0)
(0.053715232 -0.011640355 0)
(0.055185404 -0.017081775 0)
(0.056976677 -0.024061056 0)
(0.05714618 -0.03360691 0)
(0.057314631 -0.043642875 0)
(0.043724089 -0.056106785 0)
(0.036504505 -0.046020589 0)
(0.040178292 -0.0055342074 0)
(0.041956896 -0.0068126783 0)
(0.044298655 -0.0062023897 0)
(0.045865072 -0.0051597713 0)
(0.046953933 -0.004053614 0)
(0.047677437 -0.0030391624 0)
(0.048134797 -0.0022474529 0)
(0.048409307 -0.0016819541 0)
(0.048585514 -0.0013167273 0)
(0.048703722 -0.0011263724 0)
(0.048795219 -0.0010959161 0)
(0.048878886 -0.0012148796 0)
(0.048970459 -0.0014983616 0)
(0.049072096 -0.0019958153 0)
(0.049212425 -0.0027779367 0)
(0.049376681 -0.0039479117 0)
(0.04955662 -0.0057045476 0)
(0.049746645 -0.0083532887 0)
(0.049851488 -0.012102448 0)
(0.049531979 -0.017286388 0)
(0.04871623 -0.023586202 0)
(0.045729292 -0.030879672 0)
(0.040681432 -0.03659104 0)
(0.026232199 -0.039403791 0)
(0.01094655 -0.020145516 0)
(0.040560219 -0.0072985359 0)
(0.042465648 -0.0086427547 0)
(0.044811912 -0.0075628426 0)
(0.046190827 -0.0061088197 0)
(0.047027544 -0.0046663905 0)
(0.047520511 -0.0034121232 0)
(0.047767205 -0.0024575941 0)
(0.047873325 -0.0017981754 0)
(0.047904165 -0.0013794118 0)
(0.047902795 -0.0011623646 0)
(0.047879549 -0.0011166905 0)
(0.047843761 -0.0012296103 0)
(0.047793035 -0.0015135406 0)
(0.047715363 -0.0020004231 0)
(0.047599255 -0.0027706514 0)
(0.047428317 -0.0039229893 0)
(0.047118459 -0.0056033715 0)
(0.046590639 -0.0080979916 0)
(0.045714732 -0.011547934 0)
(0.044028178 -0.016107344 0)
(0.041251629 -0.021370977 0)
(0.036245209 -0.02654682 0)
(0.02873583 -0.029678987 0)
(0.015910721 -0.029035693 0)
(0.0025443656 -0.013666369 0)
(0.040984143 -0.0093966738 0)
(0.042879429 -0.010490645 0)
(0.044963308 -0.008771226 0)
(0.045932911 -0.0068305963 0)
(0.046357679 -0.0050548928 0)
(0.046520202 -0.0035912116 0)
(0.046493613 -0.0025083286 0)
(0.046408461 -0.0017856717 0)
(0.046288359 -0.0013400642 0)
(0.046163671 -0.0011079343 0)
(0.046033858 -0.0010523899 0)
(0.045884888 -0.0011475766 0)
(0.045705152 -0.001406516 0)
(0.04547217 -0.0018566534 0)
(0.045134829 -0.002548879 0)
(0.044660892 -0.0035940727 0)
(0.043960355 -0.0050976524 0)
(0.042865932 -0.0072689076 0)
(0.041229185 -0.010225588 0)
(0.038615176 -0.013917503 0)
(0.034702433 -0.017926147 0)
(0.028845341 -0.021316917 0)
(0.020979557 -0.022425687 0)
(0.010741961 -0.019795034 0)
(0.00038983792 -0.0083591322 0)
(0.04136701 -0.011788568 0)
(0.043028408 -0.012141079 0)
(0.044419881 -0.0096041549 0)
(0.04470722 -0.0071593427 0)
(0.044545739 -0.0051092129 0)
(0.044276609 -0.0035106256 0)
(0.043945331 -0.0023776602 0)
(0.043651827 -0.0016385873 0)
(0.043395018 -0.0011997354 0)
(0.043160669 -0.00097134726 0)
(0.042942237 -0.00090909794 0)
(0.042706163 -0.00098502527 0)
(0.042427894 -0.0011996442 0)
(0.042070378 -0.0015808988 0)
(0.041580119 -0.0021652841 0)
(0.040882892 -0.0030299893 0)
(0.039901802 -0.0042798818 0)
(0.038438581 -0.0060351435 0)
(0.036315432 -0.0083844214 0)
(0.033190182 -0.011201032 0)
(0.028782485 -0.014064911 0)
(0.022828312 -0.016115252 0)
(0.015493606 -0.016157994 0)
(0.0074814904 -0.013108521 0)
(-8.1175817e-005 -0.0052409082 0)
(0.041507797 -0.01432078 0)
(0.042657313 -0.013245136 0)
(0.042771985 -0.0097861768 0)
(0.042116699 -0.0069176976 0)
(0.041246113 -0.0047302682 0)
(0.040474482 -0.0031285355 0)
(0.039858084 -0.0020529564 0)
(0.039375648 -0.0013691116 0)
(0.039008514 -0.00097245493 0)
(0.038700004 -0.00077024768 0)
(0.038423184 -0.00071023151 0)
(0.038134933 -0.00076410984 0)
(0.037802276 -0.00092915009 0)
(0.037372631 -0.0012183013 0)
(0.036800621 -0.0016699933 0)
(0.035993294 -0.0023273102 0)
(0.034864757 -0.0032726407 0)
(0.033241564 -0.0045806382 0)
(0.030929917 -0.0062940125 0)
(0.027680004 -0.0082858249 0)
(0.023300264 -0.010184556 0)
(0.01777519 -0.011330067 0)
(0.011388065 -0.010859975 0)
(0.0052754197 -0.0081461835 0)
(-0.00016566023 -0.0029711051 0)
(0.041145532 -0.016768533 0)
(0.041279196 -0.013284903 0)
(0.039494433 -0.0090494173 0)
(0.037714805 -0.0059701327 0)
(0.036130977 -0.003882692 0)
(0.03491799 -0.0024640634 0)
(0.034079137 -0.0015576261 0)
(0.033480326 -0.001004392 0)
(0.033052616 -0.00069134686 0)
(0.032718119 -0.0005345504 0)
(0.032426032 -0.00048564876 0)
(0.032130726 -0.00051970797 0)
(0.03179085 -0.00063117777 0)
(0.031358341 -0.0008281335 0)
(0.03078029 -0.0011339624 0)
(0.029977413 -0.0015808087 0)
(0.028854953 -0.0022160589 0)
(0.02727173 -0.0030895912 0)
(0.025052973 -0.0042125474 0)
(0.02201845 -0.0054859018 0)
(0.018067331 -0.0066305464 0)
(0.013299072 -0.007197912 0)
(0.0080885999 -0.0066134378 0)
(0.0035584683 -0.0045562861 0)
(-0.00017602717 -0.0014031255 0)
(0.039530721 -0.018401288 0)
(0.038041377 -0.011689115 0)
(0.033717564 -0.0071718849 0)
(0.030975232 -0.0043337107 0)
(0.028898367 -0.0026366385 0)
(0.027476173 -0.0015956867 0)
(0.02656029 -0.0009698006 0)
(0.025954683 -0.00060074309 0)
(0.025544815 -0.00039950086 0)
(0.02524056 -0.00030067228 0)
(0.024982737 -0.00026935318 0)
(0.024726497 -0.00028727923 0)
(0.024431848 -0.00034909997 0)
(0.024059272 -0.00046052101 0)
(0.023559188 -0.00063172509 0)
(0.022867858 -0.0008831689 0)
(0.021902424 -0.0012392653 0)
(0.020549042 -0.0017265568 0)
(0.018670593 -0.0023460367 0)
(0.016143139 -0.0030376655 0)
(0.012928174 -0.0036320206 0)
(0.0091705329 -0.0038552817 0)
(0.0052514681 -0.0033910431 0)
(0.0021156415 -0.0020725213 0)
(-0.00018349486 -0.00040069065 0)
(0.034450507 -0.016484012 0)
(0.031497691 -0.0078024615 0)
(0.02440494 -0.0043973096 0)
(0.021472445 -0.0023748261 0)
(0.019369967 -0.0013577784 0)
(0.018103457 -0.00077707368 0)
(0.017330355 -0.00044998691 0)
(0.016856176 -0.00026603797 0)
(0.016551848 -0.00016956638 0)
(0.016335682 -0.00012350915 0)
(0.016157231 -0.0001088895 0)
(0.015981588 -0.00011563103 0)
(0.015779695 -0.00014131212 0)
(0.015522911 -0.00018771351 0)
(0.015176437 -0.00025903501 0)
(0.014695613 -0.0003635617 0)
(0.014021587 -0.00051177622 0)
(0.013075597 -0.00071360086 0)
(0.011764707 -0.00097070539 0)
(0.010007896 -0.0012552996 0)
(0.0077928665 -0.0014895974 0)
(0.0052635552 -0.0015461663 0)
(0.0027123084 -0.0012859825 0)
(0.00086673984 -0.00063022153 0)
(-0.00020727932 5.3822135e-005 0)
(0.020509347 -0.01202438 0)
(0.017317082 -0.0023149265 0)
(0.010500739 -0.00037714103 0)
(0.0090641004 -0.00014764446 0)
(0.0076711723 -4.3568409e-005 0)
(0.0069976062 -1.2896232e-005 0)
(0.0065953011 -1.5497237e-006 0)
(0.0063682054 3.2834558e-006 0)
(0.0062314651 4.9847936e-006 0)
(0.0061406228 5.635951e-006 0)
(0.0060687566 5.8422022e-006 0)
(0.0059989833 6.135747e-006 0)
(0.0059184951 6.8964824e-006 0)
(0.0058145699 8.0649316e-006 0)
(0.0056726061 1.0017093e-005 0)
(0.0054736537 1.2592949e-005 0)
(0.0051924479 1.60436e-005 0)
(0.0047960247 2.0662049e-005 0)
(0.0042452726 2.6449527e-005 0)
(0.0035079191 3.4045314e-005 0)
(0.0025824847 4.2677382e-005 0)
(0.0015521393 5.7457159e-005 0)
(0.00054790717 7.1237717e-005 0)
(-4.9864246e-005 0.00011116691 0)
(-0.00018328529 0.00012790978 0)
)
;

boundaryField
{
    inlet
    {
        type            fixedValue;
        value           uniform (0.03876 0 0);
    }
    walls
    {
        type            fixedValue;
        value           uniform (0 0 0);
    }
    outlet
    {
        type            zeroGradient;
    }
    centreline
    {
        type            symmetryPlane;
    }
    frontAndBack
    {
        type            empty;
    }
}


// ************************************************************************* //
