/*--------------------------------*- C++ -*----------------------------------*\
| =========                 |                                                 |
| \\      /  F ield         | OpenFOAM: The Open Source CFD Toolbox           |
|  \\    /   O peration     | Version:  5.x                                   |
|   \\  /    A nd           | Web:      www.OpenFOAM.org                      |
|    \\/     M anipulation  |                                                 |
\*---------------------------------------------------------------------------*/
/*   Windows 32 and 64 bit porting by blueCAPE: http://www.bluecape.com.pt   *\
|  Based on Windows porting (2.0.x v4) by Symscape: http://www.symscape.com   |
\*---------------------------------------------------------------------------*/
FoamFile
{
    version     2.0;
    format      ascii;
    class       volScalarField;
    location    "0.05";
    object      p;
}
// * * * * * * * * * * * * * * * * * * * * * * * * * * * * * * * * * * * * * //

dimensions      [0 2 -2 0 0 0 0];

internalField   nonuniform List<scalar> 
750
(
0.38776398
0.38760076
0.38744415
0.38705199
0.3867388
0.38623822
0.38577327
0.38521954
0.38466438
0.38407364
0.3834717
0.3828531
0.38222369
0.38157978
0.3809165
0.38022959
0.37949593
0.37868916
0.37780079
0.37657597
0.37540262
0.37244112
0.37113232
0.36142811
0.35737948
0.3877631
0.38762248
0.38743631
0.38706487
0.38673764
0.3862438
0.3857744
0.38522199
0.38466548
0.38407481
0.38347254
0.38285389
0.38222442
0.38158074
0.380918
0.3802319
0.37949934
0.37869714
0.37780662
0.37659873
0.37541045
0.3725364
0.37114807
0.36166029
0.35744039
0.38777392
0.38764216
0.38744167
0.38707805
0.38674337
0.38625116
0.38577858
0.38522598
0.38466813
0.38407702
0.38347433
0.38285551
0.38222613
0.381583
0.38092135
0.38023707
0.37950778
0.37871172
0.37782791
0.3766401
0.37546894
0.37266892
0.37131418
0.36188723
0.35790914
0.38779732
0.38765894
0.38745999
0.38709182
0.38675528
0.38626073
0.38578549
0.38523167
0.38467221
0.3840803
0.38347696
0.38285793
0.38222873
0.38158639
0.38092635
0.38024472
0.37952071
0.37873199
0.37786253
0.37670122
0.37556262
0.37285247
0.37158804
0.36219757
0.35870024
0.38783003
0.3876787
0.38748589
0.38710901
0.3867714
0.38627324
0.38579474
0.38523921
0.38467761
0.38408464
0.38348042
0.38286111
0.38223215
0.3815908
0.38093288
0.38025469
0.37953765
0.37875826
0.37790784
0.37678122
0.37568227
0.37308691
0.37195291
0.36263669
0.35971958
0.3878708
0.38770389
0.38751772
0.38713074
0.38679122
0.38628896
0.38580617
0.38524859
0.3846843
0.38409
0.38348468
0.38286502
0.38223631
0.38159614
0.38094079
0.38026674
0.37955803
0.37879067
0.37796281
0.37687835
0.37583484
0.37336623
0.37242066
0.36318846
0.36117326
0.38792026
0.38773384
0.38755656
0.38715673
0.38681501
0.38630785
0.38581978
0.38525977
0.38469225
0.38409634
0.38348972
0.38286961
0.38224115
0.38160235
0.38094993
0.38028067
0.37958131
0.37882829
0.37802711
0.37698825
0.37601555
0.37367694
0.37297466
0.36376681
0.3636286
0.38797798
0.38777008
0.38760184
0.38718764
0.38684262
0.3863299
0.38583551
0.38527268
0.38470142
0.38410363
0.3834955
0.38287486
0.38224669
0.3816094
0.38096029
0.38029651
0.37960741
0.37887058
0.37809984
0.3771108
0.37622292
0.37404319
0.37366085
0.36452018
0.3674233
0.38803968
0.3878208
0.38764713
0.38722683
0.38687273
0.38635528
0.38585322
0.38528733
0.38471177
0.38411184
0.38350203
0.38288077
0.38225286
0.38161728
0.38097191
0.38031437
0.37963646
0.37891736
0.378178
0.37724669
0.37646529
0.37450852
0.37459144
0.36596891
0.37192768
0.38810119
0.3878929
0.38768668
0.38727684
0.38690403
0.38638443
0.38587251
0.38530385
0.38472317
0.38412094
0.38350918
0.38288715
0.38225945
0.3816257
0.38098428
0.38033347
0.37966736
0.37896827
0.37825791
0.37739501
0.37670405
0.37506441
0.37553987
0.368196
0.37682242
0.33195013
0.32171186
0.30467086
0.29194911
0.27798204
0.2645103
0.25089659
0.2373474
0.2237796
0.21021851
0.19665588
0.18309339
0.16953097
0.15596848
0.14240601
0.12884353
0.11528106
0.10171858
0.088156103
0.074593626
0.06103115
0.047468674
0.033906194
0.02034373
0.0067812436
0.33209447
0.32154832
0.3046699
0.29191236
0.27798224
0.264507
0.25089698
0.23734709
0.22377965
0.21021849
0.19665588
0.18309339
0.16953097
0.15596848
0.14240601
0.12884353
0.11528106
0.10171858
0.088156103
0.074593626
0.06103115
0.047468674
0.033906195
0.020343732
0.0067812455
0.33173011
0.32141889
0.30457424
0.29189902
0.27796838
0.26450667
0.25089574
0.23734693
0.22377954
0.2102185
0.19665588
0.18309339
0.16953097
0.15596848
0.14240601
0.12884353
0.11528106
0.10171858
0.088156103
0.074593626
0.06103115
0.047468673
0.033906195
0.02034373
0.0067812446
0.33093683
0.32132312
0.30439173
0.29189814
0.27794516
0.26450722
0.25089368
0.23734681
0.22377934
0.21021853
0.19665588
0.1830934
0.16953097
0.15596848
0.14240601
0.12884353
0.11528106
0.10171858
0.088156103
0.074593627
0.06103115
0.047468672
0.033906194
0.020343722
0.0067812393
0.32994534
0.32129141
0.3041384
0.29189475
0.27792064
0.26450717
0.25089124
0.23734677
0.2237791
0.21021859
0.19665587
0.1830934
0.16953098
0.15596848
0.14240601
0.12884353
0.11528106
0.10171858
0.088156104
0.074593626
0.06103115
0.047468671
0.033906195
0.020343712
0.0067812327
0.32901107
0.32134479
0.30389941
0.29186808
0.27789845
0.26450647
0.25088847
0.23734686
0.2237788
0.21021866
0.19665585
0.18309341
0.16953098
0.15596848
0.14240601
0.12884353
0.11528106
0.10171858
0.088156103
0.074593624
0.061031149
0.047468671
0.033906196
0.020343705
0.0067812288
0.32799966
0.3215144
0.30371821
0.2918258
0.27787671
0.26450605
0.25088545
0.23734717
0.2237785
0.21021874
0.19665583
0.18309343
0.16953098
0.15596848
0.14240601
0.12884353
0.11528106
0.10171858
0.088156102
0.074593624
0.061031149
0.04746867
0.033906199
0.020343705
0.0067812298
0.32643751
0.32163241
0.30360019
0.29180899
0.2778584
0.26450583
0.25088294
0.23734763
0.22377828
0.21021883
0.19665581
0.18309344
0.16953098
0.15596848
0.14240601
0.12884354
0.11528106
0.10171858
0.088156104
0.074593625
0.061031148
0.047468669
0.033906201
0.020343715
0.0067812389
0.32348713
0.32159291
0.30355196
0.29182183
0.27784507
0.26450673
0.25088109
0.23734811
0.22377814
0.21021893
0.19665579
0.18309345
0.16953098
0.15596849
0.14240602
0.12884354
0.11528106
0.10171858
0.088156103
0.074593625
0.061031148
0.047468669
0.033906202
0.020343734
0.0067812553
0.31724458
0.3218557
0.30335187
0.29193671
0.27780937
0.26451727
0.25087686
0.23734886
0.2237778
0.21021896
0.19665577
0.18309345
0.16953098
0.15596849
0.14240602
0.12884354
0.11528106
0.10171858
0.088156103
0.074593625
0.061031148
0.04746867
0.033906204
0.020343735
0.0067812526
0.38823403
0.38806222
0.38777035
0.38739034
0.38697145
0.38644985
0.38591428
0.38534017
0.38474799
0.38414055
0.38352421
0.38290038
0.38227289
0.38164256
0.38100895
0.38037204
0.37972988
0.37907527
0.37842044
0.37771522
0.37712082
0.37626663
0.37696022
0.37349734
0.38999599
0.38853325
0.38833606
0.3879929
0.38758043
0.38711957
0.38656491
0.38599849
0.38540483
0.38479506
0.38417562
0.38355128
0.38292344
0.38229572
0.38167053
0.38104871
0.38043265
0.37982576
0.37922826
0.37865598
0.3780958
0.37762849
0.37714885
0.37734947
0.37526113
0.37982695
0.38892451
0.38867654
0.38828646
0.38780818
0.38729842
0.38670033
0.38609721
0.38547803
0.38484809
0.38421408
0.38357974
0.38294652
0.38231756
0.38169595
0.38108429
0.38048699
0.37991131
0.37936402
0.37886487
0.37842295
0.37810616
0.37788579
0.37813764
0.37785
0.37977718
0.38941543
0.38911163
0.38863995
0.38807703
0.38750161
0.38685156
0.38620574
0.38555636
0.3849037
0.38425321
0.38360712
0.38296719
0.3823356
0.38171503
0.38111024
0.3805276
0.37997614
0.37946805
0.37902375
0.37866639
0.37845177
0.3783831
0.3786721
0.37914797
0.37972867
0.39003726
0.3896583
0.38905288
0.38838204
0.38772251
0.38701118
0.38631827
0.38563534
0.38495822
0.38428991
0.38363114
0.38298306
0.38234647
0.38172416
0.38112213
0.38054796
0.38001166
0.37952835
0.37911912
0.37881356
0.378656
0.37866426
0.37897389
0.37964883
0.37979666
0.39084396
0.39033
0.38952197
0.38871103
0.38795063
0.38716996
0.38642755
0.3857098
0.38500782
0.38432144
0.38364956
0.3829919
0.38234828
0.38172165
0.38111786
0.38054499
0.38001392
0.3795406
0.3791467
0.37886278
0.3787268
0.3787589
0.37905183
0.37974503
0.37972791
0.39190136
0.39108285
0.39001773
0.38904145
0.38816813
0.38731538
0.38652492
0.38577395
0.38504852
0.38434539
0.38366077
0.38299264
0.38234063
0.38170742
0.38109774
0.38051931
0.37998376
0.37950673
0.37910937
0.3788209
0.37867592
0.37869302
0.37894876
0.37961544
0.37953188
0.39352132
0.39180919
0.39048804
0.3893414
0.38835179
0.38743224
0.3866002
0.38582065
0.38507518
0.38435735
0.3836607
0.3829815
0.38231908
0.38167515
0.38105379
0.38046135
0.37990882
0.37941102
0.37898775
0.37866627
0.37847859
0.37844243
0.37862914
0.37923827
0.37914334
0.39714319
0.39263042
0.39093629
0.38957346
0.38847537
0.38750613
0.38664511
0.38584492
0.38508394
0.38435296
0.38364397
0.38295158
0.38227412
0.38161202
0.38096838
0.38034806
0.37975945
0.37921581
0.37873466
0.37834101
0.37806555
0.37792702
0.37799329
0.37849837
0.3784467
0.39812684
0.39116314
0.39109956
0.38965461
0.38852806
0.38754177
0.38666739
0.38585928
0.38509434
0.38436129
0.38365161
0.38295977
0.3822838
0.38162414
0.38098377
0.38036835
0.37978605
0.37924984
0.3787772
0.3783918
0.37812294
0.37798757
0.37803925
0.37848157
0.37830155
)
;

boundaryField
{
    inlet
    {
        type            zeroGradient;
    }
    walls
    {
        type            zeroGradient;
    }
    outlet
    {
        type            fixedValue;
        value           uniform 0;
    }
    centreline
    {
        type            symmetryPlane;
    }
    frontAndBack
    {
        type            empty;
    }
}


// ************************************************************************* //
