/*--------------------------------*- C++ -*----------------------------------*\
| =========                 |                                                 |
| \\      /  F ield         | OpenFOAM: The Open Source CFD Toolbox           |
|  \\    /   O peration     | Version:  5.x                                   |
|   \\  /    A nd           | Web:      www.OpenFOAM.org                      |
|    \\/     M anipulation  |                                                 |
\*---------------------------------------------------------------------------*/
/*   Windows 32 and 64 bit porting by blueCAPE: http://www.bluecape.com.pt   *\
|  Based on Windows porting (2.0.x v4) by Symscape: http://www.symscape.com   |
\*---------------------------------------------------------------------------*/
FoamFile
{
    version     2.0;
    format      ascii;
    class       surfaceScalarField;
    location    "0.05";
    object      phi;
}
// * * * * * * * * * * * * * * * * * * * * * * * * * * * * * * * * * * * * * //

dimensions      [0 3 -1 0 0 0 0];

internalField   nonuniform List<scalar> 
1430
(
5.052719e-006
-5.1438643e-008
5.1046036e-006
-5.1884646e-008
5.1462097e-006
-4.1606019e-008
5.185655e-006
-3.944533e-008
5.2170579e-006
-3.1402842e-008
5.2481495e-006
-3.109163e-008
5.2747799e-006
-2.6630399e-008
5.3018381e-006
-2.7058139e-008
5.3296516e-006
-2.7813549e-008
5.3616216e-006
-3.1969967e-008
5.4005312e-006
-3.8909555e-008
5.4507583e-006
-5.0227075e-008
5.5178104e-006
-6.7052057e-008
5.6095208e-006
-9.1710394e-008
5.737127e-006
-1.2760624e-007
5.9169858e-006
-1.7985874e-007
6.1735746e-006
-2.5658881e-007
6.5459877e-006
-3.7241309e-007
7.0905777e-006
-5.4458993e-007
7.917202e-006
-8.266243e-007
9.1554206e-006
-1.2382186e-006
1.116945e-005
-2.0140295e-006
1.4343621e-005
-3.1741703e-006
1.9023553e-005
-4.6799321e-006
-5.6948635e-006
2.4718417e-005
5.0530129e-006
-1.0317117e-007
5.104713e-006
-1.0358477e-007
5.1467895e-006
-8.368244e-008
5.185537e-006
-7.8192862e-008
5.2176252e-006
-6.3490966e-008
5.2480609e-006
-6.1527269e-008
5.2749721e-006
-5.354158e-008
5.3016682e-006
-5.3754225e-008
5.3294312e-006
-5.5576567e-008
5.3611356e-006
-6.3674309e-008
5.3998049e-006
-7.7578825e-008
5.4496516e-006
-1.0007377e-007
5.5161901e-006
-1.3359052e-007
5.6071712e-006
-1.8269147e-007
5.733678e-006
-2.5411301e-007
5.9118918e-006
-3.5807258e-007
6.1660381e-006
-5.1073507e-007
6.5342153e-006
-7.4059023e-007
7.0732932e-006
-1.0836678e-006
7.8847284e-006
-1.6380595e-006
9.1147584e-006
-2.4682485e-006
1.1085179e-005
-3.9844501e-006
1.4282915e-005
-6.3719056e-006
1.8933557e-005
-9.3305735e-006
-1.159596e-005
2.4834653e-005
5.0529928e-006
-1.5488358e-007
5.1054504e-006
-1.5604243e-007
5.1470387e-006
-1.2527066e-007
5.1861731e-006
-1.1732725e-007
5.2179772e-006
-9.5295055e-008
5.2483722e-006
-9.1922229e-008
5.275035e-006
-8.0204406e-008
5.3014847e-006
-8.0203922e-008
5.3289175e-006
-8.3009284e-008
5.3602118e-006
-9.4968651e-008
5.3983537e-006
-1.157207e-007
5.447478e-006
-1.4919803e-007
5.5129997e-006
-1.9911224e-007
5.6025285e-006
-2.7222023e-007
5.7268981e-006
-3.7848257e-007
5.9018731e-006
-5.330476e-007
6.1510378e-006
-7.5989974e-007
6.5114443e-006
-1.1009967e-006
7.0374214e-006
-1.6096449e-006
7.8263252e-006
-2.4269633e-006
9.02094e-006
-3.6628633e-006
1.0949278e-005
-5.912788e-006
1.4101672e-005
-9.5242997e-006
1.877759e-005
-1.4006492e-005
-1.7584331e-005
2.4765961e-005
5.0530236e-006
-2.0662689e-007
5.1059877e-006
-2.0900653e-007
5.1477253e-006
-1.6700821e-007
5.1869259e-006
-1.5652786e-007
5.218632e-006
-1.2700112e-007
5.2488109e-006
-1.2210114e-007
5.2751648e-006
-1.0655819e-007
5.301216e-006
-1.0625519e-007
5.3281686e-006
-1.0996181e-007
5.3588482e-006
-1.2564827e-007
5.3961975e-006
-1.5306995e-007
5.4442435e-006
-1.9724399e-007
5.5082554e-006
-2.631242e-007
5.5956216e-006
-3.5958639e-007
5.7168063e-006
-4.9966722e-007
5.8869812e-006
-7.0322254e-007
6.1287268e-006
-1.0016453e-006
6.4773989e-006
-1.4496688e-006
6.9841522e-006
-2.1163982e-006
7.7396659e-006
-3.182477e-006
8.8826727e-006
-4.8058702e-006
1.0745213e-005
-7.775328e-006
1.3807096e-005
-1.2586183e-005
1.8407699e-005
-1.8607095e-005
-2.3460202e-005
2.428357e-005
5.0528395e-006
-2.5818606e-007
5.1064615e-006
-2.6262849e-007
5.1486544e-006
-2.0920114e-007
5.1878984e-006
-1.9577184e-007
5.2195308e-006
-1.5863344e-007
5.2493999e-006
-1.5197021e-007
5.2753429e-006
-1.3250126e-007
5.300863e-006
-1.3177521e-007
5.3271795e-006
-1.3627836e-007
5.3570458e-006
-1.5551454e-007
5.3933419e-006
-1.8936603e-007
5.4399629e-006
-2.4386493e-007
5.5019848e-006
-3.251461e-007
5.5865015e-006
-4.441031e-007
5.703497e-006
-6.1666266e-007
5.8673816e-006
-8.671071e-007
6.0993785e-006
-1.2336422e-006
6.4325393e-006
-1.7828296e-006
6.9139581e-006
-2.597817e-006
7.6260094e-006
-3.8945283e-006
8.7012632e-006
-5.8811241e-006
1.0469575e-005
-9.5436394e-006
1.3373994e-005
-1.5490602e-005
1.7736612e-005
-2.2969713e-005
-2.8859712e-005
2.3136122e-005
5.0523384e-006
-3.0924415e-007
5.1069481e-006
-3.172382e-007
5.149763e-006
-2.5201599e-007
5.1891333e-006
-2.351421e-007
5.2206627e-006
-1.9016281e-007
5.2501435e-006
-1.8145099e-007
5.27557e-006
-1.5792775e-007
5.3004316e-006
-1.5663678e-007
5.3259583e-006
-1.6180504e-007
5.3548172e-006
-1.8437348e-007
5.3898084e-006
-2.2435724e-007
5.4346704e-006
-2.8872685e-007
5.4942388e-006
-3.8471454e-007
5.5752489e-006
-5.2511312e-007
5.6871041e-006
-7.2851786e-007
5.8432912e-006
-1.0232942e-006
6.0633302e-006
-1.4536812e-006
6.3773532e-006
-2.0968526e-006
6.8276121e-006
-3.0480759e-006
7.4862267e-006
-4.5531429e-006
8.4747196e-006
-6.869617e-006
1.0112621e-005
-1.1181541e-005
1.2776394e-005
-1.8154375e-005
1.6733907e-005
-2.6927226e-005
-3.3391118e-005
2.1265312e-005
5.0515995e-006
-3.5956334e-007
5.1074708e-006
-3.7310947e-007
5.1511068e-006
-2.9565196e-007
5.190647e-006
-2.7468225e-007
5.2220455e-006
-2.2156129e-007
5.2510429e-006
-2.1044837e-007
5.275858e-006
-1.8274292e-007
5.2999316e-006
-1.8071029e-007
5.3245194e-006
-1.8639285e-007
5.352185e-006
-2.1203905e-007
5.3856271e-006
-2.5779935e-007
5.4284068e-006
-3.3150649e-007
5.4850797e-006
-4.4138747e-007
5.5619572e-006
-6.0199056e-007
5.6677741e-006
-8.3433481e-007
5.8149372e-006
-1.1704573e-006
6.021024e-006
-1.659768e-006
6.3127482e-006
-2.3885767e-006
6.7266541e-006
-3.4619818e-006
7.323376e-006
-5.1498647e-006
8.2059167e-006
-7.7521578e-006
9.6728875e-006
-1.2648512e-005
1.2004635e-005
-2.0486123e-005
1.5460898e-005
-3.038349e-005
-3.6815031e-005
1.8884812e-005
5.0507527e-006
-4.0903572e-007
5.1081606e-006
-4.3051731e-007
5.1527247e-006
-3.4021612e-007
5.192507e-006
-3.1446449e-007
5.2236856e-006
-2.527399e-007
5.2521138e-006
-2.3887659e-007
5.276225e-006
-2.0685408e-007
5.2993776e-006
-2.0386288e-007
5.3228822e-006
-2.0989742e-007
5.3491783e-006
-2.3833513e-007
5.3808395e-006
-2.8946049e-007
5.4212259e-006
-3.7189295e-007
5.4745877e-006
-4.9474922e-007
5.5467482e-006
-6.7415107e-007
5.6456914e-006
-9.33278e-007
5.7826163e-006
-1.3073821e-006
5.9729923e-006
-1.850144e-006
6.2397816e-006
-2.6553661e-006
6.6128709e-006
-3.8350711e-006
7.140042e-006
-5.6770358e-006
7.8978591e-006
-8.5099749e-006
9.1449346e-006
-1.3895587e-005
1.1048101e-005
-2.2389289e-005
1.4011165e-005
-3.3346554e-005
-3.8987022e-005
1.6183156e-005
5.0498176e-006
-4.5757294e-007
5.1093586e-006
-4.9005837e-007
5.1545127e-006
-3.8537017e-007
5.1948829e-006
-3.5483468e-007
5.225553e-006
-2.8340992e-007
5.2533991e-006
-2.6672267e-007
5.2766878e-006
-2.3014278e-007
5.298789e-006
-2.2596411e-007
5.3210697e-006
-2.3217805e-007
5.345831e-006
-2.6309641e-007
5.3754966e-006
-3.1912612e-007
5.4132011e-006
-4.0959743e-007
5.4628703e-006
-5.4441835e-007
5.5297898e-006
-7.4107057e-007
5.6211193e-006
-1.0246075e-006
5.7467562e-006
-1.433019e-006
5.9199744e-006
-2.0233622e-006
6.1597523e-006
-2.8951439e-006
6.4882334e-006
-4.1635522e-006
6.9395849e-006
-6.1283873e-006
7.556553e-006
-9.126943e-006
8.5313966e-006
-1.4870431e-005
9.9247563e-006
-2.3782648e-005
1.2353508e-005
-3.5775306e-005
-3.9679662e-005
1.3046148e-005
5.0492115e-006
-5.0550409e-007
5.1108466e-006
-5.5169346e-007
5.1568577e-006
-4.3138122e-007
5.1975973e-006
-3.9557422e-007
5.2278792e-006
-3.136918e-007
5.2548482e-006
-2.9369162e-007
5.2773321e-006
-2.5262667e-007
5.2981748e-006
-2.4680687e-007
5.3191268e-006
-2.5313003e-007
5.3421794e-006
-2.8614892e-007
5.369661e-006
-3.4660777e-007
5.404421e-006
-4.4435736e-007
5.4500575e-006
-5.9005482e-007
5.5112795e-006
-8.0229259e-007
5.5943703e-006
-1.1076983e-006
5.7078432e-006
-1.5464919e-006
5.8627611e-006
-2.1782802e-006
6.0736224e-006
-3.1060052e-006
6.3558065e-006
-4.4457363e-006
6.7277584e-006
-6.5003392e-006
7.2015124e-006
-9.6006969e-006
7.8594725e-006
-1.5528391e-005
8.6797268e-006
-2.4602903e-005
1.0150634e-005
-3.7246214e-005
8.9330685e-006
-3.8462096e-005
2.7930174e-005
-3.2117567e-006
2.9188944e-005
-1.2587703e-006
2.9420415e-005
-2.3147056e-007
2.9376481e-005
4.393438e-008
2.9344156e-005
3.2324458e-008
2.9335701e-005
8.4555049e-009
2.9334484e-005
1.2162548e-009
2.9333663e-005
8.2093497e-010
2.9333213e-005
4.5033537e-010
2.9333022e-005
1.907144e-010
2.9332966e-005
5.5984253e-011
2.9332951e-005
1.5135317e-011
2.9332946e-005
5.3314945e-012
2.9332944e-005
1.6563875e-012
2.9332944e-005
6.5606767e-013
2.9332943e-005
1.8187701e-013
2.9332943e-005
4.3850912e-014
2.9332943e-005
4.7272856e-014
2.9332943e-005
4.1342963e-014
2.9332943e-005
9.9980065e-015
2.9332943e-005
1.2493573e-013
2.9332943e-005
4.4316464e-013
2.9332942e-005
5.0585648e-013
2.933294e-005
2.3160809e-012
2.6142359e-012
2.8016457e-005
-6.3935592e-006
2.9339257e-005
-2.5815693e-006
2.9531338e-005
-4.235515e-007
2.949522e-005
8.0052441e-008
2.9456458e-005
7.1086354e-008
2.9449237e-005
1.5676719e-008
2.944765e-005
2.8031744e-009
2.9447164e-005
1.306313e-009
2.9446701e-005
9.1371254e-010
2.9446538e-005
3.5373824e-010
2.9446485e-005
1.0884681e-010
2.9446471e-005
2.894493e-011
2.9446467e-005
9.3643916e-012
2.9446465e-005
3.32828e-012
2.9446465e-005
1.0847702e-012
2.9446465e-005
2.7317548e-013
2.9446465e-005
1.241786e-013
2.9446464e-005
1.1948917e-013
2.9446464e-005
2.2611283e-014
2.9446464e-005
3.2349959e-014
2.9446464e-005
2.3816525e-013
2.9446464e-005
7.0017161e-013
2.9446463e-005
1.3716549e-012
2.9446459e-005
6.7926227e-012
7.1854364e-012
2.7911868e-005
-9.5394662e-006
2.9187108e-005
-3.8568091e-006
2.9366477e-005
-6.0292019e-007
2.9331054e-005
1.1547508e-007
2.9293381e-005
1.0875955e-007
2.9286328e-005
2.2729323e-008
2.9284967e-005
4.1639761e-009
2.9284707e-005
1.5665462e-009
2.9284342e-005
1.2791117e-009
2.9284213e-005
4.8283688e-010
2.9284171e-005
1.5069982e-010
2.9284161e-005
3.8647461e-011
2.9284158e-005
1.2068981e-011
2.9284157e-005
4.5538788e-012
2.9284157e-005
1.2912303e-012
2.9284157e-005
3.0280806e-013
2.9284157e-005
2.0677912e-013
2.9284157e-005
1.2233379e-013
2.9284157e-005
-4.7714711e-014
2.9284157e-005
7.4675437e-014
2.9284157e-005
2.8200907e-013
2.9284157e-005
7.2381916e-013
2.9284156e-005
2.3024471e-012
2.9284149e-005
1.3305783e-011
1.3495517e-011
2.706594e-005
-1.2321836e-005
2.8135675e-005
-4.9265443e-006
2.8291777e-005
-7.5902196e-007
2.8273189e-005
1.3406303e-007
2.8246097e-005
1.3585146e-007
2.824086e-005
2.7965892e-008
2.8239733e-005
5.2906843e-009
2.8239727e-005
1.5730713e-009
2.8239516e-005
1.4904447e-009
2.8239449e-005
5.4934333e-010
2.8239426e-005
1.7410698e-010
2.8239422e-005
4.2408289e-011
2.8239421e-005
1.2858062e-011
2.823942e-005
5.1232905e-012
2.823942e-005
1.2940293e-012
2.823942e-005
3.1828479e-013
2.823942e-005
1.2161491e-013
2.8239421e-005
-7.3180312e-014
2.8239421e-005
-4.7428464e-014
2.823942e-005
2.4421215e-013
2.823942e-005
3.8549124e-013
2.823942e-005
7.2478753e-013
2.823942e-005
2.8475625e-012
2.8239414e-005
1.8894519e-011
1.8992858e-011
2.5067531e-005
-1.4253244e-005
2.5688105e-005
-5.5471185e-006
2.5791203e-005
-8.6211974e-007
2.580271e-005
1.2255586e-007
2.5796036e-005
1.4252551e-007
2.5794594e-005
2.9408138e-008
2.5793828e-005
6.0562819e-009
2.5794059e-005
1.341741e-009
2.5794041e-005
1.508277e-009
2.5794061e-005
5.2986298e-010
2.5794062e-005
1.7315415e-010
2.5794065e-005
3.9119389e-011
2.5794067e-005
1.1471304e-011
2.5794067e-005
4.9197152e-012
2.5794067e-005
1.1034172e-012
2.5794067e-005
2.3051254e-013
2.5794067e-005
-1.9119884e-013
2.5794067e-005
-2.2899225e-013
2.5794067e-005
1.2878836e-013
2.5794067e-005
3.7904131e-013
2.5794067e-005
5.2297944e-013
2.5794067e-005
8.6385404e-013
2.5794067e-005
2.6933998e-012
2.5794066e-005
2.0135107e-011
2.0581065e-011
2.1846268e-005
-1.48342e-005
2.1772463e-005
-5.4733141e-006
2.177036e-005
-8.6001655e-007
2.1810789e-005
8.2126971e-008
2.1827154e-005
1.2616067e-007
2.183067e-005
2.5892339e-008
2.1830586e-005
6.139583e-009
2.1831011e-005
9.1724184e-010
2.1831187e-005
1.3316881e-009
2.1831295e-005
4.2250359e-010
2.1831321e-005
1.471803e-010
2.183133e-005
2.9315929e-011
2.1831334e-005
8.2626545e-012
2.1831335e-005
3.7910254e-012
2.1831335e-005
6.8437735e-013
2.1831335e-005
7.9808438e-014
2.1831335e-005
-3.0152288e-013
2.1831335e-005
-1.5115909e-013
2.1831335e-005
1.1650346e-013
2.1831335e-005
2.1578731e-013
2.1831335e-005
6.1268164e-013
2.1831335e-005
1.0942937e-012
2.1831336e-005
2.0318206e-012
2.183134e-005
1.5949387e-011
1.6939129e-011
1.7718857e-005
-1.3668245e-005
1.6804375e-005
-4.5588324e-006
1.6664966e-005
-7.2060745e-007
1.6716246e-005
3.0847204e-008
1.674988e-005
9.2526633e-008
1.6757471e-005
1.8300712e-008
1.675838e-005
5.2303544e-009
1.6758882e-005
4.1522887e-010
1.6759213e-005
1.0006048e-009
1.6759377e-005
2.5918801e-010
1.675942e-005
1.0357282e-010
1.6759434e-005
1.5859813e-011
1.6759438e-005
4.3114475e-012
1.6759439e-005
2.0726749e-012
1.675944e-005
1.5634685e-013
1.675944e-005
-2.7472524e-014
1.675944e-005
-1.4313973e-013
1.675944e-005
-3.1001871e-014
1.675944e-005
-4.9878707e-014
1.675944e-005
5.0150771e-014
1.675944e-005
5.8615156e-013
1.675944e-005
1.1718508e-012
1.6759441e-005
1.2513823e-012
1.6759449e-005
8.3745871e-012
9.6565811e-012
1.309335e-005
-1.0578438e-005
1.1484957e-005
-2.9504393e-006
1.1227763e-005
-4.6341383e-007
1.1262195e-005
-3.5845025e-009
1.1302513e-005
5.2209201e-008
1.1311495e-005
9.318436e-009
1.1313277e-005
3.4485232e-009
1.1313662e-005
2.9961813e-011
1.1314073e-005
5.8935728e-010
1.131423e-005
1.0203924e-010
1.1314278e-005
5.5672476e-011
1.131429e-005
4.0059681e-012
1.1314293e-005
1.1522271e-012
1.1314294e-005
6.1314693e-013
1.1314295e-005
-1.866262e-013
1.1314295e-005
-8.0694397e-014
1.1314295e-005
-5.5885055e-014
1.1314295e-005
1.1254937e-014
1.1314295e-005
-3.9432762e-014
1.1314295e-005
4.945485e-014
1.1314295e-005
4.0492535e-013
1.1314295e-005
9.3668385e-013
1.1314296e-005
6.7440593e-013
1.1314302e-005
1.9010211e-012
2.9675154e-012
8.2341322e-006
-5.7664227e-006
6.4307739e-006
-1.1470808e-006
6.12906e-006
-1.617e-007
6.1372179e-006
-1.174242e-008
6.1714045e-006
1.8022613e-008
6.1785419e-006
2.1810101e-009
6.1805433e-006
1.4470977e-009
6.1806758e-006
-1.0256039e-010
6.1810524e-006
2.1267605e-010
6.1811431e-006
1.1343474e-011
6.1811812e-006
1.757084e-011
6.1811863e-006
-1.1073939e-012
6.1811875e-006
-1.1307517e-013
6.1811882e-006
-4.6715305e-014
6.1811881e-006
-1.7584568e-013
6.1811881e-006
-5.5120877e-014
6.181188e-006
-2.229043e-014
6.181188e-006
7.5711979e-016
6.181188e-006
-1.2938148e-014
6.181188e-006
1.7467906e-014
6.1811883e-006
1.305407e-013
6.1811889e-006
3.9995644e-013
6.1811894e-006
3.0229269e-013
6.1811916e-006
-3.3578627e-013
1.2496432e-013
3.1666456e-006
2.0195648e-006
1.8578647e-006
1.8461223e-006
1.8641448e-006
1.8663258e-006
1.8677729e-006
1.8676703e-006
1.867883e-006
1.8678943e-006
1.8679119e-006
1.8679108e-006
1.8679107e-006
1.8679106e-006
1.8679104e-006
1.8679103e-006
1.8679103e-006
1.8679103e-006
1.8679103e-006
1.8679103e-006
1.8679105e-006
1.8679109e-006
1.8679113e-006
1.8679109e-006
1.5155649e-005
-6.5731219e-007
1.5337109e-005
-7.3315292e-007
1.5493026e-005
-5.8729843e-007
1.5607226e-005
-5.0977463e-007
1.5703884e-005
-4.1034896e-007
1.5773869e-005
-3.6367675e-007
1.5837412e-005
-3.1617025e-007
1.5891114e-005
-3.0050892e-007
1.5945212e-005
-3.0722791e-007
1.6003076e-005
-3.4401259e-007
1.6071406e-005
-4.1493769e-007
1.6156593e-005
-5.2954422e-007
1.6267426e-005
-7.0088826e-007
1.6414497e-005
-9.4936328e-007
1.6611131e-005
-1.3043324e-006
1.6873973e-005
-1.8093337e-006
1.7223222e-005
-2.5275296e-006
1.767479e-005
-3.5575728e-006
1.8249057e-005
-5.0200039e-006
1.8892637e-005
-7.1439189e-006
1.9566099e-005
-1.0274158e-005
1.9718846e-005
-1.5681138e-005
1.8854249e-005
-2.3738306e-005
1.4694508e-005
-3.3086473e-005
-2.3767588e-005
1.5166946e-005
-8.2041702e-007
1.53729e-005
-9.3910715e-007
1.5535324e-005
-7.4972225e-007
1.5649769e-005
-6.2421971e-007
1.5737477e-005
-4.9805703e-007
1.5797648e-005
-4.2384788e-007
1.5846984e-005
-3.6550571e-007
1.5886716e-005
-3.4024081e-007
1.592371e-005
-3.4422238e-007
1.5961554e-005
-3.8185676e-007
1.6004485e-005
-4.5786875e-007
1.6056402e-005
-5.8146081e-007
1.6122131e-005
-7.6661719e-007
1.6206624e-005
-1.0338568e-006
1.6315102e-005
-1.4128102e-006
1.6452066e-005
-1.9462969e-006
1.6619172e-005
-2.6946362e-006
1.680728e-005
-3.7456811e-006
1.6995293e-005
-5.2080163e-006
1.7098265e-005
-7.2468914e-006
1.695101e-005
-1.0126903e-005
1.5897968e-005
-1.4628096e-005
1.3069228e-005
-2.0909566e-005
6.5797071e-006
-2.6596952e-005
-1.7187881e-005
1.5199431e-005
-1.0160073e-006
1.5427935e-005
-1.1676108e-006
1.5598192e-005
-9.199791e-007
1.5704872e-005
-7.3089955e-007
1.5779209e-005
-5.7239455e-007
1.5824695e-005
-4.6933383e-007
1.5857019e-005
-3.9782994e-007
1.5879599e-005
-3.6282083e-007
1.5897328e-005
-3.6195112e-007
1.591272e-005
-3.9724846e-007
1.5927885e-005
-4.7303354e-007
1.5943955e-005
-5.9753129e-007
1.5961716e-005
-7.8437816e-007
1.5980719e-005
-1.0528596e-006
1.5998806e-005
-1.4308975e-006
1.6010181e-005
-1.9576712e-006
1.6001972e-005
-2.6864274e-006
1.5946117e-005
-3.6898263e-006
1.579402e-005
-5.0559198e-006
1.5443401e-005
-6.8962716e-006
1.4702376e-005
-9.3858787e-006
1.301624e-005
-1.294196e-005
9.6160544e-006
-1.750938e-005
3.7184641e-006
-2.0699362e-005
-1.3469417e-005
1.5247558e-005
-1.2597244e-006
1.5507123e-005
-1.4271753e-006
1.5679664e-005
-1.0925199e-006
1.5772569e-005
-8.2380457e-007
1.5826361e-005
-6.2618708e-007
1.5852131e-005
-4.9510364e-007
1.5864054e-005
-4.0975252e-007
1.5866933e-005
-3.6569987e-007
1.5863858e-005
-3.5887699e-007
1.5855745e-005
-3.8913539e-007
1.5842468e-005
-4.5975648e-007
1.582245e-005
-5.775134e-007
1.5792535e-005
-7.5446282e-007
1.5747616e-005
-1.0079406e-006
1.5679337e-005
-1.3626179e-006
1.5573734e-005
-1.8520689e-006
1.5407631e-005
-2.5203245e-006
1.5141719e-005
-3.4239139e-006
1.4713788e-005
-4.6279888e-006
1.402016e-005
-6.2026438e-006
1.2886518e-005
-8.2522361e-006
1.0931923e-005
-1.0987366e-005
7.6589874e-006
-1.4236444e-005
2.8963219e-006
-1.5936696e-005
-1.0573095e-005
1.5343693e-005
-1.5995763e-006
1.5658783e-005
-1.7422658e-006
1.582507e-005
-1.2588064e-006
1.5892746e-005
-8.9148067e-007
1.5916333e-005
-6.4977438e-007
1.5915926e-005
-4.9469666e-007
1.5904095e-005
-3.9792118e-007
1.5885315e-005
-3.4692014e-007
1.5860728e-005
-3.3429011e-007
1.5829243e-005
-3.5764989e-007
1.578834e-005
-4.1885362e-007
1.5733837e-005
-5.2301068e-007
1.5659308e-005
-6.7993312e-007
1.5555623e-005
-9.0425597e-007
1.5409346e-005
-1.2163407e-006
1.5200651e-005
-1.643374e-006
1.4899797e-005
-2.2194702e-006
1.446212e-005
-2.9862375e-006
1.3822232e-005
-3.9881008e-006
1.2884482e-005
-5.2648935e-006
1.1505235e-005
-6.8729886e-006
9.4385459e-006
-8.9206771e-006
6.4107562e-006
-1.1208654e-005
2.5614952e-006
-1.2087435e-005
-8.0115998e-006
1.5621266e-005
-2.2170015e-006
1.6036874e-005
-2.1578731e-006
1.6175304e-005
-1.3972369e-006
1.6192426e-005
-9.0860275e-007
1.6171104e-005
-6.2845205e-007
1.6136571e-005
-4.6016352e-007
1.6097586e-005
-3.5893639e-007
1.6055768e-005
-3.0510231e-007
1.6009581e-005
-2.88103e-007
1.5955616e-005
-3.0368488e-007
1.5888816e-005
-3.5205355e-007
1.5802468e-005
-4.3666234e-007
1.5687476e-005
-5.6494168e-007
1.5531285e-005
-7.4806512e-007
1.5316501e-005
-1.0015568e-006
1.5019184e-005
-1.3460565e-006
1.4605649e-005
-1.8059357e-006
1.4029208e-005
-2.4097962e-006
1.3226475e-005
-3.1853679e-006
1.2113695e-005
-4.1521131e-006
1.0578052e-005
-5.337346e-006
8.457842e-006
-6.8004669e-006
5.614079e-006
-8.3648913e-006
2.3050621e-006
-8.7784182e-006
-5.7065377e-006
1.6208556e-005
-3.421717e-006
1.6692876e-005
-2.6421931e-006
1.6733059e-005
-1.4374193e-006
1.6657795e-005
-8.3333865e-007
1.6572945e-005
-5.4360274e-007
1.6496449e-005
-3.8366736e-007
1.6427747e-005
-2.9023358e-007
1.6362561e-005
-2.3991678e-007
1.6295679e-005
-2.2122125e-007
1.6221012e-005
-2.2901731e-007
1.6130898e-005
-2.6193994e-007
1.6016457e-005
-3.2222108e-007
1.5866143e-005
-4.1462802e-007
1.5664749e-005
-5.4667116e-007
1.5391918e-005
-7.2872521e-007
1.5020544e-005
-9.7468308e-007
1.4514908e-005
-1.3002989e-006
1.3828091e-005
-1.7229797e-006
1.2900567e-005
-2.2578442e-006
1.1660491e-005
-2.912037e-006
1.0019806e-005
-3.6966606e-006
7.863062e-006
-4.6437229e-006
5.1148565e-006
-5.6166857e-006
2.0841989e-006
-5.7477605e-006
-3.6223387e-006
1.6693662e-005
-5.1115378e-006
1.6850587e-005
-2.7991181e-006
1.6627838e-005
-1.2146705e-006
1.6410583e-005
-6.1608372e-007
1.6248177e-005
-3.8119637e-007
1.6126385e-005
-2.6187523e-007
1.6029202e-005
-1.9305074e-007
1.5944014e-005
-1.5472944e-007
1.5861232e-005
-1.3843929e-007
1.5772069e-005
-1.3985382e-007
1.5667034e-005
-1.5690469e-007
1.5535527e-005
-1.9071416e-007
1.5364445e-005
-2.4354571e-007
1.5137291e-005
-3.1951796e-007
1.4832629e-005
-4.2406337e-007
1.4422366e-005
-5.6441979e-007
1.3871256e-005
-7.4918863e-007
1.3134886e-005
-9.8661035e-007
1.2159863e-005
-1.2828211e-006
1.0886523e-005
-1.6386969e-006
9.2466793e-006
-2.0568166e-006
7.1537486e-006
-2.5507922e-006
4.5647664e-006
-3.0277034e-006
1.8105299e-006
-2.9935239e-006
-1.8118088e-006
1.5461719e-005
-5.5694155e-006
1.4501317e-005
-1.838716e-006
1.3847983e-005
-5.6133699e-007
1.3497247e-005
-2.6534757e-007
1.3278304e-005
-1.6225309e-007
1.3128161e-005
-1.1173246e-007
1.3016492e-005
-8.1382253e-008
1.2924948e-005
-6.318499e-008
1.2841108e-005
-5.4598904e-008
1.275474e-005
-5.3485772e-008
1.2656337e-005
-5.8501644e-008
1.2535517e-005
-6.9894614e-008
1.23803e-005
-8.8329161e-008
1.2175865e-005
-1.1508236e-007
1.1903675e-005
-1.5187312e-007
1.1540229e-005
-2.0097468e-007
1.1056189e-005
-2.6514819e-007
1.0416082e-005
-3.465034e-007
9.5794061e-006
-4.4614508e-007
8.5037094e-006
-5.6300017e-007
7.1428822e-006
-6.9598938e-007
5.4395208e-006
-8.4743072e-007
3.3798558e-006
-9.6803836e-007
1.2719147e-006
-8.8558276e-007
-5.3989407e-007
9.4344255e-006
7.5957095e-006
7.0343725e-006
6.769025e-006
6.6067719e-006
6.4950394e-006
6.4136572e-006
6.3504722e-006
6.2958733e-006
6.2423875e-006
6.1838859e-006
6.1139913e-006
6.0256621e-006
5.9105798e-006
5.7587066e-006
5.557732e-006
5.2925838e-006
4.9460804e-006
4.4999353e-006
3.9369352e-006
3.2409458e-006
2.3935151e-006
1.4254768e-006
5.3989407e-007
)
;

boundaryField
{
    inlet
    {
        type            calculated;
        value           nonuniform List<scalar> 
20
(
-5.0012803e-006
-5.0012803e-006
-5.0012803e-006
-5.0012803e-006
-5.0012803e-006
-5.0012803e-006
-5.0012803e-006
-5.0012803e-006
-5.0012803e-006
-5.0012803e-006
-1.5003841e-005
-1.5003841e-005
-1.5003841e-005
-1.5003841e-005
-1.5003841e-005
-1.5003841e-005
-1.5003841e-005
-1.5003841e-005
-1.5003841e-005
-1.5003841e-005
)
;
    }
    walls
    {
        type            calculated;
        value           uniform 0;
    }
    outlet
    {
        type            calculated;
        value           nonuniform List<scalar> 10(2.9332937e-005 2.9446454e-005 2.9284143e-005 2.8239409e-005 2.5794064e-005 2.1831344e-005 1.6759456e-005 1.1314309e-005 6.1811945e-006 1.8679111e-006);
    }
    centreline
    {
        type            symmetryPlane;
        value           uniform 0;
    }
    frontAndBack
    {
        type            empty;
        value           nonuniform 0();
    }
}


// ************************************************************************* //
