/*--------------------------------*- C++ -*----------------------------------*\
| =========                 |                                                 |
| \\      /  F ield         | OpenFOAM: The Open Source CFD Toolbox           |
|  \\    /   O peration     | Version:  5.x                                   |
|   \\  /    A nd           | Web:      www.OpenFOAM.org                      |
|    \\/     M anipulation  |                                                 |
\*---------------------------------------------------------------------------*/
/*   Windows 32 and 64 bit porting by blueCAPE: http://www.bluecape.com.pt   *\
|  Based on Windows porting (2.0.x v4) by Symscape: http://www.symscape.com   |
\*---------------------------------------------------------------------------*/
FoamFile
{
    version     2.0;
    format      ascii;
    class       surfaceScalarField;
    location    "0.05";
    object      phi_0;
}
// * * * * * * * * * * * * * * * * * * * * * * * * * * * * * * * * * * * * * //

dimensions      [0 3 -1 0 0 0 0];

internalField   nonuniform List<scalar> 
1430
(
5.0525037e-006
-5.1223387e-008
5.1041402e-006
-5.1636444e-008
5.1454411e-006
-4.1300896e-008
5.1847273e-006
-3.928624e-008
5.215943e-006
-3.1215652e-008
5.2469212e-006
-3.0978146e-008
5.2734448e-006
-2.6523578e-008
5.3004315e-006
-2.6986739e-008
5.3281887e-006
-2.775721e-008
5.3601195e-006
-3.1930701e-008
5.3990004e-006
-3.888095e-008
5.449206e-006
-5.0205569e-008
5.5162395e-006
-6.7033449e-008
5.6079291e-006
-9.1689622e-008
5.7355042e-006
-1.2757508e-007
5.9153127e-006
-1.7980854e-007
6.1718097e-006
-2.5649695e-007
6.5440657e-006
-3.7225594e-007
7.088375e-006
-5.4430937e-007
7.9145382e-006
-8.2616315e-007
9.1519267e-006
-1.2373885e-006
1.1164093e-005
-2.0121659e-006
1.4334654e-005
-3.1705613e-006
1.9008746e-005
-4.6740922e-006
-5.6848683e-006
2.4693615e-005
5.0528075e-006
-1.0275054e-007
5.1042362e-006
-1.0306508e-007
5.1460276e-006
-8.3092242e-008
5.1846009e-006
-7.7859588e-008
5.2165133e-006
-6.3127932e-008
5.2468279e-006
-6.1292768e-008
5.2736373e-006
-5.3332942e-008
5.3002598e-006
-5.3609262e-008
5.3279681e-006
-5.5465398e-008
5.3596329e-006
-6.359554e-008
5.398274e-006
-7.7522026e-008
5.4480995e-006
-1.0003102e-007
5.5146198e-006
-1.3355374e-007
5.6055805e-006
-1.8265029e-007
5.7320573e-006
-2.5405189e-007
5.9102213e-006
-3.5797254e-007
6.1642798e-006
-5.1055541e-007
6.5323005e-006
-7.4027659e-007
7.0711123e-006
-1.0831211e-006
7.8820923e-006
-1.6371431e-006
9.1112825e-006
-2.4665787e-006
1.107981e-005
-3.9806935e-006
1.4274216e-005
-6.3649664e-006
1.8920597e-005
-9.320473e-006
-1.1579495e-005
2.4815224e-005
5.052783e-006
-1.5425323e-007
5.1049743e-006
-1.5525631e-007
5.1462709e-006
-1.2438884e-007
5.1852341e-006
-1.1682282e-007
5.2168609e-006
-9.4754736e-008
5.2471357e-006
-9.1567494e-008
5.2736973e-006
-7.9894526e-008
5.3000741e-006
-7.9986004e-008
5.3274525e-006
-8.284387e-008
5.358708e-006
-9.4850943e-008
5.3968222e-006
-1.1563621e-007
5.4459258e-006
-1.4913459e-007
5.5114301e-006
-1.990581e-007
5.6009396e-006
-2.7215971e-007
5.7252808e-006
-3.7839309e-007
5.9002087e-006
-5.3290046e-007
6.1492901e-006
-7.5963672e-007
6.5095477e-006
-1.1005343e-006
7.0352754e-006
-1.6088488e-006
7.8237528e-006
-2.4256205e-006
9.0175093e-006
-3.6603352e-006
1.0943935e-005
-5.9071194e-006
1.409357e-005
-9.5146016e-006
1.8768049e-005
-1.3994952e-005
-1.7567592e-005
2.4756146e-005
5.0528125e-006
-2.0578543e-007
5.1055095e-006
-2.0795321e-007
5.1469516e-006
-1.6583094e-007
5.185981e-006
-1.5585218e-007
5.2175098e-006
-1.2628357e-007
5.2475689e-006
-1.2162654e-007
5.2738225e-006
-1.0614817e-007
5.2998016e-006
-1.0596511e-007
5.3267008e-006
-1.0974302e-007
5.3573423e-006
-1.2549244e-007
5.3946647e-006
-1.5295858e-007
5.4426908e-006
-1.9716072e-007
5.5066866e-006
-2.6305384e-007
5.594035e-006
-3.595081e-007
5.7151938e-006
-4.9955183e-007
5.8853254e-006
-7.0303211e-007
6.1269941e-006
-1.0013054e-006
6.4755279e-006
-1.449068e-006
6.9820562e-006
-2.1153771e-006
7.73718e-006
-3.1807443e-006
8.8793165e-006
-4.8024718e-006
1.0739996e-005
-7.7677994e-006
1.37999e-005
-1.2574505e-005
1.8402301e-005
-1.8597354e-005
-2.3450535e-005
2.4285245e-005
5.0526275e-006
-2.571326e-007
5.1059809e-006
-2.6130661e-007
5.147873e-006
-2.0772302e-007
5.1869453e-006
-1.9492443e-007
5.2184005e-006
-1.5773879e-007
5.2481504e-006
-1.5137642e-007
5.2739947e-006
-1.3199243e-007
5.2994436e-006
-1.3141404e-007
5.325708e-006
-1.3600733e-007
5.3555372e-006
-1.5532166e-007
5.3918075e-006
-1.8922887e-007
5.4384098e-006
-2.4376294e-007
5.5004169e-006
-3.2506092e-007
5.5849178e-006
-4.4400906e-007
5.7018905e-006
-6.1652445e-007
5.8657364e-006
-8.6687802e-007
6.0976648e-006
-1.2332337e-006
6.4307012e-006
-1.7821045e-006
6.9119255e-006
-2.5966014e-006
7.6236273e-006
-3.8924461e-006
8.6980428e-006
-5.8768873e-006
1.0464661e-005
-9.5344174e-006
1.3367998e-005
-1.5477843e-005
1.7735156e-005
-2.2964512e-005
-2.8863028e-005
2.3147649e-005
5.0521228e-006
-3.0797508e-007
5.1064652e-006
-3.1564898e-007
5.1489715e-006
-2.5022933e-007
5.1881697e-006
-2.3412255e-007
5.2195224e-006
-1.8909146e-007
5.2488848e-006
-1.8073889e-007
5.2742141e-006
-1.5732172e-007
5.2990061e-006
-1.5620595e-007
5.3244819e-006
-1.6148318e-007
5.3533052e-006
-1.8414487e-007
5.388272e-006
-2.2419563e-007
5.4331166e-006
-2.8860753e-007
5.4926719e-006
-3.846162e-007
5.5736686e-006
-5.2500574e-007
5.6855046e-006
-7.2836048e-007
5.8416586e-006
-1.023032e-006
6.0616392e-006
-1.4532143e-006
6.3755566e-006
-2.0960219e-006
6.8256566e-006
-3.0467014e-006
7.4839722e-006
-4.5507618e-006
8.4717134e-006
-6.8646286e-006
1.0108177e-005
-1.117088e-005
1.2771711e-005
-1.8141377e-005
1.6735184e-005
-2.6927984e-005
-3.3409242e-005
2.1281398e-005
5.051375e-006
-3.5806976e-007
5.1069838e-006
-3.7125776e-007
5.1503029e-006
-2.9354839e-007
5.18967e-006
-2.7348969e-007
5.2208932e-006
-2.2031459e-007
5.249773e-006
-2.0961865e-007
5.274493e-006
-1.8204175e-007
5.2984987e-006
-1.8021162e-007
5.3230374e-006
-1.8602187e-007
5.3506688e-006
-2.1177626e-007
5.384088e-006
-2.5761485e-007
5.426852e-006
-3.3137148e-007
5.4835137e-006
-4.4127786e-007
5.5603805e-006
-6.0187256e-007
5.6661824e-006
-8.341624e-007
5.8133188e-006
-1.1701683e-006
6.0193591e-006
-1.6592546e-006
6.3109991e-006
-2.387662e-006
6.7247848e-006
-3.460487e-006
7.3212615e-006
-5.1472385e-006
8.2031592e-006
-7.7465262e-006
9.6689552e-006
-1.2636677e-005
1.2001157e-005
-2.0473579e-005
1.5463262e-005
-3.0390089e-005
-3.6844486e-005
1.8898505e-005
5.050512e-006
-4.0730142e-007
5.1076665e-006
-4.2841228e-007
5.1519053e-006
-3.377872e-007
5.1915136e-006
-3.130979e-007
5.2225192e-006
-2.5132018e-007
5.2508303e-006
-2.3792974e-007
5.274849e-006
-2.0606046e-007
5.2979359e-006
-2.0329851e-007
5.3213934e-006
-2.094793e-007
5.347657e-006
-2.3803995e-007
5.3792971e-006
-2.8925484e-007
5.4196697e-006
-3.7174412e-007
5.4730224e-006
-4.9463051e-007
5.5451753e-006
-6.7402547e-007
5.6441081e-006
-9.3309517e-007
5.7810136e-006
-1.3070738e-006
5.971355e-006
-1.849596e-006
6.2380814e-006
-2.6543883e-006
6.611088e-006
-3.8334936e-006
7.1380705e-006
-5.6742211e-006
7.8953881e-006
-8.5038438e-006
9.141622e-006
-1.3882911e-005
1.1045692e-005
-2.2377649e-005
1.4013857e-005
-3.3358254e-005
-3.9021522e-005
1.6190893e-005
5.0495516e-006
-4.5557268e-007
5.1088556e-006
-4.8771629e-007
5.1536732e-006
-3.826047e-007
5.1938708e-006
-3.5329549e-007
5.2243697e-006
-2.8181905e-007
5.2520994e-006
-2.6565944e-007
5.2752991e-006
-2.2926011e-007
5.297337e-006
-2.2533646e-007
5.3195728e-006
-2.3171509e-007
5.3443038e-006
-2.6277085e-007
5.3739501e-006
-3.1890118e-007
5.4116429e-006
-4.0943685e-007
5.4613054e-006
-5.44293e-007
5.5282205e-006
-7.4094063e-007
5.6195445e-006
-1.0244192e-006
5.7451697e-006
-1.432699e-006
5.918365e-006
-2.0227913e-006
6.1581007e-006
-2.894124e-006
6.4865377e-006
-4.1619306e-006
6.9377684e-006
-6.1254517e-006
7.5544248e-006
-9.1205003e-006
8.5287587e-006
-1.4857244e-005
9.9230444e-006
-2.3771935e-005
1.2355863e-005
-3.5791073e-005
-3.9714237e-005
1.3048578e-005
5.0489219e-006
-5.0321423e-007
5.1103241e-006
-5.4911843e-007
5.1559984e-006
-4.2827901e-007
5.1965611e-006
-3.9385812e-007
5.226678e-006
-3.1193592e-007
5.2535291e-006
-2.9251051e-007
5.2759294e-006
-2.5166048e-007
5.2967109e-006
-2.4611793e-007
5.3176209e-006
-2.5262508e-007
5.3406452e-006
-2.8579513e-007
5.3681097e-006
-3.4636567e-007
5.4028601e-006
-4.4418721e-007
5.4484925e-006
-5.8992539e-007
5.5097136e-006
-8.0216165e-007
5.592804e-006
-1.1075096e-006
5.7062726e-006
-1.5461676e-006
5.8611803e-006
-2.177699e-006
6.0720207e-006
-3.1049644e-006
6.3541981e-006
-4.4441079e-006
6.7260924e-006
-6.4973461e-006
7.1997037e-006
-9.5941116e-006
7.8573603e-006
-1.5514901e-005
8.6781939e-006
-2.4592768e-005
1.0152101e-005
-3.726498e-005
8.9339664e-006
-3.8496103e-005
2.78916e-005
-3.1979839e-006
2.9141708e-005
-1.2501077e-006
2.9371312e-005
-2.2960443e-007
2.9328311e-005
4.3001581e-008
2.9296864e-005
3.1446616e-008
2.9288626e-005
8.2374188e-009
2.9287424e-005
1.2021072e-009
2.9286597e-005
8.273335e-010
2.9286148e-005
4.485068e-010
2.9285959e-005
1.8904886e-010
2.9285904e-005
5.5684619e-011
2.9285889e-005
1.5125662e-011
2.9285883e-005
5.3673821e-012
2.9285881e-005
1.6673447e-012
2.9285881e-005
6.5921008e-013
2.9285881e-005
1.8460016e-013
2.9285881e-005
4.3482621e-014
2.928588e-005
4.5087448e-014
2.928588e-005
4.1382157e-014
2.928588e-005
9.671363e-015
2.928588e-005
1.2330767e-013
2.928588e-005
4.3680941e-013
2.9285879e-005
4.9232417e-013
2.9285877e-005
2.2488873e-012
2.55186e-012
2.7986541e-005
-6.3692997e-006
2.9301904e-005
-2.5654697e-006
2.9491589e-005
-4.1928971e-007
2.9455941e-005
7.8649334e-008
2.941784e-005
6.9547952e-008
2.9410826e-005
1.5251389e-008
2.9409252e-005
2.7758422e-009
2.9408761e-005
1.3186252e-009
2.9408298e-005
9.1131347e-010
2.9408136e-005
3.5106099e-010
2.9408083e-005
1.0819405e-010
2.940807e-005
2.8981626e-011
2.9408065e-005
9.4274463e-012
2.9408064e-005
3.3511131e-012
2.9408063e-005
1.0927239e-012
2.9408063e-005
2.7961918e-013
2.9408063e-005
1.2363456e-013
2.9408063e-005
1.1501311e-013
2.9408063e-005
2.3681922e-014
2.9408063e-005
3.2268206e-014
2.9408063e-005
2.3592446e-013
2.9408063e-005
6.9145793e-013
2.9408062e-005
1.3421425e-012
2.9408058e-005
6.6388382e-012
7.0466195e-012
2.7898202e-005
-9.5113556e-006
2.9168822e-005
-3.8360897e-006
2.9345423e-005
-5.9589003e-007
2.930971e-005
1.1436198e-007
2.9272339e-005
1.0691855e-007
2.9265439e-005
2.2151429e-008
2.9264094e-005
4.121211e-009
2.9263828e-005
1.5845525e-009
2.9263461e-005
1.2780683e-009
2.9263332e-005
4.7993797e-010
2.9263291e-005
1.498279e-010
2.9263281e-005
3.8754407e-011
2.9263278e-005
1.2163593e-011
2.9263277e-005
4.5885676e-012
2.9263277e-005
1.3039672e-012
2.9263276e-005
3.1101361e-013
2.9263276e-005
2.0764461e-013
2.9263276e-005
1.2032639e-013
2.9263276e-005
-4.5851093e-014
2.9263276e-005
7.4193496e-014
2.9263276e-005
2.7934885e-013
2.9263276e-005
7.1348443e-013
2.9263276e-005
2.2655397e-012
2.9263269e-005
1.3095373e-011
1.3307999e-011
2.7072435e-005
-1.2298546e-005
2.8142118e-005
-4.9057728e-006
2.829585e-005
-7.4962179e-007
2.8276358e-005
1.3385449e-007
2.8249141e-005
1.3413485e-007
2.8243969e-005
2.7323427e-008
2.8242855e-005
5.2349015e-009
2.8242845e-005
1.5952019e-009
2.8242631e-005
1.4922304e-009
2.8242563e-005
5.4707801e-010
2.824254e-005
1.7320227e-010
2.8242536e-005
4.2612552e-011
2.8242535e-005
1.2987336e-011
2.8242535e-005
5.1704023e-012
2.8242535e-005
1.3106171e-012
2.8242535e-005
3.2333916e-013
2.8242535e-005
1.270323e-013
2.8242535e-005
-6.6318352e-014
2.8242535e-005
-4.7032325e-014
2.8242535e-005
2.3625852e-013
2.8242535e-005
3.789994e-013
2.8242535e-005
7.1183664e-013
2.8242534e-005
2.8212017e-012
2.8242529e-005
1.8730453e-011
1.8845602e-011
2.5091358e-005
-1.4242255e-005
2.5716868e-005
-5.5312837e-006
2.5819132e-005
-8.5188548e-007
2.5829637e-005
1.2334969e-007
2.5822519e-005
1.4125234e-007
2.5821037e-005
2.8805831e-008
2.5820274e-005
5.9974045e-009
2.5820504e-005
1.3651825e-009
2.5820483e-005
1.5131545e-009
2.5820502e-005
5.287944e-010
2.5820503e-005
1.7240813e-010
2.5820506e-005
3.9425404e-011
2.5820507e-005
1.1625545e-011
2.5820507e-005
4.9774208e-012
2.5820507e-005
1.1227614e-012
2.5820507e-005
2.3617998e-013
2.5820508e-005
-1.7965932e-013
2.5820508e-005
-2.1755645e-013
2.5820508e-005
1.2600115e-013
2.5820508e-005
3.6648418e-013
2.5820507e-005
5.1273865e-013
2.5820507e-005
8.5128254e-013
2.5820508e-005
2.691173e-012
2.5820506e-005
2.0131915e-011
2.058017e-011
2.1876966e-005
-1.4837822e-005
2.1811339e-005
-5.4656572e-006
2.1810807e-005
-8.513527e-007
2.1850682e-005
8.3474027e-008
2.1866512e-005
1.2542287e-007
2.18699e-005
2.5417608e-008
2.1869804e-005
6.0935986e-009
2.187023e-005
9.3864063e-010
2.1870405e-005
1.3386193e-009
2.1870511e-005
4.2263499e-010
2.1870537e-005
1.4671234e-010
2.1870546e-005
2.9695945e-011
2.187055e-005
8.4153541e-012
2.1870551e-005
3.8528275e-012
2.1870551e-005
7.0422097e-013
2.1870551e-005
8.8847285e-014
2.1870551e-005
-2.8944434e-013
2.1870551e-005
-1.439393e-013
2.1870551e-005
1.1503793e-013
2.1870551e-005
2.1075614e-013
2.1870551e-005
6.0267317e-013
2.1870551e-005
1.0836982e-012
2.1870552e-005
2.0556151e-012
2.1870556e-005
1.6155704e-011
1.7133383e-011
1.7742827e-005
-1.3682144e-005
1.6836403e-005
-4.5592336e-006
1.6700317e-005
-7.1526633e-007
1.6751761e-005
3.2030066e-008
1.6784959e-005
9.2224973e-008
1.6792383e-005
1.7993561e-008
1.6793267e-005
5.2087506e-009
1.6793774e-005
4.3148854e-010
1.6794105e-005
1.0077322e-009
1.6794268e-005
2.5999986e-010
1.6794311e-005
1.0338033e-010
1.6794325e-005
1.6246067e-011
1.6794329e-005
4.4309973e-012
1.679433e-005
2.1291422e-012
1.6794331e-005
1.7297415e-013
1.6794331e-005
-1.9782442e-014
1.6794331e-005
-1.3669873e-013
1.6794331e-005
-2.9575073e-014
1.6794331e-005
-4.7815394e-014
1.6794331e-005
5.1793296e-014
1.6794331e-005
5.7919275e-013
1.6794331e-005
1.1646608e-012
1.6794332e-005
1.291034e-012
1.6794339e-005
8.722163e-012
9.9856054e-012
1.3102057e-005
-1.0593308e-005
1.1497617e-005
-2.9547929e-006
1.1243661e-005
-4.6131082e-007
1.1278721e-005
-3.0297061e-009
1.131879e-005
5.2156179e-008
1.1327614e-005
9.1696959e-009
1.1329375e-005
3.4475916e-009
1.1329767e-005
3.9346183e-011
1.133018e-005
5.946009e-010
1.1330337e-005
1.0283585e-010
1.1330385e-005
5.5659458e-011
1.1330397e-005
4.2932123e-012
1.13304e-005
1.2193712e-012
1.1330401e-005
6.5270496e-013
1.1330402e-005
-1.7646321e-013
1.1330402e-005
-7.6406934e-014
1.1330402e-005
-5.3911132e-014
1.1330402e-005
9.9003792e-015
1.1330402e-005
-3.7698102e-014
1.1330402e-005
5.1852138e-014
1.1330402e-005
4.0127942e-013
1.1330402e-005
9.3447866e-013
1.1330403e-005
7.1054619e-013
1.1330409e-005
2.2192904e-012
3.2785871e-012
8.2291627e-006
-5.7738924e-006
6.424375e-006
-1.1500051e-006
6.1244413e-006
-1.6137721e-007
6.1330725e-006
-1.1660885e-008
6.1671904e-006
1.8038266e-008
6.1742177e-006
2.1423576e-009
6.1762138e-006
1.4514495e-009
6.1763525e-006
-9.941413e-011
6.1767323e-006
2.1481945e-010
6.1768234e-006
1.1705402e-011
6.1768614e-006
1.7603816e-011
6.1768667e-006
-9.8837001e-013
6.176868e-006
-9.3070881e-014
6.1768687e-006
-3.0696597e-014
6.1768686e-006
-1.7251443e-013
6.1768686e-006
-5.3693682e-014
6.1768685e-006
-2.2240971e-014
6.1768685e-006
-2.8248754e-016
6.1768684e-006
-1.2217996e-014
6.1768685e-006
1.7959513e-014
6.1768688e-006
1.2931973e-013
6.1768694e-006
4.0004096e-013
6.1768699e-006
3.1477567e-013
6.1768723e-006
-1.9422955e-013
2.7779308e-013
3.1600737e-006
2.0100686e-006
1.8486913e-006
1.8370304e-006
1.8550686e-006
1.857211e-006
1.8586624e-006
1.858563e-006
1.8587778e-006
1.8587895e-006
1.8588071e-006
1.8588061e-006
1.858806e-006
1.8588059e-006
1.8588058e-006
1.8588057e-006
1.8588056e-006
1.8588056e-006
1.8588056e-006
1.8588057e-006
1.8588058e-006
1.8588063e-006
1.8588066e-006
1.8588064e-006
1.515486e-005
-6.5423294e-007
1.5335191e-005
-7.2944928e-007
1.5490418e-005
-5.8350638e-007
1.5603895e-005
-5.0733527e-007
1.5700174e-005
-4.082147e-007
1.5769782e-005
-3.6211889e-007
1.5833112e-005
-3.1499032e-007
1.5886644e-005
-2.9964952e-007
1.5940635e-005
-3.0661573e-007
1.5998428e-005
-3.4358882e-007
1.606672e-005
-4.1465717e-007
1.6151893e-005
-5.2936001e-007
1.626273e-005
-7.0076243e-007
1.6409818e-005
-9.4924959e-007
1.6606481e-005
-1.3041732e-006
1.6869359e-005
-1.8090451e-006
1.7218656e-005
-2.5269964e-006
1.7670291e-005
-3.5565994e-006
1.8244683e-005
-5.0184992e-006
1.8888494e-005
-7.1411576e-006
1.9562362e-005
-1.0267979e-005
1.9715712e-005
-1.5668251e-005
1.8852115e-005
-2.3729171e-005
1.4694128e-005
-3.3106994e-005
-2.3801975e-005
1.5166024e-005
-8.1641645e-007
1.5370738e-005
-9.3416248e-007
1.5532438e-005
-7.4520687e-007
1.5646161e-005
-6.2105827e-007
1.5733501e-005
-4.9555438e-007
1.5793365e-005
-4.2198303e-007
1.5842515e-005
-3.6413986e-007
1.5882121e-005
-3.3925596e-007
1.5919039e-005
-3.4353405e-007
1.5956843e-005
-3.8139205e-007
1.5999759e-005
-4.5757395e-007
1.6051687e-005
-5.8128716e-007
1.6117446e-005
-7.6652196e-007
1.6201991e-005
-1.0337947e-006
1.6310546e-005
-1.412728e-006
1.6447619e-005
-1.9461179e-006
1.6614879e-005
-2.6942568e-006
1.6803213e-005
-3.7449327e-006
1.6991521e-005
-5.2068082e-006
1.7095079e-005
-7.2447151e-006
1.6949234e-005
-1.0122134e-005
1.5899043e-005
-1.461806e-005
1.3072402e-005
-2.090253e-005
6.5794876e-006
-2.6614079e-005
-1.7222487e-005
1.5198381e-005
-1.0109566e-006
1.5425522e-005
-1.1613033e-006
1.5594936e-005
-9.1462113e-007
1.5700954e-005
-7.2707595e-007
1.5774951e-005
-5.6955173e-007
1.5820212e-005
-4.672441e-007
1.5852405e-005
-3.9633262e-007
1.5874911e-005
-3.6176218e-007
1.5892604e-005
-3.6122685e-007
1.5907988e-005
-3.9677573e-007
1.5923166e-005
-4.7275162e-007
1.5939271e-005
-5.9739261e-007
1.5957088e-005
-7.8433901e-007
1.5976174e-005
-1.0528807e-006
1.5994381e-005
-1.4309349e-006
1.6005925e-005
-1.9576622e-006
1.5997957e-005
-2.6862881e-006
1.5942456e-005
-3.6894325e-006
1.5790835e-005
-5.0551867e-006
1.5441008e-005
-6.8948883e-006
1.4701646e-005
-9.3827724e-006
1.3019015e-005
-1.2935428e-005
9.6220685e-006
-1.7505583e-005
3.7225759e-006
-2.0714587e-005
-1.3499912e-005
1.5246207e-005
-1.2533222e-006
1.5504176e-005
-1.4192724e-006
1.5675775e-005
-1.0862203e-006
1.5768119e-005
-8.1942038e-007
1.5821655e-005
-6.23087e-007
1.5847303e-005
-4.9289196e-007
1.5859172e-005
-4.0820228e-007
1.5862039e-005
-3.6462906e-007
1.5858976e-005
-3.5816401e-007
1.5850891e-005
-3.8869068e-007
1.5837655e-005
-4.5951555e-007
1.5817694e-005
-5.7743183e-007
1.5787859e-005
-7.5450341e-007
1.5743051e-005
-1.0080725e-006
1.5674925e-005
-1.362809e-006
1.5569539e-005
-1.8522761e-006
1.5403742e-005
-2.5204918e-006
1.5138276e-005
-3.4239656e-006
1.4710956e-005
-4.6278669e-006
1.4018231e-005
-6.2021635e-006
1.2886137e-005
-8.2506781e-006
1.0934588e-005
-1.098388e-005
7.6651001e-006
-1.4236095e-005
2.9022801e-006
-1.5951767e-005
-1.0597631e-005
1.5341301e-005
-1.5907825e-006
1.5654265e-005
-1.7322357e-006
1.5819577e-005
-1.2515324e-006
1.5886883e-005
-8.8672688e-007
1.5910382e-005
-6.465859e-007
1.5909991e-005
-4.9250081e-007
1.589821e-005
-3.9642085e-007
1.5879492e-005
-3.459115e-007
1.5854971e-005
-3.3364252e-007
1.5823553e-005
-3.5727295e-007
1.5782721e-005
-4.1868412e-007
1.57283e-005
-5.2301079e-007
1.5653875e-005
-6.800778e-007
1.5550327e-005
-9.0452442e-007
1.5404236e-005
-1.2167179e-006
1.51958e-005
-1.6438406e-006
1.4895313e-005
-2.2200044e-006
1.4458161e-005
-2.9868134e-006
1.3819002e-005
-3.9887087e-006
1.2882285e-005
-5.2654466e-006
1.1504599e-005
-6.8729914e-006
9.4405121e-006
-8.9197934e-006
6.4156143e-006
-1.1211197e-005
2.5662218e-006
-1.2102374e-005
-8.0314096e-006
1.5616674e-005
-2.2036154e-006
1.6029537e-005
-2.1450986e-006
1.6167186e-005
-1.3891814e-006
1.61843e-005
-9.038414e-007
1.6163173e-005
-6.254587e-007
1.6128844e-005
-4.5817162e-007
1.6090035e-005
-3.5761162e-007
1.6048365e-005
-3.0424195e-007
1.6002304e-005
-2.8758092e-007
1.5948449e-005
-3.0341832e-007
1.5881754e-005
-3.5198882e-007
1.5795516e-005
-4.3677355e-007
1.5680655e-005
-5.6521628e-007
1.5524628e-005
-7.4849776e-007
1.5310068e-005
-1.0021578e-006
1.5013059e-005
-1.3468316e-006
1.4599956e-005
-1.8069013e-006
1.4024122e-005
-2.4109788e-006
1.3222228e-005
-3.1868156e-006
1.2110609e-005
-4.1538275e-006
1.0576638e-005
-5.3390203e-006
8.4588556e-006
-6.8020108e-006
5.6174355e-006
-8.3697771e-006
2.3081852e-006
-8.7931238e-006
-5.7232244e-006
1.6202723e-005
-3.4024975e-006
1.6685186e-005
-2.6275615e-006
1.6725396e-005
-1.4293909e-006
1.6650695e-005
-8.2914118e-007
1.6566416e-005
-5.4117952e-007
1.6490347e-005
-3.8210195e-007
1.6421951e-005
-2.8921641e-007
1.6356996e-005
-2.3928678e-007
1.629029e-005
-2.2087485e-007
1.6215761e-005
-2.2888885e-007
1.6125767e-005
-2.6199541e-007
1.6011441e-005
-3.2244692e-007
1.5861248e-005
-4.1502376e-007
1.5660003e-005
-5.472528e-007
1.5387371e-005
-7.2952515e-007
1.5016272e-005
-9.7573262e-007
1.4511019e-005
-1.3016484e-006
1.382474e-005
-1.7247002e-006
1.2897956e-005
-2.2600313e-006
1.165889e-005
-2.9147617e-006
1.0019647e-005
-3.6997773e-006
7.8649118e-006
-4.6472756e-006
5.1183881e-006
-5.6232533e-006
2.08691e-006
-5.7616457e-006
-3.6363144e-006
1.6692482e-005
-5.0911387e-006
1.6851796e-005
-2.7868749e-006
1.6630657e-005
-1.2082527e-006
1.6414623e-005
-6.1310722e-007
1.6253109e-005
-3.7966495e-007
1.6131918e-005
-2.6091083e-007
1.6035135e-005
-1.924336e-007
1.5950219e-005
-1.5437044e-007
1.5867617e-005
-1.3827334e-007
1.5778568e-005
-1.3983929e-007
1.56736e-005
-1.5702761e-007
1.5542124e-005
-1.909715e-007
1.5371048e-005
-2.4394741e-007
1.5143882e-005
-3.2008703e-007
1.4839192e-005
-4.2483485e-007
1.4428904e-005
-5.654445e-007
1.387778e-005
-7.5052461e-007
1.3141416e-005
-9.8833601e-007
1.2166425e-005
-1.2850404e-006
1.0893166e-005
-1.6415029e-006
9.2535652e-006
-2.0601763e-006
7.161099e-006
-2.5548094e-006
4.5718436e-006
-3.0339978e-006
1.8146003e-006
-3.0044023e-006
-1.821714e-006
1.547047e-005
-5.5577674e-006
1.4517312e-005
-1.8337174e-006
1.3867277e-005
-5.5821764e-007
1.3518251e-005
-2.6408073e-007
1.3300279e-005
-1.616933e-007
1.3150749e-005
-1.1138116e-007
1.3039472e-005
-8.1156439e-008
1.2948163e-005
-6.3061338e-008
1.2864445e-005
-5.4554968e-008
1.2778111e-005
-5.3505214e-008
1.2679664e-005
-5.858057e-008
1.2558726e-005
-7.0034317e-008
1.2403316e-005
-8.853729e-008
1.2198602e-005
-1.153724e-007
1.1926031e-005
-1.522639e-007
1.1562084e-005
-2.0149734e-007
1.1077393e-005
-2.6583434e-007
1.0436453e-005
-3.4739578e-007
9.5987137e-006
-4.4730101e-007
8.521685e-006
-5.6447417e-007
7.1593004e-006
-6.9779159e-007
5.4541302e-006
-8.4963921e-007
3.3914255e-006
-9.7129305e-007
1.2776315e-006
-8.9060823e-007
-5.4408244e-007
9.4460736e-006
7.6123562e-006
7.0541386e-006
6.7900578e-006
6.6283646e-006
6.5169834e-006
6.435827e-006
6.3727656e-006
6.3182107e-006
6.2647055e-006
6.2061249e-006
6.1360906e-006
6.0475533e-006
5.9321809e-006
5.779917e-006
5.5784197e-006
5.3125853e-006
4.9651895e-006
4.5178885e-006
3.9534144e-006
3.2556228e-006
2.4059836e-006
1.4346906e-006
5.4408244e-007
)
;

boundaryField
{
    inlet
    {
        type            calculated;
        value           nonuniform List<scalar> 
20
(
-5.0012803e-006
-5.0012803e-006
-5.0012803e-006
-5.0012803e-006
-5.0012803e-006
-5.0012803e-006
-5.0012803e-006
-5.0012803e-006
-5.0012803e-006
-5.0012803e-006
-1.5003841e-005
-1.5003841e-005
-1.5003841e-005
-1.5003841e-005
-1.5003841e-005
-1.5003841e-005
-1.5003841e-005
-1.5003841e-005
-1.5003841e-005
-1.5003841e-005
)
;
    }
    walls
    {
        type            calculated;
        value           uniform 0;
    }
    outlet
    {
        type            calculated;
        value           nonuniform List<scalar> 10(2.9285874e-005 2.9408053e-005 2.9263263e-005 2.8242523e-005 2.5820505e-005 2.1870559e-005 1.6794347e-005 1.1330416e-005 6.1768754e-006 1.8588067e-006);
    }
    centreline
    {
        type            symmetryPlane;
        value           uniform 0;
    }
    frontAndBack
    {
        type            empty;
        value           nonuniform 0();
    }
}


// ************************************************************************* //
