/*--------------------------------*- C++ -*----------------------------------*\
| =========                 |                                                 |
| \\      /  F ield         | OpenFOAM: The Open Source CFD Toolbox           |
|  \\    /   O peration     | Version:  5.x                                   |
|   \\  /    A nd           | Web:      www.OpenFOAM.org                      |
|    \\/     M anipulation  |                                                 |
\*---------------------------------------------------------------------------*/
/*   Windows 32 and 64 bit porting by blueCAPE: http://www.bluecape.com.pt   *\
|  Based on Windows porting (2.0.x v4) by Symscape: http://www.symscape.com   |
\*---------------------------------------------------------------------------*/
FoamFile
{
    version     2.0;
    format      ascii;
    class       volSymmTensorField;
    location    "0.05";
    object      sigma;
}
// * * * * * * * * * * * * * * * * * * * * * * * * * * * * * * * * * * * * * //

dimensions      [0 2 -2 0 0 0 0];

internalField   nonuniform List<symmTensor> 
750
(
(-1.5290602e-005 8.760727e-006 0 5.9128551e-005 0 0)
(-0.00018032997 -1.6262895e-006 0 0.00010372688 0 0)
(2.6650641e-005 -1.8638701e-006 0 2.4293664e-005 0 0)
(-0.00010716219 1.2416976e-006 0 7.6219711e-005 0 0)
(-2.1983795e-005 -1.7246471e-006 0 3.7500749e-005 0 0)
(-6.0884567e-005 5.2946143e-007 0 5.3241108e-005 0 0)
(-4.1328979e-005 -2.5212156e-007 0 4.4662219e-005 0 0)
(-5.2419113e-005 7.0069665e-007 0 5.0931598e-005 0 0)
(-5.5948217e-005 1.0640447e-006 0 5.6444408e-005 0 0)
(-6.9333811e-005 1.9152789e-006 0 6.9016582e-005 0 0)
(-8.8687804e-005 2.916876e-006 0 8.8581997e-005 0 0)
(-0.000115665 4.2217212e-006 0 0.00011533626 0 0)
(-0.00015793587 6.181383e-006 0 0.00015738453 0 0)
(-0.00021618042 8.8573943e-006 0 0.00021513819 0 0)
(-0.00030062951 1.277498e-005 0 0.00029860712 0 0)
(-0.00042111604 1.8473234e-005 0 0.00041708404 0 0)
(-0.00060056424 2.7533623e-005 0 0.00059306272 0 0)
(-0.00085515948 4.0070608e-005 0 0.00083729114 0 0)
(-0.0012646254 6.3394278e-005 0 0.001235187 0 0)
(-0.0018616136 9.4106523e-005 0 0.0017734733 0 0)
(-0.0028439772 0.00016087522 0 0.0027102837 0 0)
(-0.0044686263 0.00024238363 0 0.0039898843 0 0)
(-0.0069922957 0.00035510179 0 0.0062185991 0 0)
(-0.01064833 0.00037483209 0 0.0084201741 0 0)
(-0.012866578 -0.00029224459 0 0.010446999 0 0)
(-1.4018266e-005 2.3005722e-005 0 6.8377615e-005 0 0)
(-0.0001820108 -4.2926099e-006 0 8.648064e-005 0 0)
(2.6921117e-005 -4.2559475e-006 0 3.986213e-005 0 0)
(-0.00010700068 2.3500054e-006 0 6.6943502e-005 0 0)
(-2.2193066e-005 -4.1722496e-006 0 4.3228187e-005 0 0)
(-6.0515713e-005 1.0604382e-006 0 5.0473177e-005 0 0)
(-4.1254587e-005 -4.0269808e-007 0 4.5672178e-005 0 0)
(-5.2094362e-005 2.0968886e-006 0 5.0091094e-005 0 0)
(-5.5634147e-005 3.3673341e-006 0 5.6274678e-005 0 0)
(-6.8885026e-005 5.8376806e-006 0 6.8441994e-005 0 0)
(-8.8058161e-005 8.8659886e-006 0 8.7912851e-005 0 0)
(-0.00011482449 1.2757402e-005 0 0.00011440124 0 0)
(-0.00015680441 1.8616835e-005 0 0.00015612744 0 0)
(-0.00021454042 2.6596351e-005 0 0.00021332539 0 0)
(-0.00029820032 3.825932e-005 0 0.00029591529 0 0)
(-0.00041738321 5.5239163e-005 0 0.00041296656 0 0)
(-0.00059539289 8.2064804e-005 0 0.00058736616 0 0)
(-0.00084504686 0.00011914483 0 0.00082592345 0 0)
(-0.0012529773 0.0001899599 0 0.0012233836 0 0)
(-0.0018425601 0.00027877002 0 0.0017453443 0 0)
(-0.0028067967 0.00048243231 0 0.0026806197 0 0)
(-0.0044266632 0.00073073392 0 0.0039079707 0 0)
(-0.0069965427 0.001030054 0 0.0062481665 0 0)
(-0.010879369 0.0011569991 0 0.0084811794 0 0)
(-0.013478515 -0.00067903878 0 0.010985906 0 0)
(-1.2521224e-005 3.3944887e-005 0 7.1262648e-005 0 0)
(-0.00018446166 -6.6179051e-006 0 8.0733629e-005 0 0)
(2.7671971e-005 -5.819737e-006 0 4.4764756e-005 0 0)
(-0.00010716597 2.5136779e-006 0 6.3533964e-005 0 0)
(-2.2355676e-005 -5.9273831e-006 0 4.4907994e-005 0 0)
(-5.9926971e-005 1.22251e-006 0 4.9083003e-005 0 0)
(-4.1043219e-005 -3.1546639e-007 0 4.578782e-005 0 0)
(-5.1479879e-005 3.4338075e-006 0 4.9361229e-005 0 0)
(-5.4996077e-005 5.7438724e-006 0 5.5701614e-005 0 0)
(-6.8007298e-005 9.765231e-006 0 6.7566232e-005 0 0)
(-8.6813537e-005 1.4811041e-005 0 8.6709222e-005 0 0)
(-0.00011322596 2.127833e-005 0 0.00011283717 0 0)
(-0.00015457449 3.0997115e-005 0 0.0001539524 0 0)
(-0.00021126527 4.4190068e-005 0 0.00021013437 0 0)
(-0.00029341578 6.3480139e-005 0 0.00029125217 0 0)
(-0.00041016596 9.1579771e-005 0 0.00040593795 0 0)
(-0.00058454813 0.00013570623 0 0.00057684021 0 0)
(-0.00082748797 0.00019762372 0 0.0008087534 0 0)
(-0.0012260322 0.00031259324 0 0.0011977499 0 0)
(-0.0017992421 0.00046450424 0 0.001702031 0 0)
(-0.0027309529 0.00078592711 0 0.0026112557 0 0)
(-0.0043392509 0.0012012537 0 0.003807369 0 0)
(-0.0069641502 0.0017553014 0 0.0062079151 0 0)
(-0.011273367 0.0020881956 0 0.0086245294 0 0)
(-0.014327454 -0.00079517548 0 0.011508991 0 0)
(-1.0925062e-005 4.5041739e-005 0 7.0228703e-005 0 0)
(-0.00018741646 -8.8236864e-006 0 8.2677604e-005 0 0)
(2.8773358e-005 -7.6068081e-006 0 4.3543186e-005 0 0)
(-0.00010749279 2.7687695e-006 0 6.4081391e-005 0 0)
(-2.2512366e-005 -7.8057911e-006 0 4.447852e-005 0 0)
(-5.911751e-005 1.3278383e-006 0 4.8607146e-005 0 0)
(-4.0685016e-005 -2.9803246e-007 0 4.5218843e-005 0 0)
(-5.0581396e-005 4.6555374e-006 0 4.8573403e-005 0 0)
(-5.4038183e-005 8.005547e-006 0 5.46989e-005 0 0)
(-6.6668839e-005 1.3534532e-005 0 6.6249447e-005 0 0)
(-8.5073142e-005 2.0599656e-005 0 8.4961135e-005 0 0)
(-0.00011082785 2.9566361e-005 0 0.00011044071 0 0)
(-0.00015113861 4.3045452e-005 0 0.00015051963 0 0)
(-0.0002063879 6.1345644e-005 0 0.00020525664 0 0)
(-0.00028629174 8.8078355e-005 0 0.00028413441 0 0)
(-0.00039954795 0.00012700444 0 0.00039531984 0 0)
(-0.00056803909 0.0001877861 0 0.00056036843 0 0)
(-0.00080257099 0.00027380057 0 0.00078395891 0 0)
(-0.0011827893 0.00043463788 0 0.0011545299 0 0)
(-0.0017300071 0.00063981621 0 0.0016351288 0 0)
(-0.002613197 0.0011025161 0 0.0024935217 0 0)
(-0.0041875256 0.0016981723 0 0.0036526884 0 0)
(-0.0068690859 0.002544854 0 0.0060765058 0 0)
(-0.011706218 0.0032559579 0 0.0087529235 0 0)
(-0.015201378 -0.00038105893 0 0.011993966 0 0)
(-8.9546847e-006 5.7635854e-005 0 6.8105221e-005 0 0)
(-0.00019109535 -1.0766588e-005 0 8.6799748e-005 0 0)
(3.0101517e-005 -9.7624298e-006 0 4.1464517e-005 0 0)
(-0.00010789135 3.3270253e-006 0 6.5516037e-005 0 0)
(-2.2730605e-005 -9.9238538e-006 0 4.3899121e-005 0 0)
(-5.8060591e-005 1.419006e-006 0 4.8117925e-005 0 0)
(-4.0180504e-005 -3.2720299e-007 0 4.4417424e-005 0 0)
(-4.9402083e-005 5.8288839e-006 0 4.7538097e-005 0 0)
(-5.2763901e-005 1.0198827e-005 0 5.3365594e-005 0 0)
(-6.4897726e-005 1.7204928e-005 0 6.4505323e-005 0 0)
(-8.276686e-005 2.6234328e-005 0 8.2646394e-005 0 0)
(-0.0001076602 3.7643061e-005 0 0.0001072817 0 0)
(-0.00014659609 5.4757233e-005 0 0.00014598527 0 0)
(-0.00019996354 7.8006482e-005 0 0.00019883979 0 0)
(-0.00027689179 0.00011190182 0 0.00027475688 0 0)
(-0.00038558395 0.00016117885 0 0.0003813805 0 0)
(-0.00054622168 0.00023792234 0 0.00053860924 0 0)
(-0.00076960359 0.00034706437 0 0.00075120822 0 0)
(-0.001127896 0.00054599483 0 0.0010994391 0 0)
(-0.0016379949 0.00080832834 0 0.0015453581 0 0)
(-0.0024692292 0.0013854508 0 0.0023461761 0 0)
(-0.0039841152 0.002169123 0 0.0034430881 0 0)
(-0.0066611112 0.003394948 0 0.0058237395 0 0)
(-0.012016744 0.004649619 0 0.0086879235 0 0)
(-0.015615859 0.00056411127 0 0.012200837 0 0)
(-6.1412033e-006 7.2156411e-005 0 6.4963127e-005 0 0)
(-0.00019596391 -1.2340086e-005 0 9.2397974e-005 0 0)
(3.1641276e-005 -1.2382555e-005 0 3.8901902e-005 0 0)
(-0.00010834515 4.2629902e-006 0 6.7259229e-005 0 0)
(-2.3063054e-005 -1.237957e-005 0 4.3280151e-005 0 0)
(-5.6713733e-005 1.5108212e-006 0 4.7383429e-005 0 0)
(-3.9544447e-005 -4.0813209e-007 0 4.3460144e-005 0 0)
(-4.7947363e-005 6.9331228e-006 0 4.623656e-005 0 0)
(-5.1179495e-005 1.2306148e-005 0 5.1723487e-005 0 0)
(-6.2710937e-005 2.0746281e-005 0 6.2349458e-005 0 0)
(-7.9888137e-005 3.1688186e-005 0 7.9772371e-005 0 0)
(-0.00010373516 4.544806e-005 0 0.00010337325 0 0)
(-0.0001410036 6.605463e-005 0 0.00014040829 0 0)
(-0.00019205103 9.4053833e-005 0 0.00019095664 0 0)
(-0.00026530647 0.00013475713 0 0.00026322941 0 0)
(-0.00036838995 0.00019381022 0 0.00036427685 0 0)
(-0.00051950111 0.00028540928 0 0.00051207329 0 0)
(-0.0007292328 0.00041568587 0 0.00071145149 0 0)
(-0.0010601981 0.0006505031 0 0.0010319142 0 0)
(-0.0015267212 0.00096368821 0 0.0014373929 0 0)
(-0.0022830605 0.0016595851 0 0.0021608089 0 0)
(-0.0037300638 0.0026025031 0 0.0031860424 0 0)
(-0.0062799884 0.004299303 0 0.0054052348 0 0)
(-0.012064835 0.006222318 0 0.0083381833 0 0)
(-0.015206128 0.0019458278 0 0.011883587 0 0)
(-1.9836886e-006 8.865548e-005 0 6.0409788e-005 0 0)
(-0.00020250457 -1.3591375e-005 0 9.9797547e-005 0 0)
(3.338285e-005 -1.5549894e-005 0 3.585544e-005 0 0)
(-0.00010885759 5.6099458e-006 0 6.9291398e-005 0 0)
(-2.357252e-005 -1.5247174e-005 0 4.2686173e-005 0 0)
(-5.5029028e-005 1.5947605e-006 0 4.6398194e-005 0 0)
(-3.8787662e-005 -5.5321735e-007 0 4.2328633e-005 0 0)
(-4.6222807e-005 7.9459215e-006 0 4.4693145e-005 0 0)
(-4.9293881e-005 1.4306521e-005 0 4.9771731e-005 0 0)
(-6.0117434e-005 2.4122086e-005 0 5.9792704e-005 0 0)
(-7.648135e-005 3.6911324e-005 0 7.6367036e-005 0 0)
(-9.9103129e-005 5.288748e-005 0 9.8754697e-005 0 0)
(-0.00013444464 7.6791423e-005 0 0.00013386269 0 0)
(-0.00018277167 0.00010925243 0 0.00018170046 0 0)
(-0.00025177891 0.0001562855 0 0.00024974151 0 0)
(-0.00034844168 0.00022434861 0 0.00034438951 0 0)
(-0.0004886202 0.00032933822 0 0.0004812825 0 0)
(-0.00068164591 0.00048003765 0 0.00066430115 0 0)
(-0.00098016731 0.00074626976 0 0.00095194329 0 0)
(-0.0013947559 0.0011071569 0 0.0013083857 0 0)
(-0.0020430615 0.0019227633 0 0.0019209798 0 0)
(-0.0033640316 0.0030557624 0 0.0028170303 0 0)
(-0.0055803304 0.0053449125 0 0.0046680311 0 0)
(-0.011704253 0.00794264 0 0.0075699684 0 0)
(-0.012752094 0.0038083432 0 0.010232923 0 0)
(3.9342344e-006 0.00010699355 0 5.4525223e-005 0 0)
(-0.00021116482 -1.4705151e-005 0 0.00010843697 0 0)
(3.5359291e-005 -1.9417695e-005 0 3.2792925e-005 0 0)
(-0.00010943927 7.3163479e-006 0 7.1298969e-005 0 0)
(-2.4311621e-005 -1.859387e-005 0 4.2072262e-005 0 0)
(-5.2950723e-005 1.6739358e-006 0 4.5148265e-005 0 0)
(-3.7931023e-005 -7.8727952e-007 0 4.1028481e-005 0 0)
(-4.4231969e-005 8.8493464e-006 0 4.2905945e-005 0 0)
(-4.7122489e-005 1.6178295e-005 0 4.7520441e-005 0 0)
(-5.7130473e-005 2.7288479e-005 0 5.6827842e-005 0 0)
(-7.2577344e-005 4.1859495e-005 0 7.2438216e-005 0 0)
(-9.3802989e-005 5.9967701e-005 0 9.3447551e-005 0 0)
(-0.00012686114 8.6913805e-005 0 0.00012626118 0 0)
(-0.00017214541 0.00012358462 0 0.00017103945 0 0)
(-0.00023635541 0.00017646661 0 0.00023427368 0 0)
(-0.00032580081 0.0002527106 0 0.00032169538 0 0)
(-0.00045381745 0.00036965484 0 0.00044642815 0 0)
(-0.00062941714 0.00053670513 0 0.00061235701 0 0)
(-0.00089021185 0.00083044763 0 0.00086233739 0 0)
(-0.0012511918 0.0012284932 0 0.0011680941 0 0)
(-0.001789911 0.0021271024 0 0.0016652379 0 0)
(-0.0029623361 0.0034041702 0 0.0024122007 0 0)
(-0.0047339772 0.0061961511 0 0.0037639569 0 0)
(-0.010946899 0.0091373416 0 0.0065181999 0 0)
(-0.0079923349 0.0061727975 0 0.0063964376 0 0)
(1.1861104e-005 0.00012655986 0 4.972521e-005 0 0)
(-0.00022232563 -1.5913276e-005 0 0.00011322489 0 0)
(3.7560334e-005 -2.4244762e-005 0 3.3050647e-005 0 0)
(-0.00011000756 9.3206214e-006 0 7.0817275e-005 0 0)
(-2.5325962e-005 -2.2438471e-005 0 4.2544289e-005 0 0)
(-5.0442967e-005 1.7066902e-006 0 4.3137063e-005 0 0)
(-3.6996306e-005 -1.1589508e-006 0 3.9796486e-005 0 0)
(-4.1981756e-005 9.5935016e-006 0 4.0785671e-005 0 0)
(-4.4666887e-005 1.7861629e-005 0 4.5004352e-005 0 0)
(-5.379019e-005 3.0213549e-005 0 5.3499055e-005 0 0)
(-6.8142081e-005 4.6434045e-005 0 6.799188e-005 0 0)
(-8.7836339e-005 6.6528886e-005 0 8.7480374e-005 0 0)
(-0.00011841712 9.6294383e-005 0 0.00011780653 0 0)
(-0.00016026923 0.00013685138 0 0.00015915521 0 0)
(-0.00021911147 0.00019505534 0 0.00021703805 0 0)
(-0.00030040788 0.00027869683 0 0.00029632765 0 0)
(-0.00041504077 0.00040639405 0 0.00040774524 0 0)
(-0.00056917477 0.00058856865 0 0.00055226781 0 0)
(-0.00078925407 0.00090424323 0 0.00076198135 0 0)
(-0.001086575 0.0013303813 0 0.0010057986 0 0)
(-0.0014720361 0.002307394 0 0.0013533247 0 0)
(-0.0023470939 0.0037027615 0 0.0017985229 0 0)
(-0.0034645875 0.0069653164 0 0.0025015338 0 0)
(-0.0085475046 0.010307737 0 0.0041882035 0 0)
(-0.0026694838 0.0083679225 0 0.0012891946 0 0)
(2.1847169e-005 0.00014428999 0 5.4479584e-005 0 0)
(-0.00023611964 -1.7413326e-005 0 9.9441449e-005 0 0)
(3.9819647e-005 -2.9842223e-005 0 5.0671594e-005 0 0)
(-0.00011033234 1.1076589e-005 0 6.0983053e-005 0 0)
(-2.6599666e-005 -2.6386542e-005 0 4.7359581e-005 0 0)
(-4.7464397e-005 1.4222021e-006 0 3.9599085e-005 0 0)
(-3.5990903e-005 -1.5628863e-006 0 3.8867852e-005 0 0)
(-3.9471363e-005 1.0118785e-005 0 3.8216166e-005 0 0)
(-4.1929314e-005 1.936314e-005 0 4.2229114e-005 0 0)
(-5.0035488e-005 3.2840579e-005 0 4.9736956e-005 0 0)
(-6.318443e-005 5.0614957e-005 0 6.3041502e-005 0 0)
(-8.124395e-005 7.2584007e-005 0 8.0870895e-005 0 0)
(-0.00010912182 0.00010496898 0 0.00010848834 0 0)
(-0.00014707211 0.00014900543 0 0.00014593028 0 0)
(-0.00019993051 0.00021196442 0 0.00019777487 0 0)
(-0.00027223663 0.00030213074 0 0.00026791053 0 0)
(-0.00037228876 0.00043870792 0 0.00036455033 0 0)
(-0.00050710254 0.00063065253 0 0.00048880598 0 0)
(-0.00069167233 0.00095843259 0 0.00066283339 0 0)
(-0.00092211054 0.0014003239 0 0.00083481866 0 0)
(-0.0011089213 0.0024030578 0 0.001003285 0 0)
(-0.0016899195 0.0037883268 0 0.0011214385 0 0)
(-0.001334537 0.0070948779 0 0.00065004068 0 0)
(-0.0032920781 0.0096618515 0 9.6176235e-005 0 0)
(0.003416076 0.0093078217 0 -0.0057138585 0 0)
(-0.0078720474 -0.00077180797 0 0.0063637187 0 0)
(-0.0028756066 -0.00074386703 0 0.0028167302 0 0)
(-0.00094237594 -0.00055236097 0 0.00081790734 0 0)
(-0.00022768803 -0.00045690113 0 0.00024074669 0 0)
(-7.2529783e-005 -0.0004027074 0 5.6368139e-005 0 0)
(-1.6189963e-005 -0.00039249561 0 1.6264038e-005 0 0)
(-8.2918604e-006 -0.00038963259 0 4.4178439e-006 0 0)
(-3.1649861e-006 -0.0003891604 0 6.1632668e-007 0 0)
(-2.7405006e-006 -0.00038892998 0 -9.5674959e-008 0 0)
(-2.7133484e-006 -0.0003888822 0 -8.1583779e-008 0 0)
(-2.7523769e-006 -0.00038887718 0 -3.9833242e-008 0 0)
(-2.7826248e-006 -0.00038887741 0 -1.6783862e-008 0 0)
(-2.788437e-006 -0.00038887854 0 -7.9143392e-009 0 0)
(-2.7942499e-006 -0.00038887891 0 -3.2471556e-009 0 0)
(-2.7960971e-006 -0.0003888792 0 -1.210841e-009 0 0)
(-2.7968482e-006 -0.00038887914 0 -4.4881338e-010 0 0)
(-2.7971382e-006 -0.00038887916 0 -1.8262032e-010 0 0)
(-2.7972748e-006 -0.00038887932 0 -5.2460155e-011 0 0)
(-2.7973603e-006 -0.0003888793 0 2.9890879e-011 0 0)
(-2.7974968e-006 -0.00038887917 0 1.3166646e-010 0 0)
(-2.7977908e-006 -0.00038887921 0 4.2933519e-010 0 0)
(-2.798814e-006 -0.00038887872 0 1.1504851e-009 0 0)
(-2.7983308e-006 -0.00038887751 0 3.8709818e-009 0 0)
(-2.8095969e-006 -0.00038887824 0 1.6330985e-008 0 0)
(-2.8134906e-006 -0.00038887508 0 1.4552203e-008 0 0)
(-0.007928501 -0.002128803 0 0.0062402158 0 0)
(-0.0030461079 -0.0019343188 0 0.002934723 0 0)
(-0.00092569979 -0.001364003 0 0.00072537702 0 0)
(-0.00021109154 -0.0010802961 0 0.0002100197 0 0)
(-7.0840462e-005 -0.00092983013 0 3.4384911e-005 0 0)
(-2.6085686e-005 -0.00089998187 0 1.3570759e-005 0 0)
(-2.0665755e-005 -0.00089235506 0 3.229316e-006 0 0)
(-1.6101423e-005 -0.00089078866 0 5.3794139e-007 0 0)
(-1.5728452e-005 -0.00089020435 0 -1.6751132e-007 0 0)
(-1.5744153e-005 -0.0008900776 0 -9.9530287e-008 0 0)
(-1.5794209e-005 -0.00089006905 0 -3.9878701e-008 0 0)
(-1.5827446e-005 -0.00089007138 0 -1.7570546e-008 0 0)
(-1.5833391e-005 -0.00089007441 0 -7.2092476e-009 0 0)
(-1.583908e-005 -0.00089007579 0 -3.0718174e-009 0 0)
(-1.5840876e-005 -0.00089007652 0 -1.0877191e-009 0 0)
(-1.584158e-005 -0.00089007668 0 -3.8753013e-010 0 0)
(-1.5841813e-005 -0.00089007693 0 -1.8809289e-010 0 0)
(-1.584195e-005 -0.00089007695 0 -6.3554059e-011 0 0)
(-1.5842066e-005 -0.00089007697 0 4.2366587e-011 0 0)
(-1.5842174e-005 -0.00089007679 0 1.0034861e-010 0 0)
(-1.5842379e-005 -0.00089007669 0 3.512498e-010 0 0)
(-1.5843135e-005 -0.00089007572 0 9.5658475e-010 0 0)
(-1.5842162e-005 -0.00089007226 0 2.6817563e-009 0 0)
(-1.5847891e-005 -0.00089007351 0 1.2114034e-008 0 0)
(-1.5849522e-005 -0.00089005318 0 1.0217221e-008 0 0)
(-0.0083866362 -0.002792625 0 0.0064128512 0 0)
(-0.0030918392 -0.0021576586 0 0.0029497562 0 0)
(-0.00081755104 -0.0012104762 0 0.00060072894 0 0)
(-0.00013729067 -0.00077189126 0 0.00014346412 0 0)
(-4.0280912e-005 -0.000555651 0 7.6589008e-006 0 0)
(-1.3205546e-005 -0.00051133209 0 6.9111439e-006 0 0)
(-1.3459655e-005 -0.0005005742 0 1.6471794e-006 0 0)
(-9.9620636e-006 -0.00049794039 0 2.6899491e-007 0 0)
(-9.8115964e-006 -0.00049719162 0 -2.5826024e-007 0 0)
(-9.8889329e-006 -0.00049703166 0 -1.2103758e-007 0 0)
(-9.9590562e-006 -0.00049703617 0 -4.2326348e-008 0 0)
(-9.9951881e-006 -0.00049704395 0 -1.7608999e-008 0 0)
(-1.0001519e-005 -0.00049704883 0 -6.4175337e-009 0 0)
(-1.0006854e-005 -0.00049705139 0 -2.736334e-009 0 0)
(-1.0008479e-005 -0.00049705246 0 -9.0868341e-010 0 0)
(-1.0009049e-005 -0.0004970535 0 -3.1974897e-010 0 0)
(-1.0009217e-005 -0.00049705441 0 -1.6865304e-010 0 0)
(-1.0009368e-005 -0.00049705338 0 -3.4140832e-011 0 0)
(-1.0009491e-005 -0.00049705334 0 7.0509247e-011 0 0)
(-1.0009553e-005 -0.00049705434 0 6.2931354e-011 0 0)
(-1.0009768e-005 -0.00049705286 0 2.9775674e-010 0 0)
(-1.0010509e-005 -0.0004970531 0 8.5512962e-010 0 0)
(-1.0009748e-005 -0.00049704828 0 2.0819707e-009 0 0)
(-1.0012397e-005 -0.00049704884 0 6.0668238e-009 0 0)
(-1.0015306e-005 -0.0004969983 0 4.8991239e-009 0 0)
(-0.0087183027 -0.0022865001 0 0.0065675181 0 0)
(-0.0028502875 -0.00073361978 0 0.0027852629 0 0)
(-0.00067193606 0.00064155947 0 0.00046267619 0 0)
(-6.7985114e-005 0.0011993501 0 6.0690882e-005 0 0)
(-4.3932592e-005 0.001434059 0 -1.7863929e-005 0 0)
(-3.4780116e-005 0.0014833574 0 -1.4735025e-006 0 0)
(-4.2370595e-005 0.0014941735 0 -3.6394174e-007 0 0)
(-4.0469525e-005 0.0014972724 0 -1.5492081e-007 0 0)
(-4.075399e-005 0.0014979237 0 -3.3075253e-007 0 0)
(-4.0886875e-005 0.0014980427 0 -1.3033125e-007 0 0)
(-4.0967212e-005 0.0014980035 0 -4.2543877e-008 0 0)
(-4.1002519e-005 0.0014979852 0 -1.5798168e-008 0 0)
(-4.1007667e-005 0.001497977 0 -5.2362426e-009 0 0)
(-4.1012163e-005 0.0014979737 0 -2.084028e-009 0 0)
(-4.1013232e-005 0.0014979723 0 -6.5999268e-010 0 0)
(-4.1013492e-005 0.0014979698 0 -2.2473802e-010 0 0)
(-4.1013707e-005 0.0014979704 0 -5.2185109e-011 0 0)
(-4.101384e-005 0.0014979709 0 1.2207701e-011 0 0)
(-4.101387e-005 0.001497971 0 1.3108526e-011 0 0)
(-4.1013848e-005 0.0014979696 0 1.5555396e-011 0 0)
(-4.101405e-005 0.0014979696 0 1.8223786e-010 0 0)
(-4.1014598e-005 0.0014979694 0 5.6029164e-010 0 0)
(-4.1014062e-005 0.001497973 0 7.7462846e-010 0 0)
(-4.101195e-005 0.0014979734 0 -2.0639766e-009 0 0)
(-4.1016945e-005 0.0014980465 0 -2.4870698e-009 0 0)
(-0.008354998 -0.0004705313 0 0.0062045887 0 0)
(-0.0024131224 0.0028714727 0 0.0022943119 0 0)
(-0.00093151429 0.0046877239 0 0.00033840275 0 0)
(-0.00045164229 0.0053933238 0 -5.5081463e-006 0 0)
(-0.00052142839 0.0055743647 0 -3.3071167e-005 0 0)
(-0.00052664333 0.0056209488 0 -7.3868186e-006 0 0)
(-0.00054040387 0.0056273239 0 -2.425501e-006 0 0)
(-0.00054045689 0.0056300559 0 -5.1328355e-007 0 0)
(-0.0005412387 0.0056302617 0 -3.296481e-007 0 0)
(-0.00054137725 0.0056302734 0 -1.0557976e-007 0 0)
(-0.00054143369 0.0056301884 0 -3.4179449e-008 0 0)
(-0.00054145942 0.0056301579 0 -1.0889153e-008 0 0)
(-0.00054145956 0.005630141 0 -3.2204661e-009 0 0)
(-0.00054146213 0.0056301398 0 -1.0196802e-009 0 0)
(-0.00054146193 0.0056301331 0 -3.2764445e-010 0 0)
(-0.00054146194 0.0056301355 0 -9.0743502e-011 0 0)
(-0.00054146215 0.005630135 0 3.1470299e-011 0 0)
(-0.00054146223 0.0056301364 0 2.8204302e-011 0 0)
(-0.00054146163 0.0056301281 0 -2.736602e-011 0 0)
(-0.00054146188 0.0056301331 0 -8.6832607e-012 0 0)
(-0.00054146209 0.0056301344 0 1.101417e-011 0 0)
(-0.00054146256 0.0056301365 0 1.0498983e-010 0 0)
(-0.00054146256 0.005630139 0 -4.0666695e-010 0 0)
(-0.00054145569 0.0056301367 0 -1.0087528e-008 0 0)
(-0.00054146375 0.0056302027 0 -1.0183817e-008 0 0)
(-0.006899667 0.0027281871 0 0.0047855613 0 0)
(-0.0025376082 0.008871733 0 0.0012620969 0 0)
(-0.0025411035 0.010810734 0 0.0002103685 0 0)
(-0.0023658351 0.011672718 0 -1.8331125e-005 0 0)
(-0.0024871881 0.011779393 0 -3.1435914e-005 0 0)
(-0.0024963142 0.011813469 0 -9.5242614e-006 0 0)
(-0.002511675 0.011812515 0 -3.7896614e-006 0 0)
(-0.0025131058 0.011813858 0 -6.0492346e-007 0 0)
(-0.0025140799 0.011813397 0 -2.0713456e-007 0 0)
(-0.0025140851 0.011813278 0 -4.2980215e-008 0 0)
(-0.0025140753 0.011813156 0 -1.4531492e-008 0 0)
(-0.0025140758 0.011813113 0 -2.9631926e-009 0 0)
(-0.0025140667 0.011813092 0 3.2614421e-011 0 0)
(-0.002514066 0.01181309 0 2.4856493e-010 0 0)
(-0.0025140646 0.011813088 0 1.65442e-010 0 0)
(-0.002514064 0.011813087 0 6.2318028e-011 0 0)
(-0.002514064 0.011813087 0 5.5442438e-011 0 0)
(-0.0025140628 0.011813078 0 9.7068052e-012 0 0)
(-0.0025140634 0.011813083 0 -8.9393772e-012 0 0)
(-0.0025140638 0.011813086 0 -1.6369104e-011 0 0)
(-0.0025140639 0.011813087 0 -1.5710634e-010 0 0)
(-0.002514064 0.011813088 0 -4.3721812e-010 0 0)
(-0.0025140651 0.01181309 0 -1.3644143e-009 0 0)
(-0.0025140547 0.011813083 0 -1.379201e-008 0 0)
(-0.0025140593 0.011813108 0 -1.3803556e-008 0 0)
(-0.0045652987 0.0082380945 0 0.0015484929 0 0)
(-0.0046493053 0.015859895 0 -2.3755486e-005 0 0)
(-0.0065961553 0.018172694 0 -1.9784831e-005 0 0)
(-0.0068424941 0.018987142 0 3.659367e-006 0 0)
(-0.0069881285 0.019045831 0 -1.3164785e-005 0 0)
(-0.0069721879 0.019063646 0 -8.355621e-006 0 0)
(-0.0069841379 0.019054481 0 -3.3519631e-006 0 0)
(-0.0069842242 0.019054244 0 -3.9306984e-007 0 0)
(-0.0069849406 0.019053142 0 5.8237764e-008 0 0)
(-0.0069846418 0.019053001 0 4.4102357e-008 0 0)
(-0.0069845326 0.019052866 0 1.3628434e-008 0 0)
(-0.0069844957 0.019052819 0 6.6899736e-009 0 0)
(-0.0069844764 0.019052804 0 3.5483115e-009 0 0)
(-0.006984472 0.019052799 0 1.5973521e-009 0 0)
(-0.0069844691 0.019052798 0 5.9667613e-010 0 0)
(-0.0069844681 0.019052797 0 2.0846981e-010 0 0)
(-0.0069844678 0.019052797 0 4.623911e-011 0 0)
(-0.0069844678 0.019052797 0 -1.0839772e-011 0 0)
(-0.0069844678 0.019052797 0 5.3873565e-012 0 0)
(-0.0069844672 0.019052793 0 -4.1461419e-011 0 0)
(-0.0069844673 0.019052794 0 -2.5272825e-010 0 0)
(-0.0069844677 0.019052797 0 -8.4440675e-010 0 0)
(-0.0069844691 0.019052799 0 -1.5843494e-009 0 0)
(-0.00698446 0.019052792 0 -1.1028616e-008 0 0)
(-0.0069844503 0.019052767 0 -1.0882565e-008 0 0)
(-0.0044198131 0.013840722 0 -0.0012323192 0 0)
(-0.0089659455 0.023347371 0 -0.0016145999 0 0)
(-0.013159992 0.024980363 0 -0.00019554675 0 0)
(-0.013517236 0.02553538 0 2.5868264e-005 0 0)
(-0.013668691 0.025558963 0 1.1456222e-005 0 0)
(-0.013617898 0.025571057 0 -4.9195216e-006 0 0)
(-0.013624719 0.025556281 0 -9.3683501e-007 0 0)
(-0.013621216 0.025555984 0 1.9897194e-009 0 0)
(-0.013621588 0.02555473 0 3.6593011e-007 0 0)
(-0.013620997 0.025554737 0 1.2788607e-007 0 0)
(-0.013620818 0.025554642 0 4.0249503e-008 0 0)
(-0.013620758 0.025554614 0 1.5755721e-008 0 0)
(-0.013620733 0.025554608 0 5.7830938e-009 0 0)
(-0.013620727 0.025554606 0 2.5343078e-009 0 0)
(-0.013620724 0.025554605 0 8.3089468e-010 0 0)
(-0.013620723 0.025554605 0 2.860731e-010 0 0)
(-0.013620723 0.025554605 0 5.9038454e-011 0 0)
(-0.013620723 0.025554605 0 -1.7799535e-012 0 0)
(-0.013620723 0.025554605 0 -2.5931631e-011 0 0)
(-0.013620723 0.025554605 0 -8.5989712e-011 0 0)
(-0.013620723 0.025554605 0 -2.3346583e-010 0 0)
(-0.013620723 0.025554606 0 -8.9817806e-010 0 0)
(-0.013620724 0.025554605 0 -1.2979104e-009 0 0)
(-0.01362072 0.025554601 0 -2.84596e-009 0 0)
(-0.013620689 0.025554528 0 -1.9982325e-009 0 0)
(-0.0090444711 0.022393391 0 -0.0037724042 0 0)
(-0.01522742 0.028775541 0 -0.0027192753 0 0)
(-0.020409599 0.029272989 0 -0.00017687594 0 0)
(-0.02037552 0.029486427 0 -3.0997184e-006 0 0)
(-0.020625846 0.02952605 0 3.2297897e-005 0 0)
(-0.0205195 0.029527905 0 -3.9838714e-006 0 0)
(-0.020533448 0.029518819 0 2.1673988e-006 0 0)
(-0.020524556 0.029518501 0 2.3052268e-007 0 0)
(-0.020525967 0.029518248 0 5.5962323e-007 0 0)
(-0.020525166 0.029518427 0 1.4797667e-007 0 0)
(-0.02052507 0.029518429 0 5.153451e-008 0 0)
(-0.020525029 0.029518441 0 1.9214774e-008 0 0)
(-0.020525009 0.029518445 0 6.2166183e-009 0 0)
(-0.020525008 0.029518447 0 2.6947874e-009 0 0)
(-0.020525005 0.029518448 0 7.9840511e-010 0 0)
(-0.020525005 0.029518448 0 2.765139e-010 0 0)
(-0.020525005 0.029518449 0 1.0087272e-010 0 0)
(-0.020525005 0.029518448 0 1.17019e-011 0 0)
(-0.020525005 0.029518449 0 -8.4076456e-011 0 0)
(-0.020525005 0.029518449 0 -1.7186448e-010 0 0)
(-0.020525005 0.029518449 0 -3.3506533e-010 0 0)
(-0.020525006 0.02951845 0 -1.0963583e-009 0 0)
(-0.020525009 0.02951845 0 -1.4465337e-009 0 0)
(-0.020525017 0.029518451 0 3.2007112e-009 0 0)
(-0.020524993 0.029518395 0 4.778443e-009 0 0)
(-0.030982574 0.038755751 0 -0.0078950752 0 0)
(-0.026264077 0.032057688 0 -0.0019417912 0 0)
(-0.035094801 0.034502133 0 -0.00016930322 0 0)
(-0.032925751 0.033435269 0 -2.0315944e-005 0 0)
(-0.033831644 0.033867964 0 2.3226287e-005 0 0)
(-0.033544921 0.033759408 0 -1.151621e-006 0 0)
(-0.03362031 0.033795936 0 2.6775745e-006 0 0)
(-0.033600259 0.033788565 0 1.4257944e-007 0 0)
(-0.033606047 0.033791799 0 4.2427906e-007 0 0)
(-0.033605453 0.03379197 0 7.2205035e-008 0 0)
(-0.033605582 0.033792111 0 3.5733201e-008 0 0)
(-0.033605651 0.03379219 0 1.124128e-008 0 0)
(-0.033605642 0.033792195 0 3.0173696e-009 0 0)
(-0.033605654 0.033792205 0 1.4622936e-009 0 0)
(-0.033605655 0.033792207 0 3.4911556e-010 0 0)
(-0.033605655 0.033792208 0 1.428211e-010 0 0)
(-0.033605655 0.033792208 0 4.6657462e-011 0 0)
(-0.033605655 0.033792208 0 -1.6893273e-011 0 0)
(-0.033605655 0.033792208 0 -9.807649e-011 0 0)
(-0.033605655 0.033792208 0 -2.4961015e-010 0 0)
(-0.033605654 0.033792207 0 -5.1975333e-010 0 0)
(-0.03360565 0.033792205 0 -1.184809e-009 0 0)
(-0.033605646 0.033792202 0 -3.2481977e-009 0 0)
(-0.033605653 0.033792207 0 2.9867285e-009 0 0)
(-0.033605632 0.033792224 0 6.22301e-009 0 0)
(4.3781046e-005 0.00014897909 0 7.1797682e-005 0 0)
(-0.00026762461 -1.9795743e-005 0 6.672358e-005 0 0)
(4.604027e-005 -3.6001092e-005 0 8.9159029e-005 0 0)
(-0.00011074892 3.7489967e-006 0 4.2489683e-005 0 0)
(-2.9773442e-005 -2.9110796e-005 0 5.3484129e-005 0 0)
(-4.0473815e-005 -2.6573489e-006 0 3.4354881e-005 0 0)
(-3.3824635e-005 -1.8285921e-006 0 3.5275043e-005 0 0)
(-3.3997826e-005 1.0505019e-005 0 3.2706222e-005 0 0)
(-3.597128e-005 2.1950778e-005 0 3.5773853e-005 0 0)
(-4.1944811e-005 3.7120361e-005 0 4.1292596e-005 0 0)
(-5.2540647e-005 5.7653454e-005 0 5.189232e-005 0 0)
(-6.7360492e-005 8.3166787e-005 0 6.6374509e-005 0 0)
(-8.9429292e-005 0.00011938027 0 8.8023137e-005 0 0)
(-0.00011951077 0.00016892956 0 0.00011736069 0 0)
(-0.00016050884 0.00023892671 0 0.00015704847 0 0)
(-0.00021505298 0.00033842777 0 0.00020923915 0 0)
(-0.00028657935 0.00048548619 0 0.00027733118 0 0)
(-0.00037429404 0.00069224368 0 0.00035585257 0 0)
(-0.00047682362 0.0010275854 0 0.00045082097 0 0)
(-0.00058240853 0.0014888665 0 0.00051499651 0 0)
(-0.00057347418 0.0023813466 0 0.00051431624 0 0)
(-0.00059593827 0.0037769441 0 0.00015035041 0 0)
(0.0006991456 0.0063414559 0 -0.00095413131 0 0)
(0.0015439583 0.007238787 0 -0.0032265019 0 0)
(0.0092738361 0.0034377504 0 -0.01008245 0 0)
(5.1195707e-005 0.00014831808 0 8.1464663e-005 0 0)
(-0.00029439383 -1.9884796e-005 0 6.2981219e-005 0 0)
(5.0356578e-005 -4.169156e-005 0 0.00010125592 0 0)
(-0.00011000578 -1.6694135e-005 0 3.6796183e-005 0 0)
(-2.9309582e-005 -2.9130173e-005 0 4.8703231e-005 0 0)
(-3.0744405e-005 -1.107896e-005 0 2.8939173e-005 0 0)
(-2.6958889e-005 -2.6025991e-006 0 2.7121354e-005 0 0)
(-2.4402897e-005 1.0342469e-005 0 2.3673862e-005 0 0)
(-2.4637381e-005 2.4606188e-005 0 2.4577637e-005 0 0)
(-2.7644824e-005 4.2109724e-005 0 2.7344031e-005 0 0)
(-3.3728978e-005 6.5712171e-005 0 3.3478184e-005 0 0)
(-4.2357382e-005 9.4557324e-005 0 4.1928396e-005 0 0)
(-5.4927491e-005 0.00013469148 0 5.4205995e-005 0 0)
(-7.1774932e-005 0.00019005547 0 7.0636767e-005 0 0)
(-9.3072458e-005 0.00026587158 0 9.1052067e-005 0 0)
(-0.00011908741 0.00037240132 0 0.00011539862 0 0)
(-0.00014782113 0.00052430544 0 0.00014143354 0 0)
(-0.00017401332 0.00073467901 0 0.00016068412 0 0)
(-0.00018255159 0.0010448379 0 0.00016037515 0 0)
(-0.00014876383 0.0014577604 0 9.5375178e-005 0 0)
(1.6896583e-005 0.0021476048 0 -0.0001012979 0 0)
(0.0003674432 0.0030178812 0 -0.0007561181 0 0)
(0.0020122243 0.0043589091 0 -0.0024443802 0 0)
(0.0045421692 0.0025594949 0 -0.0061756892 0 0)
(0.0057518592 -0.0037936584 0 -0.0086304371 0 0)
(4.2432391e-005 0.0001652882 0 8.8104818e-005 0 0)
(-0.00031435712 -2.2824593e-005 0 8.7724423e-005 0 0)
(5.491411e-005 -5.3591835e-005 0 8.8638827e-005 0 0)
(-0.00010585664 -3.2518754e-005 0 4.2238738e-005 0 0)
(-2.6126695e-005 -3.2829584e-005 0 3.6548148e-005 0 0)
(-2.0722765e-005 -1.651205e-005 0 2.2360123e-005 0 0)
(-1.7662732e-005 -3.8859014e-006 0 1.6876694e-005 0 0)
(-1.3491623e-005 1.0431024e-005 0 1.3036093e-005 0 0)
(-1.1694996e-005 2.6966843e-005 0 1.1670011e-005 0 0)
(-1.1747293e-005 4.5810893e-005 0 1.1632991e-005 0 0)
(-1.3051236e-005 7.0142301e-005 0 1.2872949e-005 0 0)
(-1.5380433e-005 0.00010257427 0 1.5127273e-005 0 0)
(-1.8217982e-005 0.00014303833 0 1.7786896e-005 0 0)
(-2.1386821e-005 0.00019947189 0 2.0597782e-005 0 0)