/*--------------------------------*- C++ -*----------------------------------*\
| =========                 |                                                 |
| \\      /  F ield         | OpenFOAM: The Open Source CFD Toolbox           |
|  \\    /   O peration     | Version:  5.x                                   |
|   \\  /    A nd           | Web:      www.OpenFOAM.org                      |
|    \\/     M anipulation  |                                                 |
\*---------------------------------------------------------------------------*/
/*   Windows 32 and 64 bit porting by blueCAPE: http://www.bluecape.com.pt   *\
|  Based on Windows porting (2.0.x v4) by Symscape: http://www.symscape.com   |
\*---------------------------------------------------------------------------*/
FoamFile
{
    version     2.0;
    format      ascii;
    class       volSymmTensorField;
    location    "0.05";
    object      sigma_0;
}
// * * * * * * * * * * * * * * * * * * * * * * * * * * * * * * * * * * * * * //

dimensions      [0 2 -2 0 0 0 0];

internalField   nonuniform List<symmTensor> 
750
(
(-1.4359234e-005 8.7593679e-006 0 5.8506946e-005 0 0)
(-0.0001805892 -1.6314594e-006 0 0.00010342761 0 0)
(2.7791661e-005 -1.8648155e-006 0 2.3532307e-005 0 0)
(-0.0001071213 1.2652581e-006 0 7.5971052e-005 0 0)
(-2.1469743e-005 -1.7265761e-006 0 3.7081398e-005 0 0)
(-6.0659334e-005 5.4178244e-007 0 5.2977225e-005 0 0)
(-4.106467e-005 -2.4791803e-007 0 4.4412644e-005 0 0)
(-5.221845e-005 7.0582528e-007 0 5.0727305e-005 0 0)
(-5.576318e-005 1.0665932e-006 0 5.6260855e-005 0 0)
(-6.9156802e-005 1.9159756e-006 0 6.8840208e-005 0 0)
(-8.8496906e-005 2.9149584e-006 0 8.8391862e-005 0 0)
(-0.00011545171 4.217387e-006 0 0.00011512448 0 0)
(-0.00015765176 6.1724773e-006 0 0.00015710278 0 0)
(-0.00021580636 8.8430898e-006 0 0.00021476837 0 0)
(-0.00030010534 1.2752589e-005 0 0.00029809218 0 0)
(-0.00042036956 1.8438815e-005 0 0.00041635423 0 0)
(-0.00059945473 2.7478453e-005 0 0.00059198947 0 0)
(-0.0008535548 3.998937e-005 0 0.00083576268 0 0)
(-0.0012620885 6.3257636e-005 0 0.001232809 0 0)
(-0.0018578383 9.3895565e-005 0 0.0017700734 0 0)
(-0.0028376562 0.00016045625 0 0.0027047697 0 0)
(-0.0044583287 0.00024170951 0 0.0039817321 0 0)
(-0.0069718719 0.00035390549 0 0.0062036577 0 0)
(-0.010616915 0.00037268041 0 0.0084008236 0 0)
(-0.012822289 -0.00029359598 0 0.010422214 0 0)
(-1.3074287e-005 2.2972321e-005 0 6.7846431e-005 0 0)
(-0.0001822815 -4.3039844e-006 0 8.6001757e-005 0 0)
(2.8065586e-005 -4.2479376e-006 0 3.9260829e-005 0 0)
(-0.00010695891 2.4052156e-006 0 6.6605724e-005 0 0)
(-2.1681386e-005 -4.1706962e-006 0 4.2860291e-005 0 0)
(-6.0289296e-005 1.0903935e-006 0 5.0190624e-005 0 0)
(-4.0991858e-005 -3.8988229e-007 0 4.5430671e-005 0 0)
(-5.1894245e-005 2.1096686e-006 0 4.9885374e-005 0 0)
(-5.545022e-005 3.3733033e-006 0 5.609268e-005 0 0)
(-6.8708993e-005 5.8377396e-006 0 6.8266597e-005 0 0)
(-8.7869129e-005 8.8583026e-006 0 8.7724445e-005 0 0)
(-0.00011461276 1.2742316e-005 0 0.00011419098 0 0)
(-0.00015652269 1.8588102e-005 0 0.00015584802 0 0)
(-0.00021416936 2.6551483e-005 0 0.00021295845 0 0)
(-0.00029768168 3.8190415e-005 0 0.00029540598 0 0)
(-0.00041664431 5.5133996e-005 0 0.00041224371 0 0)
(-0.00059429488 8.1898825e-005 0 0.00058630544 0 0)
(-0.00084346828 0.00011890176 0 0.00082441823 0 0)
(-0.0012504642 0.00018953906 0 0.001221034 0 0)
(-0.0018389442 0.00027817334 0 0.0017421034 0 0)
(-0.0028004552 0.0004811259 0 0.0026751058 0 0)
(-0.0044168639 0.00072875358 0 0.0039003228 0 0)
(-0.0069758938 0.0010269086 0 0.0062331858 0 0)
(-0.010848862 0.0011503833 0 0.0084630732 0 0)
(-0.01343432 -0.00068377443 0 0.010962853 0 0)
(-1.1563037e-005 3.384777e-005 0 7.0748123e-005 0 0)
(-0.00018474447 -6.6375646e-006 0 8.0205212e-005 0 0)
(2.8822566e-005 -5.7968611e-006 0 4.4200283e-005 0 0)
(-0.00010712438 2.5909917e-006 0 6.3169612e-005 0 0)
(-2.1846913e-005 -5.916986e-006 0 4.455197e-005 0 0)
(-5.9699222e-005 1.2666813e-006 0 4.879446e-005 0 0)
(-4.0783068e-005 -2.9319133e-007 0 4.5550242e-005 0 0)
(-5.1281043e-005 3.4529531e-006 0 4.9156436e-005 0 0)
(-5.4814284e-005 5.7527327e-006 0 5.5521706e-005 0 0)
(-6.7833433e-005 9.763871e-006 0 6.7392977e-005 0 0)
(-8.6627496e-005 1.4796972e-005 0 8.6523624e-005 0 0)
(-0.00011301791 2.125184e-005 0 0.00011263053 0 0)
(-0.00015429694 3.0947878e-005 0 0.00015367707 0 0)
(-0.0002109009 4.4114383e-005 0 0.00020977387 0 0)
(-0.0002929075 6.3365006e-005 0 0.00029075297 0 0)
(-0.00040944258 9.140454e-005 0 0.00040523008 0 0)
(-0.00058347378 0.00013543298 0 0.00057580262 0 0)
(-0.00082595088 0.00019722126 0 0.00080728822 0 0)
(-0.0012235845 0.0003119031 0 0.0011954632 0 0)
(-0.0017957736 0.00046350807 0 0.0016989339 0 0)
(-0.0027247768 0.00078382107 0 0.0026058962 0 0)
(-0.0043297665 0.0011981388 0 0.0038000536 0 0)
(-0.0069440649 0.0017497177 0 0.0061935767 0 0)
(-0.011244917 0.0020767481 0 0.0086087936 0 0)
(-0.014285453 -0.00080650536 0 0.011488806 0 0)
(-9.9556333e-006 4.4876567e-005 0 6.969613e-005 0 0)
(-0.00018770927 -8.8569672e-006 0 8.2170587e-005 0 0)
(2.9934569e-005 -7.5719562e-006 0 4.295132e-005 0 0)
(-0.00010745134 2.8706975e-006 0 6.3727285e-005 0 0)
(-2.2006996e-005 -7.7863631e-006 0 4.4116693e-005 0 0)
(-5.8888285e-005 1.3880951e-006 0 4.8321017e-005 0 0)
(-4.0428618e-005 -2.6528535e-007 0 4.4983101e-005 0 0)
(-5.0384663e-005 4.6820282e-006 0 4.8371426e-005 0 0)
(-5.3859484e-005 8.0183204e-006 0 5.4521842e-005 0 0)
(-6.6498429e-005 1.3532929e-005 0 6.607969e-005 0 0)
(-8.4890992e-005 2.0580163e-005 0 8.477945e-005 0 0)
(-0.000110625 2.952958e-005 0 0.00011023931 0 0)
(-0.00015086827 4.2976981e-005 0 0.00015025153 0 0)
(-0.0002060341 6.1240758e-005 0 0.00020490673 0 0)
(-0.00028579842 8.791818e-005 0 0.00028365016 0 0)
(-0.00039884864 0.00012676129 0 0.00039463637 0 0)
(-0.00056700194 0.0001874062 0 0.00055936742 0 0)
(-0.00080109154 0.00027324 0 0.00078255267 0 0)
(-0.0011804535 0.0004336767 0 0.0011523511 0 0)
(-0.0017267119 0.0006384389 0 0.0016322017 0 0)
(-0.0026073639 0.0010995371 0 0.002488501 0 0)
(-0.0041784201 0.0016937172 0 0.003645776 0 0)
(-0.0068503994 0.0025371454 0 0.0060636197 0 0)
(-0.011681783 0.0032400848 0 0.0087413533 0 0)
(-0.015167845 -0.00040259711 0 0.011980028 0 0)
(-7.9773311e-006 5.7407967e-005 0 6.7561005e-005 0 0)
(-0.00019139704 -1.081485e-005 0 8.6311599e-005 0 0)
(3.1278572e-005 -9.7191605e-006 0 4.0846438e-005 0 0)
(-0.0001078491 3.4563772e-006 0 6.5172229e-005 0 0)
(-2.2229456e-005 -9.8965068e-006 0 4.3534768e-005 0 0)
(-5.7829663e-005 1.4954512e-006 0 4.7834564e-005 0 0)
(-3.9929029e-005 -2.8414287e-007 0 4.4184674e-005 0 0)
(-4.9208255e-005 5.8626412e-006 0 4.7339689e-005 0 0)
(-5.2589255e-005 1.0215413e-005 0 5.3192373e-005 0 0)
(-6.4731879e-005 1.7203064e-005 0 6.4340134e-005 0 0)
(-8.2589974e-005 2.6209567e-005 0 8.2469986e-005 0 0)
(-0.00010746391 3.7596173e-005 0 0.0001070868 0 0)
(-0.00014633561 5.4670317e-005 0 0.0001457269 0 0)
(-0.00019962349 7.7873319e-005 0 0.00019850358 0 0)
(-0.00027641814 0.00011169834 0 0.00027429207 0 0)
(-0.00038491575 0.00016087092 0 0.00038072815 0 0)
(-0.00054523452 0.00023744125 0 0.0005376572 0 0)
(-0.00076819976 0.00034635348 0 0.00074987858 0 0)
(-0.001125701 0.00054479542 0 0.0010973981 0 0)
(-0.0016349249 0.00080656353 0 0.0015426497 0 0)
(-0.0024637747 0.0013818025 0 0.002341559 0 0)
(-0.0039752792 0.0021638176 0 0.0034364771 0 0)
(-0.0066445032 0.003385578 0 0.0058129319 0 0)
(-0.011998085 0.0046308129 0 0.0086819121 0 0)
(-0.015598595 0.00053865576 0 0.012197631 0 0)
(-5.1566577e-006 7.1877274e-005 0 6.4410792e-005 0 0)
(-0.00019627617 -1.2400932e-005 0 9.1925327e-005 0 0)
(3.2839332e-005 -1.2333047e-005 0 3.825551e-005 0 0)
(-0.00010830069 4.423792e-006 0 6.6923003e-005 0 0)
(-2.2567357e-005 -1.2345091e-005 0 4.2914339e-005 0 0)
(-5.6480804e-005 1.6036142e-006 0 4.7102334e-005 0 0)
(-3.9299007e-005 -3.5442905e-007 0 4.3231585e-005 0 0)
(-4.7757256e-005 6.9742388e-006 0 4.6042477e-005 0 0)
(-5.100985e-005 1.2326703e-005 0 5.1555086e-005 0 0)
(-6.2550692e-005 2.0744363e-005 0 6.2189887e-005 0 0)
(-7.9717899e-005 3.1658567e-005 0 7.9602575e-005 0 0)
(-0.00010354703 4.5391549e-005 0 0.00010318647 0 0)
(-0.00014075555 6.5950423e-005 0 0.00014016238 0 0)
(-0.00019172721 9.38937e-005 0 0.00019063673 0 0)
(-0.00026485719 0.00013451273 0 0.00026278882 0 0)
(-0.00036775946 0.00019344176 0 0.00036366236 0 0)
(-0.0005185752 0.00028483399 0 0.00051118153 0 0)
(-0.00072792028 0.00041483887 0 0.00071021248 0 0)
(-0.0010581794 0.00064908361 0 0.0010300475 0 0)
(-0.0015239084 0.00096158729 0 0.0014349323 0 0)
(-0.0022781088 0.0016553264 0 0.0021566721 0 0)
(-0.0037219816 0.0025957842 0 0.0031801892 0 0)
(-0.0062661901 0.004288498 0 0.0053969935 0 0)
(-0.012052685 0.0062018778 0 0.0083380884 0 0)
(-0.015206497 0.0019162499 0 0.01189184 0 0)
(-9.8743562e-007 8.8343687e-005 0 5.9843042e-005 0 0)
(-0.00020283361 -1.3660572e-005 0 9.9351727e-005 0 0)
(3.4606688e-005 -1.5495566e-005 0 3.5171164e-005 0 0)
(-0.00010880939 5.8086001e-006 0 6.896538e-005 0 0)
(-2.3084384e-005 -1.5206773e-005 0 4.231849e-005 0 0)
(-5.4793562e-005 1.7045721e-006 0 4.611983e-005 0 0)
(-3.8549333e-005 -4.8821986e-007 0 4.210494e-005 0 0)
(-4.6037294e-005 7.9946036e-006 0 4.4504363e-005 0 0)
(-4.9130167e-005 1.4331341e-005 0 4.9609058e-005 0 0)
(-5.9963838e-005 2.4120552e-005 0 5.9639786e-005 0 0)
(-7.6318983e-005 3.6877282e-005 0 7.6205092e-005 0 0)
(-9.8924772e-005 5.2822401e-005 0 9.8577697e-005 0 0)
(-0.00013421085 7.6671388e-005 0 0.00013363114 0 0)
(-0.00018246707 0.00010906724 0 0.00018139987 0 0)
(-0.00025135851 0.00015600305 0 0.00024932979 0 0)
(-0.00034785431 0.00022392497 0 0.00034381856 0 0)
(-0.00048776233 0.00032868131 0 0.00048045842 0 0)
(-0.00068043943 0.00047907233 0 0.00066316864 0 0)
(-0.00097836288 0.00074465017 0 0.00095028671 0 0)
(-0.0013922284 0.0011047556 0 0.0013062142 0 0)
(-0.0020388195 0.0019179038 0 0.0019175316 0 0)
(-0.0033569955 0.0030478676 0 0.0028123183 0 0)
(-0.0055709457 0.0053320044 0 0.0046640703 0 0)
(-0.011697756 0.0079236476 0 0.0075752176 0 0)
(-0.012781896 0.0037829082 0 0.010261351 0 0)
(4.952438e-006 0.0001066702 0 5.392632e-005 0 0)
(-0.00021152082 -1.4779248e-005 0 0.00010804189 0 0)
(3.6613627e-005 -1.9360767e-005 0 3.2050621e-005 0 0)
(-0.00010938606 7.5618317e-006 0 7.0990058e-005 0 0)
(-2.3834511e-005 -1.8550208e-005 0 4.1701605e-005 0 0)
(-5.2711642e-005 1.8024636e-006 0 4.487265e-005 0 0)
(-3.7701002e-005 -7.1024336e-007 0 4.0810583e-005 0 0)
(-4.4052011e-005 8.9058693e-006 0 4.2723557e-005 0 0)
(-4.6965606e-005 1.6207749e-005 0 4.7364405e-005 0 0)
(-5.6984656e-005 2.7287848e-005 0 5.6682704e-005 0 0)
(-7.2423951e-005 4.1821644e-005 0 7.2285334e-005 0 0)
(-9.3635564e-005 5.989508e-005 0 9.3281565e-005 0 0)
(-0.00012664363 8.6779575e-005 0 0.00012604589 0 0)
(-0.00017186281 0.00012337782 0 0.00017076101 0 0)
(-0.00023596637 0.00017615143 0 0.00023389353 0 0)
(-0.0003252603 0.00025223999 0 0.00032117193 0 0)
(-0.00045304034 0.00036892126 0 0.00044568475 0 0)
(-0.00062833675 0.00053563539 0 0.00061135077 0 0)
(-0.00088865096 0.00082866126 0 0.00086091498 0 0)
(-0.0012490165 0.0012258079 0 0.0011662755 0 0)
(-0.0017863904 0.002121873 0 0.0016625257 0 0)
(-0.0029557848 0.0033960265 0 0.0024080463 0 0)
(-0.0047253882 0.0061852423 0 0.0037605913 0 0)
(-0.010941977 0.0091246826 0 0.0065231282 0 0)
(-0.008014174 0.0061637056 0 0.0064177989 0 0)
(1.291819e-005 0.00012624462 0 4.9094258e-005 0 0)
(-0.00022272513 -1.5993571e-005 0 0.00011285216 0 0)
(3.8850281e-005 -2.4189499e-005 0 3.2270692e-005 0 0)
(-0.00010994815 9.6251434e-006 0 7.0503135e-005 0 0)
(-2.4864631e-005 -2.2395317e-005 0 4.2182673e-005 0 0)
(-5.0198446e-005 1.8570081e-006 0 4.2859824e-005 0 0)
(-3.6776114e-005 -1.0687716e-006 0 3.9586281e-005 0 0)
(-4.1808318e-005 9.6584986e-006 0 4.0610571e-005 0 0)
(-4.4517683e-005 1.7896553e-005 0 4.4855719e-005 0 0)
(-5.3652734e-005 3.0214849e-005 0 5.3362295e-005 0 0)
(-6.7998727e-005 4.6394059e-005 0 6.784896e-005 0 0)
(-8.7681291e-005 6.644989e-005 0 8.7326548e-005 0 0)
(-0.00011821797 9.6148599e-005 0 0.00011760933 0 0)
(-0.00016001117 0.00013662512 0 0.000158901 0 0)
(-0.00021875827 0.00019471064 0 0.00021669307 0 0)
(-0.00029992124 0.0002781849 0 0.0002958571 0 0)
(-0.00041434376 0.00040560072 0 0.00040708 0 0)
(-0.00056822912 0.00058742431 0 0.00055139526 0 0)
(-0.00078791002 0.00090235048 0 0.00076076535 0 0)
(-0.0010847369 0.001327573 0 0.0010043061 0 0)
(-0.0014694114 0.0023018594 0 0.0013514073 0 0)
(-0.0023422256 0.003694173 0 0.0017959188 0 0)
(-0.0034617164 0.0069530298 0 0.0025030361 0 0)
(-0.0085520034 0.010295905 0 0.0041993961 0 0)
(-0.0027018011 0.0083560156 0 0.0013241148 0 0)
(2.2961941e-005 0.00014396325 0 5.3895368e-005 0 0)
(-0.00023658165 -1.7501273e-005 0 9.8921758e-005 0 0)
(4.115245e-005 -2.9785278e-005 0 5.0011933e-005 0 0)
(-0.00011026545 1.1441175e-005 0 6.0580413e-005 0 0)
(-2.6159904e-005 -2.6340495e-005 0 4.7039355e-005 0 0)
(-4.7211673e-005 1.5937074e-006 0 3.9316617e-005 0 0)
(-3.5782754e-005 -1.4580437e-006 0 3.8665856e-005 0 0)
(-3.9305539e-005 1.0192413e-005 0 3.8049378e-005 0 0)
(-4.1788867e-005 1.9404114e-005 0 4.2088427e-005 0 0)
(-4.9906809e-005 3.2843211e-005 0 4.9608513e-005 0 0)
(-6.3052904e-005 5.0573292e-005 0 6.290906e-005 0 0)
(-8.1103932e-005 7.250098e-005 0 8.0730788e-005 0 0)
(-0.00010894169 0.00010481206 0 0.00010830858 0 0)
(-0.00014684059 0.00014876134 0 0.00014570003 0 0)
(-0.00019961816 0.00021159313 0 0.00019746688 0 0)
(-0.00027181279 0.00030158156 0 0.00026749799 0 0)
(-0.00037169133 0.00043785291 0 0.00036397636 0 0)
(-0.00050628523 0.00062945993 0 0.00048805628 0 0)
(-0.00069056299 0.00095643971 0 0.00066183075 0 0)
(-0.00092065275 0.0013974793 0 0.00083371657 0 0)
(-0.0011075467 0.0023973945 0 0.0010023875 0 0)
(-0.001686607 0.0037801117 0 0.0011203 0 0)
(-0.0013345106 0.0070848126 0 0.00065266111 0 0)
(-0.003290802 0.0096555915 0 9.9512724e-005 0 0)
(0.0034114098 0.0093052468 0 -0.0057014976 0 0)
(-0.0078198488 -0.00077330799 0 0.0063256123 0 0)
(-0.0028523624 -0.00074342827 0 0.0027971238 0 0)
(-0.00093877044 -0.00055212208 0 0.00081442535 0 0)
(-0.00022667078 -0.00045667099 0 0.00024003965 0 0)
(-7.3028865e-005 -0.00040278336 0 5.6858866e-005 0 0)
(-1.6264338e-005 -0.00039263216 0 1.6368288e-005 0 0)
(-8.2978816e-006 -0.00038976686 0 4.4340585e-006 0 0)
(-3.163952e-006 -0.00038928976 0 6.2370203e-007 0 0)
(-2.7367681e-006 -0.00038905757 0 -8.8930819e-008 0 0)
(-2.7077287e-006 -0.00038900946 0 -7.8180856e-008 0 0)
(-2.7437357e-006 -0.00038900427 0 -3.8879333e-008 0 0)
(-2.7735138e-006 -0.00038900437 0 -1.6463948e-008 0 0)
(-2.7790625e-006 -0.00038900547 0 -7.8238356e-009 0 0)
(-2.7848121e-006 -0.00038900583 0 -3.2158174e-009 0 0)
(-2.7866452e-006 -0.00038900611 0 -1.1990585e-009 0 0)
(-2.7873844e-006 -0.00038900604 0 -4.4714848e-010 0 0)
(-2.7876742e-006 -0.00038900606 0 -1.8157381e-010 0 0)
(-2.7878105e-006 -0.00038900623 0 -5.1420665e-011 0 0)
(-2.7878961e-006 -0.00038900621 0 3.0680589e-011 0 0)
(-2.788033e-006 -0.00038900607 0 1.3195179e-010 0 0)
(-2.7883283e-006 -0.00038900612 0 4.2757613e-010 0 0)
(-2.789359e-006 -0.00038900562 0 1.1367097e-009 0 0)
(-2.7888972e-006 -0.00038900443 0 3.8095734e-009 0 0)
(-2.8000839e-006 -0.00038900517 0 1.5829693e-008 0 0)
(-2.804002e-006 -0.00038900213 0 1.4129226e-008 0 0)
(-0.0078743555 -0.0021368597 0 0.0061997017 0 0)
(-0.0030224386 -0.0019391766 0 0.0029146848 0 0)
(-0.00092176246 -0.0013697085 0 0.00072136967 0 0)
(-0.00021012246 -0.0010859788 0 0.00020936351 0 0)
(-7.1498175e-005 -0.00093631639 0 3.4889078e-005 0 0)
(-2.6315145e-005 -0.00090658666 0 1.3711624e-005 0 0)
(-2.0807642e-005 -0.00089895869 0 3.2477989e-006 0 0)
(-1.6232668e-005 -0.00089737736 0 5.419531e-007 0 0)
(-1.5858281e-005 -0.00089678826 0 -1.6128637e-007 0 0)
(-1.5872849e-005 -0.00089666048 0 -9.6516567e-008 0 0)
(-1.5919989e-005 -0.00089665126 0 -3.8982503e-008 0 0)
(-1.59528e-005 -0.00089665321 0 -1.730094e-008 0 0)
(-1.5958508e-005 -0.00089665614 0 -7.1341353e-009 0 0)
(-1.596414e-005 -0.00089665748 0 -3.0425173e-009 0 0)
(-1.5965923e-005 -0.00089665821 0 -1.079575e-009 0 0)
(-1.5966617e-005 -0.00089665836 0 -3.8640502e-010 0 0)
(-1.5966851e-005 -0.00089665859 0 -1.8621503e-010 0 0)
(-1.5966988e-005 -0.00089665863 0 -6.2140148e-011 0 0)
(-1.5967102e-005 -0.00089665864 0 4.1967235e-011 0 0)
(-1.5967211e-005 -0.00089665845 0 9.9202679e-011 0 0)
(-1.5967417e-005 -0.00089665835 0 3.4816215e-010 0 0)
(-1.5968179e-005 -0.00089665737 0 9.4018554e-010 0 0)
(-1.5967212e-005 -0.00089665396 0 2.6193581e-009 0 0)
(-1.5972983e-005 -0.00089665525 0 1.1712456e-008 0 0)
(-1.5974623e-005 -0.00089663552 0 9.8705698e-009 0 0)
(-0.0083344206 -0.0028151457 0 0.0063735877 0 0)
(-0.003069101 -0.0021816176 0 0.0029296671 0 0)
(-0.00081374391 -0.0012368363 0 0.00059605141 0 0)
(-0.00013667334 -0.00079839325 0 0.00014267152 0 0)
(-4.1227714e-005 -0.00058307316 0 8.1046612e-006 0 0)
(-1.3791824e-005 -0.00053884476 0 7.0841693e-006 0 0)
(-1.3917818e-005 -0.00052807057 0 1.6693316e-006 0 0)
(-1.0403772e-005 -0.00052541458 0 2.7046085e-007 0 0)
(-1.0251789e-005 -0.00052465868 0 -2.5363616e-007 0 0)
(-1.0329225e-005 -0.00052449675 0 -1.1868621e-007 0 0)
(-1.0396808e-005 -0.00052449991 0 -4.1616164e-008 0 0)
(-1.0432677e-005 -0.00052450703 0 -1.7402626e-008 0 0)
(-1.0438813e-005 -0.00052451179 0 -6.3637333e-009 0 0)
(-1.0444107e-005 -0.0005245143 0 -2.7140868e-009 0 0)
(-1.0445724e-005 -0.00052451536 0 -9.0392319e-010 0 0)
(-1.0446288e-005 -0.00052451641 0 -3.1942294e-010 0 0)
(-1.0446459e-005 -0.00052451724 0 -1.6708097e-010 0 0)
(-1.0446608e-005 -0.00052451627 0 -3.4699087e-011 0 0)
(-1.044673e-005 -0.00052451623 0 6.8959748e-011 0 0)
(-1.0446794e-005 -0.0005245172 0 6.3337754e-011 0 0)
(-1.0447008e-005 -0.00052451575 0 2.956573e-010 0 0)
(-1.0447754e-005 -0.00052451593 0 8.4389475e-010 0 0)
(-1.0447e-005 -0.00052451117 0 2.0578865e-009 0 0)
(-1.0449747e-005 -0.00052451183 0 5.9235638e-009 0 0)
(-1.045264e-005 -0.00052446214 0 4.7885229e-009 0 0)
(-0.0086754319 -0.0023259968 0 0.0065352899 0 0)
(-0.0028306542 -0.00078560135 0 0.0027679094 0 0)
(-0.00066537317 0.00058254316 0 0.00045721731 0 0)
(-6.4222501e-005 0.0011393367 0 5.9494721e-005 0 0)
(-4.1457328e-005 0.0013733681 0 -1.7625178e-005 0 0)
(-3.2103761e-005 0.0014225945 0 -1.3154472e-006 0 0)
(-3.9554185e-005 0.0014334828 0 -3.3863444e-007 0 0)
(-3.7631002e-005 0.0014366096 0 -1.553673e-007 0 0)
(-3.7912386e-005 0.0014372706 0 -3.2863538e-007 0 0)
(-3.8046914e-005 0.0014373925 0 -1.2905162e-007 0 0)
(-3.8125592e-005 0.0014373552 0 -4.215634e-008 0 0)
(-3.8160936e-005 0.0014373378 0 -1.5693562e-008 0 0)
(-3.8165991e-005 0.0014373298 0 -5.2091187e-009 0 0)
(-3.8170471e-005 0.0014373264 0 -2.073666e-009 0 0)
(-3.8171545e-005 0.001437325 0 -6.585228e-010 0 0)
(-3.8171806e-005 0.0014373225 0 -2.256096e-010 0 0)
(-3.817202e-005 0.0014373232 0 -5.4537989e-011 0 0)
(-3.817215e-005 0.0014373237 0 9.453233e-012 0 0)
(-3.8172183e-005 0.0014373238 0 1.3787992e-011 0 0)
(-3.8172166e-005 0.0014373225 0 1.7416075e-011 0 0)
(-3.8172369e-005 0.0014373226 0 1.8290554e-010 0 0)
(-3.817292e-005 0.0014373222 0 5.580969e-010 0 0)
(-3.8172377e-005 0.0014373258 0 7.8604597e-010 0 0)
(-3.8170383e-005 0.0014373263 0 -1.8990021e-009 0 0)
(-3.8175269e-005 0.0014373984 0 -2.3137422e-009 0 0)
(-0.0083271658 -0.00052437531 0 0.0061857139 0 0)
(-0.0023928569 0.0027924018 0 0.0022841687 0 0)
(-0.00091079599 0.0045988922 0 0.00033235566 0 0)
(-0.00043281899 0.0053004025 0 -6.9247134e-006 0 0)
(-0.00050334926 0.0054815496 0 -3.3177572e-005 0 0)
(-0.000508505 0.0055280654 0 -7.3101543e-006 0 0)
(-0.00052220106 0.0055345717 0 -2.4027576e-006 0 0)
(-0.00052223145 0.0055373388 0 -5.1564648e-007 0 0)
(-0.00052301018 0.0055375565 0 -3.3041159e-007 0 0)
(-0.00052315241 0.0055375715 0 -1.0570039e-007 0 0)
(-0.00052320862 0.0055374887 0 -3.4167515e-008 0 0)
(-0.00052323477 0.0055374589 0 -1.0937957e-008 0 0)
(-0.000523235 0.0055374425 0 -3.2243816e-009 0 0)
(-0.00052323758 0.0055374411 0 -1.0253645e-009 0 0)
(-0.00052323743 0.0055374346 0 -3.2950695e-010 0 0)
(-0.00052323742 0.0055374368 0 -9.2240766e-011 0 0)
(-0.00052323764 0.0055374363 0 2.7582298e-011 0 0)
(-0.00052323771 0.0055374377 0 2.5932219e-011 0 0)
(-0.00052323714 0.0055374296 0 -2.5768311e-011 0 0)
(-0.00052323738 0.0055374345 0 -7.480513e-012 0 0)
(-0.00052323759 0.0055374357 0 1.4037405e-011 0 0)
(-0.00052323805 0.0055374378 0 1.1369499e-010 0 0)
(-0.00052323803 0.0055374402 0 -3.5777839e-010 0 0)
(-0.00052323124 0.0055374381 0 -9.6976064e-009 0 0)
(-0.00052323917 0.0055375036 0 -9.806863e-009 0 0)
(-0.0068879596 0.0026754421 0 0.0047833851 0 0)
(-0.0025066695 0.008779165 0 0.0012635251 0 0)
(-0.0024952353 0.010712501 0 0.00020543834 0 0)
(-0.002316752 0.011567614 0 -2.0137928e-005 0 0)
(-0.0024385768 0.011673808 0 -3.1944997e-005 0 0)
(-0.0024480253 0.011707992 0 -9.5548701e-006 0 0)
(-0.0024634645 0.011707178 0 -3.779867e-006 0 0)
(-0.0024648916 0.011708563 0 -6.0852368e-007 0 0)
(-0.0024658648 0.011708114 0 -2.1075355e-007 0 0)
(-0.0024658764 0.011707998 0 -4.4463826e-008 0 0)
(-0.0024658678 0.011707878 0 -1.489567e-008 0 0)
(-0.0024658692 0.011707834 0 -3.0944811e-009 0 0)
(-0.0024658603 0.011707814 0 -1.3251155e-011 0 0)
(-0.0024658597 0.011707812 0 2.3112927e-010 0 0)
(-0.0024658583 0.01170781 0 1.5931711e-010 0 0)
(-0.0024658577 0.011707809 0 6.0722847e-011 0 0)
(-0.0024658577 0.011707809 0 5.3917325e-011 0 0)
(-0.0024658565 0.0117078 0 9.9874805e-012 0 0)
(-0.0024658571 0.011707805 0 -9.0714657e-012 0 0)
(-0.0024658575 0.011707808 0 -1.7673626e-011 0 0)
(-0.0024658576 0.011707809 0 -1.5337721e-010 0 0)
(-0.0024658577 0.01170781 0 -4.2036023e-010 0 0)
(-0.0024658588 0.011707812 0 -1.3219776e-009 0 0)
(-0.0024658484 0.011707805 0 -1.3332873e-008 0 0)
(-0.002465853 0.01170783 0 -1.3393624e-008 0 0)
(-0.0045622043 0.0081882026 0 0.0015620869 0 0)
(-0.0046076578 0.015792791 0 -1.6166015e-005 0 0)
(-0.0065264492 0.01809004 0 -2.0652377e-005 0 0)
(-0.0067659937 0.018900619 0 2.0069826e-006 0 0)
(-0.0069113859 0.0189582 0 -1.3921982e-005 0 0)
(-0.0068961211 0.018976019 0 -8.4775931e-006 0 0)
(-0.0069082663 0.018966959 0 -3.3648099e-006 0 0)
(-0.0069083922 0.018966753 0 -3.9638235e-007 0 0)
(-0.0069091097 0.018965661 0 5.2866704e-008 0 0)
(-0.0069088179 0.018965519 0 4.1773819e-008 0 0)
(-0.0069087108 0.018965385 0 1.3031056e-008 0 0)
(-0.0069086751 0.018965338 0 6.5361846e-009 0 0)
(-0.006908656 0.018965323 0 3.4991418e-009 0 0)
(-0.0069086516 0.018965318 0 1.5754979e-009 0 0)
(-0.0069086487 0.018965317 0 5.9065338e-010 0 0)
(-0.0069086478 0.018965316 0 2.0731207e-010 0 0)
(-0.0069086475 0.018965316 0 4.8080079e-011 0 0)
(-0.0069086474 0.018965316 0 -8.5602962e-012 0 0)
(-0.0069086474 0.018965316 0 3.9244283e-012 0 0)
(-0.0069086469 0.018965311 0 -4.3368095e-011 0 0)
(-0.0069086469 0.018965312 0 -2.5009677e-010 0 0)
(-0.0069086473 0.018965316 0 -8.2814152e-010 0 0)
(-0.0069086487 0.018965317 0 -1.5452448e-009 0 0)
(-0.0069086396 0.018965311 0 -1.0723015e-008 0 0)
(-0.0069086301 0.018965286 0 -1.0617657e-008 0 0)
(-0.0044247036 0.013816674 0 -0.0012084514 0 0)
(-0.0089288891 0.023314617 0 -0.001601357 0 0)
(-0.013093412 0.02493898 0 -0.00019385399 0 0)
(-0.013442829 0.02549149 0 2.4817253e-005 0 0)
(-0.013593249 0.025513706 0 1.0716913e-005 0 0)
(-0.013543054 0.025525594 0 -5.0890275e-006 0 0)
(-0.013550097 0.025510846 0 -9.5930359e-007 0 0)
(-0.013546644 0.025510557 0 -5.1091955e-010 0 0)
(-0.013547014 0.025509307 0 3.6061113e-007 0 0)
(-0.013546428 0.02550931 0 1.2583085e-007 0 0)
(-0.01354625 0.025509214 0 3.9635142e-008 0 0)
(-0.013546191 0.025509186 0 1.5680165e-008 0 0)
(-0.013546166 0.02550918 0 5.7573015e-009 0 0)
(-0.013546161 0.025509178 0 2.5209167e-009 0 0)
(-0.013546157 0.025509177 0 8.2923107e-010 0 0)
(-0.013546156 0.025509177 0 2.864718e-010 0 0)
(-0.013546156 0.025509177 0 6.1929068e-011 0 0)
(-0.013546156 0.025509177 0 -4.0290964e-013 0 0)
(-0.013546156 0.025509177 0 -2.6282471e-011 0 0)
(-0.013546156 0.025509177 0 -8.5797517e-011 0 0)
(-0.013546156 0.025509177 0 -2.3262324e-010 0 0)
(-0.013546156 0.025509178 0 -8.881018e-010 0 0)
(-0.013546157 0.025509177 0 -1.2764798e-009 0 0)
(-0.013546153 0.025509173 0 -2.7967715e-009 0 0)
(-0.013546123 0.025509101 0 -1.9689834e-009 0 0)
(-0.009056159 0.022387746 0 -0.0037411493 0 0)
(-0.015216746 0.028780444 0 -0.0027047679 0 0)
(-0.020383876 0.029279786 0 -0.00017367684 0 0)
(-0.020343064 0.029492444 0 -3.4740685e-006 0 0)
(-0.020591875 0.029530837 0 3.1747838e-005 0 0)
(-0.020485682 0.029532315 0 -4.1224835e-006 0 0)
(-0.020499726 0.029523179 0 2.1423811e-006 0 0)
(-0.02049089 0.029522863 0 2.3074334e-007 0 0)
(-0.020492278 0.029522604 0 5.5485479e-007 0 0)
(-0.020491483 0.029522779 0 1.4708929e-007 0 0)
(-0.020491385 0.02952278 0 5.1064546e-008 0 0)
(-0.020491345 0.029522791 0 1.9222923e-008 0 0)
(-0.020491324 0.029522794 0 6.2225272e-009 0 0)
(-0.020491323 0.029522797 0 2.6941446e-009 0 0)
(-0.020491321 0.029522798 0 8.0201319e-010 0 0)
(-0.020491321 0.029522798 0 2.7790017e-010 0 0)
(-0.020491321 0.029522798 0 1.0186088e-010 0 0)
(-0.02049132 0.029522798 0 1.1578427e-011 0 0)
(-0.02049132 0.029522798 0 -8.2958907e-011 0 0)
(-0.02049132 0.029522798 0 -1.7064878e-010 0 0)
(-0.020491321 0.029522799 0 -3.3453782e-010 0 0)
(-0.020491321 0.0295228 0 -1.0925335e-009 0 0)
(-0.020491325 0.029522799 0 -1.4458489e-009 0 0)
(-0.020491333 0.029522801 0 3.0232721e-009 0 0)
(-0.020491309 0.029522745 0 4.5968688e-009 0 0)
(-0.031027992 0.038773417 0 -0.0078686201 0 0)
(-0.026315804 0.032103973 0 -0.0019339218 0 0)
(-0.035159251 0.034564607 0 -0.00016660688 0 0)
(-0.032986294 0.033498781 0 -2.0330416e-005 0 0)
(-0.033890004 0.033930268 0 2.3057975e-005 0 0)
(-0.033603347 0.033821497 0 -1.2191679e-006 0 0)
(-0.033678465 0.033857812 0 2.6715458e-006 0 0)
(-0.033658547 0.03385051 0 1.4459578e-007 0 0)
(-0.033664271 0.033853711 0 4.2310454e-007 0 0)
(-0.033663692 0.03385389 0 7.2413471e-008 0 0)
(-0.033663815 0.033854027 0 3.5597047e-008 0 0)
(-0.033663885 0.033854106 0 1.1340593e-008 0 0)
(-0.033663876 0.033854111 0 3.0352949e-009 0 0)
(-0.033663888 0.033854121 0 1.4721399e-009 0 0)
(-0.033663889 0.033854123 0 3.5478296e-010 0 0)
(-0.033663889 0.033854124 0 1.4448109e-010 0 0)
(-0.03366389 0.033854124 0 4.6970873e-011 0 0)
(-0.033663889 0.033854124 0 -1.7319769e-011 0 0)
(-0.033663889 0.033854124 0 -9.8300695e-011 0 0)
(-0.033663889 0.033854124 0 -2.4968504e-010 0 0)
(-0.033663888 0.033854124 0 -5.1917826e-010 0 0)
(-0.033663884 0.033854122 0 -1.1837301e-009 0 0)
(-0.03366388 0.033854118 0 -3.2624097e-009 0 0)
(-0.033663887 0.033854123 0 2.7519131e-009 0 0)
(-0.033663865 0.033854139 0 6.001174e-009 0 0)
(4.5027388e-005 0.00014843174 0 7.1330918e-005 0 0)
(-0.000268224 -1.9860642e-005 0 6.5883766e-005 0 0)
(4.7473989e-005 -3.5872862e-005 0 8.8747771e-005 0 0)
(-0.00011066745 4.1419199e-006 0 4.1945928e-005 0 0)
(-2.9386204e-005 -2.9003755e-005 0 5.3206783e-005 0 0)
(-4.0202049e-005 -2.4654254e-006 0 3.4092519e-005 0 0)
(-3.3643916e-005 -1.6947468e-006 0 3.5087259e-005 0 0)
(-3.3849578e-005 1.0594144e-005 0 3.255987e-005 0 0)
(-3.5849473e-005 2.2000891e-005 0 3.5652355e-005 0 0)
(-4.1836959e-005 3.7126512e-005 0 4.118556e-005 0 0)
(-5.2432228e-005 5.7604761e-005 0 5.1782972e-005 0 0)
(-6.7249599e-005 8.3073659e-005 0 6.6263662e-005 0 0)
(-8.9289365e-005 0.00011920446 0 8.7883278e-005 0 0)
(-0.00011933388 0.00016865676 0 0.00011718464 0 0)
(-0.00016027461 0.00023851486 0 0.00015681822 0 0)
(-0.00021474128 0.00033782314 0 0.00020893854 0 0)
(-0.00028615688 0.00048455966 0 0.00027692773 0 0)
(-0.00037376451 0.00069096641 0 0.00035538459 0 0)
(-0.00047615528 0.0010254966 0 0.00045022805 0 0)
(-0.00058157776 0.0014859638 0 0.00051450471 0 0)
(-0.00057305183 0.0023759164 0 0.00051428119 0 0)
(-0.00059510312 0.0037693053 0 0.00015168 0 0)
(0.00069756915 0.0063325415 0 -0.0009500745 0 0)
(0.0015446747 0.0072336441 0 -0.0032220506 0 0)
(0.0092655365 0.0034274682 0 -0.010065474 0 0)
(5.2544953e-005 0.00014741003 0 8.0959367e-005 0 0)
(-0.00029499544 -1.9879577e-005 0 6.2005429e-005 0 0)
(5.1878388e-005 -4.1409121e-005 0 0.00010084227 0 0)
(-0.00010992019 -1.6300874e-005 0 3.6238959e-005 0 0)
(-2.8970817e-005 -2.8895193e-005 0 4.842713e-005 0 0)
(-3.0483261e-005 -1.086289e-005 0 2.8722905e-005 0 0)
(-2.681632e-005 -2.4374907e-006 0 2.6964704e-005 0 0)
(-2.429126e-005 1.0447995e-005 0 2.3562651e-005 0 0)
(-2.4551183e-005 2.4664755e-005 0 2.4491978e-005 0 0)
(-2.7574498e-005 4.211225e-005 0 2.7274374e-005 0 0)
(-3.3665303e-005 6.5653237e-005 0 3.3413173e-005 0 0)
(-4.2297538e-005 9.4448166e-005 0 4.1868277e-005 0 0)
(-5.4857636e-005 0.00013449357 0 5.4136638e-005 0 0)
(-7.1690769e-005 0.00018974563 0 7.0553765e-005 0 0)
(-9.2970995e-005 0.0002654187 0 9.0955251e-005 0 0)
(-0.00011896325 0.00037174563 0 0.0001152876 0 0)
(-0.00014767904 0.00052333548 0 0.00014131483 0 0)
(-0.00017386846 0.00073334808 0 0.00016060682 0 0)
(-0.00018246975 0.0010428348 0 0.00016039302 0 0)
(-0.00014878204 0.0014550739 0 9.5708015e-005 0 0)
(1.6135143e-005 0.0021429437 0 -0.00010008405 0 0)
(0.00036547715 0.0030120374 0 -0.00075252445 0 0)
(0.0020066258 0.0043534312 0 -0.0024369387 0 0)
(0.0045362788 0.0025616632 0 -0.0061662892 0 0)
(0.0057464765 -0.0037978905 0 -0.0086216756 0 0)
(4.3909783e-005 0.0001640966 0 8.7429895e-005 0 0)
(-0.00031490364 -2.2756203e-005 0 8.6772479e-005 0 0)
(5.650641e-005 -5.3166148e-005 0 8.8062818e-005 0 0)
(-0.00010577838 -3.2046725e-005 0 4.1776357e-005 0 0)
(-2.5850919e-005 -3.2499261e-005 0 3.6281011e-005 0 0)
(-2.0502506e-005 -1.62568e-005 0 2.2194859e-005 0 0)
(-1.7564592e-005 -3.7004959e-006 0 1.6768141e-005 0 0)
(-1.3426102e-005 1.0546138e-005 0 1.2968921e-005 0 0)
(-1.1650931e-005 2.7022378e-005 0 1.16275e-005 0 0)
(-1.1720999e-005 4.5807987e-005 0 1.1607398e-005 0 0)
(-1.3036739e-005 7.0075864e-005 0 1.2858166e-005 0 0)
(-1.5374818e-005 0.00010244289 0 1.5122621e-005 0 0)
(-1.822013e-005 0.00014282147 0 1.7791374e-005 0 0)
(-2.1400394e-005 0.00019914904 0 2.0615051e-005 0 0)