/*--------------------------------*- C++ -*----------------------------------*\
| =========                 |                                                 |
| \\      /  F ield         | OpenFOAM: The Open Source CFD Toolbox           |
|  \\    /   O peration     | Version:  5.x                                   |
|   \\  /    A nd           | Web:      www.OpenFOAM.org                      |
|    \\/     M anipulation  |                                                 |
\*---------------------------------------------------------------------------*/
/*   Windows 32 and 64 bit porting by blueCAPE: http://www.bluecape.com.pt   *\
|  Based on Windows porting (2.0.x v4) by Symscape: http://www.symscape.com   |
\*---------------------------------------------------------------------------*/
FoamFile
{
    version     2.0;
    format      ascii;
    class       volVectorField;
    location    "0.05";
    object      U;
}
// * * * * * * * * * * * * * * * * * * * * * * * * * * * * * * * * * * * * * //

dimensions      [0 1 -1 0 0 0 0];

internalField   nonuniform List<vector> 
750
(
(0.038805705 -5.1269608e-005 0)
(0.039503333 -4.7718697e-005 0)
(0.039629625 -4.2490708e-005 0)
(0.040122729 -3.7182774e-005 0)
(0.04026685 -3.1038076e-005 0)
(0.040587998 -3.0045387e-005 0)
(0.040763916 -2.5865095e-005 0)
(0.040991567 -2.6287176e-005 0)
(0.041188576 -2.6999863e-005 0)
(0.041420146 -3.106669e-005 0)
(0.041685396 -3.7794027e-005 0)
(0.042022758 -4.8800093e-005 0)
(0.042464317 -6.5158895e-005 0)
(0.043062114 -8.9135492e-005 0)
(0.043885825 -0.00012404883 0)
(0.045040751 -0.00017487852 0)
(0.046673872 -0.00024960426 0)
(0.049016964 -0.00036213524 0)
(0.052456834 -0.00053042441 0)
(0.057430975 -0.00080633859 0)
(0.065362157 -0.001205252 0)
(0.07640586 -0.0019648775 0)
(0.097128781 -0.0030735214 0)
(0.12462942 -0.0045238029 0)
(0.17132384 -0.005455869 0)
(0.038804746 -0.00015063081 0)
(0.039506508 -0.00014893718 0)
(0.039630977 -0.00012266601 0)
(0.040124703 -0.00011325435 0)
(0.040268858 -9.2301118e-005 0)
(0.04058907 -8.9678675e-005 0)
(0.040764778 -7.7764664e-005 0)
(0.040991189 -7.8388525e-005 0)
(0.041187273 -8.0891009e-005 0)
(0.04141731 -9.2807011e-005 0)
(0.041680854 -0.00011301862 0)
(0.042015869 -0.00014585363 0)
(0.042454152 -0.00019472892 0)
(0.043047316 -0.00026632545 0)
(0.043864371 -0.00037052702 0)
(0.045009435 -0.00052222367 0)
(0.046626981 -0.00074507818 0)
(0.048947827 -0.0010807655 0)
(0.052350289 -0.0015820391 0)
(0.057260146 -0.002396326 0)
(0.065078818 -0.0036020939 0)
(0.075971388 -0.0058286435 0)
(0.096518058 -0.0092548416 0)
(0.1239429 -0.013562232 0)
(0.17131676 -0.016684224 0)
(0.038802031 -0.00024937221 0)
(0.039511372 -0.00025229121 0)
(0.039634004 -0.00020143866 0)
(0.040128468 -0.00018986814 0)
(0.040273041 -0.00015347849 0)
(0.040591435 -0.00014887688 0)
(0.040766625 -0.00012961039 0)
(0.04099064 -0.00012996603 0)
(0.04118482 -0.00013443014 0)
(0.041411868 -0.0001539371 0)
(0.041671957 -0.00018756889 0)
(0.042002275 -0.00024191788 0)
(0.042434038 -0.00032291295 0)
(0.043017976 -0.00044155771 0)
(0.043821734 -0.00061410254 0)
(0.044946934 -0.0008652006 0)
(0.046534078 -0.0012338693 0)
(0.048808404 -0.001788776 0)
(0.052135804 -0.0026165397 0)
(0.056919795 -0.0039515502 0)
(0.064509619 -0.0059578196 0)
(0.075093041 -0.0096153146 0)
(0.095284773 -0.01542393 0)
(0.12235873 -0.022620602 0)
(0.17055381 -0.028227561 0)
(0.038796282 -0.00034979509 0)
(0.039516438 -0.00035419883 0)
(0.039638404 -0.00028233381 0)
(0.040134027 -0.00026566607 0)
(0.040279389 -0.00021518 0)
(0.04059524 -0.00020755257 0)
(0.040769472 -0.00018105784 0)
(0.040989954 -0.00018086732 0)
(0.041181242 -0.00018720341 0)
(0.041403892 -0.00021406473 0)
(0.041658774 -0.00026084134 0)
(0.041982039 -0.00033621927 0)
(0.042404123 -0.00044862746 0)
(0.042974336 -0.00061326871 0)
(0.043758301 -0.00085248357 0)
(0.04485383 -0.001200314 0)
(0.046396386 -0.0017105994 0)
(0.048599938 -0.0024776782 0)
(0.051816102 -0.0036200926 0)
(0.056414413 -0.0054526223 0)
(0.063667771 -0.0082331627 0)
(0.073796014 -0.013296347 0)
(0.093421333 -0.021477756 0)
(0.1196257 -0.031667688 0)
(0.16770035 -0.039883369 0)
(0.038786449 -0.00045051405 0)
(0.039520978 -0.00045644926 0)
(0.039643811 -0.00036431622 0)
(0.040141324 -0.00034122724 0)
(0.040287914 -0.00027679416 0)
(0.040600458 -0.00026567428 0)
(0.040773264 -0.00023181225 0)
(0.040989093 -0.0002308727 0)
(0.041176507 -0.00023888756 0)
(0.041393369 -0.00027281243 0)
(0.041641326 -0.00033230291 0)
(0.041955235 -0.00042808979 0)
(0.04236456 -0.00057095433 0)
(0.042916677 -0.0007801039 0)
(0.043674583 -0.0010836847 0)
(0.044731094 -0.001524614 0)
(0.046215393 -0.0021706271 0)
(0.048325533 -0.0031398369 0)
(0.05139463 -0.0045806504 0)
(0.055748871 -0.006878915 0)
(0.062566134 -0.010391685 0)
(0.072090451 -0.016831123 0)
(0.090857861 -0.027296775 0)
(0.11544244 -0.040430961 0)
(0.16165878 -0.051077849 0)
(0.038771733 -0.00055016869 0)
(0.039525084 -0.00056099328 0)
(0.03965019 -0.00044670392 0)
(0.040150288 -0.00041728352 0)
(0.040298824 -0.00033800465 0)
(0.040606992 -0.00032319572 0)
(0.040778032 -0.00028162824 0)
(0.040988087 -0.00027973918 0)
(0.041170662 -0.00028918349 0)
(0.041380375 -0.00032979524 0)
(0.041619735 -0.0004014801 0)
(0.041922069 -0.00051687496 0)
(0.042315665 -0.00068897726 0)
(0.042845477 -0.00094077729 0)
(0.043571348 -0.0013058458 0)
(0.044580054 -0.0018353689 0)
(0.045993046 -0.0026095783 0)
(0.047988676 -0.0037683535 0)
(0.050875305 -0.0054858024 0)
(0.054930531 -0.0082111206 0)
(0.061213207 -0.012396403 0)
(0.069933181 -0.020147087 0)
(0.087491295 -0.032725252 0)
(0.10949239 -0.048553121 0)
(0.1522925 -0.06091693 0)
(0.038752238 -0.00064803904 0)
(0.039529506 -0.0006687518 0)
(0.039657684 -0.00052969911 0)
(0.040161204 -0.00049409341 0)
(0.040312333 -0.00039882948 0)
(0.040614797 -0.00037992528 0)
(0.040783877 -0.00033033125 0)
(0.040987011 -0.0003272126 0)
(0.04116379 -0.00033780253 0)
(0.041365051 -0.00038464185 0)
(0.041594215 -0.00046789828 0)
(0.041882791 -0.00060193854 0)
(0.042257826 -0.00080179254 0)
(0.042761316 -0.0010940347 0)
(0.043449464 -0.0015171631 0)
(0.044402133 -0.0021299113 0)
(0.045731424 -0.0030234281 0)
(0.047594062 -0.0043568097 0)
(0.050267911 -0.0063252893 0)
(0.053972844 -0.0094322943 0)
(0.059643748 -0.014222852 0)
(0.06733316 -0.023187868 0)
(0.083294529 -0.037635261 0)
(0.10160326 -0.055827303 0)
(0.14083798 -0.068571563 0)
(0.038729204 -0.00074398972 0)
(0.039535444 -0.00077954514 0)
(0.039666591 -0.00061398661 0)
(0.040174771 -0.00057134364 0)
(0.040328565 -0.00045932316 0)
(0.040623934 -0.00043561806 0)
(0.040790967 -0.00037775402 0)
(0.040985972 -0.00037304435 0)
(0.041156018 -0.00038445645 0)
(0.041347563 -0.00043700732 0)
(0.041565051 -0.00053107757 0)
(0.041837761 -0.00068264809 0)
(0.042191521 -0.00090857459 0)
(0.042664953 -0.001238684 0)
(0.043310056 -0.0017159015 0)
(0.044199073 -0.0024056484 0)
(0.045433404 -0.0034082237 0)
(0.047147021 -0.0048989001 0)
(0.049583467 -0.0070890746 0)
(0.052892726 -0.010523644 0)
(0.057878889 -0.015819046 0)
(0.064317922 -0.025837174 0)
(0.078150618 -0.041779856 0)
(0.091730019 -0.062057347 0)
(0.12882359 -0.073912058 0)
(0.038704874 -0.00083972811 0)
(0.039543971 -0.00089094246 0)
(0.039677141 -0.0007024938 0)
(0.040192157 -0.00064803973 0)
(0.040347379 -0.00051962487 0)
(0.040634691 -0.00049016592 0)
(0.040799502 -0.00042369041 0)
(0.040985087 -0.0004169641 0)
(0.041147505 -0.00042886337 0)
(0.04132812 -0.00048653322 0)
(0.041532562 -0.0005905461 0)
(0.041787449 -0.0007583908 0)
(0.042117406 -0.0010085199 0)
(0.042557406 -0.0013735639 0)
(0.043154706 -0.0019004064 0)
(0.043973378 -0.0026602462 0)
(0.045103131 -0.0037607695 0)
(0.046655026 -0.005390548 0)
(0.048833995 -0.0077707384 0)
(0.051708894 -0.011474659 0)
(0.055950342 -0.017146348 0)
(0.060948342 -0.028006677 0)
(0.072018754 -0.04491753 0)
(0.080314846 -0.067189029 0)
(0.11514336 -0.077070984 0)
(0.038680785 -0.00093504833 0)
(0.039555316 -0.0010052028 0)
(0.039689629 -0.00079349571 0)
(0.040214649 -0.00072560029 0)
(0.04036851 -0.00057901857 0)
(0.040647517 -0.00054334127 0)
(0.04080969 -0.00046812409 0)
(0.040984492 -0.00045858526 0)
(0.04113845 -0.00047081969 0)
(0.041306958 -0.00053290783 0)
(0.041497082 -0.00064598836 0)
(0.041732393 -0.00082871886 0)
(0.042036328 -0.0011010044 0)
(0.042439883 -0.0014979201 0)
(0.042985317 -0.0020697025 0)
(0.043728112 -0.0028923651 0)
(0.044745421 -0.0040792859 0)
(0.046125382 -0.0058276495 0)
(0.048029476 -0.008362899 0)
(0.05045523 -0.012272695 0)
(0.053929062 -0.018212021 0)
(0.057416709 -0.029602219 0)
(0.065248529 -0.047157498 0)
(0.067452401 -0.071325547 0)
(0.095125891 -0.07708275 0)
(0.21034239 -0.0030480805 0)
(0.22347279 -0.001199248 0)
(0.22850018 -0.00023674024 0)
(0.22774525 4.1963508e-005 0)
(0.22751837 2.9054727e-005 0)
(0.22734389 8.2556688e-006 0)
(0.22735163 1.1204879e-006 0)
(0.22733728 9.1697626e-007 0)
(0.22733436 4.396697e-007 0)
(0.22733168 1.9094488e-007 0)
(0.22733102 5.5933601e-008 0)
(0.22733087 1.5144376e-008 0)
(0.22733079 5.6572043e-009 0)
(0.22733078 1.6232355e-009 0)
(0.22733077 7.125895e-010 0)
(0.22733077 2.06245e-010 0)
(0.22733077 2.3099854e-011 0)
(0.22733076 2.5963503e-011 0)
(0.22733076 5.8690497e-011 0)
(0.22733076 1.3064428e-011 0)
(0.22733076 1.4156808e-010 0)
(0.22733076 5.4156582e-010 0)
(0.22733076 4.4837426e-010 0)
(0.22733076 1.5758382e-009 0)
(0.22733072 2.0077053e-009 0)
(0.21119298 -0.0092653245 0)
(0.22454594 -0.0037166991 0)
(0.22946259 -0.00064283408 0)
(0.22865497 0.00011943221 0)
(0.22840057 9.8761004e-005 0)
(0.22822023 2.3455709e-005 0)
(0.228229 3.8843758e-006 0)
(0.22821631 2.1822065e-006 0)
(0.22821392 1.3426305e-006 0)
(0.22821139 5.3862e-007 0)
(0.22821077 1.6290919e-007 0)
(0.22821065 4.3870409e-008 0)
(0.22821058 1.483785e-008 0)
(0.22821057 4.9373369e-009 0)
(0.22821056 1.7650537e-009 0)
(0.22821056 4.5972655e-010 0)
(0.22821056 1.4956116e-010 0)
(0.22821056 1.8564568e-010 0)
(0.22821056 8.7719098e-011 0)
(0.22821056 3.7065137e-011 0)
(0.22821056 3.6217937e-010 0)
(0.22821056 1.1783508e-009 0)
(0.22821055 1.7002494e-009 0)
(0.22821055 8.0418792e-009 0)
(0.22821048 8.7863421e-009 0)
(0.21076892 -0.015532021 0)
(0.22342795 -0.0062854286 0)
(0.228206 -0.0010009983 0)
(0.22736532 0.00019399017 0)
(0.22713912 0.00017553787 0)
(0.22695576 3.7828484e-005 0)
(0.22696732 6.7782436e-006 0)
(0.2269566 2.9080581e-006 0)
(0.22695545 2.1786626e-006 0)
(0.22695329 8.3353793e-007 0)
(0.22695281 2.5839017e-007 0)
(0.22695274 6.7799828e-008 0)
(0.22695268 2.1609821e-008 0)
(0.22695268 7.8876146e-009 0)
(0.22695267 2.3974549e-009 0)
(0.22695267 6.0850327e-010 0)
(0.22695267 3.8349872e-010 0)
(0.22695267 3.090505e-010 0)
(0.22695267 -9.2399542e-012 0)
(0.22695267 4.0337499e-011 0)
(0.22695267 4.857871e-010 0)
(0.22695267 1.3965822e-009 0)
(0.22695267 3.5194409e-009 0)
(0.22695266 1.8936672e-008 0)
(0.22695256 1.9406787e-008 0)
(0.20588946 -0.021498274 0)
(0.2153926 -0.0086673407 0)
(0.2198727 -0.0013390013 0)
(0.21907326 0.00025698887 0)
(0.21901703 0.00024391248 0)
(0.21884987 5.0614181e-005 0)
(0.2188663 9.2474532e-006 0)
(0.21885694 3.1565879e-006 0)
(0.21885773 2.7700505e-006 0)
(0.21885622 1.0375494e-006 0)
(0.21885599 3.2591042e-007 0)
(0.21885598 8.1770365e-008 0)
(0.21885595 2.5195048e-008 0)
(0.21885595 9.7646617e-009 0)
(0.21885595 2.6501965e-009 0)
(0.21885595 6.6843668e-010 0)
(0.21885595 4.4797948e-010 0)
(0.21885595 3.7111851e-011 0)
(0.21885595 -2.3509474e-010 0)
(0.21885595 3.5020132e-010 0)
(0.21885595 6.8528673e-010 0)
(0.21885595 1.4121066e-009 0)
(0.21885595 5.1721971e-009 0)
(0.21885594 3.189444e-008 0)
(0.21885586 3.2146075e-008 0)
(0.19382686 -0.026320046 0)
(0.19674216 -0.010431956 0)
(0.20047385 -0.0016223372 0)
(0.19976503 0.00026749109 0)
(0.20001013 0.000281436 0)
(0.19988609 5.7794189e-005 0)
(0.19991054 1.1226828e-005 0)
(0.19990165 2.9191967e-006 0)
(0.19990485 3.0033604e-006 0)
(0.19990424 1.0926477e-006 0)
(0.19990435 3.4958267e-007 0)
(0.19990441 8.2564318e-008 0)
(0.19990441 2.465672e-008 0)
(0.19990442 1.0261109e-008 0)
(0.19990442 2.4706866e-009 0)
(0.19990442 4.9985298e-010 0)
(0.19990442 -1.4026954e-010 0)
(0.19990442 -2.7539085e-010 0)
(0.19990442 1.7130572e-010 0)
(0.19990442 6.1736725e-010 0)
(0.19990442 8.3184654e-010 0)
(0.19990442 1.4691166e-009 0)
(0.19990442 5.674773e-009 0)
(0.19990442 3.9827994e-008 0)
(0.1999044 4.0471657e-008 0)
(0.17383308 -0.02887389 0)
(0.16708963 -0.011074818 0)
(0.16931106 -0.0017324506 0)
(0.16865785 0.00020612534 0)
(0.16922445 0.00027125702 0)
(0.16915751 5.5933617e-005 0)
(0.16919596 1.2207761e-005 0)
(0.16918653 2.2598311e-006 0)
(0.16919229 2.8316669e-006 0)
(0.16919253 9.6340771e-007 0)
(0.16919301 3.2097597e-007 0)
(0.16919315 6.9257806e-008 0)
(0.16919316 1.9853833e-008 0)
(0.16919318 8.6712257e-009 0)
(0.16919318 1.8115389e-009 0)
(0.16919319 3.3115145e-010 0)
(0.16919319 -4.4012955e-010 0)
(0.16919319 -4.4380859e-010 0)
(0.16919318 1.6817214e-010 0)
(0.16919319 6.0457109e-010 0)
(0.16919319 1.1753777e-009 0)
(0.16919318 1.9209592e-009 0)
(0.16919319 4.8995786e-009 0)
(0.16919319 3.7189061e-008 0)
(0.16919325 3.860117e-008 0)
(0.14787235 -0.028481409 0)
(0.12942641 -0.010088008 0)
(0.12983364 -0.0016056684 0)
(0.12904787 0.0001032069 0)
(0.1298581 0.00021686465 0)
(0.12982845 4.4426684e-005 0)
(0.12988792 1.1395713e-005 0)
(0.12987602 1.309481e-006 0)
(0.12988427 2.3044797e-006 0)
(0.12988492 6.72928e-007 0)
(0.1298857 2.472324e-007 0)
(0.12988587 4.4188797e-008 0)
(0.12988588 1.2114577e-008 0)
(0.12988592 5.7733402e-009 0)
(0.12988592 7.8783853e-010 0)
(0.12988592 3.0278945e-011 0)
(0.12988592 -5.5539447e-010 0)
(0.12988592 -1.9989456e-010 0)
(0.12988592 1.5216673e-010 0)
(0.12988592 2.8437314e-010 0)
(0.12988592 1.1647382e-009 0)
(0.12988592 2.2340049e-009 0)
(0.12988592 3.1843968e-009 0)
(0.12988593 2.3972637e-008 0)
(0.12988604 2.6292441e-008 0)
(0.11727769 -0.024246597 0)
(0.088759878 -0.007542238 0)
(0.087920188 -0.0011865881 0)
(0.086713309 1.5754997e-005 0)
(0.087645471 0.00014129624 0)
(0.087610239 2.6292582e-005 0)
(0.087691199 8.8287591e-006 0)
(0.087674211 3.301616e-007 0)
(0.087684611 1.5698605e-006 0)
(0.087684841 3.3184608e-007 0)
(0.087685788 1.5282494e-007 0)
(0.087685916 1.7088015e-008 0)
(0.087685928 4.4762303e-009 0)
(0.087685959 2.3673671e-009 0)
(0.087685959 -1.7860354e-010 0)
(0.08768596 -1.4199679e-010 0)
(0.08768596 -1.3829266e-010 0)
(0.087685958 3.4104318e-011 0)
(0.087685959 -2.1381518e-010 0)
(0.087685958 1.9134182e-011 0)
(0.087685959 1.0273436e-009 0)
(0.08768596 2.2189552e-009 0)
(0.087685967 1.7315796e-009 0)
(0.087685966 8.9434286e-009 0)
(0.087686071 1.1645539e-008 0)
(0.08150906 -0.0162406 0)
(0.049644256 -0.0039989936 0)
(0.048588846 -0.0005563665 0)
(0.047009922 -3.3852732e-005 0)
(0.047904854 6.6863374e-005 0)
(0.047822885 8.1618826e-006 0)
(0.047915778 5.1117527e-006 0)
(0.047892789 -2.4037074e-007 0)
(0.047904264 7.7262342e-007 0)
(0.047903312 7.9700181e-008 0)
(0.047904269 6.5436758e-008 0)
(0.047904289 1.003406e-009 0)
(0.047904286 4.3479095e-010 0)
(0.047904308 3.7089915e-010 0)
(0.047904303 -4.6335715e-010 0)
(0.047904304 -1.483731e-010 0)
(0.047904303 -4.6799302e-011 0)
(0.047904302 2.0386334e-011 0)
(0.047904303 -2.4915507e-011 0)
(0.047904302 7.4204533e-011 0)
(0.047904304 4.4404957e-010 0)
(0.047904306 1.2305996e-009 0)
(0.047904315 8.8508363e-010 0)
(0.047904312 7.2959876e-010 0)
(0.047904352 2.2975052e-009 0)
(0.037299798 -0.0075430028 0)
(0.014778551 -0.0003427995 0)
(0.015340495 -0.00012040133 0)
(0.013901689 2.0836956e-006 0)
(0.0145397 -4.1766801e-006 0)
(0.014414821 1.9759452e-006 0)
(0.01448973 -2.2656043e-007 0)
(0.01446882 -7.5800689e-008 0)
(0.014477304 -1.9312862e-008 0)
(0.01447577 -4.0493421e-008 0)
(0.014476397 -1.1723455e-009 0)
(0.014476341 -6.6575926e-009 0)
(0.01447633 -1.0282054e-009 0)
(0.01447634 -6.4572883e-010 0)
(0.014476334 -3.0566221e-010 0)
(0.014476334 -9.1456622e-011 0)
(0.014476334 -4.0114368e-011 0)
(0.014476334 -1.4643985e-011 0)
(0.014476334 -6.378752e-013 0)
(0.014476334 3.2824616e-011 0)
(0.014476334 1.7904864e-010 0)
(0.014476336 5.6716239e-010 0)
(0.014476343 3.7425318e-010 0)
(0.01447634 -2.6464675e-009 0)
(0.014476338 -2.5094064e-009 0)
(0.038626136 -0.0011225031 0)
(0.039583983 -0.0012435748 0)
(0.039723628 -0.00097688534 0)
(0.040266728 -0.00088160004 0)
(0.0404177 -0.00069888837 0)
(0.040677313 -0.00064361812 0)
(0.040833527 -0.00055491404 0)
(0.040984315 -0.00053629813 0)
(0.041119609 -0.00054951208 0)
(0.041261603 -0.00061887083 0)
(0.041420634 -0.00074847253 0)
(0.041613895 -0.00095782333 0)
(0.041861718 -0.0012701827 0)
(0.042187042 -0.0017244221 0)
(0.042621652 -0.0023760352 0)
(0.043203478 -0.0033083739 0)
(0.043981739 -0.0046436847 0)
(0.04500097 -0.0065838063 0)
(0.046335966 -0.009362533 0)
(0.047898218 -0.013527511 0)
(0.049825424 -0.019788944 0)
(0.050754523 -0.03133091 0)
(0.052362137 -0.049230996 0)
(0.041922339 -0.07326294 0)
(0.037581381 -0.061590568 0)
(0.038579455 -0.001417978 0)
(0.039665738 -0.0016189562 0)
(0.039831936 -0.0012848789 0)
(0.040376135 -0.0011040451 0)
(0.040525337 -0.00088316409 0)
(0.040746983 -0.00076854765 0)
(0.040880142 -0.00066663183 0)
(0.040991131 -0.00062772645 0)
(0.041088086 -0.00063908176 0)
(0.041182605 -0.00071303991 0)
(0.041284815 -0.00085787756 0)
(0.041403902 -0.0010925477 0)
(0.041553477 -0.0014438419 0)
(0.041743973 -0.0019516814 0)
(0.041989612 -0.0026746465 0)
(0.042304115 -0.0036980628 0)
(0.042697933 -0.0051438279 0)
(0.043162222 -0.0071962306 0)
(0.043678526 -0.010080235 0)
(0.044101981 -0.014177948 0)
(0.04426714 -0.020066183 0)
(0.043067442 -0.029749723 0)
(0.03985093 -0.043513405 0)
(0.026150622 -0.05688331 0)
(0.0091612937 -0.035391644 0)
(0.038593843 -0.0017641007 0)
(0.039798305 -0.0020331084 0)
(0.039995283 -0.0016140914 0)
(0.040525913 -0.0013176585 0)
(0.040659714 -0.0010437405 0)
(0.040832822 -0.00087183183 0)
(0.040930022 -0.00074726893 0)
(0.040995679 -0.0006890658 0)
(0.041046667 -0.00069300569 0)
(0.041088154 -0.00076517436 0)
(0.041126812 -0.00091501313 0)
(0.04116627 -0.0011592067 0)
(0.041209823 -0.001525075 0)
(0.041257933 -0.0020522713 0)
(0.041307432 -0.0027968365 0)
(0.041350329 -0.003839537 0)
(0.041365681 -0.0052918534 0)
(0.041303571 -0.0073101624 0)
(0.041078594 -0.010088149 0)
(0.040499495 -0.013888 0)
(0.039290496 -0.019126261 0)
(0.036533174 -0.026886515 0)
(0.031047452 -0.037221133 0)
(0.017994841 -0.045384734 0)
(0.0018008455 -0.029275725 0)
(0.038648085 -0.0021859199 0)
(0.03998093 -0.0024983979 0)
(0.040216581 -0.0019506768 0)
(0.040719861 -0.0015118869 0)
(0.040813242 -0.0011710631 0)
(0.040927581 -0.000943392 0)
(0.040974963 -0.00079141064 0)
(0.040988918 -0.00071461198 0)
(0.040988559 -0.00070763641 0)
(0.040973825 -0.00077253971 0)
(0.040946753 -0.00091661933 0)
(0.040905298 -0.0011547335 0)
(0.040842961 -0.0015124881 0)
(0.040749837 -0.0020254144 0)
(0.04061024 -0.0027451837 0)
(0.040395889 -0.0037425886 0)
(0.040062935 -0.0051129352 0)
(0.039534614 -0.0069810316 0)
(0.038686413 -0.0094953618 0)
(0.03731366 -0.012827174 0)
(0.035112054 -0.017236871 0)
(0.031392163 -0.02326999 0)
(0.025171136 -0.030633234 0)
(0.014356929 -0.035070503 0)
(0.00079133802 -0.023011213 0)
(0.0387845 -0.0027159003 0)
(0.040332414 -0.0030395919 0)
(0.040624371 -0.0022814983 0)
(0.041065435 -0.0016746042 0)
(0.041085926 -0.0012503965 0)
(0.041124335 -0.00097087312 0)
(0.041108032 -0.00079286302 0)
(0.04106432 -0.00069987332 0)
(0.041009129 -0.00068101058 0)
(0.040937648 -0.00073385935 0)
(0.040846351 -0.00086360621 0)
(0.040726401 -0.0010818026 0)
(0.040563862 -0.001409844 0)
(0.04034015 -0.0018790922 0)
(0.040027364 -0.0025333789 0)
(0.039583156 -0.0034320215 0)
(0.038946895 -0.0046505833 0)
(0.038026237 -0.0062836233 0)
(0.036681633 -0.0084351839 0)
(0.03471513 -0.011207493 0)
(0.031840726 -0.014745739 0)
(0.027555637 -0.019326408 0)
(0.021206593 -0.024547712 0)
(0.012128119 -0.026874538 0)
(0.001068311 -0.0178833 0)
(0.039263552 -0.0035030735 0)
(0.04126508 -0.0036958571 0)
(0.041604868 -0.0025836329 0)
(0.041903422 -0.0017698472 0)
(0.041797237 -0.0012594915 0)
(0.041734175 -0.00094040533 0)
(0.041640377 -0.00074502397 0)
(0.041533518 -0.00064160087 0)
(0.041421838 -0.00061233943 0)
(0.041294839 -0.00065065106 0)
(0.041142653 -0.00075850965 0)
(0.040949451 -0.0009442866 0)
(0.040695365 -0.0012245359 0)
(0.040354217 -0.0016245792 0)
(0.039887275 -0.0021797612 0)
(0.039243079 -0.0029360834 0)
(0.038349001 -0.0039500516 0)
(0.037104045 -0.0052888197 0)
(0.035366988 -0.0070202204 0)
(0.032953724 -0.0091977686 0)
(0.029621519 -0.011894286 0)
(0.024997722 -0.015258334 0)
(0.018671304 -0.018908353 0)
(0.010594328 -0.020052305 0)
(0.0011860425 -0.013166277 0)
(0.040444388 -0.005176276 0)
(0.043033332 -0.004628289 0)
(0.043201017 -0.0028099413 0)
(0.043205041 -0.0017380619 0)
(0.042903547 -0.0011661425 0)
(0.042710378 -0.0008361613 0)
(0.042527397 -0.00064130455 0)
(0.042354428 -0.00053736161 0)
(0.042187306 -0.00050156011 0)
(0.042008628 -0.00052396387 0)
(0.041800752 -0.00060367681 0)
(0.041542245 -0.00074582819 0)
(0.041208283 -0.00096238165 0)
(0.040764713 -0.0012711794 0)
(0.040166409 -0.0016974634 0)
(0.039353403 -0.0022751325 0)
(0.038245732 -0.0030418669 0)
(0.036738631 -0.0040414906 0)
(0.034693904 -0.0053137181 0)
(0.031944248 -0.0068811207 0)
(0.028291079 -0.008776068 0)
(0.023449122 -0.011081254 0)
(0.017134599 -0.013487681 0)
(0.0095583756 -0.013950292 0)
(0.0010611228 -0.0089133205 0)
(0.041661126 -0.0083811649 0)
(0.043998498 -0.0056666596 0)
(0.04319107 -0.0027598406 0)
(0.042691269 -0.0014751752 0)
(0.042142232 -0.00092898919 0)
(0.041802573 -0.00064385415 0)
(0.041528556 -0.00047926906 0)
(0.041296155 -0.00038976007 0)
(0.041084432 -0.00035380485 0)
(0.040867925 -0.00036164413 0)
(0.040622588 -0.0004092564 0)
(0.040324025 -0.00050019264 0)
(0.039942019 -0.00064091405 0)
(0.039439087 -0.00084271284 0)
(0.03876729 -0.0011202192 0)
(0.037863122 -0.0014937326 0)
(0.036645743 -0.0019864699 0)
(0.035013619 -0.0026219444 0)
(0.032838163 -0.0034190312 0)
(0.029974082 -0.0043829664 0)
(0.026263054 -0.0055247185 0)
(0.021484331 -0.006885337 0)
(0.015424772 -0.0082409634 0)
(0.0084136457 -0.0082807342 0)
(0.00080155553 -0.0050812295 0)
(0.039250732 -0.01070487 0)
(0.039256979 -0.004782469 0)
(0.036293436 -0.001871431 0)
(0.03527265 -0.00088366489 0)
(0.034527291 -0.00054019781 0)
(0.034087041 -0.00037032881 0)
(0.03375909 -0.00027043282 0)
(0.033501584 -0.00021366307 0)
(0.033281623 -0.00018843415 0)
(0.033067433 -0.00018822155 0)
(0.032834151 -0.00020930723 0)
(0.032557564 -0.00025293084 0)
(0.032208921 -0.00032174158 0)
(0.03175449 -0.00042085278 0)
(0.031151693 -0.00055705344 0)
(0.030346569 -0.00073866437 0)
(0.029271919 -0.00097668958 0)
(0.027843796 -0.001280134 0)
(0.025961698 -0.0016546152 0)
(0.023518731 -0.0020985037 0)
(0.020407091 -0.0026106794 0)
(0.01647177 -0.0032025042 0)
(0.011568606 -0.0037338035 0)
(0.0061092302 -0.0035750674 0)
(0.00036237814 -0.0021166346 0)
(0.024907103 -0.01123049 0)
(0.022183007 -0.0027667348 0)
(0.018186935 -0.00033953831 0)
(0.017791657 -0.00016270921 0)
(0.017236989 -9.5603516e-005 0)
(0.016907226 -6.4863105e-005 0)
(0.016664021 -4.606578e-005 0)
(0.016480864 -3.0416745e-005 0)
(0.016333733 -2.025344e-005 0)
(0.016197746 -1.4586739e-005 0)
(0.016056405 -1.1258619e-005 0)
(0.015894353 -9.5994325e-006 0)
(0.015694442 -9.3680611e-006 0)
(0.015437132 -1.0147414e-005 0)
(0.015099008 -1.1622894e-005 0)
(0.014651448 -1.3840473e-005 0)
(0.014059143 -1.6141764e-005 0)
(0.01328007 -1.7470131e-005 0)
(0.012266935 -1.6183317e-005 0)
(0.010973222 -9.8596475e-006 0)
(0.009361427 4.3544794e-006 0)
(0.0073668103 2.844825e-005 0)
(0.004958001 0.00010843037 0)
(0.0025636308 0.00026277698 0)
(0.00013195318 9.1036391e-005 0)
)
;

boundaryField
{
    inlet
    {
        type            fixedValue;
        value           uniform (0.03876 0 0);
    }
    walls
    {
        type            fixedValue;
        value           uniform (0 0 0);
    }
    outlet
    {
        type            zeroGradient;
    }
    centreline
    {
        type            symmetryPlane;
    }
    frontAndBack
    {
        type            empty;
    }
}


// ************************************************************************* //
