/*--------------------------------*- C++ -*----------------------------------*\
| =========                 |                                                 |
| \\      /  F ield         | OpenFOAM: The Open Source CFD Toolbox           |
|  \\    /   O peration     | Version:  5.x                                   |
|   \\  /    A nd           | Web:      www.OpenFOAM.org                      |
|    \\/     M anipulation  |                                                 |
\*---------------------------------------------------------------------------*/
/*   Windows 32 and 64 bit porting by blueCAPE: http://www.bluecape.com.pt   *\
|  Based on Windows porting (2.0.x v4) by Symscape: http://www.symscape.com   |
\*---------------------------------------------------------------------------*/
FoamFile
{
    version     2.0;
    format      ascii;
    class       volVectorField;
    location    "0.05";
    object      U_0;
}
// * * * * * * * * * * * * * * * * * * * * * * * * * * * * * * * * * * * * * //

dimensions      [0 1 -1 0 0 0 0];

internalField   nonuniform List<vector> 
750
(
(0.038802431 -5.107152e-005 0)
(0.039502963 -4.7464962e-005 0)
(0.039623146 -4.2205428e-005 0)
(0.040117053 -3.702342e-005 0)
(0.040258319 -3.0858737e-005 0)
(0.04057914 -2.9936234e-005 0)
(0.0407538 -2.5760434e-005 0)
(0.040980954 -2.621859e-005 0)
(0.041177405 -2.6944757e-005 0)
(0.041408634 -3.1028709e-005 0)
(0.041673627 -3.7766219e-005 0)
(0.0420108 -4.8779081e-005 0)
(0.042452216 -6.5140749e-005 0)
(0.043049866 -8.9115106e-005 0)
(0.043873405 -0.00012401824 0)
(0.04502801 -0.00017482954 0)
(0.046660697 -0.00024951368 0)
(0.049002756 -0.0003619835 0)
(0.052441303 -0.00053014519 0)
(0.057412294 -0.00080590508 0)
(0.065339631 -0.0012044361 0)
(0.076374287 -0.0019631419 0)
(0.097077009 -0.0030698522 0)
(0.12454261 -0.0045174608 0)
(0.1711817 -0.0054447082 0)
(0.038801424 -0.00015002031 0)
(0.039506142 -0.00014818695 0)
(0.039624486 -0.00012180296 0)
(0.040119005 -0.00011277445 0)
(0.04026032 -9.1768476e-005 0)
(0.040580193 -8.9341898e-005 0)
(0.040754653 -7.7458201e-005 0)
(0.040980566 -7.8179162e-005 0)
(0.041176095 -8.0728278e-005 0)
(0.041405795 -9.2692572e-005 0)
(0.041669083 -0.00011293573 0)
(0.04200391 -0.0001457912 0)
(0.042442053 -0.00019467491 0)
(0.043035075 -0.00026626499 0)
(0.043851962 -0.00037043701 0)
(0.044996712 -0.00052207722 0)
(0.046613838 -0.00074481304 0)
(0.04893367 -0.0010803079 0)
(0.052334863 -0.0015812291 0)
(0.057241622 -0.002394991 0)
(0.065056683 -0.0035996648 0)
(0.075939597 -0.0058232563 0)
(0.096466326 -0.0092443881 0)
(0.12386025 -0.013545755 0)
(0.17119945 -0.016656329 0)
(0.03879865 -0.00024834726 0)
(0.039511016 -0.00025103923 0)
(0.039627487 -0.00020000219 0)
(0.04012273 -0.00018906264 0)
(0.040264483 -0.00015259914 0)
(0.04058252 -0.00014830725 0)
(0.040756479 -0.00012910705 0)
(0.040979995 -0.0001296144 0)
(0.041173628 -0.00013416177 0)
(0.041400341 -0.00015374647 0)
(0.041660179 -0.00018743168 0)
(0.041990313 -0.00024181475 0)
(0.04242194 -0.00032282433 0)
(0.043005743 -0.00044145862 0)
(0.043809344 -0.00061395567 0)
(0.044934246 -0.00086495973 0)
(0.046520994 -0.0012334377 0)
(0.048794352 -0.0017880201 0)
(0.052120555 -0.0026152296 0)
(0.056901633 -0.0039493412 0)
(0.064488131 -0.0059537715 0)
(0.075061214 -0.009606166 0)
(0.095233692 -0.015407485 0)
(0.12228438 -0.022598131 0)
(0.17048139 -0.0281919 0)
(0.03879285 -0.00034836572 0)
(0.039516098 -0.00035242453 0)
(0.039631849 -0.0002803358 0)
(0.04012823 -0.00026452638 0)
(0.040270797 -0.00021396002 0)
(0.040586268 -0.0002067494 0)
(0.040759293 -0.00018035975 0)
(0.040979275 -0.00018037471 0)
(0.041170026 -0.00018683076 0)
(0.041392346 -0.00021379927 0)
(0.041646984 -0.00026065113 0)
(0.04197007 -0.00033607665 0)
(0.042392027 -0.00044850627 0)
(0.042962115 -0.00061313346 0)
(0.043745935 -0.00085228372 0)
(0.044841191 -0.001199985 0)
(0.046383384 -0.001710012 0)
(0.048586042 -0.0024766417 0)
(0.051801083 -0.0036183202 0)
(0.056396811 -0.0054496182 0)
(0.063647037 -0.0082274222 0)
(0.073764565 -0.013283478 0)
(0.093371987 -0.021456594 0)
(0.11956333 -0.031645449 0)
(0.16768047 -0.039853922 0)
(0.038782963 -0.00044868064 0)
(0.039520664 -0.00045414614 0)
(0.03963721 -0.00036174936 0)
(0.040135448 -0.00033975093 0)
(0.040279275 -0.00027523318 0)
(0.040591413 -0.00026463878 0)
(0.04076304 -0.00023092146 0)
(0.040978367 -0.00023024116 0)
(0.041165259 -0.00023841244 0)
(0.041381796 -0.00027247402 0)
(0.041629519 -0.00033206156 0)
(0.041943258 -0.00042790965 0)
(0.042352463 -0.00057080294 0)
(0.042904469 -0.00077993583 0)
(0.043662249 -0.0010834373 0)
(0.044718518 -0.0015242051 0)
(0.04620249 -0.0021698977 0)
(0.048311837 -0.0031385439 0)
(0.051379907 -0.0045784649 0)
(0.055731984 -0.0068751952 0)
(0.062546246 -0.01038426 0)
(0.072060271 -0.016814788 0)
(0.090812048 -0.027272625 0)
(0.1153949 -0.04041554 0)
(0.16168546 -0.051069117 0)
(0.038768154 -0.00054792375 0)
(0.039524794 -0.00055816788 0)
(0.03964354 -0.00044354879 0)
(0.040144304 -0.00041547346 0)
(0.040290127 -0.00033610032 0)
(0.040597855 -0.00032193017 0)
(0.040767752 -0.00028054738 0)
(0.040977304 -0.00027897113 0)
(0.041159373 -0.00028860837 0)
(0.041368771 -0.00032938621 0)
(0.041607907 -0.00040118996 0)
(0.041910081 -0.00051665984 0)
(0.042303568 -0.00068879859 0)
(0.042833285 -0.00094058081 0)
(0.04355905 -0.0013055576 0)
(0.044567552 -0.0018348899 0)
(0.04598026 -0.0026087248 0)
(0.047975221 -0.0037668358 0)
(0.050860966 -0.0054832749 0)
(0.054914483 -0.0082067706 0)
(0.061194407 -0.012387421 0)
(0.069905261 -0.020127747 0)
(0.087450535 -0.032700042 0)
(0.10946021 -0.048548486 0)
(0.15234587 -0.060939343 0)
(0.03874849 -0.00064536752 0)
(0.039529225 -0.00066541786 0)
(0.039650978 -0.00052593268 0)
(0.040155077 -0.0004919528 0)
(0.04030357 -0.00039658232 0)
(0.040605547 -0.00037843138 0)
(0.040773527 -0.00032906391 0)
(0.040976159 -0.00032631111 0)
(0.041152453 -0.00033713047 0)
(0.041353408 -0.00038416506 0)
(0.04158236 -0.00046756222 0)
(0.04187079 -0.00060169131 0)
(0.042245728 -0.0008015901 0)
(0.042749139 -0.001093815 0)
(0.043437206 -0.0015168415 0)
(0.044389712 -0.0021293737 0)
(0.045718775 -0.0030224729 0)
(0.047580882 -0.0043551087 0)
(0.050254016 -0.0063224962 0)
(0.05395772 -0.0094274156 0)
(0.059626138 -0.014212487 0)
(0.067307965 -0.023165817 0)
(0.083258942 -0.037609964 0)
(0.10158479 -0.055834211 0)
(0.14089414 -0.068619894 0)
(0.038725191 -0.00074086461 0)
(0.039535149 -0.00077572083 0)
(0.039659816 -0.00060958668 0)
(0.040168463 -0.00056887144 0)
(0.040319726 -0.00045673698 0)
(0.040614549 -0.00043389676 0)
(0.040780534 -0.00037630452 0)
(0.04097504 -0.00037201343 0)
(0.041144622 -0.00038369097 0)
(0.041335874 -0.00043646593 0)
(0.041553163 -0.00053069878 0)
(0.041825741 -0.00068237214 0)
(0.042179418 -0.00090835248 0)
(0.042652792 -0.0012384467 0)
(0.04329784 -0.0017155551 0)
(0.044186741 -0.0024050661 0)
(0.045420907 -0.0034071892 0)
(0.047134124 -0.0048970575 0)
(0.049570029 -0.0070860798 0)
(0.052878511 -0.010518342 0)
(0.057862528 -0.015807561 0)
(0.064295999 -0.025813278 0)
(0.078121354 -0.041756433 0)
(0.091721655 -0.062076439 0)
(0.12887489 -0.073977796 0)
(0.038700496 -0.00083611746 0)
(0.039543635 -0.00088663908 0)
(0.039670276 -0.00069745663 0)
(0.040185634 -0.00064522782 0)
(0.040338453 -0.00051670544 0)
(0.040625143 -0.00048821948 0)
(0.040788971 -0.00042206384 0)
(0.040974061 -0.0004158085 0)
(0.04113604 -0.00042800852 0)
(0.041316377 -0.00048593076 0)
(0.041520635 -0.00059012795 0)
(0.041775404 -0.00075809007 0)
(0.042105297 -0.0010082821 0)
(0.04254526 -0.0013733146 0)
(0.043142533 -0.0019000445 0)
(0.043961138 -0.0026596344 0)
(0.045090792 -0.0037596797 0)
(0.046642408 -0.0053886011 0)
(0.048821024 -0.0077676159 0)
(0.051695593 -0.011469055 0)
(0.055935418 -0.01713413 0)
(0.060930378 -0.027981561 0)
(0.071995885 -0.044896292 0)
(0.080310782 -0.067215953 0)
(0.1151856 -0.077138505 0)
(0.038675958 -0.00093091085 0)
(0.039554912 -0.0010004259 0)
(0.03968265 -0.00078782348 0)
(0.040207885 -0.0007224417 0)
(0.04035948 -0.00057577452 0)
(0.040637783 -0.00054116784 0)
(0.040799049 -0.00046633058 0)
(0.040973359 -0.00045730857 0)
(0.041126907 -0.00046988072 0)
(0.041295153 -0.00053224859 0)
(0.04148511 -0.00064553483 0)
(0.04172032 -0.00082839732 0)
(0.042024207 -0.001100756 0)
(0.042427748 -0.0014976655 0)
(0.042973184 -0.0020693346 0)
(0.043715962 -0.0028917366 0)
(0.044733237 -0.004078164 0)
(0.046113055 -0.0058256421 0)
(0.048016977 -0.0083597328 0)
(0.050442836 -0.012266917 0)
(0.053915504 -0.018199311 0)
(0.057402382 -0.029576267 0)
(0.065230041 -0.047137191 0)
(0.067446881 -0.071358867 0)
(0.095156691 -0.077147739 0)
(0.2100984 -0.003033343 0)
(0.22312095 -0.0011905771 0)
(0.2281187 -0.00023519949 0)
(0.22736594 4.0890261e-005 0)
(0.22715063 2.8112796e-005 0)
(0.2269788 8.0444851e-006 0)
(0.22698699 1.1062599e-006 0)
(0.22697251 9.2303648e-007 0)
(0.2269696 4.3726429e-007 0)
(0.22696694 1.890608e-007 0)
(0.22696628 5.5661976e-008 0)
(0.22696614 1.5120137e-008 0)
(0.22696605 5.6928516e-009 0)
(0.22696604 1.6337261e-009 0)
(0.22696603 7.144179e-010 0)
(0.22696603 2.0856088e-010 0)
(0.22696603 2.3176326e-011 0)
(0.22696603 2.4344188e-011 0)
(0.22696603 5.8202363e-011 0)
(0.22696603 1.2154227e-011 0)
(0.22696603 1.3938461e-010 0)
(0.22696603 5.3403648e-010 0)
(0.22696602 4.3730783e-010 0)
(0.22696602 1.5264076e-009 0)
(0.22696598 1.9597817e-009 0)
(0.21100675 -0.0092259715 0)
(0.22427147 -0.0036917893 0)
(0.22915621 -0.00063719022 0)
(0.22834579 0.00011688166 0)
(0.2281003 9.6282423e-005 0)
(0.22792225 2.2818234e-005 0)
(0.22793149 3.8447604e-006 0)
(0.22791869 2.2003155e-006 0)
(0.22791628 1.3377149e-006 0)
(0.22791377 5.3405994e-007 0)
(0.22791316 1.6196929e-007 0)
(0.22791304 4.3879006e-008 0)
(0.22791296 1.493259e-008 0)
(0.22791296 4.9694511e-009 0)
(0.22791295 1.7749809e-009 0)
(0.22791295 4.6905871e-010 0)
(0.22791295 1.4861928e-010 0)
(0.22791294 1.7772468e-010 0)
(0.22791294 8.8437912e-011 0)
(0.22791294 3.5690176e-011 0)
(0.22791294 3.5841436e-010 0)
(0.22791294 1.1637124e-009 0)
(0.22791294 1.6575828e-009 0)
(0.22791294 7.8282092e-009 0)
(0.22791287 8.5928159e-009 0)
(0.21068699 -0.015477306 0)
(0.22330079 -0.006247763 0)
(0.22804792 -0.00099017441 0)
(0.22719758 0.000191165 0)
(0.22697544 0.00017207303 0)
(0.2267936 3.68171e-005 0)
(0.2268056 6.7114769e-006 0)
(0.22679481 2.9377699e-006 0)
(0.22679362 2.1744725e-006 0)
(0.22679147 8.2768187e-007 0)
(0.22679099 2.5683823e-007 0)
(0.22679092 6.7920304e-008 0)
(0.22679086 2.1760049e-008 0)
(0.22679085 7.9430845e-009 0)
(0.22679085 2.4175432e-009 0)
(0.22679085 6.2252255e-010 0)
(0.22679085 3.8239317e-010 0)
(0.22679084 2.9969987e-010 0)
(0.22679085 -5.8428256e-012 0)
(0.22679085 4.4730529e-011 0)
(0.22679085 4.816308e-010 0)
(0.22679085 1.3758697e-009 0)
(0.22679084 3.450851e-009 0)
(0.22679084 1.8551094e-008 0)
(0.22679074 1.9059705e-008 0)
(0.20593297 -0.021444062 0)
(0.21545236 -0.0086245728 0)
(0.21991114 -0.0013224654 0)
(0.21909834 0.00025543193 0)
(0.2190406 0.00024027351 0)
(0.21887374 4.9379979e-005 0)
(0.21889053 9.1490831e-006 0)
(0.21888112 3.1966559e-006 0)
(0.21888187 2.7703161e-006 0)
(0.21888036 1.0321476e-006 0)
(0.21888013 3.2407803e-007 0)
(0.21888012 8.2064366e-008 0)
(0.21888008 2.5413963e-008 0)
(0.21888008 9.8463612e-009 0)
(0.21888008 2.6795282e-009 0)
(0.21888008 6.8024229e-010 0)
(0.21888008 4.5065091e-010 0)
(0.21888008 4.1691381e-011 0)
(0.21888008 -2.3030175e-010 0)
(0.21888008 3.3885162e-010 0)
(0.21888008 6.7620182e-010 0)
(0.21888008 1.3900104e-009 0)
(0.21888008 5.1000366e-009 0)
(0.21888008 3.1477941e-008 0)
(0.21887999 3.1767997e-008 0)
(0.19397637 -0.026283918 0)
(0.19696442 -0.01039463 0)
(0.20069597 -0.0016020495 0)
(0.19997604 0.00026817277 0)
(0.20021607 0.00027841662 0)
(0.2000909 5.6541856e-005 0)
(0.20011552 1.1107398e-005 0)
(0.20010662 2.9650539e-006 0)
(0.20010978 3.0100886e-006 0)
(0.20010916 1.0892493e-006 0)
(0.20010926 3.4789772e-007 0)
(0.20010933 8.3054323e-008 0)
(0.20010932 2.4940621e-008 0)
(0.20010933 1.0363603e-008 0)
(0.20010933 2.5066186e-009 0)
(0.20010933 5.1542202e-010 0)
(0.20010933 -1.2371827e-010 0)
(0.20010934 -2.5741564e-010 0)
(0.20010934 1.6681531e-010 0)
(0.20010933 5.9862514e-010 0)
(0.20010933 8.1621447e-010 0)
(0.20010933 1.4457371e-009 0)
(0.20010933 5.6376989e-009 0)
(0.20010933 3.9612372e-008 0)
(0.20010931 4.0285107e-008 0)
(0.17402676 -0.028867521 0)
(0.16737438 -0.011051155 0)
(0.16962709 -0.0017133738 0)
(0.16896928 0.00020864296 0)
(0.16953077 0.000269324 0)
(0.16946155 5.4856953e-005 0)
(0.1694999 1.2098096e-005 0)
(0.16949049 2.304709e-006 0)
(0.16949622 2.8439657e-006 0)
(0.16949647 9.6264636e-007 0)
(0.16949694 3.1977627e-007 0)
(0.16949707 6.9942802e-008 0)
(0.16949708 2.0167848e-008 0)
(0.16949711 8.7893197e-009 0)
(0.16949711 1.8511453e-009 0)
(0.16949711 3.4438841e-010 0)
(0.16949711 -4.1754804e-010 0)
(0.16949711 -4.2204736e-010 0)
(0.16949711 1.6496224e-010 0)
(0.16949711 5.8287682e-010 0)
(0.16949711 1.1539302e-009 0)
(0.16949711 1.8943197e-009 0)
(0.16949711 4.9235192e-009 0)
(0.16949712 3.7381838e-008 0)
(0.16949718 3.8783687e-008 0)
(0.14802615 -0.028502542 0)
(0.12964741 -0.010082159 0)
(0.13010641 -0.0015917229 0)
(0.12932412 0.00010595708 0)
(0.13013154 0.00021595334 0)
(0.1300991 4.36649e-005 0)
(0.13015829 1.132867e-005 0)
(0.13014643 1.3471814e-006 0)
(0.13015467 2.3190835e-006 0)
(0.13015533 6.7422081e-007 0)
(0.1301561 2.4663143e-007 0)
(0.13015627 4.4974784e-008 0)
(0.13015629 1.239276e-008 0)
(0.13015632 5.8939067e-009 0)
(0.13015632 8.2467183e-010 0)
(0.13015633 4.8406147e-011 0)
(0.13015633 -5.345964e-010 0)
(0.13015632 -1.9194962e-010 0)
(0.13015632 1.5080907e-010 0)
(0.13015632 2.8512438e-010 0)
(0.13015633 1.1480609e-009 0)
(0.13015632 2.2170917e-009 0)
(0.13015633 3.257342e-009 0)
(0.13015633 2.4580293e-008 0)
(0.13015645 2.6865272e-008 0)
(0.1173438 -0.024278316 0)
(0.088832503 -0.0075489353 0)
(0.08804036 -0.0011795649 0)
(0.086840909 1.7684583e-005 0)
(0.087773215 0.00014104709 0)
(0.087735197 2.587253e-005 0)
(0.087815967 8.8123318e-006 0)
(0.087799012 3.5528406e-007 0)
(0.08780943 1.5824764e-006 0)
(0.087809677 3.3378425e-007 0)
(0.087810613 1.5267549e-007 0)
(0.087810745 1.7810089e-008 0)
(0.087810757 4.6651341e-009 0)
(0.087810788 2.4710131e-009 0)
(0.087810788 -1.5242623e-010 0)
(0.087810789 -1.2976695e-010 0)
(0.087810789 -1.309672e-010 0)
(0.087810787 3.2184932e-011 0)
(0.087810788 -2.0762035e-010 0)
(0.087810787 2.5729642e-011 0)
(0.087810789 1.0170793e-009 0)
(0.087810789 2.2102225e-009 0)
(0.087810796 1.8155821e-009 0)
(0.087810796 9.7691251e-009 0)
(0.0878109 1.2401222e-008 0)
(0.081501515 -0.01626358 0)
(0.049578334 -0.0040070817 0)
(0.048552087 -0.00055451935 0)
(0.046976321 -3.3303508e-005 0)
(0.047873575 6.6861981e-005 0)
(0.047789252 8.0048936e-006 0)
(0.047882254 5.119128e-006 0)
(0.04785926 -2.292865e-007 0)
(0.047870772 7.7931447e-007 0)
(0.047869841 8.0957307e-008 0)
(0.047870787 6.547152e-008 0)
(0.047870813 1.4566788e-009 0)
(0.047870809 5.2206611e-010 0)
(0.047870832 4.3464799e-010 0)
(0.047870827 -4.5114178e-010 0)
(0.047870827 -1.4353936e-010 0)
(0.047870827 -4.6569817e-011 0)
(0.047870826 1.7440962e-011 0)
(0.047870827 -2.2329556e-011 0)
(0.047870826 7.5561951e-011 0)
(0.047870828 4.4003833e-010 0)
(0.04787083 1.2289908e-009 0)
(0.047870839 9.3060921e-010 0)
(0.047870836 1.2650716e-009 0)
(0.047870878 2.7128572e-009 0)
(0.03727885 -0.0075526399 0)
(0.014699481 -0.00034794177 0)
(0.015270909 -0.00012153212 0)
(0.013829853 1.8106541e-006 0)
(0.014470091 -4.1013083e-006 0)
(0.014344033 1.9738899e-006 0)
(0.014419149 -2.1479962e-007 0)
(0.014398222 -7.6733587e-008 0)
(0.01440673 -1.7126784e-008 0)
(0.014405211 -4.0527856e-008 0)
(0.014405832 -1.0203941e-009 0)
(0.01440578 -6.5775549e-009 0)
(0.014405769 -1.0224943e-009 0)
(0.014405779 -6.3297512e-010 0)
(0.014405773 -3.0561094e-010 0)
(0.014405773 -9.0622057e-011 0)
(0.014405773 -4.0781984e-011 0)
(0.014405772 -1.5200822e-011 0)
(0.014405772 -1.046715e-012 0)
(0.014405772 3.3235936e-011 0)
(0.014405773 1.7791944e-010 0)
(0.014405774 5.6952663e-010 0)
(0.014405781 3.8121311e-010 0)
(0.014405779 -2.5324468e-009 0)
(0.014405779 -2.4581383e-009 0)
(0.038620315 -0.001117283 0)
(0.039583418 -0.0012376904 0)
(0.039716399 -0.00097006597 0)
(0.040259416 -0.00087766315 0)
(0.040408436 -0.00069506589 0)
(0.040667166 -0.00064096129 0)
(0.040822643 -0.00055281732 0)
(0.040972951 -0.00053478396 0)
(0.041107894 -0.00054841683 0)
(0.041249663 -0.00061810634 0)
(0.041408563 -0.00074795624 0)
(0.041601761 -0.00095746889 0)
(0.04184957 -0.0012699243 0)
(0.042174927 -0.0017241701 0)
(0.042609598 -0.0023756751 0)
(0.043191509 -0.0033077419 0)
(0.043969872 -0.0046425462 0)
(0.044989258 -0.0065817652 0)
(0.046324391 -0.0093594075 0)
(0.047887342 -0.013521674 0)
(0.049814386 -0.019775732 0)
(0.050746481 -0.031303941 0)
(0.05235381 -0.049211945 0)
(0.0419201 -0.07330773 0)
(0.037581318 -0.061661925 0)
(0.038572905 -0.0014111547 0)
(0.039664874 -0.0016106447 0)
(0.039824088 -0.0012768715 0)
(0.040367903 -0.0010986246 0)
(0.040515516 -0.00087867191 0)
(0.040736186 -0.00076520204 0)
(0.040868786 -0.00066414458 0)
(0.040979394 -0.00062592051 0)
(0.041076096 -0.0006378045 0)
(0.041170466 -0.00071216306 0)
(0.041272607 -0.0008573085 0)
(0.041391699 -0.0010921892 0)
(0.041541321 -0.0014436124 0)
(0.041731924 -0.0019514934 0)
(0.041977728 -0.0026743889 0)
(0.042292466 -0.0036975751 0)
(0.042686599 -0.0051428938 0)
(0.043151401 -0.007194488 0)
(0.043668268 -0.010077524 0)
(0.044092881 -0.014173067 0)
(0.044259395 -0.020055432 0)
(0.043066111 -0.029726985 0)
(0.039857863 -0.043497645 0)
(0.026160728 -0.056919722 0)
(0.0091491864 -0.035457373 0)
(0.038586949 -0.0017554041 0)
(0.039797044 -0.0020222544 0)
(0.039986608 -0.0016045881 0)
(0.040516659 -0.0013108525 0)
(0.040649187 -0.0010385426 0)
(0.040821398 -0.00086796156 0)
(0.040918216 -0.00074446403 0)
(0.040983645 -0.00068706041 0)
(0.041034492 -0.0006916165 0)
(0.041075924 -0.00076425038 0)
(0.041114588 -0.00091444026 0)
(0.041154118 -0.001158891 0)
(0.041197778 -0.001524932 0)
(0.041246064 -0.0020522161 0)
(0.041295822 -0.0027967728 0)
(0.041339081 -0.0038393276 0)
(0.041354933 -0.0052913112 0)
(0.041293592 -0.0073090033 0)
(0.041069607 -0.010086183 0)
(0.040492124 -0.013884472 0)
(0.039285198 -0.019118648 0)
(0.036534834 -0.026870436 0)
(0.031060222 -0.037209861 0)
(0.018013003 -0.045414639 0)
(0.0018042114 -0.029340961 0)
(0.038640658 -0.0021750412 0)
(0.039978585 -0.0024847611 0)
(0.040206322 -0.0019394209 0)
(0.040708995 -0.0015038767 0)
(0.040801472 -0.0011652522 0)
(0.040915148 -0.00093917485 0)
(0.040962365 -0.00078841613 0)
(0.040976286 -0.00071251757 0)
(0.040975921 -0.00070622019 0)
(0.040961237 -0.00077163351 0)
(0.040934258 -0.00091609709 0)
(0.040892927 -0.0011545082 0)
(0.040830758 -0.0015124789 0)
(0.040737878 -0.0020255482 0)
(0.04059861 -0.0027453875 0)
(0.040384724 -0.0037427589 0)
(0.040052415 -0.0051129308 0)
(0.039525044 -0.0069806608 0)
(0.038678161 -0.0094944722 0)
(0.037307335 -0.012825323 0)
(0.035108168 -0.017232403 0)
(0.031394296 -0.023260598 0)
(0.025183136 -0.030629644 0)
(0.014374627 -0.035099879 0)
(0.00080561911 -0.023065335 0)
(0.038775211 -0.0027019278 0)
(0.040326451 -0.0030226163 0)
(0.040609831 -0.0022683551 0)
(0.041050593 -0.0016656406 0)
(0.041070756 -0.0012442041 0)
(0.041108894 -0.00096653102 0)
(0.041092721 -0.00078985463 0)
(0.041049204 -0.00069782059 0)
(0.040994168 -0.00067966487 0)
(0.040922856 -0.0007330422 0)
(0.040831742 -0.00086319288 0)
(0.040711976 -0.0010817098 0)
(0.040549675 -0.001410007 0)
(0.040326268 -0.001879462 0)
(0.04001388 -0.0025339066 0)
(0.039570232 -0.0034326449 0)
(0.038934751 -0.0046512242 0)
(0.038015209 -0.0062841815 0)
(0.036672192 -0.00843559 0)
(0.0347079 -0.01120749 0)
(0.031836458 -0.014744184 0)
(0.027556823 -0.019322381 0)
(0.021216109 -0.024550175 0)
(0.012141722 -0.026903606 0)
(0.0010818088 -0.017925382 0)
(0.039249869 -0.0034827515 0)
(0.041252113 -0.0036741307 0)
(0.041583095 -0.0025686393 0)
(0.041882244 -0.0017604161 0)
(0.041776656 -0.0012533448 0)
(0.041713915 -0.00093625011 0)
(0.041620629 -0.00074222485 0)
(0.041514229 -0.00063974833 0)
(0.041402887 -0.00061117759 0)
(0.041276187 -0.00065000596 0)
(0.041124272 -0.00075826526 0)
(0.040931336 -0.00094438051 0)
(0.040677563 -0.0012249306 0)
(0.040336777 -0.0016252435 0)
(0.039870318 -0.0021806869 0)
(0.03922679 -0.0029372603 0)
(0.03833364 -0.0039514735 0)
(0.037089986 -0.0052904849 0)
(0.035354764 -0.0070221657 0)
(0.03294401 -0.00919991 0)
(0.029615209 -0.011895862 0)
(0.024996841 -0.015258993 0)
(0.018678091 -0.018915706 0)
(0.010603206 -0.020080999 0)
(0.0011953244 -0.013200953 0)
(0.040427267 -0.0051443362 0)
(0.043018085 -0.0046008267 0)
(0.043179567 -0.002793818 0)
(0.043185897 -0.0017290991 0)
(0.042886206 -0.0011607211 0)
(0.042694099 -0.00083261325 0)
(0.042512054 -0.00063897919 0)
(0.042339803 -0.0005358854 0)
(0.042173185 -0.00050070197 0)
(0.041994901 -0.00052357935 0)
(0.041787344 -0.00060367376 0)
(0.041529137 -0.00074616752 0)
(0.041195471 -0.00096305562 0)
(0.04075223 -0.0012722023 0)
(0.040154365 -0.0016988801 0)
(0.039341948 -0.0022769713 0)
(0.038235103 -0.0030442044 0)
(0.036729162 -0.0040444333 0)
(0.034686058 -0.0053174158 0)
(0.031938601 -0.0068856597 0)
(0.028288393 -0.0087810294 0)
(0.02345107 -0.011086612 0)
(0.017142897 -0.013499312 0)
(0.0095667901 -0.013978555 0)
(0.0010683434 -0.0089432263 0)
(0.041652376 -0.0083377129 0)
(0.044001214 -0.0056375746 0)
(0.043195666 -0.0027448034 0)
(0.042700405 -0.0014678858 0)
(0.042154174 -0.00092501831 0)
(0.041816192 -0.00064132948 0)
(0.041543437 -0.00047764746 0)
(0.041311906 -0.00038879257 0)
(0.041100741 -0.00035332311 0)
(0.040884596 -0.00036154114 0)
(0.040639487 -0.00040949179 0)
(0.040341047 -0.00050075307 0)
(0.039959079 -0.00064181194 0)
(0.03945614 -0.00084399823 0)
(0.038784283 -0.0011219764 0)
(0.037880032 -0.0014960581 0)
(0.036662603 -0.0019894881 0)
(0.03503046 -0.0026258308 0)
(0.032855055 -0.0034240152 0)
(0.029991093 -0.0043892438 0)
(0.026280313 -0.005532154 0)
(0.021502724 -0.0068941129 0)
(0.015445059 -0.0082552022 0)
(0.0084284838 -0.0083067556 0)
(0.00080926677 -0.005105728 0)
(0.039265306 -0.010671695 0)
(0.039290427 -0.0047645194 0)
(0.036340039 -0.0018615195 0)
(0.035325472 -0.00087935711 0)
(0.034583172 -0.00053813275 0)
(0.034144716 -0.00036904098 0)
(0.033818044 -0.00026960301 0)
(0.033561341 -0.00021319733 0)
(0.033341814 -0.00018823865 0)
(0.03312781 -0.00018823704 0)
(0.032894515 -0.00020951912 0)
(0.032617718 -0.00025333788 0)
(0.032268677 -0.00032236398 0)
(0.031813645 -0.00042172742 0)
(0.031210002 -0.00055823024 0)
(0.030403756 -0.00074023933 0)
(0.029327637 -0.00097875579 0)
(0.027897625 -0.0012828149 0)
(0.026013118 -0.001658081 0)
(0.02356707 -0.0021029157 0)
(0.020451583 -0.0026160387 0)
(0.01651217 -0.0032090215 0)
(0.011604373 -0.0037436789 0)
(0.0061320771 -0.0035909772 0)
(0.00037048943 -0.0021304369 0)
(0.024932214 -0.011215865 0)
(0.022218977 -0.0027648374 0)
(0.018236344 -0.00033756468 0)
(0.017845031 -0.00016213497 0)
(0.017292263 -9.5559038e-005 0)
(0.016963504 -6.4827856e-005 0)
(0.016721067 -4.6050166e-005 0)
(0.016538356 -3.0438408e-005 0)
(0.016391422 -2.0304634e-005 0)
(0.016255462 -1.4667213e-005 0)
(0.016113995 -1.1369484e-005 0)
(0.015951663 -9.7492495e-006 0)
(0.01575131 -9.5688789e-006 0)
(0.015493368 -1.0415928e-005 0)
(0.015154379 -1.1983264e-005 0)
(0.01470566 -1.4319344e-005 0)
(0.014111817 -1.6772248e-005 0)
(0.013330739 -1.8296135e-005 0)
(0.012315002 -1.7257419e-005 0)
(0.011017921 -1.1232191e-005 0)
(0.0094018556 2.642874e-006 0)
(0.0074022375 2.6298509e-005 0)
(0.0049875965 0.00010560104 0)
(0.0025810872 0.00025910832 0)
(0.00013650903 8.8299326e-005 0)
)
;

boundaryField
{
    inlet
    {
        type            fixedValue;
        value           uniform (0.03876 0 0);
    }
    walls
    {
        type            fixedValue;
        value           uniform (0 0 0);
    }
    outlet
    {
        type            zeroGradient;
    }
    centreline
    {
        type            symmetryPlane;
    }
    frontAndBack
    {
        type            empty;
    }
}


// ************************************************************************* //
