/*--------------------------------*- C++ -*----------------------------------*\
| =========                 |                                                 |
| \\      /  F ield         | OpenFOAM: The Open Source CFD Toolbox           |
|  \\    /   O peration     | Version:  5.x                                   |
|   \\  /    A nd           | Web:      www.OpenFOAM.org                      |
|    \\/     M anipulation  |                                                 |
\*---------------------------------------------------------------------------*/
/*   Windows 32 and 64 bit porting by blueCAPE: http://www.bluecape.com.pt   *\
|  Based on Windows porting (2.0.x v4) by Symscape: http://www.symscape.com   |
\*---------------------------------------------------------------------------*/
FoamFile
{
    version     2.0;
    format      ascii;
    class       surfaceScalarField;
    location    "2000";
    object      phi;
}
// * * * * * * * * * * * * * * * * * * * * * * * * * * * * * * * * * * * * * //

dimensions      [0 3 -1 0 0 0 0];

internalField   nonuniform List<scalar> 
7780
(
4.99612e-005
3.87855e-008
4.98433e-005
1.17918e-007
4.96896e-005
1.53699e-007
4.95176e-005
1.71971e-007
4.93358e-005
1.81785e-007
4.91484e-005
1.87475e-007
4.8958e-005
1.90332e-007
4.87659e-005
1.9212e-007
4.85734e-005
1.92544e-007
4.8381e-005
1.92333e-007
4.81891e-005
1.91971e-007
4.79975e-005
1.91599e-007
4.78063e-005
1.91152e-007
4.76157e-005
1.90605e-007
4.74258e-005
1.89898e-007
4.72367e-005
1.89068e-007
4.70485e-005
1.88205e-007
4.68612e-005
1.87335e-007
4.66748e-005
1.86436e-007
4.64893e-005
1.85514e-007
4.63047e-005
1.84599e-007
4.6121e-005
1.83665e-007
4.59383e-005
1.82709e-007
4.57565e-005
1.81738e-007
4.55758e-005
1.80757e-007
4.5396e-005
1.79769e-007
4.52172e-005
1.7877e-007
4.50395e-005
1.7776e-007
4.48627e-005
1.76747e-007
4.4687e-005
1.75731e-007
4.45123e-005
1.7471e-007
4.43386e-005
1.73683e-007
4.4166e-005
1.72652e-007
4.39943e-005
1.7162e-007
4.38238e-005
1.70586e-007
4.36542e-005
1.69552e-007
4.34857e-005
1.68519e-007
4.33182e-005
1.67485e-007
4.31518e-005
1.66447e-007
4.29864e-005
1.65402e-007
4.2822e-005
1.64349e-007
4.26587e-005
1.63288e-007
4.24965e-005
1.62219e-007
4.23354e-005
1.61146e-007
4.21753e-005
1.60079e-007
4.20163e-005
1.58999e-007
4.18584e-005
1.57906e-007
4.17016e-005
1.5681e-007
4.15459e-005
1.55707e-007
4.13913e-005
1.54592e-007
4.12378e-005
1.5346e-007
4.10855e-005
1.52308e-007
4.09344e-005
1.51135e-007
4.07844e-005
1.49939e-007
4.06357e-005
1.4872e-007
4.04882e-005
1.47475e-007
4.0342e-005
1.46202e-007
4.01971e-005
1.44901e-007
4.00536e-005
1.43569e-007
3.99113e-005
1.42203e-007
3.97705e-005
1.40803e-007
3.96312e-005
1.39367e-007
3.94933e-005
1.37894e-007
3.93569e-005
1.36381e-007
3.92221e-005
1.34827e-007
3.90888e-005
1.33229e-007
3.89573e-005
1.31586e-007
3.88274e-005
1.29896e-007
3.86992e-005
1.28158e-007
3.85728e-005
1.26369e-007
3.84483e-005
1.24529e-007
3.83257e-005
1.22638e-007
3.8205e-005
1.20694e-007
3.80863e-005
1.187e-007
3.79696e-005
1.16657e-007
3.7855e-005
1.14574e-007
3.77426e-005
1.12465e-007
3.76322e-005
1.10369e-007
3.75239e-005
1.08339e-007
3.74175e-005
1.06409e-007
3.73129e-005
1.04555e-007
3.72102e-005
1.02698e-007
3.71094e-005
1.00787e-007
3.70106e-005
9.88046e-008
3.69139e-005
9.67375e-008
3.68193e-005
9.45756e-008
3.6727e-005
9.2316e-008
3.6637e-005
8.99585e-008
3.65495e-005
8.7503e-008
3.64646e-005
8.49496e-008
3.63823e-005
8.2299e-008
3.63027e-005
7.95529e-008
3.6226e-005
7.67136e-008
3.61522e-005
7.37841e-008
3.60815e-005
7.07684e-008
3.60138e-005
6.76711e-008
3.59493e-005
6.44979e-008
3.5888e-005
6.12554e-008
3.58301e-005
5.79511e-008
3.57755e-005
5.45939e-008
3.57243e-005
5.11933e-008
3.56765e-005
4.77601e-008
3.56322e-005
4.43055e-008
3.55914e-005
4.08417e-008
3.5554e-005
3.73815e-008
3.55201e-005
3.39386e-008
3.54895e-005
3.05276e-008
3.54624e-005
2.71631e-008
3.54385e-005
2.38602e-008
3.54179e-005
2.06337e-008
3.54004e-005
1.74972e-008
3.53859e-005
1.44665e-008
3.53744e-005
1.15613e-008
3.53656e-005
8.76302e-009
3.53595e-005
6.06377e-009
3.53561e-005
3.48259e-009
3.53551e-005
9.61099e-010
3.53566e-005
-1.47487e-009
3.53602e-005
-3.66948e-009
3.53659e-005
-5.6398e-009
3.53733e-005
-7.41375e-009
3.53823e-005
-9.03116e-009
3.53928e-005
-1.0527e-008
3.54045e-005
-1.16805e-008
3.54172e-005
-1.26306e-008
3.54306e-005
-1.34175e-008
3.54446e-005
-1.4067e-008
3.54592e-005
-1.45978e-008
3.54743e-005
-1.50256e-008
3.54896e-005
-1.53641e-008
3.55053e-005
-1.56255e-008
3.55211e-005
-1.58207e-008
3.5537e-005
-1.59592e-008
3.55531e-005
-1.60491e-008
3.55692e-005
-1.60975e-008
3.55853e-005
-1.61105e-008
3.56014e-005
-1.60934e-008
3.56174e-005
-1.60509e-008
3.56334e-005
-1.59872e-008
3.56493e-005
-1.59056e-008
3.56651e-005
-1.58091e-008
3.56808e-005
-1.57003e-008
3.56964e-005
-1.55813e-008
3.57119e-005
-1.5454e-008
3.57272e-005
-1.53201e-008
3.57424e-005
-1.51811e-008
3.57574e-005
-1.50384e-008
3.57723e-005
-1.4893e-008
3.57871e-005
-1.47461e-008
3.58017e-005
-1.45986e-008
3.58161e-005
-1.44514e-008
3.58304e-005
-1.43054e-008
3.58446e-005
-1.41614e-008
3.58586e-005
-1.402e-008
3.58725e-005
-1.3882e-008
3.58862e-005
-1.37479e-008
3.58998e-005
-1.36183e-008
3.59133e-005
-1.34937e-008
3.59267e-005
-1.33746e-008
3.594e-005
-1.32613e-008
3.59531e-005
-1.31543e-008
3.59662e-005
-1.30538e-008
3.59791e-005
-1.296e-008
3.5992e-005
-1.28733e-008
3.60048e-005
-1.27938e-008
3.60175e-005
-1.27215e-008
3.60302e-005
-1.26566e-008
3.60428e-005
-1.25991e-008
3.60553e-005
-1.2549e-008
3.60678e-005
-1.2506e-008
3.60803e-005
-1.24702e-008
3.60927e-005
-1.24411e-008
3.61052e-005
-1.24188e-008
3.61176e-005
-1.24034e-008
3.613e-005
-1.23956e-008
3.61424e-005
-1.23948e-008
3.61548e-005
-1.2399e-008
3.61672e-005
-1.24074e-008
3.61796e-005
-1.24192e-008
3.6192e-005
-1.24338e-008
3.62045e-005
-1.24499e-008
3.62169e-005
-1.24661e-008
3.62294e-005
-1.24807e-008
3.62419e-005
-1.24912e-008
3.62544e-005
-1.24948e-008
3.62669e-005
-1.24876e-008
3.62794e-005
-1.2465e-008
3.62918e-005
-1.24214e-008
3.63041e-005
-1.23498e-008
3.63164e-005
-1.22413e-008
3.63285e-005
-1.2087e-008
3.63403e-005
-1.18715e-008
3.63519e-005
-1.15923e-008
3.63631e-005
-1.12051e-008
3.63739e-005
-1.07782e-008
3.6384e-005
-1.01012e-008
3.63936e-005
-9.59927e-009
3.64019e-005
-8.26986e-009
3.64102e-005
-8.36982e-009
-3.72527e-009
5.00493e-005
-1.05543e-008
5.01077e-005
5.9559e-008
5.01578e-005
1.03584e-007
5.01966e-005
1.33164e-007
5.02256e-005
1.5277e-007
5.02466e-005
1.66554e-007
5.0261e-005
1.75854e-007
5.02705e-005
1.82622e-007
5.02759e-005
1.87226e-007
5.02775e-005
1.90682e-007
5.02759e-005
1.93556e-007
5.02713e-005
1.96208e-007
5.02641e-005
1.9838e-007
5.02546e-005
2.00124e-007
5.02432e-005
2.01263e-007
5.02303e-005
2.01935e-007
5.02161e-005
2.02434e-007
5.02006e-005
2.028e-007
5.01841e-005
2.02991e-007
5.01666e-005
2.03041e-007
5.01481e-005
2.03021e-007
5.01289e-005
2.02867e-007
5.0109e-005
2.02606e-007
5.00885e-005
2.02261e-007
5.00674e-005
2.01845e-007
5.00458e-005
2.01376e-007
5.00238e-005
2.00836e-007
5.00013e-005
2.00239e-007
4.99784e-005
1.99612e-007
4.99552e-005
1.98952e-007
4.99316e-005
1.98256e-007
4.99078e-005
1.97525e-007
4.98837e-005
1.96766e-007
4.98593e-005
1.95988e-007
4.98347e-005
1.95192e-007
4.98099e-005
1.94385e-007
4.97848e-005
1.93573e-007
4.97596e-005
1.92751e-007
4.97341e-005
1.91917e-007
4.97084e-005
1.91064e-007
4.96826e-005
1.90189e-007
4.96566e-005
1.89294e-007
4.96304e-005
1.88375e-007
4.96041e-005
1.8743e-007
4.95777e-005
1.86468e-007
4.95513e-005
1.85488e-007
4.95247e-005
1.84493e-007
4.9498e-005
1.83489e-007
4.94712e-005
1.82471e-007
4.94444e-005
1.81435e-007
4.94175e-005
1.80375e-007
4.93905e-005
1.79289e-007
4.93635e-005
1.78174e-007
4.93364e-005
1.77029e-007
4.93092e-005
1.75854e-007
4.92821e-005
1.74644e-007
4.92549e-005
1.73397e-007
4.92277e-005
1.72111e-007
4.92004e-005
1.7078e-007
4.91732e-005
1.69403e-007
4.91461e-005
1.67977e-007
4.91189e-005
1.665e-007
4.90919e-005
1.64969e-007
4.90649e-005
1.63382e-007
4.9038e-005
1.61735e-007
4.90112e-005
1.60026e-007
4.89845e-005
1.58252e-007
4.8958e-005
1.5641e-007
4.89316e-005
1.54498e-007
4.89055e-005
1.52514e-007
4.88796e-005
1.50457e-007
4.88539e-005
1.48326e-007
4.88284e-005
1.46121e-007
4.88033e-005
1.43843e-007
4.87785e-005
1.41495e-007
4.8754e-005
1.39081e-007
4.87298e-005
1.36612e-007
4.87061e-005
1.34106e-007
4.86829e-005
1.3155e-007
4.86604e-005
1.28897e-007
4.86387e-005
1.26182e-007
4.8618e-005
1.23432e-007
4.85982e-005
1.20615e-007
4.85793e-005
1.17714e-007
4.85613e-005
1.14725e-007
4.85442e-005
1.11645e-007
4.85281e-005
1.08475e-007
4.85128e-005
1.05215e-007
4.84984e-005
1.01866e-007
4.8485e-005
9.84281e-008
4.84724e-005
9.49028e-008
4.84606e-005
9.12919e-008
4.84497e-005
8.75991e-008
4.84397e-005
8.38298e-008
4.84305e-005
7.9991e-008
4.8422e-005
7.60911e-008
4.84144e-005
7.21401e-008
4.84075e-005
6.81492e-008
4.84013e-005
6.41312e-008
4.83958e-005
6.00998e-008
4.83909e-005
5.60697e-008
4.83867e-005
5.20561e-008
4.83829e-005
4.80743e-008
4.83796e-005
4.41399e-008
4.83767e-005
4.02691e-008
4.83742e-005
3.6478e-008
4.83719e-005
3.27832e-008
4.83699e-005
2.92002e-008
4.8368e-005
2.57439e-008
4.83662e-005
2.24274e-008
4.83644e-005
1.92621e-008
4.83626e-005
1.62572e-008
4.83608e-005
1.34198e-008
4.83588e-005
1.07499e-008
4.83566e-005
8.24763e-009
4.83542e-005
5.91831e-009
4.83514e-005
3.76871e-009
4.83481e-005
1.80561e-009
4.83444e-005
3.55058e-011
4.83403e-005
-1.55048e-009
4.83358e-005
-2.96177e-009
4.8331e-005
-4.216e-009
4.83258e-005
-5.31343e-009
4.83203e-005
-6.21009e-009
4.83146e-005
-6.94074e-009
4.83088e-005
-7.53758e-009
4.83027e-005
-8.02528e-009
4.82965e-005
-8.42314e-009
4.82903e-005
-8.74667e-009
4.82839e-005
-9.00875e-009
4.82775e-005
-9.22024e-009
4.82711e-005
-9.39023e-009
4.82646e-005
-9.52628e-009
4.82582e-005
-9.63432e-009
4.82519e-005
-9.71874e-009
4.82455e-005
-9.7831e-009
4.82393e-005
-9.83054e-009
4.82331e-005
-9.86379e-009
4.8227e-005
-9.88512e-009
4.8221e-005
-9.89632e-009
4.82151e-005
-9.89888e-009
4.82092e-005
-9.89405e-009
4.82035e-005
-9.88297e-009
4.8198e-005
-9.86666e-009
4.81925e-005
-9.84609e-009
4.81871e-005
-9.82213e-009
4.81819e-005
-9.7956e-009
4.81768e-005
-9.76727e-009
4.81718e-005
-9.73791e-009
4.81669e-005
-9.70826e-009
4.81621e-005
-9.67905e-009
4.81574e-005
-9.65097e-009
4.81529e-005
-9.62468e-009
4.81485e-005
-9.60078e-009
4.81442e-005
-9.57983e-009
4.814e-005
-9.56227e-009
4.81359e-005
-9.54854e-009
4.8132e-005
-9.53902e-009
4.81281e-005
-9.53407e-009
4.81244e-005
-9.53399e-009
4.81208e-005
-9.53906e-009
4.81173e-005
-9.54949e-009
4.81139e-005
-9.56549e-009
4.81106e-005
-9.58723e-009
4.81074e-005
-9.61486e-009
4.81043e-005
-9.64849e-009
4.81014e-005
-9.68821e-009
4.80985e-005
-9.73405e-009
4.80958e-005
-9.78604e-009
4.80931e-005
-9.84411e-009
4.80905e-005
-9.90813e-009
4.80881e-005
-9.97782e-009
4.80857e-005
-1.00527e-008
4.80834e-005
-1.01331e-008
4.80813e-005
-1.02226e-008
4.80792e-005
-1.03195e-008
4.80772e-005
-1.04193e-008
4.80753e-005
-1.05219e-008
4.80735e-005
-1.06264e-008
4.80718e-005
-1.07318e-008
4.80702e-005
-1.08363e-008
4.80687e-005
-1.09379e-008
4.80672e-005
-1.10338e-008
4.80659e-005
-1.11203e-008
4.80646e-005
-1.11929e-008
4.80633e-005
-1.1246e-008
4.80621e-005
-1.12723e-008
4.8061e-005
-1.1263e-008
4.80598e-005
-1.12071e-008
4.80587e-005
-1.10908e-008
4.80575e-005
-1.08988e-008
4.80562e-005
-1.06076e-008
4.80548e-005
-1.02068e-008
4.80533e-005
-9.63429e-009
4.80515e-005
-8.97405e-009
4.80493e-005
-7.89792e-009
4.80466e-005
-6.97251e-009
4.80432e-005
-4.81753e-009
4.80384e-005
-3.59657e-009
1.46103e-009
5.00365e-005
-4.70853e-008
5.00887e-005
7.38755e-009
5.01422e-005
5.00638e-008
5.0193e-005
8.23877e-008
5.02393e-005
1.06472e-007
5.02812e-005
1.24621e-007
5.03189e-005
1.38154e-007
5.03534e-005
1.48171e-007
5.03845e-005
1.56126e-007
5.04125e-005
1.62682e-007
5.0438e-005
1.68024e-007
5.04615e-005
1.72729e-007
5.04832e-005
1.76703e-007
5.05033e-005
1.79991e-007
5.05222e-005
1.82373e-007
5.05399e-005
1.84231e-007
5.05564e-005
1.85968e-007
5.05717e-005
1.87488e-007
5.05861e-005
1.88573e-007
5.05997e-005
1.8941e-007
5.06126e-005
1.90179e-007
5.06248e-005
1.90634e-007
5.06365e-005
1.90916e-007
5.06477e-005
1.91064e-007
5.06584e-005
1.91107e-007
5.06687e-005
1.9107e-007
5.06787e-005
1.90903e-007
5.06883e-005
1.9064e-007
5.06975e-005
1.90335e-007
5.07065e-005
1.89973e-007
5.07152e-005
1.89555e-007
5.07237e-005
1.89075e-007
5.07319e-005
1.88547e-007
5.07399e-005
1.87986e-007
5.07477e-005
1.87397e-007
5.07553e-005
1.86796e-007
5.07627e-005
1.86192e-007
5.07698e-005
1.85577e-007
5.07768e-005
1.8494e-007
5.07836e-005
1.84273e-007
5.07902e-005
1.83573e-007
5.07967e-005
1.82851e-007
5.08029e-005
1.82083e-007
5.08091e-005
1.81265e-007
5.08152e-005
1.80429e-007
5.08211e-005
1.79581e-007
5.08268e-005
1.78717e-007
5.08325e-005
1.77835e-007
5.0838e-005
1.76935e-007
5.08434e-005
1.76012e-007
5.08488e-005
1.75064e-007
5.0854e-005
1.74086e-007
5.08591e-005
1.73073e-007
5.08641e-005
1.72027e-007
5.0869e-005
1.70947e-007
5.08738e-005
1.69829e-007
5.08785e-005
1.6867e-007
5.08832e-005
1.67466e-007
5.08877e-005
1.66212e-007
5.08922e-005
1.64905e-007
5.08967e-005
1.63543e-007
5.0901e-005
1.62124e-007
5.09054e-005
1.60645e-007
5.09096e-005
1.59105e-007
5.09139e-005
1.575e-007
5.09181e-005
1.55825e-007
5.09222e-005
1.54078e-007
5.09264e-005
1.52258e-007
5.09305e-005
1.50362e-007
5.09347e-005
1.48389e-007
5.09388e-005
1.46337e-007
5.09429e-005
1.44207e-007
5.0947e-005
1.41998e-007
5.09511e-005
1.39712e-007
5.09553e-005
1.37351e-007
5.09595e-005
1.34918e-007
5.09636e-005
1.32417e-007
5.09679e-005
1.29851e-007
5.09722e-005
1.27212e-007
5.09767e-005
1.24479e-007
5.09812e-005
1.21658e-007
5.09859e-005
1.18764e-007
5.09907e-005
1.15787e-007
5.09957e-005
1.12721e-007
5.10008e-005
1.09574e-007
5.10061e-005
1.06356e-007
5.10115e-005
1.0307e-007
5.1017e-005
9.97176e-008
5.10226e-005
9.63e-008
5.10282e-005
9.28195e-008
5.10338e-005
8.92779e-008
5.10394e-005
8.56776e-008
5.1045e-005
8.20236e-008
5.10505e-005
7.83236e-008
5.10559e-005
7.45869e-008
5.10612e-005
7.08236e-008
5.10663e-005
6.70453e-008
5.10712e-005
6.3264e-008
5.10758e-005
5.94928e-008
5.10802e-005
5.57449e-008
5.10842e-005
5.20342e-008
5.10879e-005
4.83743e-008
5.10912e-005
4.47793e-008
5.1094e-005
4.12633e-008
5.10965e-005
3.78403e-008
5.10984e-005
3.45245e-008
5.10999e-005
3.13292e-008
5.11008e-005
2.82661e-008
5.11012e-005
2.5345e-008
5.11011e-005
2.25733e-008
5.11004e-005
1.99568e-008
5.10991e-005
1.74992e-008
5.10974e-005
1.52003e-008
5.1095e-005
1.30567e-008
5.10922e-005
1.10667e-008
5.10889e-005
9.23209e-009
5.10851e-005
7.55702e-009
5.10809e-005
6.04553e-009
5.10762e-005
4.69606e-009
5.10712e-005
3.49632e-009
5.10658e-005
2.43149e-009
5.10601e-005
1.4869e-009
5.10541e-005
6.6147e-010
5.10479e-005
-3.70156e-011
5.10416e-005
-6.23607e-010
5.10352e-005
-1.11837e-009
5.10287e-005
-1.53882e-009
5.10222e-005
-1.89908e-009
5.10156e-005
-2.21054e-009
5.10091e-005
-2.48267e-009
5.10026e-005
-2.72321e-009
5.09962e-005
-2.93848e-009
5.09898e-005
-3.13389e-009
5.09835e-005
-3.31301e-009
5.09772e-005
-3.47729e-009
5.09711e-005
-3.62831e-009
5.0965e-005
-3.76778e-009
5.0959e-005
-3.89722e-009
5.09532e-005
-4.01777e-009
5.09474e-005
-4.1303e-009
5.09417e-005
-4.23557e-009
5.09362e-005
-4.33433e-009
5.09307e-005
-4.42736e-009
5.09254e-005
-4.51538e-009
5.09201e-005
-4.59908e-009
5.0915e-005
-4.67911e-009
5.09099e-005
-4.75611e-009
5.0905e-005
-4.83073e-009
5.09002e-005
-4.90361e-009
5.08954e-005
-4.9754e-009
5.08908e-005
-5.04671e-009
5.08863e-005
-5.1181e-009
5.08818e-005
-5.19009e-009
5.08775e-005
-5.26314e-009
5.08733e-005
-5.33763e-009
5.08691e-005
-5.41385e-009
5.08651e-005
-5.49208e-009
5.08611e-005
-5.57256e-009
5.08572e-005
-5.65557e-009
5.08534e-005
-5.74131e-009
5.08497e-005
-5.82996e-009
5.08461e-005
-5.92172e-009
5.08425e-005
-6.01678e-009
5.08391e-005
-6.11537e-009
5.08357e-005
-6.2177e-009
5.08323e-005
-6.32398e-009
5.08291e-005
-6.43443e-009
5.08259e-005
-6.54926e-009
5.08228e-005
-6.66863e-009
5.08197e-005
-6.79268e-009
5.08167e-005
-6.92144e-009
5.08138e-005
-7.0548e-009
5.0811e-005
-7.19237e-009
5.08082e-005
-7.33435e-009
5.08054e-005
-7.48406e-009
5.08027e-005
-7.6405e-009
5.08001e-005
-7.79976e-009
5.07976e-005
-7.96111e-009
5.07951e-005
-8.12334e-009
5.07926e-005
-8.28495e-009
5.07902e-005
-8.44388e-009
5.07879e-005
-8.59741e-009
5.07856e-005
-8.74204e-009
5.07833e-005
-8.87334e-009
5.07811e-005
-8.98574e-009
5.0779e-005
-9.07214e-009
5.07768e-005
-9.12368e-009
5.07747e-005
-9.12913e-009
5.07725e-005
-9.07467e-009
5.07704e-005
-8.9427e-009
5.07682e-005
-8.71197e-009
5.0766e-005
-8.35486e-009
5.07636e-005
-7.84025e-009
5.07611e-005
-7.12101e-009
5.07583e-005
-6.15957e-009
5.07552e-005
-4.84669e-009
5.07515e-005
-3.21716e-009
5.07474e-005
-7.75793e-010
5.07422e-005
1.64905e-009
7.3697e-009
5.00312e-005
-7.83256e-008
5.00728e-005
-3.41915e-008
5.0119e-005
3.92976e-009
5.0166e-005
3.53113e-008
5.02119e-005
6.05626e-008
5.02558e-005
8.07511e-008
5.02972e-005
9.68092e-008
5.03357e-005
1.09585e-007
5.03718e-005
1.20041e-007
5.04057e-005
1.28788e-007
5.04377e-005
1.36089e-007
5.0468e-005
1.42337e-007
5.04971e-005
1.47694e-007
5.05249e-005
1.52125e-007
5.05517e-005
1.55612e-007
5.05773e-005
1.58594e-007
5.06019e-005
1.61341e-007
5.06256e-005
1.63823e-007
5.06486e-005
1.65597e-007
5.06711e-005
1.66896e-007
5.06931e-005
1.68172e-007
5.07146e-005
1.69099e-007
5.07358e-005
1.698e-007
5.07565e-005
1.70319e-007
5.07769e-005
1.70722e-007
5.07969e-005
1.71041e-007
5.08167e-005
1.71103e-007
5.08363e-005
1.71066e-007
5.08556e-005
1.7102e-007
5.08747e-005
1.70877e-007
5.08936e-005
1.70653e-007
5.09124e-005
1.70327e-007
5.09309e-005
1.69948e-007
5.09494e-005
1.69541e-007
5.09677e-005
1.69099e-007
5.09858e-005
1.68645e-007
5.10038e-005
1.68194e-007
5.10217e-005
1.67731e-007
5.10394e-005
1.67247e-007
5.10569e-005
1.66713e-007
5.10744e-005
1.66121e-007
5.10917e-005
1.65498e-007
5.1109e-005
1.64827e-007
5.11262e-005
1.64106e-007
5.11432e-005
1.63363e-007
5.11602e-005
1.62613e-007
5.11771e-005
1.61853e-007
5.11938e-005
1.61078e-007
5.12105e-005
1.60286e-007
5.1227e-005
1.59469e-007
5.12434e-005
1.58624e-007
5.12598e-005
1.57742e-007
5.1276e-005
1.56821e-007
5.12922e-005
1.55864e-007
5.13083e-005
1.54874e-007
5.13243e-005
1.53849e-007
5.13401e-005
1.52782e-007
5.13559e-005
1.5167e-007
5.13717e-005
1.50507e-007
5.13873e-005
1.49289e-007
5.14028e-005
1.48015e-007
5.14182e-005
1.46683e-007
5.14336e-005
1.45293e-007
5.14488e-005
1.43844e-007
5.1464e-005
1.42331e-007
5.14791e-005
1.40748e-007
5.14941e-005
1.39095e-007
5.1509e-005
1.37369e-007
5.15238e-005
1.35571e-007
5.15384e-005
1.33699e-007
5.1553e-005
1.31753e-007
5.15675e-005
1.29733e-007
5.15819e-005
1.2764e-007
5.15961e-005
1.25476e-007
5.16102e-005
1.23244e-007
5.16242e-005
1.20947e-007
5.1638e-005
1.18587e-007
5.16517e-005
1.16166e-007
5.16652e-005
1.13681e-007
5.16786e-005
1.11121e-007
5.16918e-005
1.08482e-007
5.17048e-005
1.0577e-007
5.17176e-005
1.02982e-007
5.17302e-005
1.0011e-007
5.17426e-005
9.71677e-008
5.17548e-005
9.41761e-008
5.17667e-005
9.11454e-008
5.17783e-005
8.80716e-008
5.17897e-005
8.49549e-008
5.18007e-005
8.18017e-008
5.18114e-005
7.8615e-008
5.18216e-005
7.53945e-008
5.18315e-005
7.21452e-008
5.1841e-005
6.88749e-008
5.185e-005
6.55928e-008
5.18585e-005
6.23087e-008
5.18665e-005
5.90331e-008
5.1874e-005
5.57769e-008
5.18809e-005
5.25515e-008
5.18873e-005
4.93683e-008
5.18931e-005
4.6239e-008
5.18983e-005
4.31747e-008
5.19029e-005
4.01868e-008
5.19069e-005
3.72858e-008
5.19102e-005
3.4482e-008
5.1913e-005
3.17852e-008
5.19151e-005
2.92041e-008
5.19166e-005
2.67457e-008
5.19175e-005
2.4415e-008
5.19179e-005
2.22146e-008
5.19177e-005
2.01467e-008
5.1917e-005
1.8213e-008
5.19158e-005
1.64109e-008
5.19141e-005
1.47369e-008
5.1912e-005
1.3188e-008
5.19094e-005
1.17621e-008
5.19065e-005
1.04577e-008
5.19033e-005
9.27425e-009
5.18998e-005
8.2084e-009
5.1896e-005
7.25214e-009
5.18921e-005
6.39551e-009
5.18879e-005
5.62906e-009
5.18836e-005
4.94895e-009
5.18793e-005
4.35299e-009
5.18748e-005
3.83189e-009
5.18703e-005
3.37336e-009
5.18658e-005
2.96572e-009
5.18613e-005
2.5994e-009
5.18568e-005
2.26656e-009
5.18524e-005
1.96056e-009
5.1848e-005
1.67639e-009
5.18436e-005
1.40959e-009
5.18394e-005
1.15482e-009
5.18351e-005
9.10245e-010
5.1831e-005
6.78636e-010
5.18269e-005
4.58598e-010
5.18229e-005
2.48592e-010
5.18189e-005
4.77119e-011
5.18151e-005
-1.44527e-010
5.18112e-005
-3.28561e-010
5.18075e-005
-5.04974e-010
5.18039e-005
-6.7445e-010
5.18003e-005
-8.37658e-010
5.17967e-005
-9.95194e-010
5.17933e-005
-1.14761e-009
5.17899e-005
-1.29544e-009
5.17866e-005
-1.43926e-009
5.17833e-005
-1.57967e-009
5.17802e-005
-1.71725e-009
5.1777e-005
-1.85257e-009
5.1774e-005
-1.98612e-009
5.1771e-005
-2.11836e-009
5.1768e-005
-2.24965e-009
5.17652e-005
-2.38035e-009
5.17623e-005
-2.51071e-009
5.17596e-005
-2.64091e-009
5.17568e-005
-2.77108e-009
5.17542e-005
-2.90144e-009
5.17515e-005
-3.03219e-009
5.1749e-005
-3.16351e-009
5.17464e-005
-3.29558e-009
5.17439e-005
-3.42865e-009
5.17415e-005
-3.56301e-009
5.17391e-005
-3.69902e-009
5.17367e-005
-3.83706e-009
5.17343e-005
-3.97753e-009
5.1732e-005
-4.12083e-009
5.17297e-005
-4.26739e-009
5.17275e-005
-4.41758e-009
5.17253e-005
-4.57175e-009
5.17231e-005
-4.73014e-009
5.17209e-005
-4.89291e-009
5.17188e-005
-5.06017e-009
5.17167e-005
-5.23218e-009
5.17146e-005
-5.4096e-009
5.17126e-005
-5.59182e-009
5.17105e-005
-5.77715e-009
5.17085e-005
-5.96423e-009
5.17066e-005
-6.15152e-009
5.17046e-005
-6.33715e-009
5.17027e-005
-6.51878e-009
5.17008e-005
-6.69336e-009
5.16989e-005
-6.85706e-009
5.1697e-005
-7.00497e-009
5.16952e-005
-7.13089e-009
5.16933e-005
-7.22699e-009
5.16915e-005
-7.28346e-009
5.16897e-005
-7.28778e-009
5.16878e-005
-7.22448e-009
5.16859e-005
-7.07348e-009
5.1684e-005
-6.81047e-009
5.16821e-005
-6.40329e-009
5.16801e-005
-5.81196e-009
5.16779e-005
-4.98691e-009
5.16756e-005
-3.83925e-009
5.16731e-005
-2.34599e-009
5.16702e-005
-3.04337e-010
5.1667e-005
2.39171e-009
5.1663e-005
5.63345e-009
1.16078e-008
5.00288e-005
-1.07168e-007
5.00651e-005
-7.04233e-008
5.01056e-005
-3.66396e-008
5.01481e-005
-7.169e-009
5.01908e-005
1.78775e-008
5.02327e-005
3.88844e-008
5.02731e-005
5.63778e-008
5.03118e-005
7.09225e-008
5.03487e-005
8.31436e-008
5.03839e-005
9.35195e-008
5.04177e-005
1.02345e-007
5.04501e-005
1.09915e-007
5.04814e-005
1.16407e-007
5.05116e-005
1.21907e-007
5.05407e-005
1.2648e-007
5.0569e-005
1.30375e-007
5.05965e-005
1.33829e-007
5.06234e-005
1.36918e-007
5.06497e-005
1.39318e-007
5.06754e-005
1.41103e-007
5.07009e-005
1.42683e-007
5.07261e-005
1.43965e-007
5.07509e-005
1.44981e-007
5.07754e-005
1.45766e-007
5.07997e-005
1.46481e-007
5.08236e-005
1.47157e-007
5.08473e-005
1.47374e-007
5.0871e-005
1.47395e-007
5.08945e-005
1.47481e-007
5.09179e-005
1.4752e-007
5.09411e-005
1.47433e-007
5.09642e-005
1.47191e-007
5.09872e-005
1.46927e-007
5.10101e-005
1.46659e-007
5.10329e-005
1.46321e-007
5.10556e-005
1.4597e-007
5.10781e-005
1.45636e-007
5.11006e-005
1.45287e-007
5.11229e-005
1.44907e-007
5.11452e-005
1.44468e-007
5.11673e-005
1.43954e-007
5.11894e-005
1.43394e-007
5.12115e-005
1.42798e-007
5.12334e-005
1.42167e-007
5.12552e-005
1.41516e-007
5.1277e-005
1.40861e-007
5.12987e-005
1.40195e-007
5.13202e-005
1.39516e-007
5.13417e-005
1.38826e-007
5.1363e-005
1.38114e-007
5.13843e-005
1.37373e-007
5.14054e-005
1.36589e-007
5.14265e-005
1.35758e-007
5.14475e-005
1.34897e-007
5.14683e-005
1.34014e-007
5.14891e-005
1.33103e-007
5.15097e-005
1.32154e-007
5.15302e-005
1.31163e-007
5.15506e-005
1.30123e-007
5.15709e-005
1.29031e-007
5.1591e-005
1.27882e-007
5.1611e-005
1.2668e-007
5.16309e-005
1.2543e-007
5.16506e-005
1.24128e-007
5.16701e-005
1.2277e-007
5.16895e-005
1.21348e-007
5.17088e-005
1.1986e-007
5.17278e-005
1.18307e-007
5.17467e-005
1.16692e-007
5.17654e-005
1.15013e-007
5.17839e-005
1.1327e-007
5.18021e-005
1.11464e-007
5.18202e-005
1.09596e-007
5.1838e-005
1.07669e-007
5.18555e-005
1.05687e-007
5.18728e-005
1.03652e-007
5.18899e-005
1.01566e-007
5.19066e-005
9.94293e-008
5.1923e-005
9.72435e-008
5.19392e-005
9.50055e-008
5.19549e-005
9.27156e-008
5.19703e-005
9.03763e-008
5.19853e-005
8.79737e-008
5.19999e-005
8.54851e-008
5.20142e-005
8.29225e-008
5.2028e-005
8.03325e-008
5.20414e-005
7.7739e-008
5.20544e-005
7.51224e-008
5.20669e-005
7.24779e-008
5.20788e-005
6.98228e-008
5.20903e-005
6.71583e-008
5.21012e-005
6.44741e-008
5.21116e-005
6.17745e-008
5.21214e-005
5.90675e-008
5.21306e-005
5.63616e-008
5.21393e-005
5.36656e-008
5.21473e-005
5.09884e-008
5.21548e-005
4.83392e-008
5.21616e-005
4.57274e-008
5.21678e-005
4.31621e-008
5.21734e-005
4.06519e-008
5.21783e-005
3.82051e-008
5.21827e-005
3.58291e-008
5.21865e-005
3.35309e-008
5.21896e-005
3.13163e-008
5.21922e-005
2.9191e-008
5.21943e-005
2.716e-008
5.21958e-005
2.52271e-008
5.21968e-005
2.33944e-008
5.21974e-005
2.16612e-008
5.21975e-005
2.00314e-008
5.21972e-005
1.85084e-008
5.21965e-005
1.70867e-008
5.21955e-005
1.57632e-008
5.21941e-005
1.45361e-008
5.21925e-005
1.34007e-008
5.21906e-005
1.23539e-008
5.21885e-005
1.13942e-008
5.21862e-005
1.0518e-008
5.21837e-005
9.71986e-009
5.21811e-005
8.99249e-009
5.21784e-005
8.32922e-009
5.21756e-005
7.72624e-009
5.21728e-005
7.1804e-009
5.21699e-005
6.68615e-009
5.21671e-005
6.23616e-009
5.21642e-005
5.8229e-009
5.21614e-005
5.43953e-009
5.21586e-005
5.08083e-009
5.21558e-005
4.74328e-009
5.2153e-005
4.42425e-009
5.21503e-005
4.12014e-009
5.21477e-005
3.81999e-009
5.2145e-005
3.52697e-009
5.21425e-005
3.25037e-009
5.21399e-005
2.98512e-009
5.21375e-005
2.72993e-009
5.2135e-005
2.48447e-009
5.21326e-005
2.24838e-009
5.21303e-005
2.02109e-009
5.2128e-005
1.80193e-009
5.21257e-005
1.59028e-009
5.21235e-005
1.3856e-009
5.21213e-005
1.18741e-009
5.21192e-005
9.95268e-010
5.21171e-005
8.08654e-010
5.2115e-005
6.27045e-010
5.2113e-005
4.49912e-010
5.2111e-005
2.76755e-010
5.2109e-005
1.0712e-010
5.21071e-005
-5.93846e-011
5.21052e-005
-2.23086e-010
5.21033e-005
-3.84249e-010
5.21015e-005
-5.43089e-010
5.20997e-005
-6.99774e-010
5.20979e-005
-8.54475e-010
5.20961e-005
-1.00736e-009
5.20944e-005
-1.15856e-009
5.20927e-005
-1.30822e-009
5.20909e-005
-1.45655e-009
5.20893e-005
-1.60384e-009
5.20876e-005
-1.75043e-009
5.20859e-005
-1.8968e-009
5.20843e-005
-2.04348e-009
5.20826e-005
-2.19105e-009
5.2081e-005
-2.3401e-009
5.20793e-005
-2.49126e-009
5.20777e-005
-2.64512e-009
5.20761e-005
-2.80224e-009
5.20745e-005
-2.96311e-009
5.20729e-005
-3.1281e-009
5.20713e-005
-3.29746e-009
5.20697e-005
-3.47136e-009
5.20681e-005
-3.64984e-009
5.20666e-005
-3.83282e-009
5.2065e-005
-4.01971e-009
5.20634e-005
-4.20939e-009
5.20618e-005
-4.40048e-009
5.20603e-005
-4.59135e-009
5.20587e-005
-4.77998e-009
5.20572e-005
-4.9639e-009
5.20556e-005
-5.13997e-009
5.20541e-005
-5.30432e-009
5.20525e-005
-5.45199e-009
5.2051e-005
-5.57674e-009
5.20494e-005
-5.67065e-009
5.20478e-005
-5.72391e-009
5.20463e-005
-5.72366e-009
5.20447e-005
-5.65436e-009
5.20431e-005
-5.49492e-009
5.20415e-005
-5.2208e-009
5.20399e-005
-4.79649e-009
5.20383e-005
-4.18067e-009
5.20366e-005
-3.32035e-009
5.20349e-005
-2.12328e-009
5.20331e-005
-5.5615e-010
5.20312e-005
1.6087e-009
5.20292e-005
4.39343e-009
5.20268e-005
8.04707e-009
1.36436e-008
5.00276e-005
-1.348e-007
5.00605e-005
-1.03328e-007
5.00971e-005
-7.32444e-008
5.01358e-005
-4.58585e-008
5.01753e-005
-2.16e-008
5.02147e-005
-4.63565e-010
5.02533e-005
1.77721e-008
5.02908e-005
3.34284e-008
5.0327e-005
4.68912e-008
5.0362e-005
5.85002e-008
5.03959e-005
6.85091e-008
5.04286e-005
7.71518e-008
5.04604e-005
8.46025e-008
5.04914e-005
9.09852e-008
5.05214e-005
9.64069e-008
5.05508e-005
1.01043e-007
5.05795e-005
1.05054e-007
5.06079e-005
1.08524e-007
5.06359e-005
1.1139e-007
5.06633e-005
1.13698e-007
5.06903e-005
1.15621e-007
5.07171e-005
1.17196e-007
5.07436e-005
1.18464e-007
5.07699e-005
1.19476e-007
5.0796e-005
1.20378e-007
5.0822e-005
1.21189e-007
5.08478e-005
1.21583e-007
5.08734e-005
1.21737e-007
5.0899e-005
1.21883e-007
5.09245e-005
1.21992e-007
5.095e-005
1.21978e-007
5.09753e-005
1.21848e-007
5.10005e-005
1.21741e-007
5.10256e-005
1.21602e-007
5.10506e-005
1.21297e-007
5.10756e-005
1.2096e-007
5.11006e-005
1.20694e-007
5.11254e-005
1.20445e-007
5.11502e-005
1.20152e-007
5.11748e-005
1.19802e-007
5.11994e-005
1.19359e-007
5.12239e-005
1.18864e-007
5.12484e-005
1.1835e-007
5.12728e-005
1.17789e-007
5.12971e-005
1.17208e-007
5.13213e-005
1.16661e-007
5.13454e-005
1.16124e-007
5.13693e-005
1.15565e-007
5.13931e-005
1.14987e-007
5.14169e-005
1.14385e-007
5.14405e-005
1.13753e-007
5.1464e-005
1.13069e-007
5.14874e-005
1.12335e-007
5.15107e-005
1.11585e-007
5.15339e-005
1.10838e-007
5.1557e-005
1.10075e-007
5.15798e-005
1.09279e-007
5.16025e-005
1.08444e-007
5.16251e-005
1.07568e-007
5.16475e-005
1.0664e-007
5.16697e-005
1.05658e-007
5.16918e-005
1.04633e-007
5.17136e-005
1.03575e-007
5.17353e-005
1.02484e-007
5.17567e-005
1.01347e-007
5.17779e-005
1.00156e-007
5.17988e-005
9.89057e-008
5.18195e-005
9.75996e-008
5.184e-005
9.62451e-008
5.18602e-005
9.48441e-008
5.188e-005
9.33931e-008
5.18996e-005
9.18915e-008
5.19189e-005
9.03406e-008
5.19378e-005
8.87465e-008
5.19564e-005
8.71134e-008
5.19746e-005
8.54411e-008
5.19924e-005
8.37322e-008
5.20098e-005
8.19897e-008
5.20269e-005
8.02157e-008
5.20435e-005
7.84102e-008
5.20596e-005
7.65771e-008
5.20752e-005
7.47292e-008
5.20904e-005
7.28383e-008
5.2105e-005
7.08317e-008
5.21192e-005
6.87212e-008
5.21329e-005
6.66273e-008
5.21461e-005
6.45868e-008
5.21587e-005
6.25372e-008
5.21707e-005
6.0462e-008
5.21821e-005
5.83753e-008
5.2193e-005
5.62825e-008
5.22033e-005
5.41796e-008
5.2213e-005
5.20693e-008
5.22221e-005
4.99569e-008
5.22306e-005
4.78487e-008
5.22386e-005
4.57514e-008
5.22459e-005
4.36717e-008
5.22526e-005
4.16167e-008
5.22587e-005
3.9593e-008
5.22643e-005
3.76074e-008
5.22693e-005
3.5666e-008
5.22737e-005
3.37743e-008
5.22776e-005
3.19378e-008
5.2281e-005
3.01612e-008
5.22838e-005
2.84491e-008
5.22862e-005
2.68055e-008
5.22881e-005
2.5234e-008
5.22896e-005
2.37369e-008
5.22907e-005
2.2315e-008
5.22914e-005