/*--------------------------------*- C++ -*----------------------------------*\
| =========                 |                                                 |
| \\      /  F ield         | OpenFOAM: The Open Source CFD Toolbox           |
|  \\    /   O peration     | Version:  5.x                                   |
|   \\  /    A nd           | Web:      www.OpenFOAM.org                      |
|    \\/     M anipulation  |                                                 |
\*---------------------------------------------------------------------------*/
/*   Windows 32 and 64 bit porting by blueCAPE: http://www.bluecape.com.pt   *\
|  Based on Windows porting (2.0.x v4) by Symscape: http://www.symscape.com   |
\*---------------------------------------------------------------------------*/
FoamFile
{
    version     2.0;
    format      ascii;
    class       volVectorField;
    location    "2000";
    object      U;
}
// * * * * * * * * * * * * * * * * * * * * * * * * * * * * * * * * * * * * * //

dimensions      [0 1 -1 0 0 0 0];

internalField   nonuniform List<vector> 
4000
(
(0.999143 0.000750758 3.41624e-023)
(0.997621 0.00243077 0)
(0.994319 0.00350704 0)
(0.990411 0.00388475 0)
(0.986349 0.00403887 0)
(0.982166 0.00409481 0)
(0.9779 0.00410144 -6.21072e-023)
(0.973595 0.00407386 0)
(0.969275 0.00403006 0)
(0.964959 0.00398263 -5.93111e-023)
(0.960655 0.00393608 0)
(0.956364 0.00389229 0)
(0.952085 0.00385008 -5.74123e-023)
(0.947819 0.00380924 0)
(0.94357 0.00376928 -5.65231e-023)
(0.939341 0.00372998 -5.61583e-023)
(0.935133 0.00369188 -5.58299e-023)
(0.930947 0.00365485 -5.55346e-023)
(0.926782 0.0036186 -5.527e-023)
(0.922639 0.00358318 -5.50308e-023)
(0.918519 0.00354867 -5.48128e-023)
(0.914421 0.0035149 -5.46148e-023)
(0.910346 0.00348203 0)
(0.906294 0.00345019 -5.42645e-023)
(0.902265 0.00341935 -5.41075e-023)
(0.89826 0.00338947 -5.39598e-023)
(0.894278 0.00336042 -5.38204e-023)
(0.89032 0.00333213 -5.36873e-023)
(0.886386 0.00330461 -5.35588e-023)
(0.882475 0.00327773 -5.34344e-023)
(0.878589 0.00325136 0)
(0.874726 0.00322537 -5.31944e-023)
(0.870888 0.0031997 -5.30769e-023)
(0.867074 0.0031743 -5.296e-023)
(0.863284 0.00314912 -5.28433e-023)
(0.859518 0.00312415 -5.27266e-023)
(0.855775 0.00309935 -5.26095e-023)
(0.852057 0.00307468 -5.2492e-023)
(0.848363 0.00305009 -5.23741e-023)
(0.844693 0.00302555 0)
(0.841047 0.00300102 -5.21358e-023)
(0.837425 0.0029765 -5.20146e-023)
(0.833828 0.00295202 -5.18917e-023)
(0.830255 0.00292773 -5.17667e-023)
(0.826706 0.00290367 -5.16391e-023)
(0.823182 0.00287848 -5.15093e-023)
(0.819683 0.00285245 -5.13777e-023)
(0.816209 0.00282708 0)
(0.812759 0.00280223 -5.11061e-023)
(0.809334 0.00277763 -5.09657e-023)
(0.805935 0.0027531 -5.08224e-023)
(0.802561 0.00272849 -5.0676e-023)
(0.799213 0.0027037 -5.05265e-023)
(0.795892 0.00267866 -5.03738e-023)
(0.792597 0.00265332 -5.02177e-023)
(0.789329 0.00262764 -5.00583e-023)
(0.786089 0.00260158 0)
(0.782877 0.0025751 -4.9729e-023)
(0.779694 0.00254818 -4.9559e-023)
(0.77654 0.0025208 -4.93853e-023)
(0.773416 0.00249291 -4.92076e-023)
(0.770323 0.00246451 -4.90258e-023)
(0.767261 0.00243556 -4.88398e-023)
(0.76423 0.00240605 -4.86495e-023)
(0.761233 0.00237596 0)
(0.758269 0.00234526 -4.82554e-023)
(0.755339 0.00231393 -4.80514e-023)
(0.752444 0.00228195 -4.78424e-023)
(0.749585 0.00224932 -4.76285e-023)
(0.746763 0.00221597 -4.74094e-023)
(0.743978 0.0021819 -4.71852e-023)
(0.741233 0.00214714 -4.69556e-023)
(0.738527 0.00211169 -4.67206e-023)
(0.735861 0.00207554 -4.64803e-023)
(0.733237 0.00203873 -4.62348e-023)
(0.730656 0.00200134 -4.59842e-023)
(0.728117 0.00196359 -4.5729e-023)
(0.725622 0.00192605 -4.54696e-023)
(0.723169 0.00188995 -4.52065e-023)
(0.720757 0.00185829 -4.49407e-023)
(0.718381 0.00183169 -4.46665e-023)
(0.716045 0.00180685 0)
(0.713747 0.0017814 -4.4078e-023)
(0.711488 0.00175477 -4.37688e-023)
(0.70927 0.00172675 -4.34499e-023)
(0.707095 0.00169703 -4.3121e-023)
(0.704964 0.00166543 -4.27827e-023)
(0.70288 0.00163194 -4.24354e-023)
(0.700843 0.00159657 -4.2079e-023)
(0.698857 0.0015593 -4.17135e-023)
(0.696922 0.00152008 0)
(0.695041 0.00147894 -4.09571e-023)
(0.693214 0.00143588 -4.05667e-023)
(0.691445 0.00139095 -4.01685e-023)
(0.689734 0.0013442 -3.97627e-023)
(0.688083 0.0012957 -3.935e-023)
(0.686494 0.00124556 -3.89307e-023)
(0.684967 0.00119393 -3.85055e-023)
(0.683504 0.00114097 -3.80747e-023)
(0.682106 0.00108681 -3.76388e-023)
(0.680774 0.0010316 -3.71982e-023)
(0.679508 0.000975447 -3.67537e-023)
(0.678309 0.000918468 -3.63059e-023)
(0.677177 0.000860776 -3.58553e-023)
(0.676112 0.000802501 -3.54027e-023)
(0.675113 0.000743803 -3.49485e-023)
(0.674181 0.000684869 -3.44934e-023)
(0.673313 0.000625926 -3.40381e-023)
(0.67251 0.000567245 -3.35832e-023)
(0.67177 0.000509103 -3.31292e-023)
(0.671091 0.00045169 -3.26768e-023)
(0.670471 0.000395499 -3.22262e-023)
(0.669907 0.000341362 -3.17776e-023)
(0.669399 0.000287665 -3.13313e-023)
(0.668943 0.000233241 -3.08876e-023)
(0.668537 0.000179555 -3.04468e-023)
(0.668179 0.000125641 -3.00098e-023)
(0.667869 7.28454e-005 -2.9576e-023)
(0.667603 2.73803e-005 -2.91471e-023)
(0.667378 -1.29662e-005 -2.87232e-023)
(0.667187 -5.01234e-005 -2.83036e-023)
(0.667027 -8.47954e-005 -2.7888e-023)
(0.6669 -0.000120296 -2.74796e-023)
(0.666797 -0.000146141 -2.70781e-023)
(0.666712 -0.000168261 -2.66794e-023)
(0.666645 -0.000187176 -2.62825e-023)
(0.66659 -0.000203246 -2.58874e-023)
(0.666547 -0.000216748 -2.5494e-023)
(0.666513 -0.000227922 -2.51026e-023)
(0.666485 -0.000236998 -2.47128e-023)
(0.666464 -0.000244195 -2.43246e-023)
(0.666447 -0.000249724 -2.3938e-023)
(0.666432 -0.000253782 -2.35528e-023)
(0.66642 -0.000256548 -2.3169e-023)
(0.666409 -0.000258182 -2.27864e-023)
(0.666399 -0.000258828 -2.2405e-023)
(0.666389 -0.000258616 -2.20248e-023)
(0.666378 -0.000257666 -2.16456e-023)
(0.666366 -0.00025609 -2.12674e-023)
(0.666353 -0.000253985 -2.08903e-023)
(0.666338 -0.000251439 -2.05141e-023)
(0.666321 -0.000248524 -2.01387e-023)
(0.666302 -0.000245304 -1.97643e-023)
(0.666281 -0.000241833 -1.93906e-023)
(0.666257 -0.00023816 -1.90178e-023)
(0.666231 -0.00023433 -1.86457e-023)
(0.666202 -0.000230379 -1.82743e-023)
(0.666171 -0.000226342 -1.79037e-023)
(0.666137 -0.000222247 -1.75338e-023)
(0.6661 -0.000218119 -1.71645e-023)
(0.66606 -0.000213978 -1.67958e-023)
(0.666018 -0.000209845 -1.64277e-023)
(0.665973 -0.000205736 -1.60602e-023)
(0.665925 -0.000201668 -1.56933e-023)
(0.665875 -0.000197655 -1.53268e-023)
(0.665823 -0.000193712 -1.49609e-023)
(0.665768 -0.000189852 -1.45954e-023)
(0.66571 -0.000186086 -1.42305e-023)
(0.665651 -0.000182424 -1.38659e-023)
(0.665589 -0.000178876 -1.35018e-023)
(0.665526 -0.00017545 -1.3138e-023)
(0.66546 -0.000172154 -1.27747e-023)
(0.665393 -0.000168994 -1.24117e-023)
(0.665324 -0.000165974 -1.2049e-023)
(0.665254 -0.0001631 -1.16867e-023)
(0.665183 -0.000160374 -1.13246e-023)
(0.66511 -0.0001578 -1.09629e-023)
(0.665036 -0.000155377 -1.06014e-023)
(0.664961 -0.000153106 -1.02402e-023)
(0.664886 -0.000150985 -9.87923e-024)
(0.664809 -0.000149013 -9.51849e-024)
(0.664733 -0.000147186 -9.15797e-024)
(0.664656 -0.0001455 -8.79767e-024)
(0.664578 -0.00014395 -8.43761e-024)
(0.664501 -0.000142535 -8.07782e-024)
(0.664423 -0.000141255 -7.71832e-024)
(0.664345 -0.000140108 -7.35903e-024)
(0.664268 -0.000139085 -6.99987e-024)
(0.664191 -0.000138174 -6.64078e-024)
(0.664114 -0.000137358 -6.28177e-024)
(0.664038 -0.000136616 -5.9229e-024)
(0.663962 -0.000135923 -5.56432e-024)
(0.663887 -0.000135247 -5.20623e-024)
(0.663811 -0.000134551 -4.84888e-024)
(0.663736 -0.000133789 -4.49257e-024)
(0.663661 -0.000132906 -4.13766e-024)
(0.663586 -0.000131836 -3.78459e-024)
(0.66351 -0.000130499 -3.43389e-024)
(0.663434 -0.000128801 -3.08624e-024)
(0.663355 -0.000126623 -2.74244e-024)
(0.663275 -0.000123847 -2.40368e-024)
(0.663191 -0.000120285 -2.071e-024)
(0.663103 -0.000115867 -1.74692e-024)
(0.663009 -0.000110159 -1.43126e-024)
(0.662908 -0.00010367 -1.13263e-024)
(0.662795 -9.45386e-005 -8.37921e-025)
(0.662678 -8.7138e-005 -5.93006e-025)
(0.662524 -7.05286e-005 -2.99875e-025)
(0.662417 -7.26549e-005 -2.34486e-025)
(0.662126 -1.63692e-005 3.03978e-025)
(1.00018 0.00115669 1.43884e-023)
(1.00081 0.00276737 0)
(1.00147 0.00347813 0)
(1.00184 0.00394643 0)
(1.00201 0.00424039 0)
(1.002 0.00444152 0)
(1.00185 0.00456312 -4.76865e-023)
(1.00158 0.00466956 0)
(1.00123 0.00472839 0)
(1.0008 0.00476065 -4.74753e-023)
(1.0003 0.00478558 0)
(0.999738 0.00480677 0)
(0.999122 0.00482467 -4.67763e-023)
(0.998457 0.00483724 0)
(0.997752 0.00484304 -4.63682e-023)
(0.997015 0.00484429 -4.61662e-023)
(0.996252 0.0048433 -4.59603e-023)
(0.995463 0.00484108 -4.57634e-023)
(0.994652 0.00483698 -4.55793e-023)
(0.993821 0.00483138 -4.5398e-023)
(0.992973 0.00482546 -4.52181e-023)
(0.992109 0.00481785 -4.50505e-023)
(0.991232 0.00480839 0)
(0.990342 0.0047974 -4.47225e-023)
(0.989441 0.00478511 -4.45606e-023)
(0.988531 0.00477172 -4.43998e-023)
(0.987612 0.00475715 -4.42406e-023)
(0.986685 0.00474153 -4.40807e-023)
(0.985752 0.00472517 -4.39191e-023)
(0.984812 0.00470814 -4.3757e-023)
(0.983866 0.00469058 0)
(0.982915 0.00467254 -4.34287e-023)
(0.981959 0.00465414 -4.32616e-023)
(0.980999 0.00463548 -4.30922e-023)
(0.980036 0.00461663 -4.29205e-023)
(0.979068 0.00459764 -4.27465e-023)
(0.978098 0.00457857 -4.25704e-023)
(0.977124 0.00455937 -4.2393e-023)
(0.976147 0.00453995 -4.22143e-023)
(0.975166 0.00452025 0)
(0.974184 0.00450022 -4.18524e-023)
(0.973199 0.00447988 -4.16685e-023)
(0.972211 0.00445914 -4.14832e-023)
(0.971222 0.00443794 -4.12955e-023)
(0.970232 0.00441653 -4.11035e-023)
(0.96924 0.00439531 -4.09071e-023)
(0.968248 0.0043743 -4.07089e-023)
(0.967255 0.00435306 0)
(0.966261 0.00433134 -4.03108e-023)
(0.965266 0.00430904 -4.01089e-023)
(0.964271 0.00428614 -3.99051e-023)
(0.963276 0.00426262 -3.96993e-023)
(0.96228 0.00423846 -3.94914e-023)
(0.961284 0.00421367 -3.92814e-023)
(0.960288 0.00418825 -3.90693e-023)
(0.959293 0.00416216 -3.88553e-023)
(0.958298 0.00413539 0)
(0.957303 0.00410788 -3.84215e-023)
(0.956309 0.00407959 -3.82018e-023)
(0.955317 0.00405047 -3.79801e-023)
(0.954325 0.00402049 -3.77563e-023)
(0.953335 0.00398959 -3.75305e-023)
(0.952347 0.00395773 -3.73026e-023)
(0.951362 0.00392486 -3.70724e-023)
(0.950379 0.00389092 0)
(0.949398 0.00385588 -3.66057e-023)
(0.948422 0.00381966 -3.63691e-023)
(0.947448 0.00378224 -3.61301e-023)
(0.946479 0.00374356 -3.58887e-023)
(0.945515 0.00370357 -3.5645e-023)
(0.944555 0.00366226 -3.53987e-023)
(0.943601 0.0036196 -3.51499e-023)
(0.942652 0.00357557 -3.48986e-023)
(0.94171 0.00353019 -3.46446e-023)
(0.940774 0.00348352 -3.43879e-023)
(0.939845 0.00343572 -3.4128e-023)
(0.938924 0.00338703 -3.38643e-023)
(0.93801 0.00333823 -3.35953e-023)
(0.937106 0.00328895 -3.3318e-023)
(0.936215 0.00323817 -3.3032e-023)
(0.935341 0.00318706 -3.27495e-023)
(0.934485 0.00313569 0)
(0.933646 0.0030829 -3.21988e-023)
(0.932826 0.00302852 -3.1916e-023)
(0.932025 0.00297242 -3.16283e-023)
(0.931242 0.00291435 -3.13361e-023)
(0.930477 0.00285425 -3.10388e-023)
(0.92973 0.00279219 -3.07361e-023)
(0.929002 0.00272818 -3.04285e-023)
(0.928291 0.0026622 -3.01164e-023)
(0.927597 0.00259423 0)
(0.926921 0.00252432 -2.94791e-023)
(0.926262 0.00245259 -2.91543e-023)
(0.925619 0.00237913 -2.88261e-023)
(0.924993 0.00230406 -2.84945e-023)
(0.924384 0.00222749 -2.816e-023)
(0.92379 0.00214957 -2.78227e-023)
(0.923211 0.00207044 -2.74829e-023)
(0.922646 0.00199028 -2.71413e-023)
(0.922096 0.00190929 -2.67981e-023)
(0.921558 0.0018277 -2.6454e-023)
(0.921032 0.00174582 -2.61093e-023)
(0.920518 0.00166395 -2.57643e-023)
(0.920013 0.00158244 -2.54194e-023)
(0.919518 0.00150165 -2.5075e-023)
(0.919029 0.00142195 -2.47315e-023)
(0.918548 0.00134372 -2.43893e-023)
(0.918071 0.00126734 -2.4049e-023)
(0.917599 0.00119316 -2.37108e-023)
(0.91713 0.00112154 -2.33753e-023)
(0.916662 0.00105277 -2.30425e-023)
(0.916194 0.000987045 -2.27129e-023)
(0.915726 0.000924607 -2.23863e-023)
(0.915256 0.000865797 -2.20624e-023)
(0.914784 0.000810793 -2.17415e-023)
(0.914308 0.000759415 -2.14245e-023)
(0.913828 0.000711343 -2.11125e-023)
(0.913339 0.000666434 -2.0805e-023)
(0.912842 0.000624871 -2.05022e-023)
(0.912338 0.000587137 -2.02024e-023)
(0.911827 0.000553391 -1.99063e-023)
(0.911309 0.000523593 -1.96134e-023)
(0.910785 0.000498044 -1.93241e-023)
(0.910256 0.00047699 -1.90389e-023)
(0.909722 0.000459992 -1.87572e-023)
(0.909185 0.000446351 -1.84786e-023)
(0.908646 0.000435437 -1.82025e-023)
(0.908104 0.000426757 -1.79287e-023)
(0.90756 0.000419925 -1.76568e-023)
(0.907015 0.000414627 -1.73865e-023)
(0.906469 0.000410591 -1.71179e-023)
(0.905923 0.000407586 -1.68507e-023)
(0.905378 0.000405416 -1.65849e-023)
(0.904833 0.000403921 -1.63201e-023)
(0.904289 0.000402981 -1.60563e-023)
(0.903747 0.000402505 -1.57933e-023)
(0.903206 0.000402416 -1.5531e-023)
(0.902667 0.000402647 -1.52695e-023)
(0.90213 0.000403139 -1.50087e-023)
(0.901595 0.000403839 -1.47486e-023)
(0.901062 0.000404708 -1.44891e-023)
(0.900532 0.000405718 -1.42302e-023)
(0.900004 0.000406846 -1.39717e-023)
(0.899479 0.000408076 -1.37137e-023)
(0.898956 0.000409387 -1.34562e-023)
(0.898436 0.00041076 -1.31991e-023)
(0.897919 0.000412175 -1.29424e-023)
(0.897404 0.000413613 -1.26862e-023)
(0.896892 0.000415058 -1.24303e-023)
(0.896383 0.000416496 -1.21748e-023)
(0.895876 0.000417913 -1.19195e-023)
(0.895372 0.000419297 -1.16646e-023)
(0.894871 0.000420635 -1.14099e-023)
(0.894372 0.000421915 -1.11554e-023)
(0.893876 0.000423123 -1.09012e-023)
(0.893383 0.000424248 -1.06473e-023)
(0.892892 0.00042528 -1.03935e-023)
(0.892403 0.000426209 -1.014e-023)
(0.891918 0.000427027 -9.88661e-024)
(0.891435 0.000427727 -9.63341e-024)
(0.890954 0.000428302 -9.38036e-024)
(0.890476 0.000428748 -9.12745e-024)
(0.89 0.00042906 -8.87467e-024)
(0.889527 0.000429235 -8.62202e-024)
(0.889057 0.00042927 -8.36947e-024)
(0.888588 0.000429164 -8.11702e-024)
(0.888122 0.000428916 -7.86466e-024)
(0.887659 0.000428525 -7.61237e-024)
(0.887198 0.000427994 -7.36014e-024)
(0.886739 0.000427323 -7.10796e-024)
(0.886282 0.000426517 -6.85581e-024)
(0.885828 0.00042558 -6.60366e-024)
(0.885375 0.00042452 -6.35152e-024)
(0.884925 0.000423345 -6.09937e-024)
(0.884478 0.000422063 -5.84722e-024)
(0.884032 0.000420684 -5.59506e-024)
(0.883589 0.000419224 -5.34286e-024)
(0.883147 0.000417696 -5.09059e-024)
(0.882708 0.000416117 -4.83827e-024)
(0.882271 0.000414502 -4.5859e-024)
(0.881836 0.000412873 -4.33353e-024)
(0.881403 0.000411258 -4.08118e-024)
(0.880972 0.0004097 -3.82892e-024)
(0.880543 0.000408259 -3.57682e-024)
(0.880115 0.000407013 -3.32499e-024)
(0.879689 0.000406063 -3.07357e-024)
(0.879265 0.000405536 -2.82275e-024)
(0.878841 0.000405588 -2.57279e-024)
(0.878419 0.000406403 -2.32404e-024)
(0.877997 0.000408224 -2.0769e-024)
(0.877575 0.000411285 -1.83217e-024)
(0.877152 0.00041601 -1.5901e-024)
(0.876728 0.000422444 -1.35351e-024)
(0.876301 0.000431854 -1.11911e-024)
(0.875873 0.000442073 -9.03217e-025)
(0.875433 0.000459651 -6.67816e-025)
(0.875004 0.000472392 -5.09566e-025)
(0.874517 0.000507889 -2.17507e-025)
(0.874145 0.000515349 -2.51096e-025)
(0.873402 0.000618527 4.06231e-025)
(1.00008 0.000603525 -1.84212e-023)
(1.00044 0.00177487 0)
(1.00106 0.00269993 0)
(1.00162 0.00337134 0)
(1.00209 0.0038454 0)
(1.00247 0.00418832 0)
(1.00276 0.00443253 6.16732e-023)
(1.00298 0.00459581 0)
(1.00313 0.00472359 0)
(1.00322 0.00483188 6.58048e-023)
(1.00325 0.00492263 0)
(1.00324 0.00500842 0)
(1.00319 0.00507817 6.78994e-023)
(1.0031 0.00513738 0)
(1.00299 0.00517933 6.88385e-023)
(1.00285 0.00520556 6.92057e-023)
(1.0027 0.00522671 6.95096e-023)
(1.00251 0.00524401 6.97694e-023)
(1.00231 0.00525592 6.99957e-023)
(1.00209 0.00526302 7.01855e-023)
(1.00186 0.00526737 7.03411e-023)
(1.00161 0.00526902 7.04762e-023)
(1.00135 0.00526844 0)
(1.00108 0.00526591 7.06701e-023)
(1.0008 0.00526173 7.07321e-023)
(1.00052 0.00525647 7.0773e-023)
(1.00022 0.00524937 7.07952e-023)
(0.999922 0.00524106 7.07978e-023)
(0.999615 0.00523225 2.1251e-022)
(0.999302 0.00522243 7.07473e-023)
(0.998984 0.0052115 0)
(0.998661 0.00519946 7.06306e-023)
(0.998334 0.00518657 7.05485e-023)
(0.998002 0.00517307 7.0451e-023)
(0.997667 0.00515898 2.11229e-022)
(0.997328 0.0051445 7.02136e-023)
(0.996985 0.00512983 7.0075e-023)
(0.996639 0.00511495 6.99251e-023)
(0.996289 0.00509974 6.97643e-023)
(0.995935 0.00508403 0)
(0.995579 0.00506773 2.08472e-022)
(0.995219 0.00505101 6.92205e-023)
(0.994856 0.00503394 6.90195e-023)
(0.994491 0.0050164 6.88085e-023)
(0.994124 0.00499841 6.85861e-023)
(0.993755 0.00497983 6.83522e-023)
(0.993384 0.00496061 2.04579e-022)
(0.99301 0.00494094 0)
(0.992634 0.00492095 6.76018e-023)
(0.992257 0.0049006 6.73361e-023)
(0.991878 0.00487983 6.70628e-023)
(0.991497 0.00485856 6.67821e-023)
(0.991114 0.00483673 6.64941e-023)
(0.99073 0.00481431 6.61989e-023)
(0.990344 0.00479125 6.58966e-023)
(0.989957 0.00476748 6.55877e-023)
(0.989568 0.00474292 0)
(0.989179 0.00471747 6.49502e-023)
(0.988788 0.00469108 6.46218e-023)
(0.988396 0.00466366 6.42872e-023)
(0.988003 0.00463516 6.39462e-023)
(0.987609 0.00460553 6.3599e-023)
(0.987214 0.00457471 6.32454e-023)
(0.986819 0.00454266 6.28855e-023)
(0.986424 0.0045093 0)
(0.986028 0.00447457 6.21472e-023)
(0.985632 0.00443841 6.17688e-023)
(0.985236 0.00440077 6.13841e-023)
(0.984839 0.00436161 6.09932e-023)
(0.984443 0.0043209 6.05961e-023)
(0.984048 0.00427859 6.01926e-023)
(0.983652 0.00423469 5.9783e-023)
(0.983257 0.0041892 5.93672e-023)
(0.982863 0.00414218 5.89452e-023)
(0.982469 0.00409364 5.85171e-023)
(0.982075 0.00404367 5.80829e-023)
(0.981683 0.00399232 5.76423e-023)
(0.981292 0.00393973 5.71944e-023)
(0.980902 0.00388589 5.67362e-023)
(0.980514 0.00383034 5.6265e-023)
(0.980129 0.00377279 5.57876e-023)
(0.979746 0.0037134 0)
(0.979367 0.00365229 5.48188e-023)
(0.978991 0.00358946 -5.47233e-023)
(0.978619 0.00352491 -5.42213e-023)
(0.97825 0.00345867 5.32926e-023)
(0.977884 0.00339081 5.27652e-023)
(0.97752 0.00332138 5.22286e-023)
(0.977158 0.00325039 5.16834e-023)
(0.976798 0.00317783 5.11301e-023)
(0.976438 0.00310373 -1.01606e-022)
(0.976079 0.00302819 5.00009e-023)
(0.975719 0.0029513 4.94261e-023)
(0.975359 0.00287322 4.88452e-023)
(0.974998 0.00279406 4.82587e-023)
(0.974635 0.002714 4.76674e-023)
(0.974269 0.00263324 -4.76042e-023)
(0.973899 0.00255201 4.64725e-023)
(0.973526 0.00247061 4.58705e-023)
(0.973148 0.00238939 4.52664e-023)
(0.972765 0.00230876 4.46609e-023)
(0.972376 0.00222908 4.40549e-023)
(0.97198 0.00215073 -4.40443e-023)
(0.971576 0.00207398 4.28441e-023)
(0.971165 0.00199911 4.22407e-023)
(0.970746 0.00192636 4.16396e-023)
(0.970317 0.00185599 4.10415e-023)
(0.969879 0.00178825 4.04473e-023)
(0.969432 0.00172337 3.98576e-023)
(0.968975 0.00166157 -3.99092e-023)
(0.968508 0.00160299 3.86941e-023)
(0.968031 0.00154775 3.81211e-023)
(0.967544 0.00149579 3.75543e-023)
(0.967047 0.00144702 3.69932e-023)
(0.966541 0.00140146 3.64383e-023)
(0.966027 0.00135934 -3.6539e-023)
(0.965503 0.00132098 3.5351e-023)
(0.964971 0.00128658 3.48207e-023)
(0.964432 0.00125601 3.42992e-023)
(0.963885 0.00122882 3.37848e-023)
(0.963331 0.00120461 3.32776e-023)
(0.962773 0.00118298 -3.33976e-023)
(0.962209 0.00116408 3.22851e-023)
(0.961641 0.00114813 3.18019e-023)
(0.961071 0.00113478 3.13242e-023)
(0.960499 0.00112352 3.08513e-023)
(0.959925 0.00111394 3.03824e-023)
(0.959352 0.00110574 -3.04877e-023)
(0.958778 0.00109869 2.94558e-023)
(0.958205 0.0010926 2.89975e-023)
(0.957633 0.00108729 2.8542e-023)
(0.957062 0.00108261 2.80892e-023)
(0.956493 0.00107843 2.76389e-023)
(0.955926 0.00107465 -2.77259e-023)
(0.95536 0.00107122 2.67447e-023)
(0.954797 0.00106812 2.63003e-023)
(0.954235 0.0010653 2.58575e-023)
(0.953676 0.00106274 2.54163e-023)
(0.95312 0.00106039 2.49765e-023)
(0.952565 0.00105821 -2.50437e-023)
(0.952014 0.00105617 2.41011e-023)
(0.951464 0.00105427 2.36651e-023)
(0.950917 0.00105249 2.32302e-023)
(0.950373 0.00105083 2.27963e-023)
(0.949831 0.00104927 2.23633e-023)
(0.949291 0.00104779 2.19313e-023)
(0.948754 0.00104637 -2.19792e-023)
(0.948219 0.00104499 2.10697e-023)
(0.947687 0.00104364 2.06401e-023)
(0.947157 0.00104231 2.02112e-023)
(0.94663 0.00104098 1.97829e-023)
(0.946104 0.00103965 1.93552e-023)
(0.945582 0.00103829 -1.93899e-023)
(0.945061 0.00103691 1.85014e-023)
(0.944543 0.00103549 1.80753e-023)
(0.944027 0.00103401 1.76496e-023)
(0.943513 0.00103248 1.72244e-023)
(0.943001 0.00103089 1.67996e-023)
(0.942492 0.00102923 -1.68237e-023)
(0.941984 0.00102749 1.59512e-023)
(0.941479 0.00102568 1.55275e-023)
(0.940975 0.00102379 1.5104e-023)
(0.940474 0.00102181 1.46809e-023)
(0.939974 0.00101975 1.4258e-023)
(0.939476 0.00101759 -1.42737e-023)
(0.938981 0.00101534 1.3413e-023)
(0.938486 0.00101299 1.29908e-023)
(0.937994 0.00101055 1.25688e-023)
(0.937503 0.001008 1.21469e-023)
(0.937014 0.00100535 1.17252e-023)
(0.936527 0.0010026 -1.17342e-023)
(0.936041 0.000999748 1.08821e-023)
(0.935557 0.000996802 1.04607e-023)
(0.935075 0.00099372 1.00394e-023)
(0.934594 0.000990328 9.61821e-024)
(0.934114 0.000986713 9.19716e-024)
(0.933636 0.000983109 8.77616e-024)
(0.93316 0.000979548 -8.77128e-024)
(0.932685 0.000976048 7.9341e-024)
(0.932212 0.000972615 7.51303e-024)
(0.93174 0.000969258 7.09201e-024)
(0.93127 0.000966004 6.67115e-024)
(0.9308 0.000962899 6.25062e-024)
(0.930333 0.000960017 -6.23112e-024)
(0.929866 0.000957457 5.41146e-024)
(0.9294 0.000955351 4.99342e-024)
(0.928936 0.000953869 4.57694e-024)
(0.928472 0.000953223 4.16254e-024)
(0.928009 0.00095367 3.75093e-024)
(0.927546 0.000955537 -3.69928e-024)
(0.927083 0.000959198 2.93984e-024)
(0.92662 0.00096517 2.54255e-024)
(0.926156 0.000973885 2.15487e-024)
(0.925687 0.000986418 1.77396e-024)
(0.925223 0.00100225 1.41848e-024)
(0.924735 0.001026 -1.23749e-024)
(0.924284 0.00105126 7.73193e-025)
(0.923724 0.00109779 3.57518e-025)
(0.923363 0.00113633 3.47027e-025)
(0.922548 0.00124264 -5.37403e-025)
(1.00003 0.000497677 2.671e-023)
(1.00025 0.0014667 0)
(1.00065 0.00226724 0)
(1.0011 0.00290651 0)
(1.00153 0.00340629 0)
(1.00193 0.0037961 0)
(1.00229 0.00409918 -7.55826e-023)
(1.00258 0.00433629 0)
(1.00283 0.00452684 0)
(1.00302 0.00468345 -8.57176e-023)
(1.00318 0.0048107 0)
(1.0033 0.00491786 0)
(1.00339 0.00501013 -9.27712e-023)
(1.00345 0.00508379 0)
(1.0035 0.00513755 -9.6355e-023)
(1.00352 0.00518585 -9.79088e-023)
(1.00352 0.0052332 -9.93215e-023)
(1.0035 0.00527514 -1.00619e-022)
(1.00346 0.00530614 -1.01835e-022)
(1.00342 0.00533291 -1.02961e-022)
(1.00336 0.00535915 -1.03991e-022)
(1.00329 0.00537494 -1.04928e-022)
(1.00322 0.00538571 0)
(1.00314 0.00539311 -1.06561e-022)
(1.00305 0.00539799 -1.07272e-022)
(1.00295 0.00540065 -1.07918e-022)
(1.00285 0.00539974 -1.08527e-022)
(1.00274 0.00539568 -1.09076e-022)
(1.00263 0.00539055 -2.19038e-022)
(1.00252 0.00538475 -1.09996e-022)
(1.0024 0.00537805 0)
(1.00227 0.00537002 -1.10737e-022)
(1.00215 0.00536104 -1.11035e-022)
(1.00202 0.00535143 -1.11289e-022)
(1.00189 0.00534132 -2.22887e-022)
(1.00175 0.00533117 -1.11675e-022)
(1.00162 0.0053211 -1.11811e-022)
(1.00148 0.00531071 -1.11918e-022)
(1.00134 0.00529979 -1.11995e-022)
(1.00119 0.00528824 0)
(1.00104 0.00527597 -2.23995e-022)
(1.00089 0.00526312 -1.12048e-022)
(1.00074 0.0052486 -1.12003e-022)
(1.00059 0.00523242 -1.11929e-022)
(1.00043 0.00521597 -1.11828e-022)
(1.00028 0.00519948 -1.11701e-022)
(1.00012 0.00518284 -2.22978e-022)
(0.99996 0.00516594 0)
(0.999798 0.00514876 -1.1118e-022)
(0.999634 0.00513119 -1.10962e-022)
(0.999469 0.00511307 -1.10724e-022)
(0.999301 0.00509425 -1.10465e-022)
(0.999132 0.00507469 -1.10186e-022)
(0.998961 0.0050544 -1.09887e-022)
(0.998789 0.00503338 -1.09568e-022)
(0.998615 0.00501159 -1.09231e-022)
(0.998439 0.00498893 0)
(0.998262 0.00496531 -1.08504e-022)
(0.998083 0.00494068 -1.08115e-022)
(0.997902 0.00491497 -1.07709e-022)
(0.99772 0.00488811 -1.07285e-022)
(0.997537 0.00486008 -1.06844e-022)
(0.997352 0.00483085 -1.06386e-022)
(0.997165 0.00480036 -1.05911e-022)
(0.996977 0.00476854 0)
(0.996787 0.00473532 -1.04913e-022)
(0.996596 0.00470064 -1.04389e-022)
(0.996403 0.00466448 -1.0385e-022)
(0.996208 0.0046268 -1.03295e-022)
(0.996012 0.00458759 -1.02723e-022)
(0.995814 0.00454682 -1.02135e-022)
(0.995614 0.00450451 -1.01532e-022)
(0.995412 0.00446066 -1.00911e-022)
(0.995207 0.00441528 -1.00275e-022)
(0.995001 0.00436837 -9.96214e-023)
(0.994792 0.00431994 -9.89515e-023)
(0.994581 0.00427007 -9.8265e-023)
(0.994367 0.00421886 -9.75617e-023)
(0.994151 0.00416631 -9.684e-023)
(0.993932 0.00411205 -9.6098e-023)
(0.993709 0.00405606 -9.53363e-023)
(0.993483 0.00399866 0)
(0.993254 0.00393963 -9.37573e-023)
(0.993021 0.00387874 -3.15965e-025)
(0.992785 0.00381622 -3.25499e-025)
(0.992545 0.00375247 -9.12617e-023)
(0.9923 0.00368767 -9.03958e-023)
(0.992051 0.00362187 -8.95127e-023)
(0.991796 0.00355511 -8.86129e-023)
(0.991536 0.00348742 -8.76962e-023)
(0.991269 0.00341881 8.63681e-023)
(0.990995 0.00334932 -8.58161e-023)
(0.990714 0.00327903 -8.48554e-023)
(0.990426 0.00320809 -8.38823e-023)
(0.990129 0.00313666 -8.28978e-023)
(0.989824 0.00306497 -8.19029e-023)
(0.989509 0.00299326 -4.61232e-025)
(0.989186 0.00292181 -7.9888e-023)
(0.988852 0.00285095 -7.88715e-023)
(0.988508 0.00278097 -7.78507e-023)
(0.988153 0.00271215 -7.68262e-023)
(0.987788 0.00264468 -7.57984e-023)
(0.987411 0.00257869 -5.21769e-025)
(0.987023 0.0025143 -7.37362e-023)
(0.986624 0.00245164 -7.27049e-023)
(0.986213 0.0023909 -7.16763e-023)
(0.985791 0.00233236 -7.06528e-023)
(0.985357 0.00227629 -6.96362e-023)
(0.984913 0.00222294 -6.86276e-023)
(0.984459 0.00217248 -5.57756e-025)
(0.983994 0.00212501 -6.66371e-023)
(0.983519 0.00208056 -6.56558e-023)
(0.983035 0.0020391 -6.4684e-023)
(0.982542 0.00200057 -6.37217e-023)
(0.982041 0.0019649 -6.27689e-023)
(0.981533 0.00193205 -5.73228e-025)
(0.981018 0.001902 -6.0896e-023)
(0.980497 0.00187473 -5.99797e-023)
(0.97997 0.00185013 -5.90788e-023)
(0.979439 0.00182799 -5.81922e-023)
(0.978904 0.0018081 -5.73176e-023)
(0.978366 0.00179032 -5.66191e-025)
(0.977826 0.00177465 -5.55993e-023)
(0.977283 0.00176105 -5.47568e-023)
(0.97674 0.00174926 -5.39253e-023)
(0.976196 0.00173896 -5.31043e-023)
(0.975652 0.00172985 -5.22919e-023)
(0.975109 0.00172172 -5.31747e-025)
(0.974567 0.0017144 -5.06881e-023)
(0.974025 0.00170773 -4.9896e-023)
(0.973485 0.00170157 -4.91103e-023)
(0.972946 0.0016958 -4.83306e-023)
(0.972409 0.00169033 -4.75566e-023)
(0.971873 0.00168507 -5.04841e-025)
(0.971339 0.00168004 -4.6021e-023)
(0.970807 0.00167525 -4.52574e-023)
(0.970277 0.00167071 -4.44971e-023)
(0.969749 0.00166638 -4.37405e-023)
(0.969222 0.00166222 -4.29877e-023)
(0.968697 0.00165821 -4.81944e-025)
(0.968174 0.00165433 -4.1491e-023)
(0.967653 0.00165058 -4.07463e-023)
(0.967134 0.00164696 -4.00037e-023)
(0.966616 0.00164346 -3.92634e-023)
(0.966101 0.00164005 -3.85253e-023)
(0.965587 0.00163672 -3.77894e-023)
(0.965074 0.00163345 -4.63452e-025)
(0.964564 0.00163025 -3.63233e-023)
(0.964055 0.00162708 -3.55928e-023)
(0.963548 0.00162395 -3.48638e-023)
(0.963042 0.00162085 -3.41363e-023)
(0.962538 0.00161777 -3.341e-023)
(0.962036 0.00161469 -4.52397e-025)
(0.961535 0.0016116 -3.19614e-023)
(0.961036 0.00160851 -3.12389e-023)
(0.960538 0.0016054 -3.05174e-023)
(0.960042 0.00160227 -2.9797e-023)
(0.959547 0.00159912 -2.90776e-023)
(0.959053 0.00159595 -4.447e-025)
(0.958561 0.00159274 -2.76413e-023)
(0.95807 0.0015895 -2.69244e-023)
(0.95758 0.00158623 -2.62082e-023)
(0.957092 0.00158291 -2.54928e-023)
(0.956604 0.00157955 -2.4778e-023)
(0.956118 0.00157613 -4.396e-025)
(0.955633 0.00157266 -2.33503e-023)
(0.955149 0.00156912 -2.26373e-023)
(0.954665 0.0015655 -2.19248e-023)
(0.954183 0.00156181 -2.12126e-023)
(0.953702 0.00155804 -2.05009e-023)
(0.953222 0.00155418 -4.36352e-025)
(0.952743 0.00155024 -1.90781e-023)
(0.952265 0.0015462 -1.8367e-023)
(0.951788 0.00154209 -1.76558e-023)
(0.951312 0.0015379 -1.69444e-023)
(0.950837 0.00153364 -1.62326e-023)
(0.950363 0.00152933 -1.55206e-023)
(0.949889 0.00152499 -4.30246e-025)
(0.949417 0.00152063 -1.40967e-023)
(0.948945 0.00151629 -1.3385e-023)
(0.948475 0.001512 -1.26737e-023)
(0.948005 0.00150782 -1.19626e-023)
(0.947536 0.00150383 -1.12516e-023)
(0.947067 0.00150011 -4.2059e-025)
(0.9466 0.0014968 -9.82977e-024)
(0.946133 0.00149405 -9.119e-024)
(0.945666 0.00149206 -8.40854e-024)
(0.9452 0.00149107 -7.69864e-024)
(0.944735 0.00149139 -6.98985e-024)
(0.944269 0.0014934 -3.78152e-025)
(0.943804 0.00149758 -5.57831e-024)
(0.943338 0.00150451 -4.87672e-024)
(0.942872 0.00151497 -4.18385e-024)
(0.942403 0.00152984 -3.48979e-024)
(0.941937 0.00155081 -2.83135e-024)
(0.941454 0.00157846 -2.04623e-025)
(0.941001 0.00161596 -1.57226e-024)
(0.940464 0.00166713 -6.99901e-025)
(0.940088 0.00172419 -5.75676e-025)
(0.939323 0.0018436 1.3671e-024)
(1.00001 0.000386659 -2.47809e-023)
(1.00016 0.00118377 0)
(1.00044 0.00190007 0)
(1.00078 0.00251109 0)
(1.00114 0.00301916 0)
(1.00149 0.00343654 0)
(1.00181 0.00377699 5.34103e-023)
(1.0021 0.00405446 0)
(1.00235 0.00428454 -1.15378e-022)
(1.00257 0.00447837 6.08303e-023)
(1.00276 0.00464237 -1.24511e-022)
(1.00292 0.00478315 -1.28573e-022)
(1.00305 0.00490376 6.67214e-023)
(1.00316 0.0050059 0)
(1.00326 0.00508999 7.00063e-023)
(1.00333 0.00516075 7.15013e-023)
(1.00338 0.0052246 7.29037e-023)
(1.00342 0.0052835 7.42286e-023)
(1.00345 0.00532439 7.54973e-023)
(1.00347 0.00535021 7.67018e-023)
(1.00348 0.0053759 7.78348e-023)
(1.00348 0.00539733 7.88979e-023)
(1.00348 0.00541457 0)
(1.00347 0.00542776 8.08341e-023)
(1.00346 0.00543868 8.17164e-023)
(1.00344 0.00544838 8.25451e-023)
(1.00341 0.0054522 8.334e-023)
(1.00339 0.00545553 8.40836e-023)
(1.00336 0.00545918 8.47716e-023)
(1.00333 0.00545914 8.54164e-023)
(1.00329 0.00545678 0)
(1.00325 0.00545163 8.65851e-023)
(1.00321 0.00544516 8.71035e-023)
(1.00317 0.00543802 8.758e-023)
(1.00313 0.00542968 8.80192e-023)
(1.00308 0.00542074 8.84185e-023)