/*--------------------------------*- C++ -*----------------------------------*\
| =========                 |                                                 |
| \\      /  F ield         | OpenFOAM: The Open Source CFD Toolbox           |
|  \\    /   O peration     | Version:  5.x                                   |
|   \\  /    A nd           | Web:      www.OpenFOAM.org                      |
|    \\/     M anipulation  |                                                 |
\*---------------------------------------------------------------------------*/
/*   Windows 32 and 64 bit porting by blueCAPE: http://www.bluecape.com.pt   *\
|  Based on Windows porting (2.0.x v4) by Symscape: http://www.symscape.com   |
\*---------------------------------------------------------------------------*/
FoamFile
{
    version     2.0;
    format      ascii;
    class       volScalarField;
    location    "2000";
    object      yPlus;
}
// * * * * * * * * * * * * * * * * * * * * * * * * * * * * * * * * * * * * * //

dimensions      [0 0 0 0 0 0 0];

internalField   uniform 0;

boundaryField
{
    walls
    {
        type            calculated;
        value           nonuniform List<scalar> 
400
(
8.96236
8.63398
8.32521
8.03332
7.75656
7.49361
7.24343
7.00513
6.77793
6.56117
6.35425
6.15662
5.96778
5.78728
5.61469
5.44964
5.29175
5.14068
4.99614
4.85781
4.72541
4.59868
4.47738
4.36126
4.2501
4.1437
4.04185
3.94435
3.85103
3.76171
3.67622
3.59441
3.51612
3.44121
3.36954
3.30099
3.23539
3.17267
3.11268
3.05532
3.0005
2.9481
2.898
2.85015
2.80443
2.76076
2.71902
2.67915
2.64106
2.60471
2.57002
2.53695
2.50542
2.47539
2.4468
2.41961
2.39376
2.36922
2.34594
2.32387
2.30298
2.28324
2.26461
2.24705
2.23054
2.21504
2.20054
2.187
2.1744
2.16272
2.15194
2.14204
2.13299
2.1248
2.11743
2.11087
2.10511
2.10014
2.09594
2.09228
2.08888
2.08576
2.08295
2.08049
2.0784
2.07669
2.07538
2.0745
2.07405
2.07406
2.07453
2.07546
2.07688
2.07878
2.08118
2.08407
2.08746
2.09136
2.09576
2.10067
2.10607
2.11197
2.11837
2.12524
2.13259
2.1404
2.14866
2.15736
2.16646
2.17597
2.18584
2.19606
2.20661
2.21744
2.22855
2.23991
2.2516
2.26406
2.27722
2.29084
2.30471
2.31872
2.33273
2.34661
2.36029
2.37372
2.38688
2.39974
2.4123
2.42455
2.43649
2.44812
2.45946
2.47051
2.48128
2.49177
2.50201
2.51199
2.52173
2.53123
2.54052
2.54958
2.55844
2.5671
2.57556
2.58384
2.59195
2.59988
2.60765
2.61527
2.62273
2.63005
2.63724
2.64429
2.65122
2.65803
2.66473
2.67131
2.6778
2.68418
2.69048
2.69668
2.7028
2.70884
2.7148
2.7207
2.72652
2.73229
2.73799
2.74363
2.74922
2.75476
2.76026
2.76571
2.77111
2.77648
2.78181
2.7871
2.79236
2.79759
2.80279
2.80796
2.8131
2.81822
2.8233
2.82835
2.83338
2.83837
2.84331
2.84821
2.85305
2.85783
2.86253
2.86713
2.87163
2.87598
2.8802
2.88421
2.88815
2.8911
8.87956
8.55722
8.25102
7.96004
7.68331
7.41994
7.1691
6.93005
6.70214
6.48475
6.27733
6.07936
5.89037
5.70992
5.53759
5.37301
5.21581
5.06565
4.92222
4.78518
4.6543
4.52926
4.40982
4.29574
4.18678
4.08273
3.98335
3.88845
3.79786
3.71135
3.62878
3.54996
3.47475
3.40297
3.33449
3.26916
3.20684
3.14742
3.09077
3.03675
2.98528
2.93623
2.88951
2.84498
2.80253
2.7621
2.72359
2.68694
2.65208
2.61892
2.58742
2.55751
2.52912
2.50221
2.47671
2.45259
2.42978
2.40825
2.38796
2.36886
2.35092
2.3341
2.31837
2.3037
2.29006
2.27742
2.26576
2.25506
2.24529
2.23643
2.22847
2.22139
2.21517
2.2096
2.20429
2.19929
2.19462
2.1903
2.18638
2.18286
2.17976
2.1771
2.17489
2.17315
2.17187
2.17108
2.17078
2.17098
2.17167
2.17286
2.17456
2.17676
2.17946
2.18266
2.18635
2.19054
2.19522
2.20038
2.20602
2.21211
2.21865
2.22564
2.23304
2.24084
2.24904
2.25759
2.26649
2.27571
2.28522
2.29502
2.30512
2.31567
2.32719
2.33951
2.35236
2.36555
2.37885
2.39205
2.40506
2.4178
2.43024
2.44233
2.45406
2.46543
2.47644
2.48708
2.49737
2.5073
2.51689
2.52616
2.53513
2.5438
2.5522
2.56034
2.56825
2.57593
2.58341
2.59069
2.59778
2.6047
2.61145
2.61806
2.62453
2.63086
2.63708
2.64318
2.64917
2.65507
2.66087
2.66659
2.67223
2.6778
2.6833
2.68874
2.69412
2.69945
2.70473
2.70996
2.71516
2.72031
2.72543
2.73052
2.73558
2.74061
2.74562
2.75061
2.75558
2.76053
2.76546
2.77038
2.77529
2.78018
2.78506
2.78993
2.79479
2.79964
2.80448
2.80931
2.81413
2.81894
2.82374
2.82852
2.83329
2.83805
2.84279
2.8475
2.85219
2.85685
2.86148
2.86605
2.87057
2.87503
2.8794
2.88368
2.88784
2.89187
2.89576
2.89944
2.90304
2.90552
)
;
    }
    inlet
    {
        type            calculated;
        value           uniform 0;
    }
    outlet
    {
        type            calculated;
        value           uniform 0;
    }
    frontAndBack
    {
        type            empty;
    }
}


// ************************************************************************* //
