# vtk DataFile Version 2.0
track0
ASCII
DATASET POLYDATA
POINTS 11930 float
-0.0205 0.001 1e-005
-0.0203851 0.00100536 1.50245e-005
-0.0202701 0.00101047 1.96643e-005
-0.0201551 0.00101535 2.39724e-005
-0.0200401 0.00102 2.79439e-005
-0.0198623 0.00102682 3.35519e-005
-0.0196933 0.00103276 3.80985e-005
-0.0195242 0.00103809 4.16135e-005
-0.0193551 0.00104281 4.4106e-005
-0.019186 0.00104692 4.55852e-005
-0.0190172 0.00105042 4.60596e-005
-0.0187132 0.00105593 4.60596e-005
-0.0184093 0.00106079 4.60596e-005
-0.0181054 0.00106513 4.60596e-005
-0.0178014 0.00106895 4.60596e-005
-0.0174976 0.00107224 4.60596e-005
-0.0172058 0.0010751 4.60596e-005
-0.016914 0.00107789 4.60596e-005
-0.0166222 0.00108061 4.60596e-005
-0.0163305 0.00108326 4.60596e-005
-0.0160387 0.00108585 4.60596e-005
-0.0157586 0.00108824 4.60596e-005
-0.0154784 0.00109056 4.60596e-005
-0.0151983 0.0010928 4.60596e-005
-0.0149182 0.00109496 4.60596e-005
-0.0146381 0.00109704 4.60596e-005
-0.0143692 0.00109891 4.60596e-005
-0.0141002 0.00110068 4.60596e-005
-0.0138313 0.00110238 4.60596e-005
-0.0135624 0.00110401 4.60596e-005
-0.0132934 0.00110556 4.60596e-005
-0.0130353 0.00110696 4.60596e-005
-0.0127771 0.00110831 4.60596e-005
-0.0125189 0.00110963 4.60596e-005
-0.0122607 0.0011109 4.60596e-005
-0.0120025 0.00111214 4.60596e-005
-0.0117547 0.0011133 4.60596e-005
-0.0115068 0.00111443 4.60596e-005
-0.0112589 0.00111554 4.60596e-005
-0.0110111 0.00111664 4.60596e-005
-0.0107632 0.00111772 4.60596e-005
-0.0105252 0.00111873 4.60596e-005
-0.0102873 0.00111973 4.60596e-005
-0.0100493 0.00112072 4.60596e-005
-0.00981133 0.0011217 4.60596e-005
-0.00957337 0.00112266 4.60596e-005
-0.00934491 0.00112357 4.60596e-005
-0.00911645 0.00112447 4.60596e-005
-0.00888799 0.00112537 4.60596e-005
-0.00865954 0.00112625 4.60596e-005
-0.00843108 0.00112712 4.60596e-005
-0.00821175 0.00112796 4.60596e-005
-0.00799242 0.00112878 4.60596e-005
-0.00777309 0.00112959 4.60596e-005
-0.00755376 0.00113041 4.60596e-005
-0.00733443 0.00113121 4.60596e-005
-0.00712387 0.00113198 4.60596e-005
-0.0069133 0.00113275 4.60596e-005
-0.00670273 0.00113351 4.60596e-005
-0.00649216 0.00113427 4.60596e-005
-0.0062816 0.00113503 4.60596e-005
-0.00607944 0.00113575 4.60596e-005
-0.00587729 0.00113647 4.60596e-005
-0.00567514 0.00113719 4.60596e-005
-0.00547298 0.0011379 4.60596e-005
-0.00527083 0.00113862 4.60596e-005
-0.00507675 0.00113931 4.60596e-005
-0.00488267 0.00113999 4.60596e-005
-0.0046886 0.00114068 4.60596e-005
-0.00449452 0.00114136 4.60596e-005
-0.00430044 0.00114204 4.60596e-005
-0.00411412 0.0011427 4.60596e-005
-0.0039278 0.00114335 4.60596e-005
-0.00374147 0.00114401 4.60596e-005
-0.00355515 0.00114466 4.60596e-005
-0.00336883 0.00114532 4.60596e-005
-0.00318995 0.00114595 4.60596e-005
-0.00301107 0.00114658 4.60596e-005
-0.00283219 0.00114721 4.60596e-005
-0.00265331 0.00114783 4.60596e-005
-0.00247443 0.00114847 4.60596e-005
-0.0023027 0.00114908 4.60596e-005
-0.00213097 0.00114969 4.60596e-005
-0.00195924 0.0011503 4.60596e-005
-0.0017875 0.00115091 4.60596e-005
-0.00161577 0.00115152 4.60596e-005
-0.0014509 0.00115212 4.60596e-005
-0.00128603 0.00115271 4.60596e-005
-0.00112116 0.0011533 4.60596e-005
-0.000956289 0.00115389 4.60596e-005
-0.000791418 0.0011545 4.60596e-005
-0.000633135 0.00115509 4.60596e-005
-0.000474851 0.00115567 4.60596e-005
-0.000316567 0.00115626 4.60596e-005
-0.000158284 0.00115685 4.60596e-005
0 0.00115745 4.60596e-005
0.000105677 0.00115786 4.60596e-005
0.000211355 0.00115826 4.60596e-005
0.000317032 0.00115866 4.60596e-005
0.00042271 0.00115907 4.60596e-005
0.000528387 0.00115949 4.60596e-005
0.000634886 0.00115991 4.60596e-005
0.000741385 0.00116034 4.60596e-005
0.000847885 0.00116076 4.60596e-005
0.000954384 0.00116119 4.60596e-005
0.00106088 0.00116163 4.60596e-005
0.00116821 0.00116208 4.60596e-005
0.00127554 0.00116253 4.60596e-005
0.00138286 0.00116298 4.60596e-005
0.00149019 0.00116343 4.60596e-005
0.00159752 0.00116389 4.60596e-005
0.00170568 0.00116437 4.60596e-005
0.00181384 0.00116484 4.60596e-005
0.001922 0.00116531 4.60596e-005
0.00203016 0.00116579 4.60596e-005
0.00213833 0.00116626 4.60596e-005
0.00224733 0.00116675 4.60596e-005
0.00235633 0.00116724 4.60596e-005
0.00246533 0.00116774 4.60596e-005
0.00257434 0.00116823 4.60596e-005
0.00268334 0.00116872 4.60596e-005
0.00279319 0.00116922 4.60596e-005
0.00290304 0.00116972 4.60596e-005
0.00301289 0.00117023 4.60596e-005
0.00312274 0.00117073 4.60596e-005
0.00323259 0.00117124 4.60596e-005
0.00334329 0.00117174 4.60596e-005
0.003454 0.00117225 4.60596e-005
0.0035647 0.00117277 4.60596e-005
0.0036754 0.00117329 4.60596e-005
0.00378611 0.00117381 4.60596e-005
0.00389767 0.00117432 4.60596e-005
0.00400924 0.00117484 4.60596e-005
0.0041208 0.00117537 4.60596e-005
0.00423237 0.0011759 4.60596e-005
0.00434393 0.00117643 4.60596e-005
0.00445636 0.00117694 4.60596e-005
0.00456879 0.00117747 4.60596e-005
0.00468123 0.001178 4.60596e-005
0.00479366 0.00117854 4.60596e-005
0.00490609 0.00117907 4.60596e-005
0.0050194 0.00117959 4.60596e-005
0.0051327 0.00118012 4.60596e-005
0.00524601 0.00118066 4.60596e-005
0.00535931 0.0011812 4.60596e-005
0.00547262 0.00118174 4.60596e-005
0.00558681 0.00118226 4.60596e-005
0.005701 0.0011828 4.60596e-005
0.00581518 0.00118334 4.60596e-005
0.00592937 0.00118388 4.60596e-005
0.00604356 0.00118442 4.60596e-005
0.00615863 0.00118494 4.60596e-005
0.00627371 0.00118548 4.60596e-005
0.00638878 0.00118602 4.60596e-005
0.00650386 0.00118657 4.60596e-005
0.00661893 0.00118711 4.60596e-005
0.0067349 0.00118763 4.60596e-005
0.00685087 0.00118817 4.60596e-005
0.00696684 0.00118871 4.60596e-005
0.00708281 0.00118925 4.60596e-005
0.00719878 0.00118979 4.60596e-005
0.00731565 0.00119031 4.60596e-005
0.00743252 0.00119085 4.60596e-005
0.00754939 0.00119139 4.60596e-005
0.00766626 0.00119192 4.60596e-005
0.00778313 0.00119246 4.60596e-005
0.00790091 0.00119298 4.60596e-005
0.00801869 0.00119351 4.60596e-005
0.00813647 0.00119404 4.60596e-005
0.00825425 0.00119457 4.60596e-005
0.00837203 0.0011951 4.60596e-005
0.00849073 0.00119562 4.60596e-005
0.00860942 0.00119614 4.60596e-005
0.00872812 0.00119667 4.60596e-005
0.00884682 0.00119719 4.60596e-005
0.00896551 0.00119772 4.60596e-005
0.00908513 0.00119823 4.60596e-005
0.00920475 0.00119875 4.60596e-005
0.00932437 0.00119927 4.60596e-005
0.00944398 0.00119979 4.60596e-005
0.0095636 0.0012003 4.60596e-005
0.00968415 0.00120081 4.60596e-005
0.0098047 0.00120132 4.60596e-005
0.00992525 0.00120183 4.60596e-005
0.0100458 0.00120234 4.60596e-005
0.0101663 0.00120285 4.60596e-005
0.0102878 0.00120335 4.60596e-005
0.0104093 0.00120386 4.60596e-005
0.0105308 0.00120436 4.60596e-005
0.0106523 0.00120486 4.60596e-005
0.0107738 0.00120536 4.60596e-005
0.0108962 0.00120585 4.60596e-005
0.0110186 0.00120635 4.60596e-005
0.0111411 0.00120684 4.60596e-005
0.0112635 0.00120733 4.60596e-005
0.0113859 0.00120782 4.60596e-005
0.0115093 0.0012083 4.60596e-005
0.0116327 0.00120879 4.60596e-005
0.0117561 0.00120927 4.60596e-005
0.0118795 0.00120975 4.60596e-005
0.0120028 0.00121023 4.60596e-005
0.0121272 0.0012107 4.60596e-005
0.0122515 0.00121118 4.60596e-005
0.0123759 0.00121165 4.60596e-005
0.0125002 0.00121212 4.60596e-005
0.0126245 0.00121258 4.60596e-005
0.0127498 0.00121304 4.60596e-005
0.0128752 0.00121351 4.60596e-005
0.0130005 0.00121397 4.60596e-005
0.0131258 0.00121442 4.60596e-005
0.0132511 0.00121488 4.60596e-005
0.0133774 0.00121532 4.60596e-005
0.0135036 0.00121577 4.60596e-005
0.0136299 0.00121622 4.60596e-005
0.0137562 0.00121666 4.60596e-005
0.0138825 0.0012171 4.60596e-005
0.0140098 0.00121753 4.60596e-005
0.014137 0.00121796 4.60596e-005
0.0142643 0.00121839 4.60596e-005
0.0143915 0.00121882 4.60596e-005
0.0145188 0.00121924 4.60596e-005
0.0146471 0.00121965 4.60596e-005
0.0147753 0.00122007 4.60596e-005
0.0149036 0.00122048 4.60596e-005
0.0150318 0.00122089 4.60596e-005
0.0151601 0.00122129 4.60596e-005
0.0152893 0.00122169 4.60596e-005
0.0154186 0.00122209 4.60596e-005
0.0155478 0.00122248 4.60596e-005
0.0156771 0.00122287 4.60596e-005
0.0158063 0.00122325 4.60596e-005
0.0159366 0.00122362 4.60596e-005
0.0160668 0.001224 4.60596e-005
0.0161971 0.00122437 4.60596e-005
0.0163274 0.00122473 4.60596e-005
0.0164576 0.00122509 4.60596e-005
0.0165889 0.00122544 4.60596e-005
0.0167201 0.00122579 4.60596e-005
0.0168514 0.00122613 4.60596e-005
0.0169827 0.00122647 4.60596e-005
0.0171139 0.0012268 4.60596e-005
0.0172014 0.00122702 4.60596e-005
0.0172889 0.00122723 4.60596e-005
0.0173764 0.00122744 4.60596e-005
0.0174639 0.00122765 4.60596e-005
0.0175488 0.00122785 4.60596e-005
0.0175941 0.00122795 4.60596e-005
0.0176394 0.00122806 4.60596e-005
0.0176848 0.00122816 4.60596e-005
0.0177301 0.00122826 4.60596e-005
0.0177754 0.00122837 4.60596e-005
0.0179087 0.00122866 4.60596e-005
0.018042 0.00122895 4.60596e-005
0.0181753 0.00122924 4.60596e-005
0.0183087 0.00122951 4.60596e-005
0.018442 0.00122978 4.60596e-005
0.0185763 0.00123004 4.60596e-005
0.0187107 0.0012303 4.60596e-005
0.018845 0.00123054 4.60596e-005
0.0189794 0.00123078 4.60596e-005
0.0191137 0.00123102 4.60596e-005
0.0192491 0.00123124 4.60596e-005
0.0193845 0.00123146 4.60596e-005
0.0195199 0.00123167 4.60596e-005
0.0196553 0.00123187 4.60596e-005
0.0197907 0.00123206 4.60596e-005
0.0199272 0.00123224 4.60596e-005
0.0200636 0.00123242 4.60596e-005
0.0202001 0.00123259 4.60596e-005
0.0203365 0.00123274 4.60596e-005
0.020473 0.00123289 4.60596e-005
0.0206105 0.00123303 4.60596e-005
0.020748 0.00123316 4.60596e-005
0.0208855 0.00123328 4.60596e-005
0.021023 0.0012334 4.60596e-005
0.0211606 0.0012335 4.60596e-005
0.0212991 0.00123359 4.60596e-005
0.0214377 0.00123368 4.60596e-005
0.0215763 0.00123375 4.60596e-005
0.0217149 0.00123381 4.60596e-005
0.0218535 0.00123387 4.60596e-005
0.0219931 0.00123391 4.60596e-005
0.0221328 0.00123394 4.60596e-005
0.0222724 0.00123396 4.60596e-005
0.0224121 0.00123397 4.60596e-005
0.0225517 0.00123398 4.60596e-005
0.0226925 0.00123397 4.60596e-005
[...]
POINT_DATA 11930
 FIELD attributes 2
p 1 11930 float
-1550.62 -1538.04 -1524.25 -1510.61 -1497.13 -1476.53 -1461.88 -1447.17 -1432.37 -1417.5 -1396.77 -1348.68 -1300.67 -1252.72 -1204.83 -1162.37 -1130.74 -1105.27 -1079.82 -1054.38 -1037.55 -1025.78 -1016.3 -1006.82 -997.345 -989.719 -982.952 -975.039 -967.125 -959.211 -950.158 -941.685 -933.026 -924.363 -915.718 -907.304 -899.32 -892.122 -885.014 -878.058 -872.02 -866.238 -861.033 -855.948 -851.017 -846.68 -842.513 -838.569 -834.694 -830.907 -827.366 -823.957 -820.676 -817.448 -814.292 -811.293 -808.395 -805.621 -802.912 -800.285 -797.8 -795.386 -793.083 -790.851 -788.703 -786.675 -784.691 -782.788 -780.949 -779.184 -777.506 -775.847 -774.249 -772.708 -771.234 -769.827 -768.412 -767.044 -765.727 -764.473 -763.274 -762.041 -760.851 -759.714 -758.647 -757.631 -756.553 -755.503 -754.495 -753.559 -752.669 -751.693 -750.767 -749.929 -749.209 -748.552 -747.821 -747.151 -746.592 -746.17 -745.83 -745.318 -744.846 -744.432 -744.112 -743.863 -743.431 -743.104 -742.896 -742.806 -742.829 -742.667 -742.589 -742.59 -742.656 -742.8 -742.898 -742.983 -743.06 -743.129 -743.186 -743.449 -743.608 -743.706 -743.746 -743.674 -744.054 -744.26 -744.386 -744.43 -744.268 -744.73 -744.965 -745.119 -745.185 -744.972 -745.464 -745.686 -745.836 -745.912 -745.658 -746.115 -746.288 -746.407 -746.475 -746.204 -746.591 -746.72 -746.818 -746.891 -746.656 -746.969 -747.074 -747.168 -747.254 -747.086 -747.326 -747.409 -747.491 -747.573 -747.475 -747.635 -747.698 -747.761 -747.824 -747.786 -747.883 -747.935 -747.987 -748.039 -748.052 -748.114 -748.167 -748.22 -748.274 -748.328 -748.375 -748.432 -748.49 -748.547 -748.626 -748.672 -748.733 -748.794 -748.855 -748.946 -749.003 -749.07 -749.137 -749.204 -749.297 -749.375 -749.451 -749.527 -749.603 -749.693 -749.797 -749.886 -749.975 -750.064 -750.152 -750.283 -750.387 -750.49 -750.593 -750.681 -750.836 -750.953 -751.07 -751.188 -751.277 -751.452 -751.581 -751.711 -751.84 -751.935 -752.124 -752.266 -752.408 -752.55 -752.654 -752.854 -753.009 -753.164 -753.319 -753.439 -753.644 -753.811 -753.978 -754.146 -754.285 -754.495 -754.677 -754.859 -755.041 -755.204 -755.42 -755.619 -755.817 -756.016 -756.207 -756.354 -756.495 -756.636 -756.777 -756.914 -756.987 -757.06 -757.133 -757.206 -757.291 -757.505 -757.73 -757.955 -758.181 -758.452 -758.649 -758.888 -759.126 -759.364 -759.68 -759.865 -760.116 -760.367 -760.619 -760.972 -761.15 -761.414 -761.678 -761.942 -762.325 -762.503 -762.779 -763.055 -763.331 -763.736 -763.922 -764.21 -764.497 -764.785 -765.202 -765.404 -765.702 -766.001 -766.3 -766.72 -766.944 -767.254 -767.563 -767.872 -768.286 -768.54 -768.859 -769.178 -769.497 -769.897 -770.185 -770.513 -770.842 -771.17 -771.55 -771.875 -772.212 -772.549 -772.887 -773.241 -773.606 -773.951 -774.296 -774.641 -774.968 -775.369 -775.724 -776.076 -776.423 -776.727 -777.157 -777.527 -777.887 -778.231 -778.517 -778.969 -779.359 -779.725 -780.062 -780.336 -780.805 -781.214 -781.587 -781.916 -782.184 -782.664 -783.093 -783.473 -783.794 -784.063 -784.554 -785.003 -785.39 -785.703 -785.973 -786.471 -786.94 -787.333 -787.634 -787.906 -788.407 -788.891 -789.286 -789.576 -789.85 -790.346 -790.838 -791.233 -791.514 -791.794 -792.281 -792.767 -793.158 -793.447 -793.737 -794.211 -794.685 -795.074 -795.375 -795.676 -796.135 -796.595 -796.983 -797.296 -797.609 -798.053 -798.498 -798.883 -799.208 -799.533 -799.961 -800.389 -800.771 -801.107 -801.443 -801.855 -802.267 -802.645 -802.99 -803.335 -803.731 -804.127 -804.501 -804.853 -805.204 -805.585 -805.966 -806.334 -806.691 -807.048 -807.414 -807.779 -808.142 -808.501 -808.859 -809.211 -809.564 -809.92 -810.276 -810.634 -810.972 -811.314 -811.662 -812.013 -812.366 -812.691 -813.023 -813.361 -813.703 -814.05 -814.361 -814.683 -815.01 -815.339 -815.677 -815.975 -816.287 -816.601 -816.915 -817.241 -817.524 -817.823 -818.122 -818.422 -818.732 -818.999 -819.281 -819.563 -819.846 -820.138 -820.389 -820.653 -820.917 -821.181 -821.454 -821.687 -821.931 -822.176 -822.42 -822.672 -822.886 -823.109 -823.332 -823.556 -823.782 -823.978 -824.178 -824.378 -824.578 -824.778 -824.783 -824.789 -824.794 -824.8 -824.805 -824.975 -825.144 -825.314 -825.483 -825.651 -825.799 -825.944 -826.09 -826.235 -826.377 -826.496 -826.61 -826.723 -826.837 -826.944 -827.034 -827.114 -827.193 -827.273 -827.343 -827.402 -827.445 -827.489 -827.532 -827.562 -827.588 -827.592 -827.597 -827.599 -827.587 -827.573 -827.541 -827.504 -827.461 -827.405 -827.348 -827.278 -827.197 -827.105 -827.003 -826.902 -826.792 -826.664 -826.519 -826.369 -826.22 -826.069 -825.892 -825.692 -825.491 -825.292 -825.094 -824.865 -824.611 -824.357 -824.105 -823.854 -823.573 -823.263 -822.954 -822.647 -822.341 -822.005 -821.638 -821.27 -820.906 -820.542 -820.149 -819.721 -819.293 -818.869 -818.442 -817.986 -817.501 -817.011 -816.524 -816.026 -815.506 -814.966 -814.411 -813.859 -813.287 -812.701 -812.104 -811.481 -810.862 -810.212 -809.557 -808.902 -808.21 -807.517 -806.79 -806.064 -805.338 -804.585 -803.809 -803.008 -802.208 -801.408 -800.593 -799.731 -798.854 -797.978 -797.102 -796.223 -795.975 -795.724 -795.472 -795.221 -794.974 -794.274 -793.575 -792.875 -792.176 -791.465 -790.448 -789.419 -788.391 -787.363 -786.307 -785.225 -784.115 -783.005 -781.895 -780.739 -779.592 -778.398 -777.204 -776.003 -774.752 -773.522 -772.258 -770.98 -769.674 -768.336 -767.019 -765.687 -764.321 -762.907 -761.481 -760.076 -758.671 -757.213 -755.697 -754.181 -752.686 -751.191 -749.641 -748.034 -746.427 -744.841 -743.255 -741.612 -739.913 -738.214 -736.535 -734.846 -733.103 -731.326 -729.534 -727.763 -725.955 -724.119 -722.269 -720.383 -718.517 -716.59 -714.659 -712.728 -710.756 -708.774 -706.747 -704.72 -702.693 -700.649 -699.083 -697.496 -695.91 -694.324 -692.815 -692.266 -691.718 -691.169 -690.621 -690.065 -687.865 -685.66 -683.455 -681.25 -679.01 -676.739 -674.437 -672.137 -669.836 -667.472 -665.118 -662.732 -660.336 -657.91 -655.45 -653.001 -650.544 -648.053 -645.501 -642.945 -640.401 -637.857 -635.261 -632.61 -629.96 -627.321 -624.683 -621.985 -619.241 -616.496 -613.764 -611.003 -608.207 -605.397 -602.558 -599.733 -596.845 -593.955 -591.066 -588.149 -585.245 -582.308 -579.371 -576.435 -573.672 -573.593 -573.513 -573.434 -573.355 -573.275 -570.209 -567.144 -564.079 -561.015 -557.925 -554.786 -551.632 -548.479 -545.322 -542.123 -538.903 -535.671 -532.43 -529.162 -525.877 -522.57 -519.264 -515.932 -512.562 -509.193 -505.801 -502.411 -498.984 -495.532 -492.08 -488.606 -485.117 -481.602 -478.082 -474.55 -470.995 -467.402 -463.808 -460.215 -456.612 -454.193 -451.759 -449.325 -446.891 -444.545 -443.292 -442.04 -440.788 -439.536 -438.275 -434.539 -430.799 -427.06 -423.321 -419.546 -415.75 -411.94 -408.128 -404.299 -400.446 -396.579 -392.712 -388.827 -384.908 -380.987 -377.052 -373.117 -369.153 -365.169 -361.184 -357.184 -353.169 -349.135 -345.098 -341.051 -336.986 -332.891 -328.796 -324.702 -320.604 -319.269 -317.928 -316.586 -315.245 -313.926 -311.113 -308.301 -305.489 -302.677 -299.849 -295.652 -291.45 -287.248 -283.042 -278.807 -274.562 -270.314 -266.062 -261.784 -257.501 -253.207 -248.913 -244.602 -240.275 -235.948 -231.608 -227.262 -222.898 -218.534 -214.165 -209.783 -205.38 -200.978 -196.576 -192.172 -191.042 -189.908 -188.774 -187.64 -186.52 -183.213 -179.906 -176.599 -173.293 -169.973 -165.503 -161.033 -156.564 -152.088 -147.596 -143.097 -138.598 -134.098 -129.582 -125.063 -120.537 -116.011 -111.471 -106.93 -102.388 -97.8362 -93.2771 -88.7145 -84.1524 -79.5917 -76.6686 -73.742 -70.8157 -67.8895 -65.0438 -63.3758 -61.708 -60.0402 -58.3724 -56.7012 -52.1063 -47.5138 -42.9217 -38.329 -33.7248 -29.115 -24.5078 -19.905 -15.2951 -10.6827 -6.06406 -1.44601 3.17453 7.78861 12.4048 17.0278 21.6515 26.2755 30.8991 35.5174 38.2299 40.942 43.6539 46.3657 49.0145 50.941 52.8674 54.7937 56.72 58.6472 63.2789 67.9047 72.53 77.1547 81.781 86.4113 91.0398 95.6575 100.272 104.889 109.51 114.131 118.745 123.351 127.956 132.564 137.166 141.767 146.367 150.965 151.796 152.625 153.453 154.282 155.106 158.871 162.635 166.4 170.164 173.924 178.514 183.092 187.666 192.234 196.801 201.37 205.938 210.494 215.036 219.579 224.124 228.662 233.193 237.723 242.244 244.427 246.602 248.776 250.951 253.091 255.434 257.777 260.12 262.463 264.8 269.3 273.789 278.277 282.757 287.232 291.705 296.178 300.634 305.074 309.517 313.958 318.39 322.812 327.234 331.644 333.972 336.29 338.608 340.926 343.207 345.291 347.374 349.458 351.542 353.618 357.996 362.362 366.728 371.084 375.433 379.776 384.119 388.444 392.752 397.062 401.365 405.656 409.939 414.221 418.495 419.961 421.419 422.877 424.335 425.78 428.577 431.374 434.171 436.967 439.751 443.981 448.2 452.415 456.614 460.81 464.996 469.181 473.348 477.499 481.65 485.596 489.523 493.447 497.371 501.206 501.418 501.63 501.842 502.054 502.265 506.356 510.445 514.534 518.619 522.688 526.742 530.796 534.831 538.849 542.868 546.871 550.864 554.844 558.823 562.794 564.197 565.592 566.986 568.379 569.764 572.313 574.862 577.411 579.957 582.49 586.399 590.3 594.193 598.062 601.931 605.783 609.631 613.455 617.275 621.084 623.086 625.076 627.062 629.049 631.024 632.814 634.605 636.395 638.182 639.959 643.702 647.428 651.152 654.851 658.544 662.219 665.893 669.531 673.16 676.774 678.821 680.856 682.886 684.917 686.957 688.505 690.052 691.599 693.144 694.68 698.231 701.733 705.23 708.66 712.069 715.457 718.851 722.386 725.948 729.543 731.616 733.308 734.876 736.444 738.054 739.369 740.683 741.997 743.231 744.195 746.473 749.611 752.759 757.155 761.989 766.706 771.092 773.592 776.095 777.996 778.281 778.626 779.07 779.513 779.961 781.689 783.419 785.15 787.339 789.821 792.841 795.86 798.742 801.606 804.414 805.127 805.826 806.499 807.172 807.86 809.968 812.074 814.18 816.219 818.216 820.903 823.588 826.186 828.748 831.27 832.009 832.732 833.424 834.115 834.834 836.616 838.397 840.175 841.887 843.557 845.912 848.264 850.464 852.557 854.613 855.372 856.097 856.767 857.436 858.151 859.395 860.637 861.877 863.036 864.135 865.852 867.562 869.068 870.366 871.654 872.375 873.007 873.532 874.055 874.648 875.091 875.532 875.972 876.355 876.675 877.387 877.978 878.466 878.598 878.721 878.709 878.494 878.04 877.58 877.025 876.912 876.757 876.578 876.399 876.213 875.323 874.421 873.507 872.455 871.117 869.356 867.582 865.364 862.728 860.079 857.171 853.857 850.293 846.723 842.987 842.145 841.192 840.219 839.246 838.211 834.545 830.868 827.179 823.437 819.24 813.589 807.659 801.433 794.434 787.351 779.796 772.229 764.06 755.446 746.749 737.528 727.085 716.389 705.691 694.535 690.238 685.93 681.621 677.311 672.466 664.538 656.605 648.667 640.724 632.731 618.961 603.202 587.411 570.56 551.175 530.816 510.939 493.346 479.361 465.369 450.625 435.882 408.365 368.528 328.657 286.99 254.675 238.164 228.762 231.537 233.249 176.24 118.921 61.3085 0