/*--------------------------------*- C++ -*----------------------------------*\
| =========                 |                                                 |
| \\      /  F ield         | OpenFOAM: The Open Source CFD Toolbox           |
|  \\    /   O peration     | Version:  5.x                                   |
|   \\  /    A nd           | Web:      www.OpenFOAM.org                      |
|    \\/     M anipulation  |                                                 |
\*---------------------------------------------------------------------------*/
/*   Windows 32 and 64 bit porting by blueCAPE: http://www.bluecape.com.pt   *\
|  Based on Windows porting (2.0.x v4) by Symscape: http://www.symscape.com   |
\*---------------------------------------------------------------------------*/
FoamFile
{
    version     2.0;
    format      ascii;
    class       volVectorField;
    location    "2701";
    object      U;
}
// * * * * * * * * * * * * * * * * * * * * * * * * * * * * * * * * * * * * * //

dimensions      [0 1 -1 0 0 0 0];

internalField   nonuniform List<vector> 
4000
(
(0.999143 0.000750473 2.14301e-023)
(0.997621 0.00243084 0)
(0.994318 0.00350698 0)
(0.99041 0.00388454 0)
(0.986349 0.00403871 0)
(0.982166 0.00409478 0)
(0.9779 0.00410153 -3.10355e-023)
(0.973595 0.00407399 0)
(0.969275 0.00403011 0)
(0.96496 0.00398245 -2.76039e-023)
(0.960657 0.00393569 0)
(0.956366 0.00389178 0)
(0.952087 0.00384956 -2.51433e-023)
(0.947822 0.00380879 0)
(0.943574 0.00376894 -2.39026e-023)
(0.939345 0.00372973 -2.33669e-023)
(0.935137 0.00369168 -2.287e-023)
(0.930951 0.00365468 -2.24083e-023)
(0.926787 0.00361844 -2.19794e-023)
(0.922645 0.00358302 -2.15777e-023)
(0.918525 0.0035485 -2.11989e-023)
(0.914428 0.00351471 -2.08417e-023)
(0.910353 0.00348186 0)
(0.9063 0.0034501 -2.01772e-023)
(0.902271 0.00341947 -1.98646e-023)
(0.898265 0.00338987 -1.95626e-023)
(0.894283 0.00336103 -1.92697e-023)
(0.890324 0.00333275 -1.89839e-023)
(0.886389 0.00330511 -1.87035e-023)
(0.882478 0.00327816 -1.84277e-023)
(0.87859 0.00325192 0)
(0.874726 0.00322623 -1.78872e-023)
(0.870886 0.00320087 -1.76207e-023)
(0.86707 0.0031757 -1.73557e-023)
(0.863277 0.0031507 -1.70918e-023)
(0.859508 0.00312594 -1.68289e-023)
(0.855762 0.00310142 -1.65665e-023)
(0.85204 0.00307706 -1.63045e-023)
(0.848341 0.00305281 -1.60427e-023)
(0.844665 0.00302861 0)
(0.841013 0.00300449 -1.55186e-023)
(0.837385 0.00298044 -1.52557e-023)
(0.83378 0.00295652 -1.49918e-023)
(0.830199 0.0029329 -1.47266e-023)
(0.826641 0.00290954 -1.44598e-023)
(0.823107 0.00288509 -1.41915e-023)
(0.819596 0.00285986 -1.3922e-023)
(0.816108 0.00283543 0)
(0.812643 0.00281167 -1.33784e-023)
(0.809201 0.00278834 -1.31047e-023)
(0.805783 0.00276518 -1.283e-023)
(0.802388 0.002742 -1.25545e-023)
(0.799016 0.00271876 -1.2278e-023)
(0.795668 0.00269549 -1.20006e-023)
(0.792343 0.00267216 -1.17223e-023)
(0.789042 0.00264868 -1.1443e-023)
(0.785766 0.00262496 0)
(0.782513 0.00260104 -1.0882e-023)
(0.779285 0.00257698 -1.06005e-023)
(0.776081 0.00255281 -1.03188e-023)
(0.772902 0.00252847 -1.00368e-023)
(0.769747 0.00250392 -9.75476e-024)
(0.766617 0.00247913 -9.47278e-024)
(0.763512 0.00245413 -9.19097e-024)
(0.760432 0.00242896 0)
(0.757377 0.00240366 -8.62837e-024)
(0.754348 0.00237821 -8.34796e-024)
(0.751344 0.00235251 -8.0684e-024)
(0.748365 0.00232662 -7.78988e-024)
(0.745412 0.00230061 -7.5125e-024)
(0.742485 0.00227447 -7.23649e-024)
(0.739584 0.00224815 -6.9621e-024)
(0.736709 0.00222169 -6.68969e-024)
(0.73386 0.00219527 -6.41967e-024)
(0.731036 0.0021691 -6.15251e-024)
(0.728238 0.00214344 -5.88889e-024)
(0.725464 0.00211873 -5.62944e-024)
(0.722712 0.00209634 -5.37494e-024)
(0.719981 0.00207969 -5.1256e-024)
(0.717263 0.00206958 -4.87563e-024)
(0.714559 0.00206286 -4.62018e-024)
(0.711866 0.00205721 0)
(0.709185 0.00205168 -4.10107e-024)
(0.706515 0.00204584 -3.83949e-024)
(0.703856 0.00203944 -3.57715e-024)
(0.701209 0.00203232 -3.31448e-024)
(0.698575 0.00202448 -3.05176e-024)
(0.695952 0.00201599 -2.78918e-024)
(0.693343 0.00200688 -2.52688e-024)
(0.690747 0.00199715 -2.26505e-024)
(0.688165 0.00198678 0)
(0.685596 0.00197586 -1.74363e-024)
(0.683042 0.00196446 -1.48436e-024)
(0.680503 0.00195262 -1.22623e-024)
(0.677978 0.00194029 -9.69424e-025)
(0.675469 0.00192745 -7.14169e-025)
(0.672975 0.00191419 -4.60567e-025)
(0.670496 0.00190055 -2.08724e-025)
(0.668033 0.00188657 4.12108e-026)
(0.665587 0.00187211 2.88629e-025)
(0.663157 0.00185708 5.33866e-025)
(0.660743 0.00184165 7.77721e-025)
(0.658346 0.0018259 1.01969e-024)
(0.655967 0.00180985 1.2594e-024)
(0.653604 0.00179356 1.49674e-024)
(0.651259 0.00177707 1.73159e-024)
(0.648932 0.00176044 1.96377e-024)
(0.646622 0.00174368 2.19312e-024)
(0.64433 0.00172676 2.41945e-024)
(0.642055 0.00170965 2.64266e-024)
(0.639799 0.00169239 2.86269e-024)
(0.637561 0.00167503 3.07949e-024)
(0.635341 0.00165757 3.29298e-024)
(0.633139 0.00163996 3.50306e-024)
(0.630956 0.00162217 3.70959e-024)
(0.628791 0.00160425 3.91238e-024)
(0.626645 0.00158624 4.11134e-024)
(0.624518 0.00156814 4.30635e-024)
(0.62241 0.00154997 4.49734e-024)
(0.62032 0.00153176 4.68424e-024)
(0.61825 0.00151347 4.8669e-024)
(0.616198 0.00149505 5.04517e-024)
(0.614166 0.00147649 5.21894e-024)
(0.612153 0.00145788 5.38814e-024)
(0.610159 0.00143931 5.55272e-024)
(0.608184 0.00142074 5.71263e-024)
(0.606229 0.00140211 5.86769e-024)
(0.604292 0.00138338 6.01786e-024)
(0.602376 0.00136459 6.16297e-024)
(0.600478 0.00134577 6.30293e-024)
(0.598601 0.00132692 6.43762e-024)
(0.596742 0.00130805 6.56703e-024)
(0.594904 0.00128918 6.69106e-024)
(0.593084 0.00127029 6.80969e-024)
(0.591285 0.00125138 6.92276e-024)
(0.589505 0.00123249 7.0302e-024)
(0.587744 0.00121367 7.13191e-024)
(0.586003 0.00119487 7.22778e-024)
(0.584282 0.00117604 7.31769e-024)
(0.58258 0.00115719 7.40151e-024)
(0.580898 0.0011384 7.47931e-024)
(0.579235 0.0011197 7.5511e-024)
(0.577592 0.00110101 7.61682e-024)
(0.575969 0.00108226 7.67643e-024)
(0.574365 0.0010635 7.72986e-024)
(0.57278 0.00104488 7.77707e-024)
(0.571215 0.00102637 7.81794e-024)
(0.569669 0.00100788 7.85238e-024)
(0.568143 0.000989337 7.88031e-024)
(0.566636 0.000970824 7.90168e-024)
(0.565148 0.000952431 7.91657e-024)
(0.56368 0.000934192 7.92489e-024)
(0.56223 0.00091608 7.92661e-024)
(0.5608 0.000898033 7.92165e-024)
(0.559389 0.000879985 7.91003e-024)
(0.557997 0.000861943 7.89171e-024)
(0.556624 0.000844019 7.86672e-024)
(0.55527 0.00082631 7.83493e-024)
(0.553934 0.000808752 7.79632e-024)
(0.552618 0.000791189 7.75088e-024)
(0.55132 0.000773571 7.69863e-024)
(0.55004 0.000755998 7.63956e-024)
(0.548779 0.000738648 7.5736e-024)
(0.547537 0.000721577 7.50073e-024)
(0.546313 0.000704673 7.4209e-024)
(0.545107 0.000687786 7.33422e-024)
(0.543919 0.000670839 7.24068e-024)
(0.542749 0.000654001 7.14035e-024)
(0.541598 0.000637365 7.03315e-024)
(0.540463 0.000620884 6.91908e-024)
(0.539347 0.000604491 6.79807e-024)
(0.538249 0.000588215 6.67012e-024)
(0.537168 0.000572104 6.53529e-024)
(0.536104 0.000556169 6.39366e-024)
(0.535058 0.000540374 6.24524e-024)
(0.534028 0.000524696 6.09007e-024)
(0.533016 0.000509149 5.92819e-024)
(0.532021 0.000493768 5.75959e-024)
(0.531042 0.000478545 5.5842e-024)
(0.53008 0.000463477 5.40208e-024)
(0.529135 0.000448589 5.21325e-024)
(0.528206 0.000433894 5.01766e-024)
(0.527293 0.000419366 4.81543e-024)
(0.526396 0.000404987 4.60641e-024)
(0.525515 0.000390787 4.39054e-024)
(0.524649 0.000376843 4.16767e-024)
(0.523799 0.000363158 3.93775e-024)
(0.522964 0.000349709 3.70067e-024)
(0.522144 0.000336478 3.45629e-024)
(0.521338 0.000323532 3.20464e-024)
(0.520546 0.000310935 2.94489e-024)
(0.519767 0.000298852 2.67773e-024)
(0.519003 0.000287088 2.39954e-024)
(0.518248 0.000276295 2.1173e-024)
(0.517513 0.000264827 1.81121e-024)
(0.516772 0.000257284 1.52795e-024)
(0.516081 0.000241617 1.14702e-024)
(0.515302 0.000245778 9.63244e-025)
(0.514769 0.000224943 3.04824e-025)
(0.513643 0.000284475 7.75995e-025)
(1.00018 0.00115676 6.8196e-024)
(1.00081 0.00276729 0)
(1.00147 0.00347822 0)
(1.00184 0.00394633 0)
(1.00201 0.00424021 0)
(1.002 0.00444127 0)
(1.00185 0.00456282 -2.35776e-023)
(1.00158 0.00466918 0)
(1.00123 0.00472788 0)
(1.0008 0.00476025 -2.20701e-023)
(1.0003 0.00478509 0)
(0.99974 0.00480621 0)
(0.999124 0.00482392 -2.05249e-023)
(0.99846 0.00483645 0)
(0.997755 0.00484234 -1.96877e-023)
(0.997019 0.00484357 -1.92985e-023)
(0.996256 0.00484263 -1.89198e-023)
(0.995467 0.00484038 -1.85623e-023)
(0.994657 0.00483625 -1.82287e-023)
(0.993826 0.00483058 -1.79077e-023)
(0.992979 0.0048247 -1.75967e-023)
(0.992115 0.00481744 -1.73064e-023)
(0.991237 0.00480844 0)
(0.990347 0.00479787 -1.67535e-023)
(0.989447 0.00478589 -1.64875e-023)
(0.988536 0.00477263 -1.62274e-023)
(0.987616 0.00475797 -1.59735e-023)
(0.986688 0.00474224 -1.57238e-023)
(0.985754 0.00472616 -1.54763e-023)
(0.984813 0.00470996 -1.52315e-023)
(0.983866 0.00469318 0)
(0.982913 0.00467544 -1.47467e-023)
(0.981956 0.00465708 -1.45061e-023)
(0.980994 0.00463878 -1.42665e-023)
(0.980028 0.00462076 -1.40278e-023)
(0.979058 0.0046028 -1.37896e-023)
(0.978084 0.00458462 -1.3552e-023)
(0.977106 0.00456612 -1.33152e-023)
(0.976125 0.00454742 -1.30791e-023)
(0.97514 0.00452855 0)
(0.974153 0.00450947 -1.2608e-023)
(0.973162 0.00449014 -1.23729e-023)
(0.972169 0.00447048 -1.21382e-023)
(0.971174 0.00445069 -1.19024e-023)
(0.970176 0.004431 -1.16641e-023)
(0.969177 0.00441164 -1.14237e-023)
(0.968175 0.00439262 -1.11836e-023)
(0.967172 0.00437365 0)
(0.966167 0.00435455 -1.07071e-023)
(0.96516 0.0043352 -1.04691e-023)
(0.964151 0.00431545 -1.02316e-023)
(0.96314 0.0042954 -9.99475e-024)
(0.962126 0.00427518 -9.7585e-024)
(0.961111 0.00425478 -9.52239e-024)
(0.960094 0.00423407 -9.28624e-024)
(0.959074 0.00421298 -9.05012e-024)
(0.958053 0.00419161 0)
(0.95703 0.00417014 -8.57897e-024)
(0.956004 0.00414861 -8.34435e-024)
(0.954977 0.00412698 -8.11072e-024)
(0.953947 0.00410522 -7.87813e-024)
(0.952915 0.00408333 -7.64656e-024)
(0.95188 0.0040613 -7.41603e-024)
(0.950843 0.00403905 -7.18666e-024)
(0.949804 0.00401655 0)
(0.948763 0.00399388 -6.73238e-024)
(0.947719 0.00397117 -6.5078e-024)
(0.946672 0.00394838 -6.28495e-024)
(0.945623 0.00392539 -6.06386e-024)
(0.944572 0.00390215 -5.84454e-024)
(0.943518 0.00387872 -5.62715e-024)
(0.942462 0.00385523 -5.41186e-024)
(0.941403 0.00383182 -5.19878e-024)
(0.940342 0.0038086 -4.9879e-024)
(0.939278 0.00378573 -4.77898e-024)
(0.938211 0.00376344 -4.57135e-024)
(0.937141 0.0037425 -4.36388e-024)
(0.93607 0.00372339 -4.15294e-024)
(0.934999 0.00370452 -3.93454e-024)
(0.933933 0.00368644 -3.72005e-024)
(0.932874 0.00367042 -3.51755e-024)
(0.931821 0.00365543 0)
(0.930774 0.00364099 -3.12316e-024)
(0.929732 0.00362681 -2.92772e-024)
(0.928694 0.00361271 -2.73328e-024)
(0.927662 0.00359857 -2.53974e-024)
(0.926633 0.00358431 -2.34705e-024)
(0.925608 0.00356986 -2.1553e-024)
(0.924586 0.00355519 -1.96459e-024)
(0.923567 0.00354035 -1.77498e-024)
(0.922551 0.0035254 0)
(0.921538 0.0035103 -1.3997e-024)
(0.920526 0.00349498 -1.21438e-024)
(0.919517 0.00347948 -1.03073e-024)
(0.91851 0.00346389 -8.48856e-025)
(0.917505 0.00344826 -6.68827e-025)
(0.916501 0.00343251 -4.90629e-025)
(0.915498 0.00341648 -3.14353e-025)
(0.914496 0.00340025 -1.40133e-025)
(0.913496 0.00338395 3.14063e-026)
(0.912497 0.00336764 2.00822e-025)
(0.911499 0.00335125 3.6872e-025)
(0.910502 0.00333464 5.34375e-025)
(0.909506 0.0033178 6.97577e-025)
(0.908511 0.0033008 8.58358e-025)
(0.907517 0.00328368 1.01672e-024)
(0.906523 0.00326638 1.17256e-024)
(0.905529 0.00324885 1.32574e-024)
(0.904537 0.00323115 1.47615e-024)
(0.903545 0.00321333 1.62379e-024)
(0.902553 0.00319537 1.76869e-024)
(0.901562 0.00317725 1.91089e-024)
(0.900571 0.00315896 2.05028e-024)
(0.899581 0.00314053 2.18674e-024)
(0.898591 0.00312198 2.3202e-024)
(0.897602 0.00310334 2.45061e-024)
(0.896613 0.00308457 2.57787e-024)
(0.895624 0.0030656 2.70197e-024)
(0.894636 0.00304646 2.82287e-024)
(0.893649 0.00302721 2.94064e-024)
(0.892661 0.00300789 3.05518e-024)
(0.891675 0.00298845 3.16644e-024)
(0.890688 0.00296886 3.27427e-024)
(0.889702 0.00294913 3.37868e-024)
(0.888717 0.00292935 3.47964e-024)
(0.887732 0.00290953 3.57711e-024)
(0.886748 0.00288963 3.67107e-024)
(0.885764 0.00286958 3.76154e-024)
(0.884781 0.00284935 3.84841e-024)
(0.883798 0.00282901 3.93162e-024)
(0.882816 0.00280863 4.01112e-024)
(0.881835 0.00278821 4.08692e-024)
(0.880854 0.00276771 4.15909e-024)
(0.879874 0.0027471 4.22754e-024)
(0.878895 0.00272638 4.29218e-024)
(0.877916 0.00270561 4.35309e-024)
(0.876939 0.00268477 4.41019e-024)
(0.875962 0.00266385 4.4634e-024)
(0.874986 0.00264286 4.51255e-024)
(0.874011 0.00262185 4.55769e-024)
(0.873036 0.00260086 4.5989e-024)
(0.872063 0.00257984 4.63628e-024)
(0.871091 0.00255869 4.66981e-024)
(0.87012 0.00253743 4.69946e-024)
(0.86915 0.00251612 4.72511e-024)
(0.868181 0.00249483 4.74672e-024)
(0.867213 0.00247353 4.7643e-024)
(0.866247 0.00245222 4.77796e-024)
(0.865281 0.00243089 4.78757e-024)
(0.864317 0.00240952 4.79319e-024)
(0.863354 0.00238812 4.79473e-024)
(0.862393 0.00236671 4.79226e-024)
(0.861433 0.00234534 4.78569e-024)
(0.860474 0.00232396 4.77505e-024)
(0.859517 0.00230259 4.76031e-024)
(0.858562 0.00228126 4.74154e-024)
(0.857607 0.00225994 4.71871e-024)
(0.856655 0.00223856 4.69181e-024)
(0.855704 0.00221711 4.66089e-024)
(0.854755 0.00219565 4.62589e-024)
(0.853808 0.0021743 4.58682e-024)
(0.852862 0.00215308 4.54369e-024)
(0.851918 0.00213188 4.49648e-024)
(0.850976 0.00211068 4.44521e-024)
(0.850036 0.00208946 4.38985e-024)
(0.849097 0.00206825 4.33049e-024)
(0.848161 0.00204713 4.26711e-024)
(0.847227 0.00202611 4.19965e-024)
(0.846295 0.00200519 4.12821e-024)
(0.845364 0.00198432 4.05279e-024)
(0.844436 0.00196344 3.9734e-024)
(0.84351 0.00194256 3.89003e-024)
(0.842587 0.00192177 3.80264e-024)
(0.841665 0.00190111 3.71135e-024)
(0.840746 0.00188059 3.61612e-024)
(0.839829 0.00186018 3.517e-024)
(0.838915 0.00183985 3.41404e-024)
(0.838003 0.00181958 3.30724e-024)
(0.837093 0.00179937 3.19654e-024)
(0.836185 0.00177922 3.08196e-024)
(0.83528 0.0017592 2.96352e-024)
(0.834378 0.00173937 2.8413e-024)
(0.833478 0.00171974 2.71529e-024)
(0.832581 0.00170027 2.58554e-024)
(0.831686 0.00168093 2.45193e-024)
(0.830793 0.00166177 2.31444e-024)
(0.829903 0.00164288 2.17303e-024)
(0.829016 0.00162433 2.02773e-024)
(0.828131 0.00160619 1.87843e-024)
(0.827248 0.00158851 1.72523e-024)
(0.826367 0.0015713 1.5675e-024)
(0.825488 0.00155486 1.4064e-024)
(0.824612 0.00153872 1.23807e-024)
(0.823734 0.00152435 1.0716e-024)
(0.822865 0.00150815 8.79868e-025)
(0.821978 0.00149866 7.35719e-025)
(0.821138 0.00148431 4.86891e-025)
(0.820168 0.00148695 4.61364e-025)
(0.819499 0.00148557 6.05192e-026)
(0.818136 0.00152923 5.15902e-025)
(1.00008 0.000603722 -1.03742e-023)
(1.00044 0.00177508 0)
(1.00106 0.0027001 0)
(1.00162 0.00337128 0)
(1.00209 0.00384537 0)
(1.00247 0.0041879 0)
(1.00276 0.00443193 3.06567e-023)
(1.00298 0.0045955 0)
(1.00313 0.00472306 0)
(1.00322 0.00483083 3.06086e-023)
(1.00325 0.00492149 0)
(1.00324 0.00500713 0)
(1.00319 0.00507691 2.97648e-023)
(1.0031 0.00513615 0)
(1.00299 0.00517809 2.91696e-023)
(1.00286 0.00520435 2.88627e-023)
(1.0027 0.00522549 2.85439e-023)
(1.00252 0.0052431 2.82258e-023)
(1.00231 0.00525489 2.79146e-023)
(1.0021 0.0052618 2.76028e-023)
(1.00186 0.00526685 2.72891e-023)
(1.00161 0.00526875 2.69844e-023)
(1.00135 0.00526839 0)
(1.00109 0.00526653 2.63758e-023)
(1.00081 0.00526305 2.60699e-023)
(1.00052 0.00525827 2.57626e-023)
(1.00022 0.00525129 2.54549e-023)
(0.999921 0.00524313 2.51447e-023)
(0.999614 0.00523476 7.46595e-023)
(0.9993 0.00522545 2.45133e-023)
(0.998981 0.00521525 0)
(0.998656 0.00520382 2.38679e-023)
(0.998327 0.00519159 2.35395e-023)
(0.997994 0.00517903 2.32072e-023)
(0.997656 0.00516585 6.88239e-023)
(0.997315 0.00515247 2.25317e-023)
(0.996969 0.00513908 2.21888e-023)
(0.99662 0.00512539 2.1843e-023)
(0.996267 0.00511119 2.14943e-023)
(0.99591 0.00509642 0)
(0.99555 0.00508134 6.26001e-023)
(0.995186 0.00506608 2.04308e-023)
(0.994819 0.0050509 2.00709e-023)
(0.994449 0.0050356 1.97069e-023)
(0.994078 0.00501998 1.93378e-023)
(0.993703 0.00500401 1.8964e-023)
(0.993325 0.00498761 5.60087e-023)
(0.992945 0.00497119 0)
(0.992562 0.00495491 1.78315e-023)
(0.992176 0.00493855 1.74506e-023)
(0.991788 0.00492212 1.70684e-023)
(0.991396 0.0049058 1.66855e-023)
(0.991002 0.0048896 1.63018e-023)
(0.990605 0.00487328 1.5917e-023)
(0.990206 0.00485662 1.55309e-023)
(0.989803 0.0048396 1.51438e-023)
(0.989398 0.00482247 0)
(0.98899 0.00480542 1.43681e-023)
(0.98858 0.0047884 1.39801e-023)
(0.988166 0.00477128 1.35926e-023)
(0.987749 0.00475402 1.32058e-023)
(0.98733 0.00473668 1.28197e-023)
(0.986907 0.00471918 1.24347e-023)
(0.986481 0.00470141 1.20508e-023)
(0.986052 0.00468344 0)
(0.985621 0.00466549 1.1288e-023)
(0.985185 0.0046476 1.09097e-023)
(0.984747 0.00462964 1.05336e-023)
(0.984305 0.00461143 1.016e-023)
(0.98386 0.00459289 9.789e-024)
(0.983411 0.00457414 9.42084e-024)
(0.982959 0.00455537 9.05585e-024)
(0.982504 0.00453677 8.6944e-024)
(0.982045 0.00451845 8.33675e-024)
(0.981583 0.00450046 7.98299e-024)
(0.981118 0.00448289 7.63301e-024)
(0.980649 0.00446595 7.28623e-024)
(0.980177 0.00444971 6.93993e-024)
(0.979704 0.00443377 6.59047e-024)
(0.979229 0.00441792 6.24386e-024)
(0.978753 0.00440234 5.90452e-024)
(0.978276 0.0043872 0)
(0.977799 0.00437256 5.23159e-024)
(0.977321 0.00435829 -5.13253e-024)
(0.976844 0.00434432 -4.79682e-024)
(0.976366 0.00433053 4.2289e-024)
(0.975887 0.00431681 3.89718e-024)
(0.975408 0.00430308 3.56698e-024)
(0.974929 0.00428931 3.23853e-024)
(0.974449 0.00427555 2.91198e-024)
(0.973968 0.00426177 -5.4084e-024)
(0.973486 0.00424793 2.26566e-024)
(0.973003 0.00423402 1.94638e-024)
(0.972519 0.00422004 1.62992e-024)
(0.972035 0.00420602 1.31647e-024)
(0.971549 0.00419196 1.00621e-024)
(0.971062 0.00417782 -9.35444e-025)
(0.970574 0.00416358 3.95587e-025)
(0.970084 0.00414949 9.55478e-026)
(0.969594 0.00413462 -2.00015e-025)
(0.969102 0.00411874 -4.91793e-025)
(0.968608 0.00410288 -7.80793e-025)
(0.968113 0.00408709 8.41626e-025)
(0.967617 0.00407138 -1.34733e-024)
(0.967119 0.00405576 -1.62444e-024)
(0.96662 0.00404017 -1.89739e-024)
(0.966119 0.00402449 -2.16598e-024)
(0.965617 0.00400868 -2.43003e-024)
(0.965113 0.00399278 -2.68935e-024)
(0.964608 0.00397678 2.71349e-024)
(0.964101 0.00396067 -3.19363e-024)
(0.963592 0.00394442 -3.43863e-024)
(0.963082 0.00392806 -3.67875e-024)
(0.96257 0.00391162 -3.91385e-024)
(0.962056 0.0038951 -4.14381e-024)
(0.96154 0.0038785 4.13135e-024)
(0.961023 0.00386181 -4.58777e-024)
(0.960504 0.00384497 -4.8016e-024)
(0.959983 0.00382799 -5.00991e-024)
(0.95946 0.00381088 -5.21274e-024)
(0.958936 0.00379366 -5.40998e-024)
(0.958409 0.00377635 5.3566e-024)
(0.957881 0.00375897 -5.78707e-024)
(0.957351 0.00374149 -5.96675e-024)
(0.956819 0.0037239 -6.1405e-024)
(0.956284 0.00370618 -6.30827e-024)
(0.955748 0.00368837 -6.46996e-024)
(0.955211 0.00367049 6.37308e-024)
(0.954671 0.00365251 -6.775e-024)
(0.954129 0.00363441 -6.9181e-024)
(0.953585 0.0036162 -7.05478e-024)
(0.953039 0.00359791 -7.18512e-024)
(0.952491 0.00357958 -7.3091e-024)
(0.951941 0.00356116 7.16658e-024)
(0.951389 0.00354266 -7.53772e-024)
(0.950836 0.00352406 -7.64224e-024)
(0.95028 0.00350536 -7.74016e-024)
(0.949722 0.00348659 -7.8314e-024)
(0.949162 0.00346778 -7.91574e-024)
(0.9486 0.00344893 7.72624e-024)
(0.948036 0.00343 -8.06383e-024)
(0.94747 0.00341096 -8.12783e-024)
(0.946902 0.00339185 -8.18516e-024)
(0.946332 0.0033727 -8.23575e-024)
(0.94576 0.00335352 -8.2795e-024)
(0.945186 0.00333429 -8.31641e-024)
(0.94461 0.003315 8.07216e-024)
(0.944032 0.0032957 -8.36955e-024)
(0.943452 0.00327638 -8.38573e-024)
(0.942871 0.00325698 -8.39498e-024)
(0.942287 0.0032375 -8.3973e-024)
(0.941701 0.00321799 -8.39269e-024)
(0.941113 0.00319849 8.10153e-024)
(0.940523 0.003179 -8.36252e-024)
(0.939932 0.00315948 -8.33695e-024)
(0.939338 0.00313995 -8.30444e-024)
(0.938743 0.00312037 -8.26499e-024)
(0.938145 0.00310076 -8.21858e-024)
(0.937546 0.00308114 7.88094e-024)
(0.936945 0.00306153 -8.1049e-024)
(0.936342 0.00304193 -8.0376e-024)
(0.935737 0.00302234 -7.96339e-024)
(0.93513 0.00300273 -7.8822e-024)
(0.934522 0.0029831 -7.79407e-024)
(0.933912 0.00296347 7.41093e-024)
(0.9333 0.00294386 -7.59696e-024)
(0.932686 0.00292429 -7.48813e-024)
(0.932071 0.00290475 -7.37243e-024)
(0.931453 0.00288524 -7.24993e-024)
(0.930834 0.00286575 -7.12064e-024)
(0.930214 0.00284624 6.69296e-024)
(0.929592 0.00282673 -6.84159e-024)
(0.928968 0.00280723 -6.69184e-024)
(0.928342 0.0027878 -6.53543e-024)
(0.927715 0.00276847 -6.37234e-024)
(0.927087 0.00274921 -6.20264e-024)
(0.926456 0.00273002 -6.02638e-024)
(0.925825 0.00271091 5.55093e-024)
(0.925192 0.0026919 -5.65417e-024)
(0.924557 0.00267297 -5.45816e-024)
(0.923921 0.00265409 -5.25561e-024)
(0.923283 0.00263527 -5.04656e-024)
(0.922644 0.00261656 -4.83105e-024)
(0.922003 0.00259801 4.31875e-024)
(0.921361 0.00257964 -4.38047e-024)
(0.920718 0.00256153 -4.14517e-024)
(0.920073 0.00254376 -3.9031e-024)
(0.919427 0.00252637 -3.65424e-024)
(0.918779 0.00250938 -3.39841e-024)
(0.91813 0.00249285 2.86067e-024)
(0.917479 0.00247691 -2.86517e-024)
(0.916826 0.00246187 -2.58815e-024)
(0.916174 0.00244762 -2.29949e-024)
(0.915514 0.00243508 -2.01052e-024)
(0.914864 0.00242328 -1.68791e-024)
(0.914178 0.00241501 1.22906e-024)
(0.913564 0.00241195 -1.00835e-024)
(0.912796 0.00241002 -8.91137e-025)
(0.912322 0.00243031 -2.09193e-025)
(0.911286 0.00243057 -8.56662e-025)
(1.00003 0.000497863 1.32981e-023)
(1.00025 0.00146688 0)
(1.00065 0.00226714 0)
(1.0011 0.00290661 0)
(1.00153 0.00340592 0)
(1.00193 0.00379566 0)
(1.00229 0.00409885 -3.6224e-023)
(1.00258 0.00433518 0)
(1.00283 0.00452616 0)
(1.00302 0.00468171 -3.89619e-023)
(1.00318 0.00480937 0)
(1.0033 0.00491611 0)
(1.00339 0.00500843 -4.01671e-023)
(1.00345 0.0050819 0)
(1.0035 0.0051361 -4.04729e-023)
(1.00352 0.00518453 -4.05371e-023)
(1.00352 0.00523194 -4.05465e-023)
(1.0035 0.00527366 -4.05178e-023)
(1.00347 0.00530478 -4.04779e-023)
(1.00342 0.00533219 -4.04143e-023)
(1.00336 0.0053585 -4.03149e-023)
(1.0033 0.00537476 -4.01806e-023)
(1.00322 0.00538626 0)
(1.00314 0.00539457 -3.98241e-023)
(1.00305 0.00540031 -3.9608e-023)
(1.00295 0.00540302 -3.93695e-023)
(1.00285 0.00540246 -3.91299e-023)
(1.00274 0.00539896 -3.88683e-023)
(1.00263 0.00539458 -7.70673e-023)
(1.00251 0.00538947 -3.82634e-023)
(1.00239 0.00538334 0)
(1.00227 0.00537589 -3.7595e-023)
(1.00214 0.00536773 -3.72299e-023)
(1.00201 0.00535934 -3.68475e-023)
(1.00188 0.00535049 -7.27843e-023)
(1.00174 0.00534176 -3.6036e-023)
(1.0016 0.00533291 -3.56084e-023)
(1.00146 0.00532369 -3.51714e-023)
(1.00132 0.00531401 -3.47235e-023)
(1.00117 0.00530378 0)
(1.00102 0.0052932 -6.74559e-023)
(1.00087 0.00528186 -3.33046e-023)
(1.00071 0.00526875 -3.28042e-023)
(1.00056 0.00525492 -3.22897e-023)
(1.0004 0.00524112 -3.17643e-023)
(1.00024 0.00522757 -3.12304e-023)
(1.00008 0.00521439 -6.12586e-023)
(0.999917 0.00520149 0)
(0.999751 0.0051886 -2.95756e-023)
(0.999583 0.00517559 -2.90085e-023)
(0.999412 0.00516255 -2.84373e-023)
(0.999239 0.00514962 -2.78628e-023)
(0.999064 0.00513663 -2.72838e-023)
(0.998887 0.00512326 -2.66989e-023)
(0.998707 0.00510938 -2.61079e-023)
(0.998526 0.00509518 -2.55105e-023)
(0.998342 0.00508096 0)
(0.998156 0.00506685 -2.43008e-023)
(0.997968 0.00505281 -2.36917e-023)
(0.997778 0.00503876 -2.30822e-023)
(0.997586 0.00502466 -2.2472e-023)
(0.997391 0.00501044 -2.18596e-023)
(0.997193 0.004996 -2.12448e-023)
(0.996993 0.00498134 -2.06286e-023)
(0.996791 0.00496663 0)
(0.996586 0.00495208 -1.94004e-023)
(0.996379 0.00493771 -1.87897e-023)
(0.996169 0.00492332 -1.81808e-023)
(0.995957 0.00490864 -1.75737e-023)
(0.995742 0.00489361 -1.6968e-023)
(0.995524 0.00487837 -1.63644e-023)
(0.995303 0.0048632 -1.57638e-023)
(0.99508 0.00484824 -1.51665e-023)
(0.994854 0.00483356 -1.45725e-023)
(0.994626 0.00481916 -1.3981e-023)
(0.994395 0.00480506 -1.33927e-023)
(0.994162 0.0047913 -1.28071e-023)
(0.993926 0.00477783 -1.22233e-023)
(0.993688 0.00476417 -1.16397e-023)
(0.993448 0.0047503 -1.1058e-023)
(0.993206 0.00473678 -1.04798e-023)
(0.992961 0.00472379 0)
(0.992715 0.00471129 -9.33e-024)
(0.992467 0.00469914 -1.3466e-025)
(0.992218 0.00468722 -1.3407e-025)
(0.991967 0.00467539 -7.62085e-024)
(0.991714 0.00466354 -7.05504e-024)
(0.99146 0.00465166 -6.49114e-024)
(0.991205 0.00463976 -5.9294e-024)
(0.990948 0.00462784 -5.36997e-024)
(0.990689 0.00461592 4.67788e-024)
(0.990429 0.00460399 -4.26041e-024)
(0.990167 0.00459207 -3.711e-024)
(0.989904 0.00458013 -3.16598e-024)
(0.98964 0.00456813 -2.62602e-024)
(0.989373 0.0045561 -2.09093e-024)
(0.989105 0.00454402 -1.39838e-025)
(0.988836 0.00453186 -1.0336e-024)
(0.988565 0.00451959 -5.11989e-025)
(0.988293 0.00450733 5.6795e-027)
(0.988019 0.0044951 5.18809e-025)
(0.987743 0.00448275 1.02465e-024)
(0.987466 0.00447018 -1.41526e-025)
(0.987186 0.00445749 2.01422e-024)
(0.986905 0.00444473 2.49875e-024)
(0.986622 0.00443189 2.97633e-024)
(0.986338 0.00441891 3.44637e-024)
(0.986051 0.00440581 3.90855e-024)
(0.985763 0.00439261 4.36271e-024)
(0.985473 0.00437929 -1.48374e-025)
(0.985181 0.00436582 5.24808e-024)
(0.984888 0.00435223 5.67956e-024)
(0.984592 0.00433856 6.10303e-024)
(0.984295 0.00432487 6.51789e-024)
(0.983996 0.00431116 6.92373e-024)
(0.983696 0.00429737 -1.53182e-025)
(0.983393 0.00428349 7.7079e-024)
(0.983088 0.00426951 8.08643e-024)
(0.982782 0.00425542 8.45569e-024)
(0.982474 0.00424122 8.81551e-024)
(0.982163 0.00422692 9.16569e-024)
(0.981851 0.00421257 -1.58884e-025)
(0.981537 0.00419816 9.83591e-024)
(0.98122 0.00418368 1.01562e-023)
(0.980902 0.00416908 1.04663e-023)
(0.980582 0.00415437 1.07657e-023)
(0.98026 0.00413959 1.10545e-023)
(0.979935 0.00412477 -1.64091e-025)
(0.979609 0.00410986 1.16005e-023)
(0.979281 0.00409486 1.1857e-023)
(0.97895 0.0040798 1.21023e-023)
(0.978618 0.00406468 1.23366e-023)
(0.978283 0.00404949 1.25598e-023)
(0.977946 0.00403423 -1.6917e-025)
(0.977608 0.00401892 1.2972e-023)
(0.977267 0.00400356 1.3161e-023)
(0.976924 0.00398811 1.33386e-023)
(0.976579 0.00397256 1.35042e-023)
(0.976231 0.00395697 1.36577e-023)
(0.975882 0.00394136 -1.73628e-025)
(0.97553 0.0039257 1.39283e-023)
(0.975177 0.00390998 1.40457e-023)
(0.974821 0.00389421 1.41514e-023)
(0.974463 0.00387838 1.42451e-023)
(0.974102 0.00386251 1.43268e-023)
(0.97374 0.00384658 1.43963e-023)
(0.973375 0.00383061 -1.77733e-025)
(0.973009 0.00381462 1.4498e-023)
(0.97264 0.0037986 1.45304e-023)
(0.972268 0.00378256 1.45504e-023)
(0.971895 0.00376648 1.45581e-023)
(0.971519 0.00375037 1.45533e-023)
(0.971142 0.00373422 -1.80987e-025)
(0.970762 0.00371802 1.45062e-023)
(0.97038 0.00370178 1.44639e-023)
(0.969995 0.00368551 1.44092e-023)
(0.969609 0.00366926 1.43419e-023)
(0.96922 0.00365304 1.42622e-023)
(0.968829 0.00363682 -1.83168e-025)
(0.968436 0.00362057 1.40651e-023)
(0.968041 0.00360429 1.39476e-023)
(0.967643 0.00358799 1.38176e-023)
(0.967244 0.00357169 1.36753e-023)
(0.966842 0.0035554 1.35203e-023)
(0.966438 0.00353912 -1.84958e-025)
(0.966032 0.00352282 1.31731e-023)
(0.965623 0.00350653 1.29808e-023)
(0.965213 0.00349027 1.27758e-023)
(0.9648 0.00347403 1.25584e-023)
(0.964385 0.00345781 1.23289e-023)
(0.963968 0.0034416 -1.8585e-025)
(0.963549 0.00342538 1.18333e-023)
(0.963128 0.00340918 1.15672e-023)
(0.962705 0.00339301 1.12889e-023)
(0.962279 0.00337689 1.09987e-023)
(0.961851 0.00336085 1.06965e-023)
(0.961422 0.00334484 1.03824e-023)
(0.96099 0.00332887 -1.84474e-025)
(0.960556 0.00331299 9.71815e-024)
(0.96012 0.00329719 9.36828e-024)
(0.959682 0.00328147 9.00677e-024)
(0.959242 0.00326582 8.63373e-024)
(0.9588 0.00325027 8.24946e-024)
(0.958356 0.00323485 -1.79746e-025)
(0.95791 0.00321963 7.44663e-024)
(0.957462 0.00320468 7.02768e-024)
(0.957011 0.00319005 6.59727e-024)
(0.956559 0.00317579 6.15583e-024)
(0.956105 0.00316193 5.70327e-024)
(0.955648 0.00314855 -1.61708e-025)
(0.95519 0.00313583 4.76474e-024)
(0.954729 0.00312403 4.28118e-024)
(0.954267 0.0031135 3.77905e-024)
(0.953798 0.00310428 3.28739e-024)
(0.953338 0.00309838 2.73949e-024)
(0.952851 0.00309248 -8.62114e-026)
(0.952414 0.00309478 1.65361e-024)
(0.951871 0.00309175 1.44911e-024)
(0.951532 0.00310787 5.04493e-025)
(0.950797 0.00309909 1.25516e-024)
(1.00001 0.000386971 -1.23376e-023)
(1.00016 0.00118387 0)
(1.00044 0.00190008 0)
(1.00078 0.002511 0)
(1.00114 0.00301892 0)
(1.00149 0.00343593 0)
(1.00181 0.00377609 2.55977e-023)
(1.0021 0.00405348 0)
(1.00235 0.0042831 -5.24228e-023)
(1.00257 0.00447672 2.76497e-023)
(1.00276 0.00464041 -5.49051e-023)
(1.00292 0.0047811 -5.58679e-023)
(1.00305 0.00490145 2.88885e-023)
(1.00317 0.00500411 0)
(1.00326 0.00508805 2.94057e-023)
(1.00333 0.00515922 2.96039e-023)
(1.00338 0.0052229 2.97623e-023)
(1.00342 0.00528213 2.98912e-023)
(1.00345 0.00532366 3.00097e-023)
(1.00347 0.00534949 3.01078e-023)
(1.00348 0.00537555 3.01758e-023)
(1.00349 0.00539853 3.02138e-023)
(1.00348 0.0054159 0)
(1.00347 0.00542948 3.02109e-023)
(1.00346 0.00544133 3.01739e-023)
(1.00344 0.0054519 3.01152e-023)
(1.00341 0.00545606 3.00512e-023)
(1.00338 0.00545992 2.99654e-023)
(1.00335 0.00546434 2.98506e-023)
(1.00332 0.00546527 2.97169e-023)
(1.00328 0.00546328 0)
(1.00325 0.00545923 2.94005e-023)
(1.0032 0.00545422 2.92113e-023)
(1.00316 0.00544707 2.90041e-023)
(1.00312 0.00543944 2.87813e-023)
(1.00307 0.0054321 2.85397e-023)
(1.00302 0.00542522 2.82838e-023)
(1.00297 0.00541779 2.80163e-023)
(1.00292 0.00541042 2.77361e-023)
(1.00286 0.00540125 0)
(1.0028 0.00539013 2.71346e-023)
(1.00275 0.00537961 2.68117e-023)
(1.00269 0.00536878 2.64742e-023)
(1.00263 0.00535794 2.61215e-023)
(1.00256 0.00534721 2.57564e-023)
(1.0025 0.00533696 2.53811e-023)
(1.00243 0.00532672 2.49951e-023)
(1.00237 0.00531651 0)
(1.0023 0.00530584 2.41919e-023)
(1.00223 0.00529503 2.37766e-023)
(1.00215 0.00528421 2.33548e-023)