/*--------------------------------*- C++ -*----------------------------------*\
| =========                 |                                                 |
| \\      /  F ield         | OpenFOAM: The Open Source CFD Toolbox           |
|  \\    /   O peration     | Version:  5.x                                   |
|   \\  /    A nd           | Web:      www.OpenFOAM.org                      |
|    \\/     M anipulation  |                                                 |
\*---------------------------------------------------------------------------*/
/*   Windows 32 and 64 bit porting by blueCAPE: http://www.bluecape.com.pt   *\
|  Based on Windows porting (2.0.x v4) by Symscape: http://www.symscape.com   |
\*---------------------------------------------------------------------------*/
FoamFile
{
    version     2.0;
    format      ascii;
    class       volScalarField;
    location    "2701";
    object      yPlus;
}
// * * * * * * * * * * * * * * * * * * * * * * * * * * * * * * * * * * * * * //

dimensions      [0 0 0 0 0 0 0];

internalField   uniform 0;

boundaryField
{
    walls
    {
        type            calculated;
        value           nonuniform List<scalar> 
400
(
8.96236
8.63398
8.32521
8.03332
7.75656
7.49361
7.24343
7.00513
6.77793
6.56117
6.35426
6.15662
5.96779
5.78729
5.61471
5.44965
5.29176
5.1407
4.99615
4.85782
4.72543
4.5987
4.47739
4.36128
4.25012
4.14372
4.04187
3.94436
3.85105
3.76172
3.67622
3.5944
3.5161
3.44118
3.36949
3.30091
3.2353
3.17255
3.11254
3.05515
3.00028
2.94783
2.8977
2.84979
2.80402
2.76028
2.71847
2.6785
2.64032
2.60385
2.56904
2.53582
2.50413
2.47392
2.44513
2.41771
2.39161
2.36678
2.34318
2.32075
2.29947
2.27929
2.26016
2.24207
2.22496
2.2088
2.19357
2.17924
2.16577
2.15314
2.14133
2.1303
2.12004
2.11052
2.10172
2.09362
2.08621
2.07946
2.07317
2.06693
2.06078
2.05475
2.04885
2.04311
2.03754
2.03214
2.02694
2.02194
2.01714
2.01254
2.00816
2.00399
2.00004
1.99631
1.99279
1.98949
1.9864
1.98352
1.98086
1.97841
1.97616
1.97412
1.97229
1.97065
1.96921
1.96797
1.96691
1.96604
1.96536
1.96485
1.96453
1.96437
1.96439
1.96458
1.96493
1.96544
1.96612
1.96694
1.96793
1.96906
1.97035
1.97178
1.97335
1.97507
1.97693
1.97892
1.98105
1.98332
1.98572
1.98824
1.9909
1.99368
1.99658
1.99961
2.00276
2.00603
2.00942
2.01292
2.01654
2.02027
2.02412
2.02807
2.03213
2.0363
2.04058
2.04496
2.04945
2.05404
2.05873
2.06352
2.0684
2.07339
2.07847
2.08364
2.08891
2.09427
2.09973
2.10527
2.1109
2.11662
2.12243
2.12832
2.13429
2.14035
2.14649
2.15272
2.15902
2.1654
2.17187
2.17841
2.18502
2.19171
2.19848
2.20531
2.21222
2.21921
2.22626
2.23338
2.24057
2.24783
2.25516
2.26255
2.27001
2.27753
2.28512
2.29277
2.30048
2.30825
2.31608
2.32397
2.33192
2.33992
2.34798
2.35609
2.36425
2.37248
2.38073
2.38904
2.39739
2.4056
8.87956
8.55722
8.25102
7.96004
7.68331
7.41994
7.1691
6.93005
6.70214
6.48474
6.27732
6.07936
5.89037
5.70991
5.53758
5.373
5.21581
5.06564
4.9222
4.78518
4.65429
4.52925
4.40981
4.29573
4.18677
4.08272
3.98335
3.88845
3.79785
3.71136
3.62879
3.54997
3.47476
3.40299
3.33452
3.26919
3.20688
3.14746
3.0908
3.03678
2.9853
2.93623
2.88948
2.84493
2.80245
2.76196
2.7234
2.68667
2.65171
2.61845
2.58682
2.55676
2.52819
2.50107
2.47534
2.45094
2.42782
2.40593
2.38523
2.36567
2.34721
2.32981
2.31343
2.29803
2.28358
2.27004
2.25739
2.2456
2.23463
2.22446
2.21507
2.20643
2.19851
2.19104
2.18367
2.17643
2.16936
2.16246
2.15575
2.14925
2.14296
2.13689
2.13105
2.12543
2.12005
2.1149
2.10998
2.10529
2.10083
2.09661
2.09261
2.08884
2.08528
2.08196
2.07884
2.07594
2.07325
2.07077
2.06849
2.06641
2.06453
2.06284
2.06135
2.06004
2.05891
2.05797
2.0572
2.05661
2.05619
2.05594
2.05586
2.05593
2.05618
2.05657
2.05713
2.05783
2.05869
2.0597
2.06085
2.06214
2.06358
2.06515
2.06686
2.06871
2.07069
2.0728
2.07504
2.07741
2.0799
2.08251
2.08525
2.0881
2.09108
2.09417
2.09737
2.10069
2.10412
2.10766
2.11131
2.11507
2.11893
2.12289
2.12696
2.13113
2.1354
2.13976
2.14423
2.14879
2.15344
2.15818
2.16302
2.16795
2.17297
2.17807
2.18326
2.18853
2.1939
2.19934
2.20486
2.21046
2.21615
2.22191
2.22774
2.23366
2.23964
2.2457
2.25184
2.25804
2.26432
2.27066
2.27707
2.28355
2.29009
2.2967
2.30337
2.31011
2.3169
2.32376
2.33068
2.33766
2.34469
2.35179
2.35893
2.36614
2.3734
2.38071
2.38807
2.39549
2.40295
2.41047
2.41803
2.42564
2.43328
2.44097
2.44869
2.45645
2.46424
2.47205
2.47991
2.48728
)
;
    }
    inlet
    {
        type            calculated;
        value           uniform 0;
    }
    outlet
    {
        type            calculated;
        value           uniform 0;
    }
    frontAndBack
    {
        type            empty;
    }
}


// ************************************************************************* //
