# vtk DataFile Version 2.0
track0
ASCII
DATASET POLYDATA
POINTS 11930 float
-0.0205 0.001 1e-005
-0.020385 0.00100536 1.50247e-005
-0.0202701 0.00101047 1.96648e-005
-0.0201551 0.00101535 2.3973e-005
-0.02004 0.00102 2.79445e-005
-0.0198623 0.00102682 3.35538e-005
-0.0196933 0.00103276 3.80996e-005
-0.0195242 0.00103809 4.1614e-005
-0.0193551 0.00104281 4.41062e-005
-0.019186 0.00104692 4.55852e-005
-0.0190172 0.00105041 4.60596e-005
-0.0187132 0.00105592 4.60596e-005
-0.0184093 0.00106078 4.60596e-005
-0.0181054 0.00106511 4.60596e-005
-0.0178014 0.00106892 4.60596e-005
-0.0174976 0.00107221 4.60596e-005
-0.0172058 0.00107507 4.60596e-005
-0.016914 0.00107786 4.60596e-005
-0.0166222 0.00108058 4.60596e-005
-0.0163305 0.00108323 4.60596e-005
-0.0160387 0.00108582 4.60596e-005
-0.0157586 0.00108822 4.60596e-005
-0.0154784 0.00109054 4.60596e-005
-0.0151983 0.00109279 4.60596e-005
-0.0149182 0.00109495 4.60596e-005
-0.0146381 0.00109704 4.60596e-005
-0.0143692 0.00109891 4.60596e-005
-0.0141002 0.00110069 4.60596e-005
-0.0138313 0.00110239 4.60596e-005
-0.0135624 0.00110401 4.60596e-005
-0.0132934 0.00110556 4.60596e-005
-0.0130353 0.00110697 4.60596e-005
-0.0127771 0.00110832 4.60596e-005
-0.0125189 0.00110963 4.60596e-005
-0.0122607 0.00111091 4.60596e-005
-0.0120025 0.00111215 4.60596e-005
-0.0117547 0.00111331 4.60596e-005
-0.0115068 0.00111445 4.60596e-005
-0.0112589 0.00111557 4.60596e-005
-0.0110111 0.00111667 4.60596e-005
-0.0107632 0.00111777 4.60596e-005
-0.0105252 0.0011188 4.60596e-005
-0.0102873 0.00111981 4.60596e-005
-0.0100493 0.00112081 4.60596e-005
-0.00981133 0.0011218 4.60596e-005
-0.00957337 0.00112278 4.60596e-005
-0.00934491 0.0011237 4.60596e-005
-0.00911645 0.00112461 4.60596e-005
-0.00888799 0.00112551 4.60596e-005
-0.00865954 0.00112641 4.60596e-005
-0.00843108 0.00112729 4.60596e-005
-0.00821175 0.00112813 4.60596e-005
-0.00799242 0.00112896 4.60596e-005
-0.00777309 0.00112978 4.60596e-005
-0.00755376 0.0011306 4.60596e-005
-0.00733443 0.00113141 4.60596e-005
-0.00712387 0.00113218 4.60596e-005
-0.0069133 0.00113295 4.60596e-005
-0.00670273 0.00113372 4.60596e-005
-0.00649216 0.00113448 4.60596e-005
-0.0062816 0.00113524 4.60596e-005
-0.00607944 0.00113596 4.60596e-005
-0.00587729 0.00113669 4.60596e-005
-0.00567514 0.0011374 4.60596e-005
-0.00547298 0.00113812 4.60596e-005
-0.00527083 0.00113884 4.60596e-005
-0.00507675 0.00113953 4.60596e-005
-0.00488267 0.00114022 4.60596e-005
-0.0046886 0.0011409 4.60596e-005
-0.00449452 0.00114158 4.60596e-005
-0.00430044 0.00114227 4.60596e-005
-0.00411412 0.00114293 4.60596e-005
-0.0039278 0.00114359 4.60596e-005
-0.00374147 0.00114424 4.60596e-005
-0.00355515 0.0011449 4.60596e-005
-0.00336883 0.00114555 4.60596e-005
-0.00318995 0.00114619 4.60596e-005
-0.00301107 0.00114682 4.60596e-005
-0.00283219 0.00114745 4.60596e-005
-0.00265331 0.00114808 4.60596e-005
-0.00247443 0.00114872 4.60596e-005
-0.0023027 0.00114933 4.60596e-005
-0.00213097 0.00114994 4.60596e-005
-0.00195924 0.00115055 4.60596e-005
-0.0017875 0.00115117 4.60596e-005
-0.00161577 0.00115179 4.60596e-005
-0.0014509 0.00115239 4.60596e-005
-0.00128603 0.00115299 4.60596e-005
-0.00112116 0.00115358 4.60596e-005
-0.000956289 0.00115418 4.60596e-005
-0.000791418 0.00115479 4.60596e-005
-0.000633135 0.00115539 4.60596e-005
-0.000474851 0.00115598 4.60596e-005
-0.000316567 0.00115657 4.60596e-005
-0.000158284 0.00115716 4.60596e-005
0 0.00115776 4.60596e-005
0.000105677 0.00115817 4.60596e-005
0.000211355 0.00115858 4.60596e-005
0.000317032 0.00115898 4.60596e-005
0.00042271 0.00115939 4.60596e-005
0.000528387 0.00115981 4.60596e-005
0.000634886 0.00116024 4.60596e-005
0.000741385 0.00116067 4.60596e-005
0.000847885 0.0011611 4.60596e-005
0.000954384 0.00116153 4.60596e-005
0.00106088 0.00116197 4.60596e-005
0.00116821 0.00116243 4.60596e-005
0.00127554 0.00116289 4.60596e-005
0.00138286 0.00116334 4.60596e-005
0.00149019 0.0011638 4.60596e-005
0.00159752 0.00116427 4.60596e-005
0.00170568 0.00116475 4.60596e-005
0.00181384 0.00116523 4.60596e-005
0.001922 0.00116571 4.60596e-005
0.00203016 0.00116619 4.60596e-005
0.00213833 0.00116667 4.60596e-005
0.00224733 0.00116716 4.60596e-005
0.00235633 0.00116766 4.60596e-005
0.00246533 0.00116815 4.60596e-005
0.00257434 0.00116865 4.60596e-005
0.00268334 0.00116914 4.60596e-005
0.00279319 0.00116964 4.60596e-005
0.00290304 0.00117014 4.60596e-005
0.00301289 0.00117065 4.60596e-005
0.00312274 0.00117116 4.60596e-005
0.00323259 0.00117166 4.60596e-005
0.00334329 0.00117217 4.60596e-005
0.003454 0.00117268 4.60596e-005
0.0035647 0.00117321 4.60596e-005
0.0036754 0.00117373 4.60596e-005
0.00378611 0.00117424 4.60596e-005
0.00389767 0.00117475 4.60596e-005
0.00400924 0.00117528 4.60596e-005
0.0041208 0.00117581 4.60596e-005
0.00423237 0.00117634 4.60596e-005
0.00434393 0.00117687 4.60596e-005
0.00445636 0.00117738 4.60596e-005
0.00456879 0.00117791 4.60596e-005
0.00468123 0.00117845 4.60596e-005
0.00479366 0.00117899 4.60596e-005
0.00490609 0.00117952 4.60596e-005
0.0050194 0.00118003 4.60596e-005
0.0051327 0.00118057 4.60596e-005
0.00524601 0.00118111 4.60596e-005
0.00535931 0.00118165 4.60596e-005
0.00547262 0.00118219 4.60596e-005
0.00558681 0.00118271 4.60596e-005
0.005701 0.00118325 4.60596e-005
0.00581518 0.00118379 4.60596e-005
0.00592937 0.00118433 4.60596e-005
0.00604356 0.00118487 4.60596e-005
0.00615863 0.00118539 4.60596e-005
0.00627371 0.00118593 4.60596e-005
0.00638878 0.00118648 4.60596e-005
0.00650386 0.00118702 4.60596e-005
0.00661893 0.00118756 4.60596e-005
0.0067349 0.00118808 4.60596e-005
0.00685087 0.00118862 4.60596e-005
0.00696684 0.00118916 4.60596e-005
0.00708281 0.0011897 4.60596e-005
0.00719878 0.00119024 4.60596e-005
0.00731565 0.00119076 4.60596e-005
0.00743252 0.00119129 4.60596e-005
0.00754939 0.00119183 4.60596e-005
0.00766626 0.00119236 4.60596e-005
0.00778313 0.0011929 4.60596e-005
0.00790091 0.00119342 4.60596e-005
0.00801869 0.00119395 4.60596e-005
0.00813647 0.00119448 4.60596e-005
0.00825425 0.00119501 4.60596e-005
0.00837203 0.00119553 4.60596e-005
0.00849073 0.00119605 4.60596e-005
0.00860942 0.00119658 4.60596e-005
0.00872812 0.0011971 4.60596e-005
0.00884682 0.00119762 4.60596e-005
0.00896551 0.00119814 4.60596e-005
0.00908513 0.00119865 4.60596e-005
0.00920475 0.00119917 4.60596e-005
0.00932437 0.00119969 4.60596e-005
0.00944398 0.0012002 4.60596e-005
0.0095636 0.00120072 4.60596e-005
0.00968415 0.00120122 4.60596e-005
0.0098047 0.00120173 4.60596e-005
0.00992525 0.00120224 4.60596e-005
0.0100458 0.00120275 4.60596e-005
0.0101663 0.00120325 4.60596e-005
0.0102878 0.00120375 4.60596e-005
0.0104093 0.00120426 4.60596e-005
0.0105308 0.00120476 4.60596e-005
0.0106523 0.00120525 4.60596e-005
0.0107738 0.00120575 4.60596e-005
0.0108962 0.00120624 4.60596e-005
0.0110186 0.00120673 4.60596e-005
0.0111411 0.00120722 4.60596e-005
0.0112635 0.00120771 4.60596e-005
0.0113859 0.0012082 4.60596e-005
0.0115093 0.00120868 4.60596e-005
0.0116327 0.00120916 4.60596e-005
0.0117561 0.00120964 4.60596e-005
0.0118795 0.00121012 4.60596e-005
0.0120028 0.0012106 4.60596e-005
0.0121272 0.00121107 4.60596e-005
0.0122515 0.00121154 4.60596e-005
0.0123759 0.00121201 4.60596e-005
0.0125002 0.00121248 4.60596e-005
0.0126245 0.00121294 4.60596e-005
0.0127498 0.0012134 4.60596e-005
0.0128752 0.00121386 4.60596e-005
0.0130005 0.00121432 4.60596e-005
0.0131258 0.00121478 4.60596e-005
0.0132511 0.00121523 4.60596e-005
0.0133774 0.00121567 4.60596e-005
0.0135036 0.00121612 4.60596e-005
0.0136299 0.00121657 4.60596e-005
0.0137562 0.00121701 4.60596e-005
0.0138825 0.00121744 4.60596e-005
0.0140098 0.00121787 4.60596e-005
0.014137 0.00121831 4.60596e-005
0.0142643 0.00121874 4.60596e-005
0.0143915 0.00121916 4.60596e-005
0.0145188 0.00121958 4.60596e-005
0.0146471 0.00121999 4.60596e-005
0.0147753 0.00122041 4.60596e-005
0.0149036 0.00122082 4.60596e-005
0.0150318 0.00122123 4.60596e-005
0.0151601 0.00122163 4.60596e-005
0.0152893 0.00122202 4.60596e-005
0.0154186 0.00122242 4.60596e-005
0.0155478 0.00122281 4.60596e-005
0.0156771 0.0012232 4.60596e-005
0.0158063 0.00122358 4.60596e-005
0.0159366 0.00122395 4.60596e-005
0.0160668 0.00122433 4.60596e-005
0.0161971 0.00122469 4.60596e-005
0.0163274 0.00122506 4.60596e-005
0.0164576 0.00122541 4.60596e-005
0.0165889 0.00122576 4.60596e-005
0.0167201 0.00122611 4.60596e-005
0.0168514 0.00122646 4.60596e-005
0.0169827 0.00122679 4.60596e-005
0.0171139 0.00122712 4.60596e-005
0.0172085 0.00122735 4.60596e-005
0.0173031 0.00122759 4.60596e-005
0.0173976 0.00122781 4.60596e-005
0.0174922 0.00122804 4.60596e-005
0.0175838 0.00122825 4.60596e-005
0.0176221 0.00122834 4.60596e-005
0.0176604 0.00122842 4.60596e-005
0.0176987 0.00122851 4.60596e-005
0.0177371 0.0012286 4.60596e-005
0.0177754 0.00122868 4.60596e-005
0.0179087 0.00122898 4.60596e-005
0.018042 0.00122927 4.60596e-005
0.0181753 0.00122955 4.60596e-005
0.0183087 0.00122982 4.60596e-005
0.018442 0.00123009 4.60596e-005
0.0185763 0.00123035 4.60596e-005
0.0187107 0.00123061 4.60596e-005
0.018845 0.00123085 4.60596e-005
0.0189794 0.00123109 4.60596e-005
0.0191137 0.00123132 4.60596e-005
0.0192491 0.00123154 4.60596e-005
0.0193845 0.00123176 4.60596e-005
0.0195199 0.00123196 4.60596e-005
0.0196553 0.00123216 4.60596e-005
0.0197907 0.00123235 4.60596e-005
0.0199272 0.00123253 4.60596e-005
0.0200636 0.00123271 4.60596e-005
0.0202001 0.00123287 4.60596e-005
0.0203365 0.00123303 4.60596e-005
0.020473 0.00123317 4.60596e-005
0.0206105 0.00123331 4.60596e-005
0.020748 0.00123344 4.60596e-005
0.0208855 0.00123355 4.60596e-005
0.021023 0.00123366 4.60596e-005
0.0211606 0.00123376 4.60596e-005
0.0212991 0.00123385 4.60596e-005
0.0214377 0.00123393 4.60596e-005
0.0215763 0.001234 4.60596e-005
0.0217149 0.00123406 4.60596e-005
0.0218535 0.00123411 4.60596e-005
0.0219931 0.00123415 4.60596e-005
0.0221328 0.00123417 4.60596e-005
0.0222724 0.00123419 4.60596e-005
0.0224121 0.0012342 4.60596e-005
0.0225517 0.00123419 4.60596e-005
[...]
POINT_DATA 11930
 FIELD attributes 2
p 1 11930 float
-1547.55 -1534.95 -1521.15 -1507.49 -1493.98 -1473.35 -1458.69 -1443.95 -1429.14 -1414.25 -1393.49 -1345.35 -1297.3 -1249.31 -1201.39 -1158.92 -1127.29 -1101.84 -1076.4 -1050.97 -1034.16 -1022.4 -1012.91 -1003.42 -993.942 -986.302 -979.509 -971.582 -963.656 -955.728 -946.68 -938.202 -929.556 -920.906 -912.275 -903.889 -895.922 -888.749 -881.667 -874.739 -868.735 -862.974 -857.791 -852.73 -847.824 -843.514 -839.364 -835.437 -831.58 -827.813 -824.293 -820.9 -817.634 -814.421 -811.28 -808.296 -805.412 -802.65 -799.952 -797.336 -794.858 -792.455 -790.159 -787.934 -785.79 -783.762 -781.783 -779.884 -778.046 -776.28 -774.598 -772.94 -771.341 -769.798 -768.32 -766.908 -765.49 -764.118 -762.796 -761.537 -760.331 -759.092 -757.895 -756.752 -755.68 -754.659 -753.576 -752.521 -751.51 -750.573 -749.683 -748.704 -747.775 -746.935 -746.215 -745.558 -744.821 -744.146 -743.585 -743.165 -742.829 -742.312 -741.838 -741.424 -741.109 -740.867 -740.434 -740.108 -739.904 -739.823 -739.857 -739.698 -739.627 -739.638 -739.717 -739.878 -739.984 -740.081 -740.17 -740.253 -740.324 -740.597 -740.767 -740.876 -740.926 -740.864 -741.251 -741.469 -741.607 -741.661 -741.513 -741.981 -742.229 -742.396 -742.475 -742.278 -742.773 -743.005 -743.165 -743.249 -743.008 -743.462 -743.638 -743.76 -743.83 -743.569 -743.946 -744.073 -744.169 -744.238 -744.01 -744.311 -744.412 -744.501 -744.581 -744.419 -744.647 -744.725 -744.803 -744.88 -744.787 -744.937 -744.997 -745.057 -745.117 -745.083 -745.174 -745.225 -745.276 -745.328 -745.346 -745.404 -745.458 -745.512 -745.566 -745.624 -745.67 -745.728 -745.786 -745.844 -745.926 -745.972 -746.034 -746.096 -746.157 -746.249 -746.308 -746.375 -746.443 -746.51 -746.603 -746.682 -746.759 -746.836 -746.913 -747.002 -747.108 -747.198 -747.288 -747.377 -747.464 -747.598 -747.701 -747.805 -747.909 -747.995 -748.152 -748.269 -748.386 -748.503 -748.59 -748.766 -748.895 -749.024 -749.153 -749.246 -749.436 -749.577 -749.718 -749.86 -749.963 -750.162 -750.317 -750.471 -750.625 -750.744 -750.949 -751.115 -751.282 -751.448 -751.586 -751.796 -751.978 -752.159 -752.34 -752.503 -752.719 -752.917 -753.115 -753.314 -753.504 -753.663 -753.815 -753.967 -754.119 -754.266 -754.328 -754.389 -754.451 -754.512 -754.584 -754.8 -755.025 -755.25 -755.475 -755.744 -755.943 -756.181 -756.42 -756.658 -756.972 -757.159 -757.41 -757.661 -757.913 -758.264 -758.444 -758.708 -758.972 -759.236 -759.617 -759.797 -760.073 -760.348 -760.624 -761.027 -761.214 -761.502 -761.789 -762.077 -762.491 -762.694 -762.993 -763.291 -763.589 -764.007 -764.232 -764.541 -764.849 -765.158 -765.569 -765.822 -766.14 -766.458 -766.776 -767.173 -767.46 -767.787 -768.114 -768.441 -768.816 -769.14 -769.475 -769.81 -770.144 -770.494 -770.856 -771.198 -771.54 -771.882 -772.204 -772.602 -772.953 -773.302 -773.646 -773.944 -774.371 -774.738 -775.094 -775.434 -775.716 -776.164 -776.55 -776.912 -777.246 -777.516 -777.981 -778.386 -778.755 -779.08 -779.346 -779.821 -780.246 -780.623 -780.942 -781.208 -781.694 -782.14 -782.525 -782.835 -783.104 -783.598 -784.063 -784.454 -784.754 -785.025 -785.521 -786.002 -786.396 -786.685 -786.959 -787.451 -787.941 -788.335 -788.616 -788.897 -789.381 -789.866 -790.256 -790.547 -790.838 -791.311 -791.785 -792.175 -792.478 -792.782 -793.242 -793.702 -794.091 -794.408 -794.725 -795.171 -795.616 -796.004 -796.334 -796.664 -797.095 -797.525 -797.912 -798.253 -798.594 -799.01 -799.426 -799.809 -800.161 -800.512 -800.913 -801.315 -801.694 -802.053 -802.412 -802.799 -803.186 -803.561 -803.926 -804.289 -804.663 -805.035 -805.405 -805.772 -806.138 -806.497 -806.858 -807.221 -807.585 -807.95 -808.296 -808.646 -809.001 -809.359 -809.72 -810.052 -810.392 -810.737 -811.086 -811.44 -811.758 -812.088 -812.422 -812.758 -813.102 -813.406 -813.725 -814.045 -814.366 -814.698 -814.987 -815.291 -815.596 -815.901 -816.215 -816.488 -816.774 -817.061 -817.347 -817.643 -817.897 -818.164 -818.431 -818.698 -818.973 -819.208 -819.453 -819.699 -819.945 -820.197 -820.412 -820.635 -820.858 -821.082 -821.308 -821.503 -821.701 -821.9 -822.098 -822.297 -822.306 -822.315 -822.324 -822.333 -822.342 -822.505 -822.669 -822.832 -822.995 -823.157 -823.301 -823.442 -823.583 -823.724 -823.861 -823.975 -824.083 -824.19 -824.298 -824.399 -824.481 -824.553 -824.625 -824.697 -824.759 -824.809 -824.842 -824.876 -824.91 -824.929 -824.944 -824.937 -824.93 -824.921 -824.896 -824.87 -824.824 -824.774 -824.717 -824.647 -824.576 -824.491 -824.394 -824.287 -824.169 -824.051 -823.924 -823.779 -823.617 -823.449 -823.282 -823.112 -822.916 -822.696 -822.475 -822.256 -822.037 -821.787 -821.511 -821.235 -820.961 -820.688 -820.384 -820.051 -819.717 -819.387 -819.056 -818.695 -818.303 -817.91 -817.52 -817.13 -816.71 -816.255 -815.801 -815.348 -814.894 -814.409 -813.897 -813.379 -812.863 -812.335 -811.786 -811.217 -810.633 -810.052 -809.449 -808.833 -808.207 -807.556 -806.906 -806.227 -805.542 -804.857 -804.137 -803.414 -802.658 -801.902 -801.147 -800.367 -799.561 -798.733 -797.905 -797.077 -796.236 -795.346 -794.443 -793.541 -792.638 -791.734 -791.541 -791.346 -791.151 -790.956 -790.764 -789.984 -789.205 -788.426 -787.647 -786.856 -785.818 -784.769 -783.72 -782.671 -781.594 -780.494 -779.367 -778.24 -777.113 -775.942 -774.78 -773.573 -772.368 -771.153 -769.894 -768.653 -767.382 -766.097 -764.784 -763.444 -762.122 -760.788 -759.421 -758.008 -756.586 -755.182 -753.779 -752.326 -750.82 -749.314 -747.827 -746.34 -744.803 -743.213 -741.623 -740.051 -738.481 -736.856 -735.181 -733.506 -731.849 -730.18 -728.465 -726.719 -724.957 -723.214 -721.437 -719.634 -717.82 -715.971 -714.141 -712.252 -710.361 -708.47 -706.542 -704.602 -702.621 -700.64 -698.659 -696.663 -695.176 -693.671 -692.166 -690.661 -689.225 -688.648 -688.072 -687.495 -686.918 -686.334 -684.19 -682.04 -679.89 -677.741 -675.558 -673.344 -671.102 -668.861 -666.62 -664.317 -662.025 -659.701 -657.367 -655.004 -652.608 -650.223 -647.83 -645.403 -642.917 -640.427 -637.949 -635.471 -632.941 -630.357 -627.772 -625.2 -622.629 -619.998 -617.32 -614.641 -611.975 -609.283 -606.552 -603.806 -601.033 -598.273 -595.452 -592.626 -589.801 -586.946 -584.063 -581.143 -578.223 -575.304 -572.383 -572.22 -572.056 -571.892 -571.728 -571.564 -568.721 -565.879 -563.037 -560.195 -557.33 -554.247 -551.148 -548.05 -544.951 -541.806 -538.64 -535.458 -532.269 -529.053 -525.816 -522.56 -519.304 -516.019 -512.693 -509.367 -506.02 -502.675 -499.291 -495.877 -492.463 -489.029 -485.581 -482.103 -478.615 -475.115 -471.595 -468.036 -464.472 -460.909 -457.332 -454.402 -451.451 -448.5 -445.55 -442.733 -442.013 -441.292 -440.571 -439.85 -439.123 -435.406 -431.685 -427.966 -424.246 -420.492 -416.713 -412.915 -409.117 -405.304 -401.461 -397.605 -393.747 -389.874 -385.959 -382.042 -378.113 -374.184 -370.224 -366.238 -362.252 -358.251 -354.24 -350.202 -346.158 -342.105 -338.037 -333.934 -329.831 -325.728 -321.618 -319.632 -317.635 -315.638 -313.641 -311.694 -309.517 -307.342 -305.166 -302.99 -300.801 -296.586 -292.366 -288.147 -283.926 -279.67 -275.405 -271.135 -266.861 -262.562 -258.253 -253.935 -249.617 -245.28 -240.925 -236.568 -232.2 -227.827 -223.432 -219.034 -214.632 -210.219 -205.782 -201.344 -196.907 -192.467 -190.721 -188.969 -187.216 -185.464 -183.745 -181.014 -178.283 -175.553 -172.823 -170.08 -165.57 -161.059 -156.548 -152.032 -147.497 -142.955 -138.413 -133.871 -129.309 -124.745 -120.173 -115.602 -111.017 -106.429 -101.838 -97.2394 -92.6331 -88.0215 -83.4103 -78.7995 -75.3774 -71.9504 -68.5238 -65.0974 -61.7827 -60.5584 -59.334 -58.1098 -56.8855 -55.6587 -51.0127 -46.3684 -41.7246 -37.0809 -32.4242 -27.7625 -23.1038 -18.4483 -13.7854 -9.11926 -4.44747 0.223728 4.89686 9.56527 14.2359 18.9128 23.5906 28.2689 32.9468 37.6192 40.6346 43.6496 46.6645 49.6791 52.6154 54.2963 55.9771 57.6579 59.3387 61.0203 65.7061 70.3868 75.067 79.7467 84.428 89.113 93.7957 98.4684 103.138 107.81 112.485 117.16 121.83 126.489 131.148 135.812 140.468 145.122 149.776 154.429 155.327 156.224 157.121 158.017 158.907 162.658 166.409 170.16 173.91 177.655 182.298 186.929 191.557 196.177 200.797 205.417 210.038 214.646 219.238 223.833 228.429 233.017 237.597 242.178 246.75 248.809 250.86 252.911 254.963 256.983 259.498 262.013 264.527 267.042 269.55 274.099 278.634 283.169 287.696 292.217 296.735 301.253 305.754 310.238 314.725 319.208 323.682 328.145 332.608 337.061 339.08 341.089 343.098 345.107 347.088 349.519 351.951 354.382 356.813 359.234 363.651 368.054 372.456 376.845 381.228 385.605 389.982 394.34 398.678 403.018 407.352 411.67 415.979 420.289 424.593 425.596 426.593 427.589 428.585 429.576 432.859 436.143 439.426 442.708 445.975 450.226 454.468 458.704 462.918 467.132 471.334 475.536 479.714 483.881 488.045 491.427 494.79 498.151 501.511 504.81 505.591 506.373 507.155 507.936 508.713 512.813 516.908 521.002 525.088 529.158 533.214 537.269 541.303 545.316 549.332 553.331 557.313 561.284 565.256 569.222 570.021 570.816 571.609 572.402 573.193 576.332 579.471 582.61 585.745 588.861 592.754 596.643 600.515 604.361 608.207 612.037 615.856 619.654 623.452 627.235 628.633 630.022 631.408 632.794 634.175 636.538 638.901 641.264 643.623 645.965 649.674 653.373 657.061 660.714 664.367 668.003 671.629 675.223 678.817 682.386 683.872 685.348 686.821 688.293 689.773 691.835 693.898 695.961 698.02 700.065 703.565 707.035 710.48 713.839 717.192 720.526 723.889 727.366 730.847 734.383 735.938 737.199 738.369 739.539 740.734 742.451 744.168 745.884 747.495 748.745 750.959 753.756 756.842 761.441 766.205 770.853 774.864 777.299 779.738 781.863 782.006 782.181 782.407 782.632 782.859 784.69 786.522 788.356 790.685 793.337 796.279 799.209 802.004 804.799 807.533 808.053 808.562 809.052 809.541 810.039 812.256 814.471 816.685 818.827 820.924 823.523 826.12 828.621 831.107 833.54 834.142 834.73 835.292 835.854 836.435 838.265 840.092 841.918 843.673 845.383 847.645 849.903 851.999 854.015 855.98 856.648 857.285 857.872 858.458 859.081 860.324 861.564 862.801 863.956 865.047 866.67 868.286 869.703 870.913 872.112 872.766 873.333 873.797 874.26 874.783 875.204 875.624 876.041 876.402 876.698 877.322 877.831 878.231 878.285 878.329 878.238 877.945 877.418 876.883 876.253 876.126 875.956 875.762 875.568 875.366 874.419 873.46 872.489 871.386 870 868.176 866.34 864.063 861.376 858.676 855.717 852.37 848.765 845.152 841.36 840.417 839.351 838.265 837.179 836.015 832.424 828.822 825.21 821.548 817.449 811.776 805.799 799.555 792.571 785.479 777.918 770.344 762.198 753.568 744.88 735.669 725.291 714.614 703.935 692.749 687.993 683.229 678.463 673.696 668.275 660.858 653.436 646.01 638.58 631.109 617.262 601.552 585.811 569.124 549.792 529.487 509.785 492.224 478.237 464.326 449.666 435.008 407.547 367.754 327.927 286.305 253.385 236.978 228.364 231.279 234.004 177.455 120.074 62.3998 0