/*--------------------------------*- C++ -*----------------------------------*\
| =========                 |                                                 |
| \\      /  F ield         | OpenFOAM: The Open Source CFD Toolbox           |
|  \\    /   O peration     | Version:  5.x                                   |
|   \\  /    A nd           | Web:      www.OpenFOAM.org                      |
|    \\/     M anipulation  |                                                 |
\*---------------------------------------------------------------------------*/
/*   Windows 32 and 64 bit porting by blueCAPE: http://www.bluecape.com.pt   *\
|  Based on Windows porting (2.0.x v4) by Symscape: http://www.symscape.com   |
\*---------------------------------------------------------------------------*/
FoamFile
{
    version     2.0;
    format      ascii;
    class       volScalarField;
    location    "0.03";
    object      p;
}
// * * * * * * * * * * * * * * * * * * * * * * * * * * * * * * * * * * * * * //

dimensions      [0 2 -2 0 0 0 0];

internalField   nonuniform List<scalar> 
750
(
0.46074762
0.46002155
0.46032192
0.45963184
0.45958622
0.45900411
0.45866327
0.45813785
0.4576547
0.45712221
0.45658245
0.45602528
0.45545475
0.45486827
0.45426079
0.45362218
0.45293897
0.45216148
0.45131757
0.45006609
0.44893682
0.44584436
0.44432413
0.4343428
0.43028377
0.46073336
0.46006809
0.46029123
0.45965733
0.4595773
0.45901235
0.45866297
0.45814066
0.4576556
0.45712343
0.45658333
0.45602613
0.45545569
0.45486949
0.45426254
0.45362497
0.45294302
0.45216988
0.45132583
0.45009002
0.44895564
0.44593653
0.44439586
0.43462921
0.43055863
0.46074142
0.46009154
0.46029119
0.45967312
0.45958019
0.45902044
0.45866613
0.45814468
0.45765804
0.45712567
0.45658518
0.45602793
0.45545771
0.45487213
0.45426637
0.45363089
0.45295233
0.45218586
0.45134958
0.45013599
0.44902474
0.44607724
0.44463708
0.43491896
0.43123232
0.46076724
0.46010164
0.46030795
0.45968532
0.45958932
0.45903062
0.45867152
0.45815046
0.45766178
0.45712899
0.45658792
0.45603061
0.4554607
0.45487603
0.45427204
0.45363964
0.45296626
0.45220901
0.45138598
0.45020615
0.44912905
0.4462842
0.44500591
0.43531249
0.43223199
0.46080164
0.46011448
0.46033033
0.45970139
0.45960077
0.45904421
0.45867865
0.45815814
0.45766675
0.45713339
0.45659154
0.45603413
0.45546464
0.45488116
0.45427947
0.4536511
0.4529845
0.45223932
0.45143358
0.4502978
0.44926083
0.4465552
0.44547953
0.43585564
0.43349648
0.46084298
0.46013337
0.46035651
0.45972291
0.45961432
0.45906144
0.45868746
0.45816767
0.45767293
0.45713881
0.45659602
0.45603846
0.45546946
0.45488742
0.45428853
0.45366505
0.45300669
0.45227631
0.45149159
0.4504087
0.44942067
0.44688592
0.44604733
0.43653599
0.43505892
0.46089386
0.46015463
0.4603892
0.45974826
0.4596307
0.45908223
0.45869798
0.45817897
0.4576803
0.45714521
0.45660129
0.45604354
0.45547507
0.45489468
0.454299
0.45368114
0.45303216
0.45231869
0.45155839
0.45053526
0.44960612
0.44726883
0.44670108
0.43732552
0.43731995
0.46095469
0.46017857
0.46042864
0.45977749
0.45965001
0.45910645
0.45871025
0.45819196
0.45768885
0.45715256
0.45660735
0.45604935
0.45548145
0.45490292
0.45431085
0.45369931
0.45306081
0.45236607
0.45163354
0.45067511
0.44981816
0.44770009
0.44743372
0.43819924
0.44078595
0.46101804
0.4602189
0.46046461
0.45981626
0.45967079
0.45913415
0.45872421
0.45820664
0.45769855
0.45716089
0.45661424
0.45605592
0.4554887
0.45491227
0.45432427
0.45371983
0.45309294
0.45241879
0.45171677
0.45082715
0.45005587
0.44819871
0.44831605
0.43964607
0.44556995
0.46107229
0.46029745
0.46047932
0.45987453
0.45968841
0.45916687
0.45873919
0.45822317
0.45770928
0.45717015
0.45662181
0.45606308
0.45549661
0.45492241
0.45433877
0.45374201
0.45312742
0.45247588
0.45180459
0.45099077
0.45029617
0.44878342
0.44925343
0.44202429
0.45106254
0.40313444
0.39296941
0.37246329
0.3573415
0.34004877
0.32364125
0.30697982
0.29039113
0.27379789
0.25720196
0.24060887
0.22401496
0.20742126
0.19082758
0.17423388
0.15764019
0.14104651
0.12445282
0.10785913
0.091265439
0.07467174
0.05807803
0.041484313
0.024890588
0.008296857
0.40313055
0.39286692
0.37249225
0.35730211
0.340057
0.32363529
0.30698054
0.29039065
0.27379783
0.25720196
0.24060885
0.22401496
0.20742126
0.19082758
0.17423388
0.15764019
0.14104651
0.12445282
0.10785913
0.091265439
0.07467174
0.05807803
0.041484314
0.024890587
0.0082968561
0.40284602
0.39293514
0.37244733
0.35729715
0.34005185
0.32363333
0.30697959
0.29039025
0.27379773
0.25720191
0.24060883
0.22401496
0.20742126
0.19082758
0.17423388
0.15764019
0.14104651
0.12445282
0.10785913
0.091265439
0.074671741
0.05807803
0.041484314
0.024890587
0.0082968551
0.40232609
0.39307403
0.37235358
0.35730072
0.34004022
0.32363128
0.30697783
0.29038984
0.27379755
0.25720184
0.24060881
0.22401495
0.20742125
0.19082758
0.17423388
0.15764019
0.14104651
0.12445282
0.10785913
0.091265439
0.074671741
0.05807803
0.041484314
0.024890587
0.008296854
0.40154111
0.39323813
0.37221487
0.35731077
0.34002301
0.32362949
0.30697518
0.2903895
0.2737973
0.25720177
0.24060879
0.22401494
0.20742125
0.19082758
0.17423388
0.15764019
0.14104651
0.12445282
0.10785913
0.091265439
0.07467174
0.058078029
0.041484315
0.024890585
0.0082968525
0.40051452
0.39345961
0.37203277
0.35732966
0.33999756
0.32362861
0.30697164
0.2903893
0.27379698
0.2572017
0.24060877
0.22401493
0.20742125
0.19082758
0.17423388
0.15764019
0.14104651
0.12445282
0.10785913
0.091265439
0.07467174
0.058078029
0.041484315
0.024890582
0.008296851
0.39935904
0.39384917
0.37182083
0.35735248
0.3399717
0.32362908
0.30696742
0.29038929
0.2737966
0.25720164
0.24060875
0.22401492
0.20742125
0.19082757
0.17423388
0.15764019
0.14104651
0.12445282
0.10785913
0.091265439
0.07467174
0.058078028
0.041484316
0.024890577
0.0082968493
0.39817087
0.39449381
0.37163373
0.35736853
0.33994508
0.32363057
0.30696292
0.29038951
0.27379617
0.2572016
0.24060874
0.22401491
0.20742125
0.19082757
0.17423388
0.15764019
0.14104651
0.12445282
0.10785913
0.091265439
0.07467174
0.058078027
0.041484317
0.024890571
0.0082968469
0.39542312
0.39514733
0.37167394
0.35738147
0.33991744
0.32363222
0.30695911
0.29038986
0.27379582
0.25720159
0.24060873
0.2240149
0.20742125
0.19082757
0.17423388
0.15764019
0.14104651
0.12445282
0.10785913
0.091265439
0.074671739
0.058078026
0.041484317
0.024890568
0.0082968461
0.38698112
0.39541582
0.37132187
0.35751521
0.33988885
0.32364159
0.30695727
0.29039017
0.27379576
0.25720159
0.24060873
0.2240149
0.20742125
0.19082757
0.17423388
0.15764019
0.14104651
0.12445282
0.10785913
0.091265439
0.07467174
0.058078026
0.041484319
0.024890581
0.0082968591
0.46117117
0.46052006
0.46047053
0.46002506
0.45971664
0.45924142
0.45877222
0.45825916
0.45773281
0.45719
0.45663783
0.456078
0.4555128
0.45494296
0.45436814
0.45378714
0.45319783
0.45259412
0.45198437
0.45133394
0.45075801
0.45005351
0.45084804
0.44787843
0.46415128
0.46145588
0.46074855
0.46066128
0.46020018
0.4598389
0.45935208
0.45884893
0.45832046
0.45777823
0.4572255
0.45666661
0.4561042
0.45554049
0.45497731
0.45441613
0.45385876
0.45330753
0.45276568
0.45224371
0.45174423
0.4513164
0.45095536
0.45128788
0.44951175
0.45346537
0.46181562
0.46103914
0.46091534
0.46040653
0.45999179
0.45947805
0.45894085
0.45838971
0.4578299
0.45726468
0.45669743
0.45613123
0.45556803
0.45501028
0.45446134
0.45392532
0.45340838
0.45291968
0.45247461
0.45209368
0.45181918
0.45170085
0.45204806
0.45184979
0.45405115
0.46225603
0.4614164
0.46122259
0.46065219
0.46017104
0.45961735
0.45904297
0.45846455
0.45788465
0.45730494
0.45672804
0.45615653
0.45559219
0.45503791
0.45449826
0.45397927
0.45348976
0.45304263
0.45265663
0.45235957
0.45219106
0.45221428
0.45256216
0.45294059
0.45405548
0.46280828
0.46188625
0.46158462
0.46093064
0.4603711
0.45976533
0.45914992
0.45854106
0.4579391
0.45734356
0.45675586
0.45617734
0.4556097
0.45505637
0.45452195
0.45401388
0.45354263
0.4531229
0.45277499
0.45252762
0.45241746
0.45249662
0.4528284
0.45334212
0.4539862
0.46351757
0.46246124
0.46199865
0.46123267
0.46058251
0.45991501
0.4592553
0.45861452
0.45798965
0.45737777
0.45677827
0.45619138
0.45561843
0.45506273
0.45452895
0.45402482
0.45356168
0.45315478
0.4528247
0.45259911
0.45251134
0.45259881
0.45290784
0.45342131
0.45383663
0.4644055
0.46313713
0.46244586
0.46154153
0.46079024
0.46005614
0.45935176
0.45867977
0.45803275
0.45740498
0.45679362
0.45619759
0.45561762
0.45505629
0.45451857
0.45401185
0.45354716
0.45313969
0.45280932
0.452582
0.45248802
0.4525572
0.45282865
0.45330916
0.45362026
0.46568572
0.46389208
0.46289825
0.4618376
0.46097791
0.46017679
0.45943106
0.45873107
0.45806424
0.45742186
0.45679901
0.45619316
0.45560421
0.45503386
0.45448654
0.45396921
0.45349191
0.45306889
0.45271873
0.45246524
0.4523358
0.45235728
0.45256678
0.45299074
0.4532673
0.46822109
0.46483539
0.46334132
0.46208253
0.46111825
0.46026042
0.45948357
0.45876274
0.45808069
0.45742623
0.45679282
0.45617678
0.45557688
0.45499403
0.45443141
0.45389506
0.45339371
0.45293985
0.45255011
0.45224597
0.45205304
0.45199667
0.45211259
0.45245249
0.45273117
0.46972627
0.46373085
0.46346734
0.46215001
0.46116723
0.46029514
0.45950524
0.45877669
0.45808908
0.45743029
0.45679344
0.45617436
0.45557152
0.45498561
0.45441951
0.4538788
0.45337191
0.45291077
0.45251116
0.45219346
0.45198259
0.4519009
0.45197921
0.45223679
0.45239597
)
;

boundaryField
{
    inlet
    {
        type            zeroGradient;
    }
    walls
    {
        type            zeroGradient;
    }
    outlet
    {
        type            fixedValue;
        value           uniform 0;
    }
    centreline
    {
        type            symmetryPlane;
    }
    frontAndBack
    {
        type            empty;
    }
}


// ************************************************************************* //
