/*--------------------------------*- C++ -*----------------------------------*\
| =========                 |                                                 |
| \\      /  F ield         | OpenFOAM: The Open Source CFD Toolbox           |
|  \\    /   O peration     | Version:  5.x                                   |
|   \\  /    A nd           | Web:      www.OpenFOAM.org                      |
|    \\/     M anipulation  |                                                 |
\*---------------------------------------------------------------------------*/
/*   Windows 32 and 64 bit porting by blueCAPE: http://www.bluecape.com.pt   *\
|  Based on Windows porting (2.0.x v4) by Symscape: http://www.symscape.com   |
\*---------------------------------------------------------------------------*/
FoamFile
{
    version     2.0;
    format      ascii;
    class       surfaceScalarField;
    location    "0.03";
    object      phi;
}
// * * * * * * * * * * * * * * * * * * * * * * * * * * * * * * * * * * * * * //

dimensions      [0 3 -1 0 0 0 0];

internalField   nonuniform List<scalar> 
1430
(
5.0274282e-006
-2.6147803e-008
5.0617684e-006
-3.4340258e-008
5.0678197e-006
-6.0513049e-009
5.0977439e-006
-2.9924169e-008
5.1083845e-006
-1.0640599e-008
5.1297618e-006
-2.1377266e-008
5.1456673e-006
-1.5905481e-008
5.1658282e-006
-2.0160934e-008
5.1881122e-006
-2.2284044e-008
5.2161003e-006
-2.7988037e-008
5.2520705e-006
-3.5970172e-008
5.2999482e-006
-4.7877693e-008
5.3648535e-006
-6.4905383e-008
5.45406e-006
-8.9206453e-008
5.5779803e-006
-1.2392034e-007
5.7518698e-006
-1.7388947e-007
5.9981464e-006
-2.4627663e-007
6.3526153e-006
-3.544689e-007
6.8660808e-006
-5.1346549e-007
7.6378898e-006
-7.7180897e-007
8.7815083e-006
-1.1436184e-006
1.0591628e-005
-1.8101198e-006
1.3322044e-005
-2.730416e-006
1.7291362e-005
-3.969317e-006
-4.6012877e-006
2.189265e-005
5.03017e-006
-5.50374e-008
5.0583056e-006
-6.2475901e-008
5.070719e-006
-1.8464702e-008
5.0955853e-006
-5.4790449e-008
5.1099562e-006
-2.5011472e-008
5.1288624e-006
-4.028349e-008
5.1460199e-006
-3.3062926e-008
5.1654375e-006
-3.9578557e-008
5.1878425e-006
-4.4689036e-008
5.2155569e-006
-5.5702414e-008
5.2513116e-006
-7.1724884e-008
5.2988426e-006
-9.5408691e-008
5.3632713e-006
-1.29334e-007
5.451793e-006
-1.777282e-007
5.5747139e-006
-2.4684127e-007
5.7470472e-006
-3.4622278e-007
5.991183e-006
-4.9041235e-007
6.341495e-006
-7.0478089e-007
6.8506829e-006
-1.0226534e-006
7.6081719e-006
-1.5292979e-006
8.7465188e-006
-2.2819653e-006
1.0514449e-005
-3.57805e-006
1.3287326e-005
-5.5032922e-006
1.7289513e-005
-7.9715038e-006
-9.4860631e-006
2.2174289e-005
5.0292336e-006
-8.2990707e-008
5.0589794e-006
-9.2221657e-008
5.0703516e-006
-2.9836911e-008
5.095949e-006
-8.0387856e-008
5.1099361e-006
-3.8998522e-008
5.1288281e-006
-5.9175494e-008
5.1458054e-006
-5.0040214e-008
5.1650219e-006
-5.8795051e-008
5.1871559e-006
-6.6823016e-008
5.2145126e-006
-8.3059181e-008
5.2497905e-006
-1.0700272e-007
5.2966545e-006
-1.4227274e-007
5.360146e-006
-1.9282544e-007
5.4473232e-006
-2.6490544e-007
5.568272e-006
-3.6779013e-007
5.7376452e-006
-5.1559594e-007
5.977248e-006
-7.3001513e-007
6.3204781e-006
-1.048011e-006
6.8181452e-006
-1.5203206e-006
7.5566281e-006
-2.2677808e-006
8.6632593e-006
-3.3885965e-006
1.0393363e-005
-5.308154e-006
1.3164044e-005
-8.273973e-006
1.7369201e-005
-1.2176661e-005
-1.4733022e-005
2.2616161e-005
5.0288086e-006
-1.1051897e-007
5.0592947e-006
-1.2270781e-007
5.070312e-006
-4.0854164e-008
5.0961918e-006
-1.0626767e-007
5.1100444e-006
-5.2851073e-008
5.1287294e-006
-7.7860499e-008
5.1455098e-006
-6.6820602e-008
5.164402e-006
-7.7687314e-008
5.1861381e-006
-8.8559104e-008
5.2129612e-006
-1.0988223e-007
5.2475247e-006
-1.4156619e-007
5.293397e-006
-1.8814506e-007
5.3554934e-006
-2.5492189e-007
5.4406698e-006
-3.5008184e-007
5.558687e-006
-4.8580725e-007
5.7236693e-006
-6.8057826e-007
5.956533e-006
-9.6287885e-007
6.2891511e-006
-1.3806292e-006
6.7698744e-006
-2.0010439e-006
7.4800848e-006
-2.9779912e-006
8.5391756e-006
-4.4476873e-006
1.020977e-005
-6.9787481e-006
1.2962194e-005
-1.1026397e-005
1.7415636e-005
-1.6630104e-005
-2.0498231e-005
2.3180845e-005
5.0284314e-006
-1.3767007e-007
5.0597427e-006
-1.5401912e-007
5.0702846e-006
-5.1396074e-008
5.0965218e-006
-1.3250481e-007
5.1101777e-006
-6.6506959e-008
5.1286111e-006
-9.62939e-008
5.1451192e-006
-8.3328665e-008
5.1635869e-006
-9.615505e-008
5.1847928e-006
-1.0976498e-007
5.210911e-006
-1.3600047e-007
5.2445279e-006
-1.7518307e-007
5.2890905e-006
-2.3270765e-007
5.3493458e-006
-3.1517716e-007
5.4318842e-006
-4.3262032e-007
5.5460416e-006
-5.9996465e-007
5.7052544e-006
-8.3979107e-007
5.9292644e-006
-1.1868888e-006
6.2479086e-006
-1.6992734e-006
6.7063857e-006
-2.459521e-006
7.3795757e-006
-3.6511813e-006
8.3760282e-006
-5.4441397e-006
9.9632631e-006
-8.565983e-006
1.2654389e-005
-1.3717523e-005
1.7288034e-005
-2.1263749e-005
-2.6725906e-005
2.351571e-005
5.0276908e-006
-1.6408055e-007
5.0604213e-006
-1.8674965e-007
5.0702324e-006
-6.1207152e-008
5.0969536e-006
-1.5922597e-007
5.1103492e-006
-7.9902518e-008
5.128476e-006
-1.1442071e-007
5.1446364e-006
-9.9489049e-008
5.1625811e-006
-1.1409973e-007
5.1831285e-006
-1.3031246e-007
5.2083736e-006
-1.6124549e-007
5.2408186e-006
-2.0762814e-007
5.2837637e-006
-2.7565268e-007
5.3417469e-006
-3.731604e-007
5.4210362e-006
-5.1190967e-007
5.5304497e-006
-7.0937814e-007
5.6825877e-006
-9.9192902e-007
5.8957577e-006
-1.4000589e-006
6.197315e-006
-2.0008307e-006
6.6285264e-006
-2.8907324e-006
7.2557809e-006
-4.2784357e-006
8.1738075e-006
-6.3621664e-006
9.6484459e-006
-1.0040621e-005
1.220353e-005
-1.6272607e-005
1.6812947e-005
-2.5873167e-005
-3.2983038e-005
2.3070079e-005
5.0262626e-006
-1.8906285e-007
5.0611857e-006
-2.2167272e-007
5.0702163e-006
-7.0237728e-008
5.0974224e-006
-1.8643213e-007
5.1106146e-006
-9.3094636e-008
5.1283189e-006
-1.3212508e-007
5.1440665e-006
-1.1523662e-007
5.1613916e-006
-1.3142477e-007
5.181157e-006
-1.5007791e-007
5.2053652e-006
-1.8545371e-007
5.2364197e-006
-2.3868258e-007
5.277452e-006
-3.1668499e-007
5.3327506e-006
-4.2845902e-007
5.4082095e-006
-5.8736852e-007
5.5120457e-006
-8.1321442e-007
5.6558914e-006
-1.1357747e-006
5.8564047e-006
-1.6005722e-006
6.1380961e-006
-2.282522e-006
6.5373539e-006
-3.2899903e-006
7.1100893e-006
-4.8511711e-006
7.9344039e-006
-7.1864809e-006
9.2606568e-006
-1.1366874e-005
1.1577195e-005
-1.8589145e-005
1.5876078e-005
-3.017205e-005
-3.8475272e-005
2.1368312e-005
5.0238336e-006
-2.1161613e-007
5.0619939e-006
-2.5983299e-007
5.0701891e-006
-7.8432914e-008
5.0979265e-006
-2.1416958e-007
5.1110102e-006
-1.0617831e-007
5.1281234e-006
-1.4923824e-007
5.1434168e-006
-1.3053004e-007
5.1600274e-006
-1.4803544e-007
5.178892e-006
-1.689425e-007
5.201907e-006
-2.0846866e-007
5.2313588e-006
-2.6813443e-007
5.2701956e-006
-3.5552174e-007
5.322418e-006
-4.8068145e-007
5.3934948e-006
-6.584453e-007
5.4909684e-006
-9.1068802e-007
5.6253853e-006
-1.2701916e-006
5.8115626e-006
-1.7867495e-006
6.070838e-006
-2.5417974e-006
6.433756e-006
-3.6529083e-006
6.9444238e-006
-5.3618389e-006
7.6605046e-006
-7.9025617e-006
8.7978794e-006
-1.2504249e-005
1.0761376e-005
-2.0552642e-005
1.4526133e-005
-3.3936806e-005
-4.2319814e-005
1.8370675e-005
5.0200678e-006
-2.304036e-007
5.0632337e-006
-3.0299884e-007
5.0698392e-006
-8.5038457e-008
5.0986449e-006
-2.4297521e-007
5.1114865e-006
-1.1901995e-007
5.1278811e-006
-1.6563285e-007
5.1426997e-006
-1.4534858e-007
5.1585015e-006
-1.6383727e-007
5.1763502e-006
-1.8679122e-007
5.1980261e-006
-2.3014452e-007
5.2256748e-006
-2.9578311e-007
5.262049e-006
-3.9189599e-007
5.3108331e-006
-5.2946552e-007
5.3770197e-006
-7.2463192e-007
5.467415e-006
-1.0010833e-006
5.5913838e-006
-1.3941604e-006
5.7617606e-006
-1.9571263e-006
5.9964455e-006
-2.7764823e-006
6.3193558e-006
-3.9758186e-006
6.7619938e-006
-5.804477e-006
7.3574032e-006
-8.497971e-006
8.2621226e-006
-1.3408969e-005
9.7380058e-006
-2.2028525e-005
1.2772872e-005
-3.6971673e-005
-4.3923998e-005
1.4377056e-005
5.0177249e-006
-2.4684817e-007
5.0624841e-006
-3.4775796e-007
5.0709552e-006
-9.3509608e-008
5.0985289e-006
-2.7054888e-007
5.112624e-006
-1.3311498e-007
5.1273436e-006
-1.8035249e-007
5.1420635e-006
-1.6006844e-007
5.1567983e-006
-1.7857208e-007
5.1735712e-006
-2.0356407e-007
5.1937542e-006
-2.503275e-007
5.2194231e-006
-3.2145199e-007
5.2530891e-006
-4.2556199e-007
5.2981061e-006
-5.7448258e-007
5.3589532e-006
-7.8547894e-007
5.4416508e-006
-1.0837809e-006
5.5542972e-006
-1.5068069e-006
5.7077209e-006
-2.1105499e-006
5.9159528e-006
-2.9847143e-006
6.1968343e-006
-4.2567e-006
6.5666476e-006
-6.1742903e-006
7.0383324e-006
-8.9696558e-006
7.6643597e-006
-1.4034996e-005
8.5452996e-006
-2.2909464e-005
1.0398648e-005
-3.8825021e-005
9.4854399e-006
-4.3010791e-005
2.3797917e-005
-1.905266e-006
2.4476225e-005
-6.7830772e-007
2.4683879e-005
-2.0765467e-007
2.4724013e-005
-4.0134096e-008
2.4742096e-005
-1.8082195e-008
2.474308e-005
-9.8460314e-010
2.4743678e-005
-5.9794038e-010
2.4743491e-005
1.8754895e-010
2.4743351e-005
1.3941702e-010
2.4743308e-005
4.3445122e-011
2.4743277e-005
3.1081735e-011
2.4743267e-005
1.0150536e-011
2.4743262e-005
4.5607388e-012
2.474326e-005
1.8972867e-012
2.4743259e-005
6.1289356e-013
2.4743259e-005
2.5622964e-013
2.4743259e-005
9.7156196e-014
2.4743259e-005
2.9373945e-014
2.4743259e-005
8.921082e-015
2.4743259e-005
-2.8859132e-015
2.4743259e-005
6.4079364e-014
2.4743259e-005
2.0159026e-013
2.4743259e-005
1.8940272e-013
2.4743258e-005
9.365367e-013
1.1240331e-012
2.3994489e-005
-3.7254648e-006
2.4706583e-005
-1.3904014e-006
2.4835083e-005
-3.3615497e-007
2.4879702e-005
-8.4753002e-008
2.4886623e-005
-2.5002617e-008
2.4889522e-005
-3.8840345e-009
2.4889289e-005
-3.6454889e-010
2.4889115e-005
3.6065155e-010
2.4888987e-005
2.6759218e-010
2.4888921e-005
1.0973601e-010
2.4888898e-005
5.3629606e-011
2.4888887e-005
2.1541747e-011
2.4888883e-005
8.949988e-012
2.4888881e-005
3.5287505e-012
2.488888e-005
1.252347e-012
2.488888e-005
4.9312688e-013
2.488888e-005
1.9193052e-013
2.488888e-005
5.8620298e-014
2.488888e-005
8.1252228e-015
2.488888e-005
-1.6884942e-014
2.488888e-005
7.2251809e-014
2.488888e-005
3.2977728e-013
2.488888e-005
3.4346314e-013
2.4888879e-005
1.3373676e-012
1.8655654e-012
2.454097e-005
-5.6502741e-006
2.5191389e-005
-2.0408205e-006
2.524848e-005
-3.9324607e-007
2.5263509e-005
-9.9781968e-008
2.526334e-005
-2.4833675e-008
2.5265124e-005
-5.6682138e-009
2.5264517e-005
2.424569e-010
2.5264227e-005
6.5092101e-010
2.5264069e-005
4.2595182e-010
2.5263999e-005
1.7905093e-010
2.5263978e-005
7.5403532e-011
2.5263967e-005
3.2336616e-011
2.5263963e-005
1.2908768e-011
2.5263961e-005
4.9603661e-012
2.5263961e-005
1.8170088e-012
2.5263961e-005
7.0043283e-013
2.5263961e-005
2.7451107e-013
2.5263961e-005
8.2953926e-014
2.5263961e-005
2.7289953e-015
2.5263961e-005
-3.9740707e-014
2.5263961e-005
5.3083706e-014
2.5263961e-005
3.7404725e-013
2.5263961e-005
4.8673176e-013
2.5263959e-005
2.6048459e-012
3.4295866e-012
2.5284851e-005
-7.75428e-006
2.5872197e-005
-2.6281665e-006
2.58395e-005
-3.6054933e-007
2.5818549e-005
-7.8831097e-008
2.5809152e-005
-1.5436505e-008
2.5809684e-005
-6.2007163e-009
2.5808674e-005
1.2522579e-009
2.5808275e-005
1.0504094e-009
2.5808094e-005
6.0738024e-010
2.5808024e-005
2.4872095e-010
2.5808005e-005
9.4731982e-011
2.5807995e-005
4.1721286e-011
2.5807992e-005
1.6090484e-011
2.5807991e-005
6.0623137e-012
2.580799e-005
2.2609851e-012
2.580799e-005
8.5663751e-013
2.580799e-005
3.3596122e-013
2.580799e-005
1.0034203e-013
2.580799e-005
-4.2148145e-015
2.580799e-005
-6.2534721e-014
2.580799e-005
2.4190754e-014
2.580799e-005
3.3790688e-013
2.580799e-005
6.6840997e-013
2.5807986e-005
6.3271212e-012
7.3659948e-012
2.5707945e-005
-9.9465154e-006
2.6200863e-005
-3.1210839e-006
2.6096235e-005
-2.5592128e-007
2.6049274e-005
-3.1870675e-008
2.6032575e-005
1.2630385e-009
2.6032046e-005
-5.6715344e-009
2.6030767e-005
2.531065e-009
2.6030365e-005
1.4517468e-009
2.6030199e-005
7.7355256e-010
2.6030142e-005
3.0594312e-010
2.6030129e-005
1.0763937e-010
2.6030123e-005
4.8105961e-011
2.6030121e-005
1.7913587e-011
2.603012e-005
6.6403483e-012
2.603012e-005
2.5075812e-012
2.603012e-005
9.3172576e-013
2.603012e-005
3.6373174e-013
2.603012e-005
1.0748214e-013
2.603012e-005
-8.7762789e-015
2.603012e-005
-7.4356517e-014
2.603012e-005
4.2778339e-015
2.603012e-005
2.499719e-013
2.603012e-005
8.9993395e-013
2.6030114e-005
1.255756e-011
1.3680427e-011
2.4879355e-005
-1.1755792e-005
2.5155836e-005
-3.3975643e-006
2.5033154e-005
-1.3323917e-007
2.4987146e-005
1.4136673e-008
2.4969468e-005
1.8941379e-008
2.4968346e-005
-4.5492099e-009
2.4967105e-005
3.7712853e-009
2.4966902e-005
1.6549985e-009
2.4966816e-005
8.5952185e-010
2.4966794e-005
3.2793662e-010
2.4966794e-005
1.0796247e-010
2.4966793e-005
4.9256219e-011
2.4966793e-005
1.7573431e-011
2.4966793e-005
6.442311e-012
2.4966793e-005
2.4561298e-012
2.4966793e-005
8.9009404e-013
2.4966793e-005
3.4476134e-013
2.4966793e-005
1.0048051e-013
2.4966794e-005
-7.8723299e-015
2.4966794e-005
-6.7035377e-014
2.4966793e-005
1.2750143e-014
2.4966794e-005
1.8827646e-013
2.4966793e-005
1.0774729e-012
2.4966787e-005
1.8957395e-011
2.0063063e-011
2.1900047e-005
-1.2287527e-005
2.1733679e-005
-3.2311964e-006
2.1651995e-005
-5.1554875e-008
2.1634053e-005
3.207916e-008
2.1623481e-005
2.9512873e-008
2.162223e-005
-3.2982062e-009
2.1621551e-005
4.4507956e-009
2.162173e-005
1.4758179e-009
2.1621786e-005
8.0309829e-010
2.1621822e-005
2.922287e-010
2.1621839e-005
9.0851558e-011
2.1621845e-005
4.3134673e-011
2.1621848e-005
1.4439979e-011
2.1621849e-005
5.2912363e-012
2.162185e-005
2.0371166e-012
2.162185e-005
7.1291222e-013
2.162185e-005
2.7446942e-013
2.162185e-005
7.765951e-014
2.162185e-005
-3.107231e-015
2.162185e-005
-4.4910788e-014
2.162185e-005
4.8813051e-014
2.162185e-005
1.9779197e-013
2.162185e-005
9.4541462e-013
2.1621848e-005
2.1413431e-011
2.2529908e-011
1.6603221e-005
-1.0520073e-005
1.5782036e-005
-2.4100116e-006
1.5754335e-005
-2.3853217e-008
1.5768334e-005
1.8079884e-008
1.5770317e-005
2.7530232e-008
1.5769089e-005
-2.0709536e-009
1.5769636e-005
3.9043989e-009
1.5770185e-005
9.2667649e-010
1.5770407e-005
5.8109123e-010
1.5770504e-005
1.9506512e-010
1.5770536e-005
5.8346275e-011
1.577055e-005
2.9315743e-011
1.5770556e-005
8.9075325e-012
1.5770558e-005
3.3405415e-012
1.5770559e-005
1.2957437e-012
1.5770559e-005
4.3188795e-013
1.5770559e-005
1.6799992e-013
1.5770559e-005
4.5117453e-014
1.5770559e-005
4.7011474e-016
1.5770559e-005
-2.5072622e-014
1.5770559e-005
6.4255997e-014
1.5770559e-005
2.0184228e-013
1.577056e-005
4.3327163e-013
1.5770564e-005
1.6992389e-011
1.8117609e-011
9.9256251e-006
-6.0686422e-006
8.5714253e-006
-1.0558119e-006
8.5536652e-006
-6.0932118e-009
8.5726709e-006
-9.2577802e-010
8.586181e-006
1.4020141e-008
8.5850958e-006
-9.8582196e-010
8.5870173e-006
1.982877e-009
8.587645e-006
2.9898126e-010
8.5879775e-006
2.4865307e-010
8.5880993e-006
7.3211586e-011
8.5881361e-006
2.161185e-011
8.5881538e-006
1.1624287e-011
8.5881596e-006
3.054755e-012
8.5881618e-006
1.2258242e-012
8.5881626e-006
4.7293257e-013
8.5881629e-006
1.4793949e-013
8.588163e-006
6.1792597e-014
8.588163e-006
1.4983497e-014
8.588163e-006
9.2077607e-016
8.588163e-006
-1.9671026e-014
8.5881631e-006
7.5319683e-015
8.5881633e-006
6.7071048e-014
8.5881638e-006
-1.5238515e-013
8.5881738e-006
7.0682642e-012
7.9052164e-012
3.416797e-006
2.3609853e-006
2.354892e-006
2.3539663e-006
2.3679864e-006
2.3670006e-006
2.3689834e-006
2.3692824e-006
2.3695311e-006
2.3696043e-006
2.3696259e-006
2.3696375e-006
2.3696406e-006
2.3696418e-006
2.3696423e-006
2.3696425e-006
2.3696425e-006
2.3696426e-006
2.3696426e-006
2.3696425e-006
2.3696426e-006
2.3696426e-006
2.3696425e-006
2.3696496e-006
1.5084656e-005
-3.276632e-007
1.5143274e-005
-4.0637611e-007
1.5248644e-005
-1.988791e-007
1.5279506e-005
-3.0141103e-007
1.5348988e-005
-2.0259729e-007
1.5379801e-005
-2.1116476e-007
1.5422321e-005
-2.0258911e-007
1.545968e-005
-2.1593129e-007
1.5502728e-005
-2.4661208e-007
1.5553559e-005
-3.0115784e-007
1.5617631e-005
-3.8552406e-007
1.5701028e-005
-5.0895863e-007
1.5811669e-005
-6.8512389e-007
1.5959763e-005
-9.3357271e-007
1.615842e-005
-1.2824388e-006
1.6424128e-005
-1.7725139e-006
1.677694e-005
-2.4633628e-006
1.7236077e-005
-3.4438508e-006
1.782231e-005
-4.8429328e-006
1.8500245e-005
-6.8522257e-006
1.9238821e-005
-9.7082318e-006
1.9516357e-005
-1.4312532e-005
1.8819488e-005
-2.2212596e-005
1.4638119e-005
-3.4643652e-005
-2.8372672e-005
1.5084554e-005
-4.0837668e-007
1.5154475e-005
-4.7629652e-007
1.5265663e-005
-3.1006728e-007
1.5297198e-005
-3.3294644e-007
1.535392e-005
-2.5931859e-007
1.5384147e-005
-2.4139199e-007
1.5414388e-005
-2.3283033e-007
1.5441839e-005
-2.4338205e-007
1.5470991e-005
-2.7576392e-007
1.5504546e-005
-3.347133e-007
1.5545731e-005
-4.2670847e-007
1.5598317e-005
-5.6154443e-007
1.5666676e-005
-7.5348355e-007
1.5755881e-005
-1.0227772e-006
1.5871564e-005
-1.3981217e-006
1.6019054e-005
-1.9200042e-006
1.6201249e-005
-2.6455583e-006
1.6413075e-005
-3.6556761e-006
1.6633109e-005
-5.0629675e-006
1.6795342e-005
-7.0144587e-006
1.6779852e-005
-9.6927416e-006
1.6074498e-005
-1.3607177e-005
1.3632814e-005
-1.9770912e-005
6.8157798e-006
-2.7826617e-005
-2.1556893e-005
1.5098713e-005
-5.0324874e-007
1.5186915e-005
-5.6449855e-007
1.5285955e-005
-4.0910681e-007
1.5323846e-005
-3.7083779e-007
1.5365485e-005
-3.0095749e-007
1.5389605e-005
-2.6551229e-007
1.5408154e-005
-2.5137902e-007
1.5423128e-005
-2.583564e-007
1.5436939e-005
-2.8957516e-007
1.545125e-005
-3.490234e-007
1.5467452e-005
-4.4291091e-007
1.5486705e-005
-5.8079706e-007
1.5509818e-005
-7.7659693e-007
1.5536959e-005
-1.0499185e-006
1.5566859e-005
-1.4280213e-006
1.5595169e-005
-1.9483143e-006
1.5611295e-005
-2.6616848e-006
1.5592221e-005
-3.6366014e-006
1.5491702e-005
-4.9624485e-006
1.5221447e-005
-6.7442038e-006
1.4629333e-005
-9.1006276e-006
1.3311027e-005
-1.2288871e-005
1.0395654e-005
-1.6855539e-005
4.4967957e-006
-2.1927759e-005
-1.7060097e-005
1.5120482e-005
-6.1988937e-007
1.5227545e-005
-6.7156176e-007
1.5316036e-005
-4.9759795e-007
1.5353601e-005
-4.0840267e-007
1.5380794e-005
-3.2815086e-007
1.5394285e-005
-2.7900331e-007
1.5400026e-005
-2.5711954e-007
1.5401029e-005
-2.5935924e-007
1.539855e-005
-2.8709656e-007
1.5392835e-005
-3.4330827e-007
1.5383412e-005
-4.3348831e-007
1.5368916e-005
-5.6630046e-007
1.5346825e-005
-7.5450668e-007
1.5312906e-005
-1.0159994e-006
1.5260015e-005
-1.3751297e-006
1.5176148e-005
-1.864448e-006
1.5041096e-005
-2.5266328e-006
1.4820538e-005
-3.4160433e-006
1.4456688e-005
-4.5985976e-006
1.3855211e-005
-6.1427276e-006
1.286536e-005
-8.1107764e-006
1.1205371e-005
-1.0628881e-005
8.3447902e-006
-1.3994958e-005
3.7037973e-006
-1.7286767e-005
-1.33563e-005
1.51438e-005
-7.5984812e-007
1.5269967e-005
-7.9772912e-007
1.5349158e-005
-5.7678842e-007
1.5378897e-005
-4.381426e-007
1.5390284e-005
-3.3953724e-007
1.5389529e-005
-2.7824798e-007
1.5381095e-005
-2.4868565e-007
1.5367355e-005
-2.4561939e-007
1.5348428e-005
-2.6816994e-007
1.5323057e-005
-3.1793714e-007
1.5288874e-005
-3.9930533e-007
1.524225e-005
-5.1967641e-007
1.5177752e-005
-6.9000887e-007
1.5087403e-005
-9.2565028e-007
1.4959411e-005
-1.2471378e-006
1.4776243e-005
-1.6812798e-006
1.4511567e-005
-2.2619566e-006
1.4125531e-005
-3.0300077e-006
1.3558094e-005
-4.0311611e-006
1.2721263e-005
-5.3058959e-006
1.1488394e-005
-6.8779073e-006
9.668029e-006
-8.8085168e-006
6.9486788e-006
-1.1275608e-005
3.1266278e-006
-1.3464716e-005
-1.0229672e-005
1.521014e-005
-9.6614697e-007
1.5368661e-005
-9.5625056e-007
1.5434456e-005
-6.4258288e-007
1.5445588e-005
-4.4927507e-007
1.5436752e-005
-3.30701e-007
1.5418569e-005
-2.6006509e-007
1.5394709e-005
-2.2482562e-007
1.5366073e-005
-2.1698313e-007
1.5331301e-005
-2.3339789e-007
1.5287591e-005
-2.742271e-007
1.5230781e-005
-3.4249519e-007
1.5155176e-005
-4.4407183e-007
1.5052883e-005
-5.877154e-007
1.4912963e-005
-7.8573027e-007
1.4720201e-005
-1.0543763e-006
1.4453298e-005
-1.4143772e-006
1.4082374e-005
-1.8910319e-006
1.356573e-005
-2.513364e-006
1.2845825e-005
-3.3112559e-006
1.1845861e-005
-4.3059319e-006
1.0467935e-005
-5.4999818e-006
8.5808109e-006
-6.9213924e-006
5.9864769e-006
-8.6812742e-006
2.657652e-006
-1.0135891e-005
-7.5720198e-006
1.5528864e-005
-1.4911705e-006
1.5764889e-005
-1.1922754e-006
1.579645e-005
-6.7414317e-007
1.5769874e-005
-4.2269926e-007
1.5733282e-005
-2.9410889e-007
1.5694307e-005
-2.2109062e-007
1.5653771e-005
-1.8428981e-007
1.5610257e-005
-1.7346849e-007
1.5560412e-005
-1.8355311e-007
1.54997e-005
-2.1351549e-007
1.5422251e-005
-2.6504605e-007
1.5320497e-005
-3.423171e-007
1.5184415e-005
-4.5163375e-007
1.5000627e-005
-6.0194251e-007
1.4751252e-005
-8.0500156e-007
1.4412234e-005
-1.0753584e-006
1.3951507e-005
-1.4303049e-006
1.3326988e-005
-1.888846e-006
1.2484583e-005
-2.4688501e-006
1.1358275e-005
-3.1796237e-006
9.8730553e-006
-4.0147626e-006
7.9372875e-006
-4.9856246e-006
5.4163865e-006
-6.1603731e-006
2.3597838e-006
-7.079288e-006
-5.212236e-006
1.6293641e-005
-2.7809707e-006
1.6552539e-005
-1.4511734e-006
1.6472227e-005
-5.9383062e-007
1.6373993e-005
-3.2446601e-007
1.6297633e-005
-2.1774872e-007
1.6233375e-005
-1.5683231e-007
1.6175055e-005
-1.2597037e-007
1.6117039e-005
-1.1545168e-007
1.6053185e-005
-1.196992e-007
1.5977059e-005
-1.3738956e-007
1.5881203e-005
-1.6918983e-007
1.5756311e-005
-2.1742533e-007
1.5590491e-005
-2.8581361e-007
1.5368328e-005
-3.7977971e-007
1.5069665e-005
-5.0633828e-007
1.4668298e-005
-6.7399193e-007
1.41306e-005
-8.9260706e-007
1.3414314e-005
-1.1725602e-006
1.2468166e-005
-1.5227013e-006
1.1234267e-005
-1.9457255e-006
9.6534198e-006
-2.433915e-006
7.6583555e-006
-2.9905603e-006
5.1486619e-006
-3.6506795e-006
2.2071896e-006
-4.1378156e-006
-3.0050464e-006
1.6272295e-005
-4.0494244e-006
1.604226e-005
-1.2211387e-006
1.5730027e-005
-2.8159792e-007
1.5554251e-005
-1.4868945e-007
1.5438779e-005
-1.0227683e-007
1.535303e-005
-7.1083102e-008
1.5282233e-005
-5.5173507e-008
1.5215751e-005
-4.8970182e-008
1.5145366e-005
-4.9314096e-008
1.5063442e-005
-5.5465568e-008
1.4961659e-005
-6.740706e-008
1.4830163e-005
-8.592889e-008
1.4656725e-005
-1.1237582e-007
1.4425718e-005
-1.4877231e-007
1.4117079e-005
-1.9769978e-007
1.3705325e-005
-2.6223737e-007
1.3158563e-005
-3.4584542e-007
1.2437971e-005
-4.5196813e-007
1.1498517e-005
-5.8324757e-007
1.0292466e-005
-7.3967356e-007
8.7752464e-006
-9.1669585e-007
6.8982122e-006
-1.1135261e-006
4.5848348e-006
-1.3373021e-006
1.9286263e-006
-1.4816071e-006
-1.0764201e-006
1.0954417e-005
9.7332778e-006
9.4516799e-006
9.3029904e-006
9.2007136e-006
9.1296305e-006
9.074457e-006
9.0254868e-006
8.9761727e-006
8.9207071e-006
8.8533001e-006
8.7673712e-006
8.6549954e-006
8.506223e-006
8.3085233e-006
8.0462859e-006
7.7004405e-006
7.2484723e-006
6.6652248e-006
5.9255512e-006
5.0088554e-006
3.8953293e-006
2.5580272e-006
1.0764201e-006
)
;

boundaryField
{
    inlet
    {
        type            calculated;
        value           nonuniform List<scalar> 
20
(
-5.0012803e-006
-5.0012803e-006
-5.0012803e-006
-5.0012803e-006
-5.0012803e-006
-5.0012803e-006
-5.0012803e-006
-5.0012803e-006
-5.0012803e-006
-5.0012803e-006
-1.5003841e-005
-1.5003841e-005
-1.5003841e-005
-1.5003841e-005
-1.5003841e-005
-1.5003841e-005
-1.5003841e-005
-1.5003841e-005
-1.5003841e-005
-1.5003841e-005
)
;
    }
    walls
    {
        type            calculated;
        value           uniform 0;
    }
    outlet
    {
        type            calculated;
        value           nonuniform List<scalar> 10(2.4743256e-005 2.4888879e-005 2.5263958e-005 2.5807983e-005 2.6030107e-005 2.4966781e-005 2.1621845e-005 1.5770568e-005 8.5881841e-006 2.3696576e-006);
    }
    centreline
    {
        type            symmetryPlane;
        value           uniform 0;
    }
    frontAndBack
    {
        type            empty;
        value           nonuniform 0();
    }
}


// ************************************************************************* //
