/*--------------------------------*- C++ -*----------------------------------*\
| =========                 |                                                 |
| \\      /  F ield         | OpenFOAM: The Open Source CFD Toolbox           |
|  \\    /   O peration     | Version:  5.x                                   |
|   \\  /    A nd           | Web:      www.OpenFOAM.org                      |
|    \\/     M anipulation  |                                                 |
\*---------------------------------------------------------------------------*/
/*   Windows 32 and 64 bit porting by blueCAPE: http://www.bluecape.com.pt   *\
|  Based on Windows porting (2.0.x v4) by Symscape: http://www.symscape.com   |
\*---------------------------------------------------------------------------*/
FoamFile
{
    version     2.0;
    format      ascii;
    class       surfaceScalarField;
    location    "0.03";
    object      phi_0;
}
// * * * * * * * * * * * * * * * * * * * * * * * * * * * * * * * * * * * * * //

dimensions      [0 3 -1 0 0 0 0];

internalField   nonuniform List<scalar> 
1430
(
5.0271163e-006
-2.5835951e-008
5.0614167e-006
-3.4300437e-008
5.0670316e-006
-5.6148716e-009
5.0969621e-006
-2.99305e-008
5.1073677e-006
-1.0405535e-008
5.1286719e-006
-2.1304238e-008
5.1444749e-006
-1.5803028e-008
5.1645706e-006
-2.009568e-008
5.1868037e-006
-2.2233018e-008
5.2147523e-006
-2.7948658e-008
5.2506933e-006
-3.5940951e-008
5.2985458e-006
-4.7852537e-008
5.3634267e-006
-6.4880939e-008
5.4526035e-006
-8.9176784e-008
5.5764807e-006
-1.2387721e-007
5.7503002e-006
-1.7381941e-007
5.996462e-006
-2.4616188e-007
6.3507271e-006
-3.5426508e-007
6.8638536e-006
-5.1312643e-007
7.6350228e-006
-7.7116918e-007
8.7775435e-006
-1.1425207e-006
1.0585394e-005
-1.8078503e-006
1.331075e-005
-2.7253557e-006
1.7272631e-005
-3.9618805e-006
-4.5919628e-006
2.1864594e-005
5.029916e-006
-5.4471594e-008
5.057878e-006
-6.2262456e-008
5.0699861e-006
-1.7722866e-008
5.0947591e-006
-5.4703583e-008
5.108962e-006
-2.4608374e-008
5.1277595e-006
-4.0101736e-008
5.1448305e-006
-3.2873961e-008
5.164178e-006
-3.9443223e-008
5.186533e-006
-4.4588022e-008
5.2142086e-006
-5.5624232e-008
5.249934e-006
-7.1666354e-008
5.2974403e-006
-9.535882e-008
5.3618448e-006
-1.2928543e-007
5.4503374e-006
-1.776694e-007
5.5732159e-006
-2.4675574e-007
5.745481e-006
-3.4608444e-007
5.9895032e-006
-4.9018406e-007
6.3396147e-006
-7.0437659e-007
6.848472e-006
-1.0219837e-006
7.6053374e-006
-1.5280345e-006
8.7426466e-006
-2.2798298e-006
1.0508382e-005
-3.5735854e-006
1.3276242e-005
-5.4932154e-006
1.7270148e-005
-7.955786e-006
-9.4650673e-006
2.2143253e-005
5.028968e-006
-8.2159241e-008
5.0585487e-006
-9.1843158e-008
5.0696148e-006
-2.8788976e-008
5.0951195e-006
-8.020833e-008
5.1089393e-006
-3.8428114e-008
5.1277219e-006
-5.8884309e-008
5.1446136e-006
-4.9765626e-008
5.1637602e-006
-5.8589883e-008
5.1858448e-006
-6.6672606e-008
5.2131632e-006
-8.2942654e-008
5.2484122e-006
-1.0691537e-007
5.2952521e-006
-1.4219872e-007
5.3587202e-006
-1.9275351e-007
5.4458694e-006
-2.6481857e-007
5.5667775e-006
-3.6766386e-007
5.7360852e-006
-5.1539217e-007
5.9755791e-006
-7.2967794e-007
6.3186157e-006
-1.0474132e-006
6.8159688e-006
-1.5193368e-006
7.5538675e-006
-2.2659333e-006
8.6595581e-006
-3.3855204e-006
1.0387602e-005
-5.3016296e-006
1.3153414e-005
-8.2590268e-006
1.7350073e-005
-1.2152445e-005
-1.469786e-005
2.2582866e-005
5.0285339e-006
-1.0941281e-007
5.0588635e-006
-1.2217275e-007
5.0695661e-006
-3.9491608e-008
5.0953592e-006
-1.0600145e-007
5.1090429e-006
-5.2111724e-008
5.1276184e-006
-7.7459795e-008
5.1443141e-006
-6.646135e-008
5.1631373e-006
-7.7413048e-008
5.1848247e-006
-8.836003e-008
5.2116102e-006
-1.0972812e-007
5.2461455e-006
-1.4145074e-007
5.2919946e-006
-1.8804778e-007
5.3540688e-006
-2.5482773e-007
5.4392188e-006
-3.4996852e-007
5.5571977e-006
-4.8564282e-007
5.7221188e-006
-6.8031331e-007
5.9548808e-006
-9.624399e-007
6.2873179e-006
-1.3798503e-006
6.7677495e-006
-1.9997684e-006
7.4774337e-006
-2.9756175e-006
8.5356989e-006
-4.4437856e-006
1.0204372e-005
-6.9703026e-006
1.2952458e-005
-1.1007113e-005
1.7399478e-005
-1.6599466e-005
-2.0450654e-005
2.3152272e-005
5.0281503e-006
-1.362828e-007
5.0593146e-006
-1.5333709e-007
5.0695263e-006
-4.9703193e-008
5.0956856e-006
-1.3216082e-007
5.1091693e-006
-6.5595355e-008
5.1274936e-006
-9.5784144e-008
5.1439182e-006
-8.2885947e-008
5.162318e-006
-9.5812817e-008
5.1834761e-006
-1.0951817e-007
5.2095578e-006
-1.3580981e-007
5.2431476e-006
-1.7504053e-007
5.2876881e-006
-2.3258827e-007
5.3479227e-006
-3.1506231e-007
5.4304369e-006
-4.3248273e-007
5.5445596e-006
-5.9976547e-007
5.7037168e-006
-8.3947053e-007
5.9276346e-006
-1.1863577e-006
6.2461151e-006
-1.6983308e-006
6.7043307e-006
-2.457984e-006
7.3770705e-006
-3.6483573e-006
8.3728103e-006
-5.4395254e-006
9.9582589e-006
-8.5557512e-006
1.2646027e-005
-1.3694881e-005
1.7278275e-005
-2.1231714e-005
-2.6675393e-005
2.3503014e-005
5.0274051e-006
-1.6240758e-007
5.0600001e-006
-1.8593209e-007
5.0694595e-006
-5.9162552e-008
5.0961129e-006
-1.588142e-007
5.109332e-006
-7.8814469e-008
5.1273505e-006
-1.1380261e-007
5.143429e-006
-9.896445e-008
5.1613071e-006
-1.136909e-007
5.181808e-006
-1.3001907e-007
5.2070177e-006
-1.6101961e-007
5.239437e-006
-2.0745977e-007
5.2823613e-006
-2.7551262e-007
5.3403258e-006
-3.730268e-007
5.4195936e-006
-5.117505e-007
5.5289766e-006
-7.0914843e-007
5.6810658e-006
-9.9155974e-007
5.8941557e-006
-1.3994477e-006
6.1955721e-006
-1.9997472e-006
6.6265607e-006
-2.8889727e-006
7.2534577e-006
-4.2752543e-006
8.170894e-006
-6.3569616e-006
9.6439107e-006
-1.0028768e-005
1.2196886e-005
-1.6247856e-005
1.6811403e-005
-2.5846231e-005
-3.2945632e-005
2.3081642e-005
5.0259709e-006
-1.8709819e-007
5.0607746e-006
-2.2073578e-007
5.0694266e-006
-6.7814481e-008
5.0965754e-006
-1.8596304e-007
5.109587e-006
-9.1826055e-008
5.127184e-006
-1.3139962e-007
5.1428514e-006
-1.1463186e-007
5.1601115e-006
-1.3095095e-007
5.1798317e-006
-1.4973931e-007
5.2040063e-006
-1.8519413e-007
5.2350364e-006
-2.3848993e-007
5.2760498e-006
-3.1652599e-007
5.3313319e-006
-4.2830896e-007
5.4067724e-006
-5.8719098e-007
5.5105831e-006
-8.1295913e-007
5.654388e-006
-1.1353647e-006
5.8548352e-006
-1.5998949e-006
6.1364113e-006
-2.2813233e-006
6.5354925e-006
-3.2880539e-006
7.1079729e-006
-4.8477347e-006
7.9318384e-006
-7.1808272e-006
9.2566706e-006
-1.13536e-005
1.1572299e-005
-1.8563484e-005
1.5881556e-005
-3.0155488e-005
-3.8465835e-005
2.1401759e-005
5.0235271e-006
-2.09345e-007
5.0615945e-006
-2.5880319e-007
5.0693799e-006
-7.5599785e-008
5.0970709e-006
-2.1365408e-007
5.1099717e-006
-1.0472685e-007
5.1269775e-006
-1.484054e-007
5.1421926e-006
-1.2984701e-007
5.1587403e-006
-1.4749859e-007
5.1775612e-006
-1.6856028e-007
5.2005442e-006
-2.0817708e-007
5.2299736e-006
-2.6791928e-007
5.2687934e-006
-3.5534583e-007
5.3210019e-006
-4.8051743e-007
5.3920639e-006
-6.5825297e-007
5.4895174e-006
-9.1041266e-007
5.6239024e-006
-1.2697497e-006
5.8100288e-006
-1.7860213e-006
6.0692163e-006
-2.5405108e-006
6.4320093e-006
-3.650847e-006
6.9425244e-006
-5.3582497e-006
7.6583311e-006
-7.8966339e-006
8.7945199e-006
-1.2489789e-005
1.0758082e-005
-2.0527046e-005
1.4534463e-005
-3.393187e-005
-4.2343106e-005
1.8411734e-005
5.0197304e-006
-2.2779506e-007
5.0628457e-006
-3.0191848e-007
5.0690075e-006
-8.1761534e-008
5.0977777e-006
-2.4242429e-007
5.1104379e-006
-1.17387e-007
5.1267218e-006
-1.6468939e-007
5.141465e-006
-1.4459011e-007
5.1572062e-006
-1.6323986e-007
5.1750131e-006
-1.8636715e-007
5.1966588e-006
-2.298228e-007
5.2242869e-006
-2.9554738e-007
5.2606466e-006
-3.9170547e-007
5.3094193e-006
-5.2929017e-007
5.3755949e-006
-7.244286e-007
5.465976e-006
-1.0007937e-006
5.5899221e-006
-1.3936957e-006
5.7602633e-006
-1.9563625e-006
5.9948878e-006
-2.7751353e-006
6.317726e-006
-3.9736851e-006
6.7603027e-006
-5.8008264e-006
7.3556429e-006
-8.4919741e-006
8.259573e-006
-1.3393719e-005
9.7359961e-006
-2.2003469e-005
1.2779873e-005
-3.6975747e-005
-4.3972837e-005
1.4409603e-005
5.0173872e-006
-2.4390189e-007
5.0620598e-006
-3.4659107e-007
5.0701301e-006
-8.9831791e-008
5.0976255e-006
-2.6991967e-007
5.1115727e-006
-1.3133426e-007
5.126165e-006
-1.7928163e-007
5.1408172e-006
-1.5924225e-007
5.1554939e-006
-1.7791662e-007
5.1722267e-006
-2.0309993e-007
5.1923819e-006
-2.4997794e-007
5.218032e-006
-3.2119749e-007
5.2516858e-006
-4.2535932e-007
5.2966943e-006
-5.7429865e-007
5.3575342e-006
-7.8526844e-007
5.4402233e-006
-1.0834828e-006
5.5528564e-006
-1.5063289e-006
5.7062588e-006
-2.1097649e-006
5.9144586e-006
-2.983335e-006
6.1953144e-006
-4.2545409e-006
6.5651391e-006
-6.1706511e-006
7.0369524e-006
-8.9637874e-006
7.6627403e-006
-1.4019507e-005
8.5443958e-006
-2.2885124e-005
1.0402846e-005
-3.8834197e-005
9.5004788e-006
-4.3070471e-005
2.3759051e-005
-1.8944566e-006
2.4434063e-005
-6.7501166e-007
2.4641923e-005
-2.0786e-007
2.4682272e-005
-4.0349195e-008
2.4700523e-005
-1.8250739e-008
2.4701553e-005
-1.0296017e-009
2.4702174e-005
-6.2158509e-010
2.4701999e-005
1.7530682e-010
2.4701862e-005
1.367892e-010
2.470182e-005
4.1933045e-011
2.470179e-005
3.0656263e-011
2.470178e-005
1.0055043e-011
2.4701775e-005
4.5000991e-012
2.4701773e-005
1.8827236e-012
2.4701773e-005
6.0669412e-013
2.4701772e-005
2.5490134e-013
2.4701772e-005
9.6924108e-014
2.4701772e-005
3.2782429e-014
2.4701772e-005
1.4156388e-014
2.4701772e-005
3.7356762e-015
2.4701772e-005
7.3443488e-014
2.4701772e-005
2.0480267e-013
2.4701772e-005
1.9631215e-013
2.4701771e-005
9.4360334e-013
1.1263883e-012
2.3949778e-005
-3.7009803e-006
2.4658173e-005
-1.3834068e-006
2.4786988e-005
-3.3667445e-007
2.4832169e-005
-8.5530694e-008
2.4839278e-005
-2.5359583e-008
2.4842219e-005
-3.9702356e-009
2.4842011e-005
-4.134961e-010
2.4841846e-005
3.4032457e-010
2.4841722e-005
2.6073132e-010
2.4841656e-005
1.070279e-010
2.4841634e-005
5.2863346e-011
2.4841623e-005
2.1311072e-011
2.4841619e-005
8.8567379e-012
2.4841617e-005
3.5014443e-012
2.4841617e-005
1.2442278e-012
2.4841616e-005
4.9150581e-013
2.4841616e-005
1.918113e-013
2.4841616e-005
6.034766e-014
2.4841616e-005
1.1229431e-014
2.4841616e-005
-1.4030318e-014
2.4841616e-005
7.628372e-014
2.4841616e-005
3.2795778e-013
2.4841616e-005
3.4254259e-013
2.4841615e-005
1.3297387e-012
1.8508783e-012
2.4490417e-005
-5.6085319e-006
2.5135711e-005
-2.0286999e-006
2.5193308e-005
-3.9427174e-007
2.5209183e-005
-1.0140541e-007
2.5209279e-005
-2.5455917e-008
2.5211094e-005
-5.7857431e-009
2.5210505e-005
1.7539915e-010
2.5210222e-005
6.240442e-010
2.5210067e-005
4.1503608e-010
2.5209999e-005
1.7534621e-010
2.5209978e-005
7.4378276e-011
2.5209967e-005
3.1997493e-011
2.5209963e-005
1.2792167e-011
2.5209962e-005
4.9229793e-012
2.5209961e-005
1.8074258e-012
2.5209961e-005
6.9868398e-013
2.5209961e-005
2.7452015e-013
2.5209961e-005
8.3638359e-014
2.5209961e-005
4.4524751e-015
2.5209961e-005
-3.924013e-014
2.5209961e-005
5.365079e-014
2.5209961e-005
3.7023249e-013
2.5209961e-005
4.7808157e-013
2.5209959e-005
2.5494738e-012
3.3671652e-012
2.5238041e-005
-7.6943006e-006
2.5818845e-005
-2.6095046e-006
2.5786156e-005
-3.6158261e-007
2.5766046e-005
-8.1295281e-008
2.5756938e-005
-1.634788e-008
2.5757489e-005
-6.336873e-009
2.5756487e-005
1.1777058e-009
2.575609e-005
1.0207829e-009
2.5755912e-005
5.9340074e-010
2.5755843e-005
2.4448737e-010
2.5755823e-005
9.359819e-011
2.5755814e-005
4.1322587e-011
2.5755811e-005
1.5969623e-011
2.575581e-005
6.0213005e-012
2.5755809e-005
2.2517694e-012
2.5755809e-005
8.5549952e-013
2.5755809e-005
3.3633907e-013
2.5755809e-005
1.0051378e-013
2.5755809e-005
-3.4858751e-015
2.5755809e-005
-6.3835561e-014
2.5755809e-005
2.2057634e-014
2.5755809e-005
3.3282068e-013
2.5755809e-005
6.5111345e-013
2.5755805e-005
6.2050518e-012
7.2393323e-012
2.5682913e-005
-9.8741993e-006
2.6169562e-005
-3.0961536e-006
2.6063712e-005
-2.5573337e-007
2.6017105e-005
-3.4687692e-008
2.6000591e-005
1.6580753e-010
2.6000067e-005
-5.8125244e-009
2.5998784e-005
2.4605098e-009
2.5998379e-005
1.4254935e-009
2.5998214e-005
7.5848865e-010
2.5998157e-005
3.0194026e-010
2.5998144e-005
1.0660817e-010
2.5998137e-005
4.7719251e-011
2.5998136e-005
1.7815927e-011
2.5998135e-005
6.6051762e-012
2.5998135e-005
2.5017331e-012
2.5998135e-005
9.322727e-013
2.5998135e-005
3.6496211e-013
2.5998135e-005
1.0762707e-013
2.5998135e-005
-8.695644e-015
2.5998135e-005
-7.7141846e-014
2.5998135e-005
-2.4819996e-016
2.5998135e-005
2.4258308e-013
2.5998135e-005
8.7416787e-013
2.5998128e-005
1.2393887e-011
1.351616e-011
2.4892447e-005
-1.1685005e-005
2.5165997e-005
-3.3697032e-006
2.5040927e-005
-1.3066325e-007
2.499449e-005
1.1749483e-008
2.4976781e-005
1.7874686e-008
2.4975644e-005
-4.6759989e-009
2.4974391e-005
3.7142801e-009
2.4974178e-005
1.6382271e-009
2.4974091e-005
8.4581648e-010
2.4974067e-005
3.2504717e-010
2.4974067e-005
1.0724125e-010
2.4974066e-005
4.8957614e-011
2.4974066e-005
1.7525926e-011
2.4974066e-005
6.4217202e-012
2.4974066e-005
2.4564376e-012
2.4974066e-005
8.931366e-013
2.4974066e-005
3.47153e-013
2.4974066e-005
1.0087682e-013
2.4974066e-005
-8.2045366e-015
2.4974066e-005
-7.0904621e-014
2.4974066e-005
5.9657547e-015
2.4974066e-005
1.7701017e-013
2.4974066e-005
1.046257e-012
2.497406e-005
1.8814666e-011
1.9923207e-011
2.1951183e-005
-1.2234429e-005
2.1787854e-005
-3.2063735e-006
2.1703921e-005
-4.6730041e-008
2.1684997e-005
3.067366e-008
2.1674157e-005
2.8714344e-008
2.1672876e-005
-3.3953619e-009
2.1672177e-005
4.4135304e-009
2.1672345e-005
1.4706977e-009
2.1672398e-005
7.9277986e-010
2.1672432e-005
2.9102501e-010
2.1672448e-005
9.0520136e-011
2.1672454e-005
4.297548e-011
2.1672457e-005
1.4451985e-011
2.1672459e-005
5.2878916e-012
2.1672459e-005
2.0441865e-012
2.1672459e-005
7.182138e-013
2.1672459e-005
2.7787049e-013
2.1672459e-005
7.8276816e-014
2.1672459e-005
-3.6476251e-015
2.1672459e-005
-4.9326799e-014
2.1672459e-005
4.0584747e-014
2.1672459e-005
1.8268146e-013
2.1672459e-005
9.1384277e-013
2.1672457e-005
2.1342944e-011
2.2463581e-011
1.6670454e-005
-1.0493149e-005
1.5857889e-005
-2.393808e-006
1.5830045e-005
-1.8886317e-008
1.584314e-005
1.7578615e-008
1.584475e-005
2.7104227e-008
1.5843484e-005
-2.1289183e-009
1.584401e-005
3.8878827e-009
1.5844551e-005
9.291466e-010
1.5844769e-005
5.7518452e-010
1.5844865e-005
1.952786e-010
1.5844897e-005
5.8289501e-011
1.584491e-005
2.9290819e-011
1.5844916e-005
8.9553459e-012
1.5844918e-005
3.3482712e-012
1.5844919e-005
1.3068019e-012
1.5844919e-005
4.3800074e-013
1.5844919e-005
1.7197533e-013
1.5844919e-005
4.5764985e-014
1.5844919e-005
-2.2384651e-016
1.5844919e-005
-2.9594483e-014
1.5844919e-005
5.5448858e-014
1.5844919e-005
1.8533507e-013
1.584492e-005
4.0424562e-013
1.5844924e-005
1.6986521e-011
1.8116812e-011
9.9789331e-006
-6.0624793e-006
8.6347553e-006
-1.0496304e-006
8.6196716e-006
-3.8027075e-009
8.6381643e-006
-9.1413109e-010
8.6513688e-006
1.3899726e-008
8.650244e-006
-1.0040655e-009
8.6521522e-006
1.9796951e-009
8.6527793e-006
3.0199771e-010
8.6531078e-006
2.4669528e-010
8.6532293e-006
7.3734737e-011
8.653266e-006
2.1633149e-011
8.6532836e-006
1.1652757e-011
8.6532895e-006
3.0905735e-012
8.6532917e-006
1.2336188e-012
8.6532925e-006
4.8204786e-013
8.6532928e-006
1.5257647e-013
8.6532929e-006
6.5763684e-014
8.653293e-006
1.5602705e-014
8.653293e-006
4.8123465e-016
8.6532929e-006
-2.3713896e-014
8.653293e-006
-3.125685e-016
8.6532931e-006
5.4576923e-014
8.6532937e-006
-1.7575833e-013
8.6533037e-006
7.0740638e-012
7.9158322e-012
3.4379988e-006
2.3883686e-006
2.3845658e-006
2.3836517e-006
2.3975514e-006
2.3965474e-006
2.3985271e-006
2.3988291e-006
2.3990758e-006
2.3991495e-006
2.3991711e-006
2.3991828e-006
2.3991859e-006
2.3991872e-006
2.3991876e-006
2.3991878e-006
2.3991879e-006
2.3991879e-006
2.3991879e-006
2.3991878e-006
2.3991878e-006
2.3991879e-006
2.3991877e-006
2.3991948e-006
1.5084108e-005
-3.2416861e-007
1.5141369e-005
-4.0385274e-007
1.5246502e-005
-1.9496426e-007
1.5276386e-005
-2.9980363e-007
1.5345742e-005
-2.0068996e-007
1.5376181e-005
-2.0972071e-007
1.5418488e-005
-2.0154961e-007
1.5455705e-005
-2.1513379e-007
1.5498642e-005
-2.460367e-007
1.5549405e-005
-3.0074083e-007
1.5613432e-005
-3.8522428e-007
1.5696806e-005
-5.0873318e-007
1.5807438e-005
-6.8493089e-007
1.5955532e-005
-9.333628e-007
1.6154198e-005
-1.2821482e-006
1.641992e-005
-1.7720516e-006
1.6772752e-005
-2.4625964e-006
1.7231966e-005
-3.442549e-006
1.7818304e-005
-4.8408792e-006
1.8496708e-005
-6.8490546e-006
1.9236115e-005
-9.7031942e-006
1.9515594e-005
-1.4298986e-005
1.8821425e-005
-2.2190955e-005
1.4637473e-005
-3.4650245e-005
-2.8432997e-005
1.5083918e-005
-4.042459e-007
1.515234e-005
-4.7227479e-007
1.5263317e-005
-3.0594107e-007
1.5293904e-005
-3.3039011e-007
1.535038e-005
-2.5716639e-007
1.5380345e-005
-2.3968601e-007
1.5410395e-005
-2.3159898e-007
1.5437733e-005
-2.4247164e-007
1.5466807e-005
-2.7511136e-007
1.550032e-005
-3.3425311e-007
1.5541485e-005
-4.2638932e-007
1.5594072e-005
-5.6132054e-007
1.5662451e-005
-7.5331046e-007
1.5751695e-005
-1.0226067e-006
1.5867441e-005
-1.3978939e-006
1.6015026e-005
-1.919637e-006
1.6197364e-005
-2.6449344e-006
1.6409429e-005
-3.6546132e-006
1.6629809e-005
-5.0612599e-006
1.6792657e-005
-7.011902e-006
1.6778287e-005
-9.6888246e-006
1.6076872e-005
-1.3597571e-005
1.3641317e-005
-1.97554e-005
6.822297e-006
-2.7831225e-005
-2.1610701e-005
1.5097814e-005
-4.9821911e-007
1.5184603e-005
-5.5906407e-007
1.5283108e-005
-4.0444607e-007
1.5320309e-005
-3.675904e-007
1.5361636e-005
-2.9849329e-007
1.538557e-005
-2.6362013e-007
1.5403982e-005
-2.5001094e-007
1.5418882e-005
-2.5737188e-007
1.5432653e-005
-2.8888266e-007
1.544695e-005
-3.4855015e-007
1.5463161e-005
-4.4259971e-007
1.5482441e-005
-5.8060075e-007
1.5505603e-005
-7.7647284e-007
1.553282e-005
-1.0498238e-006
1.5562832e-005
-1.4279053e-006
1.5591305e-005
-1.9481101e-006
1.5607671e-005
-2.6613003e-006
1.5588963e-005
-3.6359059e-006
1.5488992e-005
-4.9612884e-006
1.5219567e-005
-6.7424769e-006
1.4628743e-005
-9.0980009e-006
1.3314042e-005
-1.228287e-005
1.0405112e-005
-1.684647e-005
4.5091127e-006
-2.1935226e-005
-1.7101588e-005
1.5119298e-005
-6.1367604e-007
1.5224936e-005
-6.647018e-007
1.5312729e-005
-4.9223952e-007
1.5349772e-005
-4.0463325e-007
1.5376697e-005
-3.2541811e-007
1.539007e-005
-2.7699373e-007
1.5395746e-005
-2.5568627e-007
1.5396726e-005
-2.5835175e-007
1.5394249e-005
-2.8640584e-007
1.5388553e-005
-3.4285487e-007
1.5379166e-005
-4.3321234e-007
1.5364722e-005
-5.6615683e-007
1.5342707e-005
-7.544578e-007
1.5308894e-005
-1.0160104e-006
1.5256152e-005
-1.375164e-006
1.51725e-005
-1.8644579e-006
1.5037757e-005
-2.5265567e-006
1.481765e-005
-3.4157992e-006
1.4454458e-005
-4.5980963e-006
1.3853925e-005
-6.1419442e-006
1.2865414e-005
-8.1094903e-006
1.1208104e-005
-1.062556e-005
8.3520987e-006
-1.3990464e-005
3.7139055e-006
-1.7297033e-005
-1.3387682e-005
1.5142204e-005
-7.5203865e-007
1.5266775e-005
-7.8927361e-007
1.5345233e-005
-5.706973e-007
1.5374604e-005
-4.3400388e-007
1.5385843e-005
-3.3665759e-007
1.5385068e-005
-2.7621823e-007
1.5376654e-005
-2.4727255e-007
1.5362953e-005
-2.4465091e-007
1.5344074e-005
-2.675268e-007
1.5318757e-005
-3.1753743e-007
1.5284635e-005
-3.9909097e-007
1.5238086e-005
-5.1960724e-007
1.5173683e-005
-6.9005526e-007
1.5083461e-005
-9.2578836e-007
1.4955646e-005
-1.2473488e-006
1.4772725e-005
-1.6815373e-006
1.45084e-005
-2.2622308e-006
1.4122863e-005
-3.0302628e-006
1.3556132e-005
-4.0313656e-006
1.2720273e-005
-5.306085e-006
1.1488754e-005
-6.8779713e-006
9.6705902e-006
-8.8073956e-006
6.9543263e-006
-1.12742e-005
3.1330804e-006
-1.3475787e-005
-1.0254602e-005
1.5206884e-005
-9.5508142e-007
1.5363254e-005
-9.4564422e-007
1.5428421e-005
-6.3586368e-007
1.5439439e-005
-4.450226e-007
1.5430659e-005
-3.2787702e-007
1.5412597e-005
-2.5815672e-007
1.5388861e-005
-2.2353656e-007
1.5360337e-005
-2.161264e-007
1.5325664e-005
-2.3285411e-007
1.5282045e-005
-2.7391847e-007
1.5225326e-005
-3.4237161e-007
1.514982e-005
-4.4410125e-007
1.5047646e-005
-5.8788098e-007
1.4907879e-005
-7.8602173e-007
1.4715323e-005
-1.0547931e-006
1.4448706e-005
-1.4149203e-006
1.4078181e-005
-1.8917058e-006
1.3562097e-005
-2.5141782e-006
1.2842966e-005
-3.3122351e-006
1.1844044e-005
-4.307163e-006
1.0467519e-005
-5.5014462e-006
8.5824611e-006
-6.9223375e-006
5.9906749e-006
-8.6824143e-006
2.6618822e-006
-1.0146994e-005
-7.5927197e-006
1.5521748e-005
-1.4729886e-006
1.5755005e-005
-1.1789008e-006
1.5786413e-005
-6.6727245e-007
1.5760214e-005
-4.1882271e-007
1.5723989e-005
-2.9165215e-007
1.5685325e-005
-2.1949253e-007
1.5645035e-005
-1.8324674e-007
1.5601714e-005
-1.7280562e-007
1.5552026e-005
-1.8316663e-007
1.5491449e-005
-2.1334129e-007
1.5414126e-005
-2.650486e-007
1.5312503e-005
-3.4247808e-007
1.5176575e-005
-4.5195266e-007
1.499298e-005
-6.024274e-007
1.474386e-005
-8.0567283e-007
1.4405192e-005
-1.0762523e-006
1.3944949e-005
-1.4314628e-006
1.3321096e-005
-1.8903253e-006
1.2479595e-005
-2.470734e-006
1.1354478e-005
-3.1820464e-006
9.8708173e-006
-4.017785e-006
7.9372599e-006
-4.9887801e-006
5.4190873e-006
-6.1642417e-006
2.3628815e-006
-7.0907882e-006
-5.2298382e-006
1.6286332e-005
-2.7554798e-006
1.6544739e-005
-1.4373079e-006
1.6465623e-005
-5.8815569e-007
1.6368479e-005
-3.2167875e-007
1.6292885e-005
-2.1605901e-007
1.6229149e-005
-1.5575559e-007
1.6171191e-005
-1.2528934e-007
1.6113434e-005
-1.1504888e-007
1.6049772e-005
-1.1950418e-007
1.5973791e-005
-1.3736033e-007
1.5878051e-005
-1.6930894e-007
1.5753264e-005
-2.1769124e-007
1.5587551e-005
-2.8623913e-007
1.5365515e-005
-3.8039137e-007
1.5067016e-005
-5.0717376e-007
1.4665872e-005
-6.7510843e-007
1.4128483e-005
-8.940742e-007
1.3412628e-005
-1.1744698e-006
1.2467067e-005
-1.5251732e-006
1.1233935e-005
-1.9489146e-006
9.6540834e-006
-2.4379332e-006
7.6605125e-006
-2.9952092e-006
5.1527586e-006
-3.6564878e-006
2.2109334e-006
-4.148963e-006
-3.0189048e-006
1.6278399e-005
-4.0300378e-006
1.605508e-005
-1.2139885e-006
1.5746319e-005
-2.7939512e-007
1.557232e-005
-1.4767956e-007
1.5457911e-005
-1.0164978e-007
1.5372802e-005
-7.0647186e-008
1.5302409e-005
-5.4896466e-008
1.5236181e-005
-4.8820867e-008
1.5165938e-005
-4.9261334e-008
1.5084071e-005
-5.5492657e-008
1.4982272e-005
-6.7510606e-008
1.4850694e-005
-8.6112866e-008
1.4677107e-005
-1.1265172e-007
1.4445876e-005
-1.491607e-007
1.413693e-005
-1.9822768e-007
1.3724765e-005
-2.629438e-007
1.3177471e-005
-3.4678026e-007
1.2456196e-005
-4.5319443e-007
1.1515866e-005
-5.8484327e-007
1.0308693e-005
-7.4174106e-007
8.7900813e-006
-9.193219e-007
6.9115419e-006
-1.1166698e-006
4.5963938e-006
-1.3413397e-006
1.9357301e-006
-1.4882993e-006
-1.0831746e-006
1.0973803e-005
9.7598147e-006
9.4804196e-006
9.33274e-006
9.2310902e-006
9.160443e-006
9.1055466e-006
9.0567257e-006
9.0074644e-006
8.9519717e-006
8.8844611e-006
8.7983482e-006
8.6856965e-006
8.5365358e-006
8.3383081e-006
8.0753643e-006
7.7285841e-006
7.2753896e-006
6.6905464e-006
5.9488053e-006
5.0294834e-006
3.9128136e-006
2.571474e-006
1.0831746e-006
)
;

boundaryField
{
    inlet
    {
        type            calculated;
        value           nonuniform List<scalar> 
20
(
-5.0012803e-006
-5.0012803e-006
-5.0012803e-006
-5.0012803e-006
-5.0012803e-006
-5.0012803e-006
-5.0012803e-006
-5.0012803e-006
-5.0012803e-006
-5.0012803e-006
-1.5003841e-005
-1.5003841e-005
-1.5003841e-005
-1.5003841e-005
-1.5003841e-005
-1.5003841e-005
-1.5003841e-005
-1.5003841e-005
-1.5003841e-005
-1.5003841e-005
)
;
    }
    walls
    {
        type            calculated;
        value           uniform 0;
    }
    outlet
    {
        type            calculated;
        value           nonuniform List<scalar> 10(2.4701769e-005 2.4841615e-005 2.5209958e-005 2.5755802e-005 2.5998122e-005 2.4974053e-005 2.1672454e-005 1.5844928e-005 8.6533139e-006 2.3992028e-006);
    }
    centreline
    {
        type            symmetryPlane;
        value           uniform 0;
    }
    frontAndBack
    {
        type            empty;
        value           nonuniform 0();
    }
}


// ************************************************************************* //
