/*--------------------------------*- C++ -*----------------------------------*\
| =========                 |                                                 |
| \\      /  F ield         | OpenFOAM: The Open Source CFD Toolbox           |
|  \\    /   O peration     | Version:  5.x                                   |
|   \\  /    A nd           | Web:      www.OpenFOAM.org                      |
|    \\/     M anipulation  |                                                 |
\*---------------------------------------------------------------------------*/
/*   Windows 32 and 64 bit porting by blueCAPE: http://www.bluecape.com.pt   *\
|  Based on Windows porting (2.0.x v4) by Symscape: http://www.symscape.com   |
\*---------------------------------------------------------------------------*/
FoamFile
{
    version     2.0;
    format      ascii;
    class       volSymmTensorField;
    location    "0.03";
    object      sigma_0;
}
// * * * * * * * * * * * * * * * * * * * * * * * * * * * * * * * * * * * * * //

dimensions      [0 2 -2 0 0 0 0];

internalField   nonuniform List<symmTensor> 
750
(
(8.871416e-005 8.9515015e-006 0 -3.6771409e-006 0 0)
(-0.00024381768 -2.004394e-006 0 9.1974675e-005 0 0)
(0.00014637736 -2.5909996e-006 0 -4.50348e-005 0 0)
(-0.00011601225 3.6571729e-006 0 5.9504296e-005 0 0)
(2.3609041e-005 -2.2957705e-006 0 2.099263e-006 0 0)
(-4.0683631e-005 1.5407586e-006 0 2.962296e-005 0 0)
(-1.8661374e-005 -2.6544481e-008 0 2.2803745e-005 0 0)
(-3.2281696e-005 9.4004511e-007 0 3.0843434e-005 0 0)
(-3.7000736e-005 1.0980045e-006 0 3.7394633e-005 0 0)
(-4.8919373e-005 1.7043066e-006 0 4.8754215e-005 0 0)
(-6.5064275e-005 2.4192964e-006 0 6.498938e-005 0 0)
(-8.7332974e-005 3.4014784e-006 0 8.7165982e-005 0 0)
(-0.00011957951 4.8124374e-006 0 0.00011927279 0 0)
(-0.00016473771 6.8040641e-006 0 0.00016416787 0 0)
(-0.00022864081 9.683243e-006 0 0.0002275644 0 0)
(-0.0003197222 1.3900838e-005 0 0.0003175853 0 0)
(-0.00045201351 2.0356937e-005 0 0.00044810859 0 0)
(-0.00064318093 2.9760866e-005 0 0.00063392932 0 0)
(-0.00093610247 4.6137605e-005 0 0.0009219285 0 0)
(-0.001376095 6.8010059e-005 0 0.0013292155 0 0)
(-0.0020510483 0.00011140096 0 0.0019957093 0 0)
(-0.0032218432 0.00016090137 0 0.0029662805 0 0)
(-0.0046390665 0.0002213441 0 0.0043748961 0 0)
(-0.0071165637 0.00020341017 0 0.0060377626 0 0)
(-0.0080280349 -0.00023043892 0 0.0073306771 0 0)
(9.113484e-005 2.0487843e-005 0 1.9406176e-005 0 0)
(-0.00024671867 -4.7569385e-006 0 4.8612308e-005 0 0)
(0.00014714725 -4.8394002e-006 0 -7.2816651e-006 0 0)
(-0.0001157588 7.5895177e-006 0 3.7880992e-005 0 0)
(2.3118656e-005 -4.7359732e-006 0 1.4288359e-005 0 0)
(-4.0183224e-005 3.2638335e-006 0 2.501983e-005 0 0)
(-1.8748437e-005 3.9613604e-007 0 2.4346131e-005 0 0)
(-3.2017162e-005 2.6487353e-006 0 3.0079363e-005 0 0)
(-3.679888e-005 3.3654895e-006 0 3.7273607e-005 0 0)
(-4.8593899e-005 5.0984649e-006 0 4.8346039e-005 0 0)
(-6.4596117e-005 7.2553997e-006 0 6.4454363e-005 0 0)
(-8.6749444e-005 1.0190584e-005 0 8.6479807e-005 0 0)
(-0.00011872496 1.4399295e-005 0 0.00011828072 0 0)
(-0.00016350908 2.0338664e-005 0 0.00016274417 0 0)
(-0.00022685606 2.8913536e-005 0 0.00022549822 0 0)
(-0.00031706829 4.1469431e-005 0 0.00031450992 0 0)
(-0.00044804864 6.0598643e-005 0 0.00044357987 0 0)
(-0.00063652265 8.8530897e-005 0 0.00062606184 0 0)
(-0.00092704545 0.00013694509 0 0.0009124188 0 0)
(-0.001366629 0.00020312408 0 0.0013133938 0 0)
(-0.0020228893 0.00033111256 0 0.0019732471 0 0)
(-0.0032086827 0.00048894668 0 0.0029240826 0 0)
(-0.0046264034 0.00066169094 0 0.0043969124 0 0)
(-0.0072624479 0.00062430622 0 0.0060715802 0 0)
(-0.0081093722 -0.0007155141 0 0.0075029837 0 0)
(9.3902851e-005 2.5863057e-005 0 2.4531008e-005 0 0)
(-0.00025043295 -7.0644762e-006 0 3.6655468e-005 0 0)
(0.0001484804 -5.4008203e-006 0 2.3218835e-006 0 0)
(-0.00011584416 9.3608376e-006 0 3.1269494e-005 0 0)
(2.257448e-005 -5.7617295e-006 0 1.7077653e-005 0 0)
(-3.9453919e-005 4.2276792e-006 0 2.3117022e-005 0 0)
(-1.8764829e-005 1.1900231e-006 0 2.4734277e-005 0 0)
(-3.1550739e-005 4.208515e-006 0 2.9524266e-005 0 0)
(-3.6378238e-005 5.6725147e-006 0 3.6884246e-005 0 0)
(-4.7973363e-005 8.4610542e-006 0 4.7735805e-005 0 0)
(-6.3714046e-005 1.206057e-005 0 6.3592115e-005 0 0)
(-8.5573688e-005 1.6931846e-005 0 8.5332846e-005 0 0)
(-0.0001170383 2.3904422e-005 0 0.00011663415 0 0)
(-0.00016109573 3.374993e-005 0 0.00016038917 0 0)
(-0.0002233299 4.7950368e-005 0 0.00022205924 0 0)
(-0.00031181817 6.8747524e-005 0 0.00030939345 0 0)
(-0.0004400866 0.00010034504 0 0.00043583654 0 0)
(-0.00062398463 0.00014678732 0 0.00061381574 0 0)
(-0.00090774704 0.00022607431 0 0.00089393073 0 0)
(-0.0013373296 0.00033867198 0 0.0012840856 0 0)
(-0.0019737334 0.00054180059 0 0.0019280349 0 0)
(-0.0031573452 0.00081575796 0 0.0028631478 0 0)
(-0.0046163731 0.0011097128 0 0.0043921971 0 0)
(-0.0075857118 0.0010939405 0 0.0062585176 0 0)
(-0.0085636475 -0.001293643 0 0.0078758749 0 0)
(9.6629577e-005 3.1234222e-005 0 2.064963e-005 0 0)
(-0.00025457893 -9.702996e-006 0 4.2606628e-005 0 0)
(0.000150471 -6.5002223e-006 0 -2.822846e-006 0 0)
(-0.00011604219 1.1536408e-005 0 3.3643181e-005 0 0)
(2.1951036e-005 -7.0105161e-006 0 1.5684426e-005 0 0)
(-3.8479053e-005 5.3571561e-006 0 2.2982583e-005 0 0)
(-1.8738003e-005 1.9696254e-006 0 2.4314189e-005 0 0)
(-3.0898293e-005 5.71885e-006 0 2.902509e-005 0 0)
(-3.5735148e-005 7.9290414e-006 0 3.619513e-005 0 0)
(-4.7034498e-005 1.1746645e-005 0 4.6815176e-005 0 0)
(-6.2426764e-005 1.6760635e-005 0 6.2306401e-005 0 0)
(-8.3812166e-005 2.3525814e-005 0 8.3579337e-005 0 0)
(-0.00011453076 3.3192267e-005 0 0.00011413523 0 0)
(-0.00015751302 4.6836795e-005 0 0.00015681936 0 0)
(-0.0002181036 6.6485795e-005 0 0.0002168525 0 0)
(-0.00030407771 9.5246056e-005 0 0.00030169023 0 0)
(-0.00042823515 0.00013875482 0 0.00042402128 0 0)
(-0.00060594592 0.00020309645 0 0.00059597229 0 0)
(-0.00087810822 0.00031271457 0 0.00086419594 0 0)
(-0.0012899428 0.00046730163 0 0.001238121 0 0)
(-0.0018995008 0.00075588802 0 0.0018533141 0 0)
(-0.0030655497 0.0011569994 0 0.0027692152 0 0)
(-0.0045962485 0.0016303344 0 0.0043544665 0 0)
(-0.0081182709 0.0016890072 0 0.0066084957 0 0)
(-0.0094339931 -0.0018393465 0 0.0085090957 0 0)
(9.9527353e-005 3.8141253e-005 0 1.7101681e-005 0 0)
(-0.00025943064 -1.2346026e-005 0 4.9343873e-005 0 0)
(0.00015309829 -8.2036086e-006 0 -7.6707894e-006 0 0)
(-0.0001162243 1.4248421e-005 0 3.6364472e-005 0 0)
(2.1154855e-005 -8.5906687e-006 0 1.4936135e-005 0 0)
(-3.7226548e-005 6.4848259e-006 0 2.2780808e-005 0 0)
(-1.8668322e-005 2.6845732e-006 0 2.3787429e-005 0 0)
(-3.0059345e-005 7.1896998e-006 0 2.8356762e-005 0 0)
(-3.4872809e-005 1.0121557e-005 0 3.5278517e-005 0 0)
(-4.5791141e-005 1.4948255e-005 0 4.5587908e-005 0 0)
(-6.0722184e-005 2.1336686e-005 0 6.0599878e-005 0 0)
(-8.1484649e-005 2.9953059e-005 0 8.1252621e-005 0 0)
(-0.00011122432 4.2233339e-005 0 0.00011083081 0 0)
(-0.0001527777 5.9553314e-005 0 0.0001520875 0 0)
(-0.00021121162 8.4462447e-005 0 0.0002099668 0 0)
(-0.00029387239 0.00012087668 0 0.00029150388 0 0)
(-0.00041261798 0.00017580774 0 0.00040841274 0 0)
(-0.00058213337 0.0002572306 0 0.00057234455 0 0)
(-0.00083993844 0.0003937183 0 0.00082582948 0 0)
(-0.0012270168 0.0005900923 0 0.0011763355 0 0)
(-0.0018012084 0.00095939506 0 0.0017535339 0 0)
(-0.0029283916 0.0015007804 0 0.0026282602 0 0)
(-0.0045412636 0.0022161945 0 0.0042737702 0 0)
(-0.0088210854 0.0025139727 0 0.0070300795 0 0)
(-0.010742904 -0.0020111103 0 0.0094647554 0 0)
(0.00010302676 4.71163e-005 0 1.3348934e-005 0 0)
(-0.0002654451 -1.4680946e-005 0 5.6406868e-005 0 0)
(0.00015635535 -1.0517075e-005 0 -1.2705523e-005 0 0)
(-0.00011635203 1.7548904e-005 0 3.8841527e-005 0 0)
(2.0130723e-005 -1.05029e-005 0 1.4248143e-005 0 0)
(-3.5671335e-005 7.5956737e-006 0 2.2275764e-005 0 0)
(-1.8558142e-005 3.3632808e-006 0 2.3213712e-005 0 0)
(-2.9036785e-005 8.603312e-006 0 2.7506279e-005 0 0)
(-3.3796541e-005 1.2242605e-005 0 3.4152104e-005 0 0)
(-4.4254897e-005 1.8047655e-005 0 4.4070655e-005 0 0)
(-5.861804e-005 2.5764776e-005 0 5.8500101e-005 0 0)
(-7.8608394e-005 3.6168305e-005 0 7.8386271e-005 0 0)
(-0.00010714628 5.0956741e-005 0 0.00010676895 0 0)
(-0.00014694501 7.1790057e-005 0 0.00014627907 0 0)
(-0.00020274006 0.00010170236 0 0.00020153464 0 0)
(-0.00028134051 0.00014534079 0 0.00027904522 0 0)
(-0.00039351962 0.00021094087 0 0.00038941649 0 0)
(-0.00055290993 0.00030827635 0 0.00054348157 0 0)
(-0.00079246859 0.00047083179 0 0.00077846347 0 0)
(-0.0011495076 0.00070467832 0 0.0011006514 0 0)
(-0.0016776036 0.0011514737 0 0.001629548 0 0)
(-0.0027525693 0.0018140056 0 0.0024491337 0 0)
(-0.0044065322 0.002887213 0 0.0041065901 0 0)
(-0.0095219968 0.0036402152 0 0.0073684295 0 0)
(-0.012144202 -0.0012572442 0 0.010524098 0 0)
(0.00010777714 5.9046522e-005 0 7.905506e-006 0 0)
(-0.0002732636 -1.6581059e-005 0 6.6394456e-005 0 0)
(0.00016023523 -1.3639606e-005 0 -1.9424685e-005 0 0)
(-0.00011638655 2.1729868e-005 0 4.2154799e-005 0 0)
(1.8768682e-005 -1.289217e-005 0 1.3331129e-005 0 0)
(-3.3768587e-005 8.7145401e-006 0 2.1630813e-005 0 0)
(-1.8409382e-005 4.0166661e-006 0 2.2526064e-005 0 0)
(-2.7836947e-005 9.9477133e-006 0 2.6502216e-005 0 0)
(-3.2512987e-005 1.4280808e-005 0 3.2815908e-005 0 0)
(-4.2434279e-005 2.1029131e-005 0 4.2273867e-005 0 0)
(-5.6126604e-005 3.0023746e-005 0 5.6016781e-005 0 0)
(-7.5198516e-005 4.2144145e-005 0 7.4991434e-005 0 0)
(-0.00010232928 5.9327773e-005 0 0.00010197455 0 0)
(-0.00014005976 8.34994e-005 0 0.0001394267 0 0)
(-0.0001927532 0.00011814516 0 0.00019159818 0 0)
(-0.00026657341 0.00016858506 0 0.00026436547 0 0)
(-0.0003710533 0.00024412615 0 0.00036706491 0 0)
(-0.00051832737 0.00035646613 0 0.00050927835 0 0)
(-0.0007362991 0.00054225986 0 0.0007223474 0 0)
(-0.0010560448 0.00081145086 0 0.0010095082 0 0)
(-0.0015225096 0.0013366626 0 0.001473957 0 0)
(-0.0024942522 0.0021445796 0 0.0021904915 0 0)
(-0.004117578 0.0036509048 0 0.0037818566 0 0)
(-0.0099324811 0.0051216281 0 0.0074043566 0 0)
(-0.012700783 0.00028574568 0 0.010964994 0 0)
(0.00011465904 7.5078767e-005 0 -8.0300636e-007 0 0)
(-0.00028376942 -1.8223013e-005 0 8.0926654e-005 0 0)
(0.00016480795 -1.7994749e-005 0 -2.9527627e-005 0 0)
(-0.00011628781 2.7266788e-005 0 4.6777698e-005 0 0)
(1.6884782e-005 -1.6117524e-005 0 1.2092702e-005 0 0)
(-3.1422366e-005 9.9414162e-006 0 2.0715085e-005 0 0)
(-1.8236151e-005 4.6440912e-006 0 2.1757555e-005 0 0)
(-2.6469239e-005 1.1211517e-005 0 2.5349732e-005 0 0)
(-3.1034181e-005 1.622661e-005 0 3.1279506e-005 0 0)
(-4.0340682e-005 2.3858097e-005 0 4.0197096e-005 0 0)
(-5.3288972e-005 3.4081214e-005 0 5.318311e-005 0 0)
(-7.1285535e-005 4.7809835e-005 0 7.1085519e-005 0 0)
(-9.6845265e-005 6.7247461e-005 0 9.6498466e-005 0 0)
(-0.00013225054 9.4513065e-005 0 0.00013163042 0 0)
(-0.00018148652 0.00013349046 0 0.00018035401 0 0)
(-0.0002500489 0.00019002609 0 0.00024789101 0 0)
(-0.00034618589 0.0002742655 0 0.00034227399 0 0)
(-0.00048063929 0.00039915678 0 0.00047194813 0 0)
(-0.00067518424 0.00060425751 0 0.00066135054 0 0)
(-0.00095595079 0.00090057191 0 0.00091213391 0 0)
(-0.0013465002 0.0014970812 0 0.001297007 0 0)
(-0.002194661 0.0024086032 0 0.0018958819 0 0)
(-0.0035582079 0.0045076242 0 0.0031683287 0 0)
(-0.0096058022 0.0068870136 0 0.0066831058 0 0)
(-0.010810613 0.0039454267 0 0.0092963812 0 0)
(0.0001246777 9.5138768e-005 0 -7.7457211e-006 0 0)
(-0.00029817665 -2.0282796e-005 0 8.7770788e-005 0 0)
(0.0001701996 -2.4041483e-005 0 -3.3805356e-005 0 0)
(-0.00011595467 3.4818924e-005 0 4.6210553e-005 0 0)
(1.4234857e-005 -2.0521438e-005 0 1.3198566e-005 0 0)
(-2.846945e-005 1.1411585e-005 0 1.8726538e-005 0 0)
(-1.8083171e-005 5.2632623e-006 0 2.109719e-005 0 0)
(-2.494694e-005 1.2366537e-005 0 2.4008038e-005 0 0)
(-2.9355503e-005 1.8058357e-005 0 2.9537129e-005 0 0)
(-3.7984776e-005 2.6539698e-005 0 3.7841967e-005 0 0)
(-5.0058756e-005 3.7888504e-005 0 4.9933977e-005 0 0)
(-6.6889877e-005 5.3177801e-005 0 6.6665951e-005 0 0)
(-9.065757e-005 7.4718969e-005 0 9.0277593e-005 0 0)
(-0.00012344635 0.00010488571 0 0.00012278083 0 0)
(-0.00016876983 0.00014790813 0 0.0001675729 0 0)
(-0.00023134766 0.00021014999 0 0.00022910556 0 0)
(-0.0003179158 0.00030245373 0 0.00031386532 0 0)
(-0.00043708598 0.00043939842 0 0.00042830331 0 0)
(-0.00060374474 0.00066136308 0 0.00058942332 0 0)
(-0.00083512009 0.00098206776 0 0.00079213366 0 0)
(-0.001132203 0.0016384276 0 0.0010793861 0 0)
(-0.0017654566 0.002643372 0 0.001458747 0 0)
(-0.0027790822 0.005189186 0 0.002340497 0 0)
(-0.0082502217 0.0081486668 0 0.00512758 0 0)
(-0.0070081341 0.006680446 0 0.0057772272 0 0)
(0.00013834809 0.00011216945 0 5.1754571e-006 0 0)
(-0.00031727024 -2.2640228e-005 0 5.6138946e-005 0 0)
(0.00017672995 -3.0259617e-005 0 -1.4310471e-006 0 0)
(-0.00011520587 4.2285242e-005 0 2.6691544e-005 0 0)
(1.0565573e-005 -2.4660088e-005 0 2.1534935e-005 0 0)
(-2.4707081e-005 1.2521962e-005 0 1.5527529e-005 0 0)
(-1.8028801e-005 6.0055479e-006 0 2.0462653e-005 0 0)
(-2.3288579e-005 1.3360053e-005 0 2.2421575e-005 0 0)
(-2.7498317e-005 1.9771975e-005 0 2.7548205e-005 0 0)
(-3.5296673e-005 2.8945131e-005 0 3.5057705e-005 0 0)
(-4.6484338e-005 4.1391174e-005 0 4.6196557e-005 0 0)
(-6.2088436e-005 5.8208217e-005 0 6.1655919e-005 0 0)
(-8.3799811e-005 8.1575355e-005 0 8.3129375e-005 0 0)
(-0.00011372986 0.00011436987 0 0.00011264152 0 0)
(-0.00015477578 0.00016096621 0 0.00015294389 0 0)
(-0.00021089252 0.00022812236 0 0.00020768483 0 0)
(-0.00028735371 0.0003269254 0 0.0002817571 0 0)
(-0.00039143825 0.00047295537 0 0.00038020717 0 0)
(-0.00053184969 0.00070437745 0 0.00051324697 0 0)
(-0.00071841553 0.0010416413 0 0.00066864046 0 0)
(-0.00090664425 0.0017169711 0 0.00084524866 0 0)
(-0.0012926069 0.0027496696 0 0.0009560027 0 0)
(-0.0013325229 0.005500222 0 0.00094824403 0 0)
(-0.0033509837 0.0083331417 0 0.00078527896 0 0)
(0.0019806838 0.0087659236 0 -0.0033593649 0 0)
(-0.003708515 -0.00040966645 0 0.0030997351 0 0)
(-0.0012736428 -0.00019550831 0 0.0014111677 0 0)
(-0.00063165853 -7.3468103e-005 0 0.00051570382 0 0)
(-0.00011920612 -2.6250345e-005 0 0.00015534614 0 0)
(-7.1066268e-005 -3.4380599e-006 0 5.7945012e-005 0 0)
(-1.2861926e-005 1.0800218e-006 0 1.5631607e-005 0 0)
(-5.2581102e-006 3.7100732e-006 0 4.9077822e-006 0 0)
(-1.5627524e-006 4.2650624e-006 0 1.4647896e-006 0 0)
(-3.7244132e-007 4.4560765e-006 0 4.3591242e-007 0 0)
(-1.7491556e-007 4.5292381e-006 0 1.4199634e-007 0 0)
(-3.4319974e-008 4.5449675e-006 0 3.3079224e-008 0 0)
(-1.5767224e-008 4.5515858e-006 0 8.4216843e-009 0 0)
(-9.9274345e-009 4.5529818e-006 0 2.2366589e-009 0 0)
(-7.5593434e-009 4.5533619e-006 0 3.7114717e-010 0 0)
(-7.3784465e-009 4.5535013e-006 0 -4.751449e-012 0 0)
(-7.3096327e-009 4.5535229e-006 0 -4.3088887e-011 0 0)
(-7.3447026e-009 4.5535312e-006 0 -1.5581296e-011 0 0)
(-7.4227293e-009 4.5535361e-006 0 2.7289513e-011 0 0)
(-7.5452649e-009 4.5535491e-006 0 1.156558e-010 0 0)
(-7.7313861e-009 4.553569e-006 0 2.2202344e-010 0 0)
(-8.1157124e-009 4.5536572e-006 0 5.4474752e-010 0 0)
(-9.3196114e-009 4.5538738e-006 0 1.2217735e-009 0 0)
(-8.4634126e-009 4.5544863e-006 0 2.801719e-009 0 0)
(-1.5371232e-008 4.5534701e-006 0 6.8413485e-009 0 0)
(-1.7672467e-008 4.5593127e-006 0 5.3563728e-009 0 0)
(-0.0038039372 -0.0013391749 0 0.0030232048 0 0)
(-0.0012125657 -0.00071973823 0 0.0014130743 0 0)
(-0.00059493001 -0.000361513 0 0.00042954653 0 0)
(-0.00010104714 -0.00020386935 0 0.00015164011 0 0)
(-6.50001e-005 -0.00014202436 0 4.6564895e-005 0 0)
(-1.1276533e-005 -0.00012655247 0 1.448962e-005 0 0)
(-4.7233436e-006 -0.00011966507 0 4.1252409e-006 0 0)
(-1.6078396e-006 -0.00011792453 0 1.1811567e-006 0 0)
(-5.4474108e-007 -0.00011739091 0 4.112109e-007 0 0)
(-3.8204726e-007 -0.00011717963 0 1.0756956e-007 0 0)
(-2.5767621e-007 -0.00011712938 0 2.7982563e-008 0 0)
(-2.430149e-007 -0.0001171123 0 6.979609e-009 0 0)
(-2.3863531e-007 -0.00011710815 0 1.645174e-009 0 0)
(-2.3651251e-007 -0.00011710698 0 3.2675723e-010 0 0)
(-2.3642851e-007 -0.00011710659 0 -3.1556866e-011 0 0)
(-2.3641919e-007 -0.00011710654 0 -2.9627357e-011 0 0)
(-2.3644415e-007 -0.00011710651 0 -1.8260083e-011 0 0)
(-2.3652721e-007 -0.0001171065 0 1.2894177e-011 0 0)
(-2.3663077e-007 -0.00011710648 0 6.2902753e-011 0 0)
(-2.3680862e-007 -0.00011710644 0 1.4147999e-010 0 0)
(-2.3709531e-007 -0.0001171063 0 3.7572411e-010 0 0)
(-2.3807437e-007 -0.00011710596 0 8.9540514e-010 0 0)
(-2.3732131e-007 -0.00011710503 0 2.3589562e-009 0 0)
(-2.4241197e-007 -0.00011710606 0 6.3653037e-009 0 0)
(-2.4368421e-007 -0.00011710513 0 4.7922058e-009 0 0)
(-0.0039185534 -0.0025473472 0 0.002968901 0 0)
(-0.0010902465 -0.0015549913 0 0.0013043563 0 0)
(-0.00052091145 -0.00096046427 0 0.0003230039 0 0)
(-6.8023352e-005 -0.00067969018 0 0.0001193951 0 0)
(-5.7777913e-005 -0.0005849235 0 3.2571891e-005 0 0)
(-1.2363177e-005 -0.0005580656 0 1.117498e-005 0 0)
(-8.0162894e-006 -0.00054818104 0 2.8435739e-006 0 0)
(-5.8201591e-006 -0.00054529537 0 7.8191132e-007 0 0)
(-4.9829993e-006 -0.00054447766 0 2.8395713e-007 0 0)
(-4.9186591e-006 -0.00054415785 0 6.4591997e-008 0 0)
(-4.8229322e-006 -0.00054407445 0 1.7802142e-008 0 0)
(-4.8152965e-006 -0.00054405013 0 3.6894642e-009 0 0)
(-4.8134993e-006 -0.00054404364 0 6.8135012e-010 0 0)
(-4.8119496e-006 -0.00054404175 0 6.5318923e-011 0 0)
(-4.8121091e-006 -0.00054404122 0 -8.5095e-011 0 0)
(-4.812131e-006 -0.00054404113 0 -4.6345505e-011 0 0)
(-4.8121658e-006 -0.00054404109 0 -2.7090696e-011 0 0)
(-4.8122498e-006 -0.00054404107 0 1.2396152e-013 0 0)
(-4.8123497e-006 -0.00054404105 0 3.9603711e-011 0 0)
(-4.812524e-006 -0.000544041 0 1.0837912e-010 0 0)
(-4.812778e-006 -0.00054404087 0 3.0454615e-010 0 0)
(-4.8137203e-006 -0.00054404047 0 7.9717969e-010 0 0)
(-4.8131476e-006 -0.00054403965 0 2.3737924e-009 0 0)
(-4.8201119e-006 -0.00054403998 0 7.4492977e-009 0 0)
(-4.8217995e-006 -0.00054404613 0 6.0129327e-009 0 0)
(-0.0042270005 -0.0038895611 0 0.003036477 0 0)
(-0.00095986445 -0.0025344768 0 0.0011196479 0 0)
(-0.00041849065 -0.0016867428 0 0.00017621887 0 0)
(-2.8742233e-005 -0.0012969674 0 5.8677721e-005 0 0)
(-5.8051232e-005 -0.0011747348 0 1.4116253e-005 0 0)
(-2.4644242e-005 -0.0011397541 0 5.8777111e-006 0 0)
(-2.3416567e-005 -0.0011279255 0 1.069325e-006 0 0)
(-2.235407e-005 -0.0011242756 0 2.3251735e-007 0 0)
(-2.1851724e-005 -0.0011232845 0 8.403464e-008 0 0)
(-2.1917117e-005 -0.0011228983 0 8.5697454e-009 0 0)
(-2.1860399e-005 -0.0011227963 0 2.1286972e-009 0 0)
(-2.1862672e-005 -0.0011227681 0 -9.3307232e-010 0 0)
(-2.186386e-005 -0.0011227604 0 -6.7972241e-010 0 0)
(-2.1863247e-005 -0.0011227582 0 -3.2464218e-010 0 0)
(-2.1863645e-005 -0.0011227576 0 -1.9188471e-010 0 0)
(-2.1863729e-005 -0.0011227575 0 -7.9803747e-011 0 0)
(-2.1863786e-005 -0.0011227575 0 -3.7315419e-011 0 0)
(-2.186387e-005 -0.0011227575 0 -5.6457228e-012 0 0)
(-2.1863965e-005 -0.0011227574 0 3.1012312e-011 0 0)
(-2.1864125e-005 -0.0011227574 0 9.0354859e-011 0 0)
(-2.1864322e-005 -0.0011227572 0 2.4417925e-010 0 0)
(-2.186515e-005 -0.0011227566 0 6.7255269e-010 0 0)
(-2.1864657e-005 -0.0011227552 0 1.9579645e-009 0 0)
(-2.1872107e-005 -0.0011227557 0 7.8749956e-009 0 0)
(-2.1873731e-005 -0.0011227541 0 7.0960236e-009 0 0)
(-0.0046695695 -0.0046797864 0 0.0032053374 0 0)
(-0.00076689426 -0.0027954191 0 0.00091048566 0 0)
(-0.00026551165 -0.0017394237 0 -5.0619945e-006 0 0)
(4.0636956e-005 -0.0012845693 0 -1.5668805e-005 0 0)
(-4.155833e-005 -0.0011520028 0 -8.0763329e-006 0 0)
(-2.2895495e-005 -0.0011137727 0 -2.6293707e-007 0 0)
(-2.5840281e-005 -0.0011016537 0 -9.2359788e-007 0 0)
(-2.6068733e-005 -0.0010978422 0 -3.9065899e-007 0 0)
(-2.5987369e-005 -0.0010968613 0 -1.3498441e-007 0 0)
(-2.6202296e-005 -0.0010964785 0 -5.3620266e-008 0 0)
(-2.619018e-005 -0.0010963789 0 -1.5425866e-008 0 0)
(-2.6204819e-005 -0.0010963527 0 -5.7793431e-009 0 0)
(-2.6209165e-005 -0.0010963454 0 -2.1032857e-009 0 0)
(-2.6209553e-005 -0.0010963437 0 -7.5357344e-010 0 0)
(-2.6210241e-005 -0.0010963432 0 -2.8676137e-010 0 0)
(-2.6210387e-005 -0.0010963431 0 -1.0876754e-010 0 0)
(-2.6210465e-005 -0.0010963431 0 -4.3933193e-011 0 0)
(-2.6210547e-005 -0.0010963431 0 -9.9824304e-012 0 0)
(-2.6210634e-005 -0.0010963431 0 2.11823e-011 0 0)
(-2.6210773e-005 -0.001096343 0 6.4674995e-011 0 0)
(-2.6210896e-005 -0.0010963427 0 1.6386652e-010 0 0)
(-2.6211558e-005 -0.001096342 0 4.9969224e-010 0 0)
(-2.6211192e-005 -0.0010963399 0 1.3678629e-009 0 0)
(-2.6216771e-005 -0.0010963407 0 5.6638679e-009 0 0)
(-2.6218158e-005 -0.001096328 0 5.6137821e-009 0 0)
(-0.0047127647 -0.0038271721 0 0.0031586797 0 0)
(-0.00034333639 -0.00091718342 0 0.00061546696 0 0)
(-7.6484076e-005 0.0002607842 0 -0.00017662972 0 0)
(0.00012792478 0.00072464225 0 -8.2540535e-005 0 0)
(-1.3982312e-005 0.00083367119 0 -2.9134172e-005 0 0)
(-1.0567659e-005 0.00086916777 0 -6.2298339e-006 0 0)
(-1.8821538e-005 0.00087880858 0 -2.7481131e-006 0 0)
(-2.0473133e-005 0.00088198491 0 -9.041689e-007 0 0)
(-2.080958e-005 0.00088268158 0 -3.1864267e-007 0 0)
(-2.116923e-005 0.00088295739 0 -1.0482436e-007 0 0)
(-2.119984e-005 0.00088302811 0 -2.9278823e-008 0 0)
(-2.1226306e-005 0.00088304227 0 -9.4250973e-009 0 0)
(-2.1233545e-005 0.00088304654 0 -2.9744258e-009 0 0)
(-2.1234585e-005 0.00088304701 0 -1.0209207e-009 0 0)
(-2.1235525e-005 0.00088304711 0 -3.1843563e-010 0 0)
(-2.1235694e-005 0.00088304701 0 -1.0798653e-010 0 0)
(-2.123577e-005 0.00088304695 0 -3.8952287e-011 0 0)
(-2.1235835e-005 0.00088304693 0 -1.344067e-011 0 0)
(-2.1235914e-005 0.00088304697 0 2.933973e-012 0 0)
(-2.123603e-005 0.00088304708 0 1.6677924e-011 0 0)
(-2.1236066e-005 0.00088304742 0 2.5492086e-011 0 0)
(-2.1236497e-005 0.0008830484 0 1.8895112e-010 0 0)
(-2.1236421e-005 0.00088305124 0 3.9056736e-010 0 0)
(-2.1237352e-005 0.00088304933 0 9.0207663e-010 0 0)
(-2.1239658e-005 0.00088307347 0 1.611769e-009 0 0)
(-0.0039754999 -7.7771758e-005 0 0.0023994607 0 0)
(-0.00012607785 0.0044947242 0 0.00010001729 0 0)
(-0.00051599309 0.0056025042 0 -0.00027628142 0 0)
(-0.00040899627 0.0060211421 0 -0.00011286766 0 0)
(-0.00059257414 0.0060667501 0 -4.144284e-005 0 0)
(-0.00059939584 0.0060922073 0 -1.0359817e-005 0 0)
(-0.00061254229 0.0060956859 0 -3.7498328e-006 0 0)
(-0.00061519716 0.0060972874 0 -1.0838563e-006 0 0)
(-0.00061574837 0.0060974912 0 -3.7077833e-007 0 0)
(-0.00061615372 0.0060975373 0 -1.1947503e-007 0 0)
(-0.00061620385 0.0060975524 0 -3.035088e-008 0 0)
(-0.00061623138 0.0060975449 0 -9.6825379e-009 0 0)
(-0.00061623876 0.0060975435 0 -2.7253613e-009 0 0)
(-0.00061623968 0.0060975424 0 -7.9104478e-010 0 0)
(-0.00061624045 0.0060975417 0 -1.9478972e-010 0 0)
(-0.00061624049 0.0060975414 0 -4.7477705e-011 0 0)
(-0.00061624052 0.0060975413 0 -1.2509087e-011 0 0)
(-0.00061624052 0.0060975412 0 -1.1259485e-011 0 0)
(-0.00061624058 0.0060975413 0 -2.5369286e-011 0 0)
(-0.0006162407 0.0060975414 0 -5.7177553e-011 0 0)
(-0.00061624067 0.0060975418 0 -1.6944298e-010 0 0)
(-0.00061624082 0.0060975428 0 -3.1438813e-010 0 0)
(-0.00061624165 0.0060975464 0 -8.8714271e-010 0 0)
(-0.00061623659 0.0060975458 0 -4.5760981e-009 0 0)
(-0.00061624227 0.0060975694 0 -3.4622386e-009 0 0)
(-0.003609509 0.0073946991 0 0.0010060731 0 0)
(-0.0021730569 0.013683179 0 -0.00062108695 0 0)
(-0.0036258878 0.014376787 0 -0.00027028931 0 0)
(-0.003558062 0.014690212 0 -9.7383198e-005 0 0)
(-0.0037401971 0.014661389 0 -3.7853697e-005 0 0)
(-0.0037399051 0.014671103 0 -1.1571192e-005 0 0)
(-0.0037542853 0.014666398 0 -3.172617e-006 0 0)
(-0.0037560364 0.014666197 0 -8.4653241e-007 0 0)
(-0.0037563556 0.014665848 0 -2.6301286e-007 0 0)
(-0.003756628 0.014665682 0 -7.3848043e-008 0 0)
(-0.0037566197 0.014665638 0 -1.9798783e-008 0 0)
(-0.0037566354 0.014665614 0 -3.4565783e-009 0 0)
(-0.003756635 0.014665608 0 -1.0379604e-009 0 0)
(-0.0037566341 0.014665605 0 -6.4640279e-011 0 0)
(-0.003756634 0.014665604 0 1.1415491e-010 0 0)
(-0.0037566337 0.014665603 0 6.5640905e-011 0 0)
(-0.0037566336 0.014665603 0 3.2291656e-011 0 0)
(-0.0037566336 0.014665603 0 -8.4530524e-012 0 0)
(-0.0037566336 0.014665603 0 -6.3800376e-011 0 0)
(-0.0037566337 0.014665603 0 -1.5369406e-010 0 0)
(-0.0037566337 0.014665604 0 -3.5801421e-010 0 0)
(-0.0037566337 0.014665605 0 -9.3013235e-010 0 0)
(-0.0037566358 0.014665609 0 -2.3346178e-009 0 0)
(-0.0037566254 0.014665609 0 -8.328479e-009 0 0)
(-0.0037566307 0.014665618 0 -6.9709761e-009 0 0)
(-0.008761698 0.019501028 0 -1.9558778e-005 0 0)
(-0.010072299 0.025373971 0 -0.0012863105 0 0)
(-0.012874081 0.025589786 0 -0.00010312401 0 0)
(-0.012417578 0.025608497 0 -8.0760384e-005 0 0)
(-0.012593095 0.025553959 0 -1.9732954e-005 0 0)
(-0.0125493 0.02554125 0 -1.0698618e-005 0 0)
(-0.012560929 0.025531904 0 -1.3038343e-006 0 0)
(-0.012559639 0.025531042 0 -4.0512823e-007 0 0)
(-0.012559173 0.025530312 0 -1.1417771e-007 0 0)
(-0.012559239 0.02553012 0 -3.2063389e-009 0 0)
(-0.012559123 0.025530066 0 -3.4843658e-009 0 0)
(-0.012559115 0.025530041 0 2.5465605e-009 0 0)
(-0.012559107 0.025530036 0 1.5077248e-009 0 0)
(-0.012559103 0.025530034 0 6.9445683e-010 0 0)
(-0.012559102 0.025530034 0 3.6890853e-010 0 0)
(-0.012559101 0.025530033 0 1.6405352e-010 0 0)
(-0.012559101 0.025530033 0 6.2379072e-011 0 0)
(-0.012559101 0.025530033 0 -1.2636351e-011 0 0)
(-0.012559101 0.025530033 0 -1.039828e-010 0 0)
(-0.012559101 0.025530033 0 -2.4707661e-010 0 0)
(-0.012559101 0.025530034 0 -5.5440383e-010 0 0)
(-0.012559101 0.025530035 0 -1.6083815e-009 0 0)
(-0.012559106 0.025530039 0 -3.3433624e-009 0 0)
(-0.012559098 0.025530045 0 -1.1898491e-008 0 0)
(-0.012559096 0.02553004 0 -9.8676225e-009 0 0)
(-0.036276238 0.042077419 0 -0.0041078912 0 0)
(-0.031814017 0.038965333 0 -0.00085008388 0 0)
(-0.03993541 0.042217466 0 2.8355586e-005 0 0)
(-0.037672937 0.041273211 0 -4.0186499e-005 0 0)
(-0.038175147 0.041466646 0 -7.5623205e-008 0 0)
(-0.037998217 0.041388185 0 -5.1323814e-006 0 0)
(-0.038018799 0.041391973 0 8.1056629e-007 0 0)
(-0.038015832 0.041391956 0 3.1900013e-008 0 0)
(-0.038014382 0.041391232 0 7.2781814e-008 0 0)
(-0.038014793 0.041391538 0 4.5248808e-008 0 0)
(-0.038014608 0.041391499 0 1.0876906e-008 0 0)
(-0.038014626 0.041391518 0 7.4761856e-009 0 0)
(-0.038014629 0.041391529 0 2.4890363e-009 0 0)
(-0.038014627 0.04139153 0 9.9197561e-010 0 0)
(-0.038014628 0.041391532 0 4.6267557e-010 0 0)
(-0.038014628 0.041391532 0 1.8003942e-010 0 0)
(-0.038014628 0.041391532 0 5.8232422e-011 0 0)
(-0.038014628 0.041391532 0 -3.3591939e-011 0 0)
(-0.038014628 0.041391532 0 -1.3818841e-010 0 0)
(-0.038014628 0.041391532 0 -3.2502978e-010 0 0)
(-0.038014627 0.041391532 0 -7.5190842e-010 0 0)
(-0.038014622 0.041391531 0 -1.9481587e-009 0 0)
(-0.038014614 0.041391527 0 -5.4315001e-009 0 0)
(-0.038014603 0.041391532 0 -1.4027098e-008 0 0)
(-0.038014503 0.041391483 0 -9.9465438e-009 0 0)
(0.00016900115 9.861629e-005 0 3.7239249e-005 0 0)
(-0.00036056851 -2.1575331e-005 0 -8.1993861e-006 0 0)
(0.00019294109 -2.9422484e-005 0 6.0274157e-005 0 0)
(-0.0001133816 3.5758738e-005 0 -4.1473257e-006 0 0)
(1.5472627e-006 -2.1431606e-005 0 2.9382343e-005 0 0)
(-1.5890648e-005 9.8641984e-006 0 1.3177648e-005 0 0)
(-1.798181e-005 7.7616253e-006 0 1.784636e-005 0 0)
(-1.976273e-005 1.4870335e-005 0 1.9002227e-005 0 0)
(-2.3437768e-005 2.272673e-005 0 2.3121983e-005 0 0)
(-2.9624697e-005 3.3073207e-005 0 2.9054193e-005 0 0)
(-3.885315e-005 4.7402937e-005 0 3.8098583e-005 0 0)
(-5.1627921e-005 6.662208e-005 0 5.0599196e-005 0 0)
(-6.9224607e-005 9.3098627e-005 0 6.7771713e-005 0 0)
(-9.3173112e-005 0.00013003415 0 9.1061862e-005 0 0)
(-0.0001253968 0.0001820982 0 0.00012225888 0 0)
(-0.00016819056 0.00025635459 0 0.00016341762 0 0)
(-0.00022392565 0.00036384979 0 0.00021653702 0 0)
(-0.000294244 0.00052120946 0 0.00028200437 0 0)
(-0.00037671201 0.00075977244 0 0.00035823094 0 0)
(-0.0004609233 0.0011143738 0 0.00042608621 0 0)
(-0.00049066601 0.0017279143 0 0.00046224743 0 0)
(-0.00047259683 0.0027713429 0 0.00026435416 0 0)
(0.00046326233 0.0049683294 0 -0.00046305808 0 0)
(0.0015644824 0.006242275 0 -0.0025376549 0 0)
(0.0078013802 0.0023492759 0 -0.0076418453 0 0)
(0.00018298239 7.0058813e-005 0 4.2940103e-005 0 0)
(-0.00038655316 -1.4460365e-005 0 -2.0375056e-005 0 0)
(0.00020405122 -2.0055085e-005 0 6.8479231e-005 0 0)
(-0.00011133766 1.3628467e-005 0 -8.2351604e-006 0 0)
(-2.5826458e-006 -1.0014075e-005 0 2.3650046e-005 0 0)
(-7.7716039e-006 4.2792578e-006 0 1.1691922e-005 0 0)
(-1.4196721e-005 9.1308629e-006 0 1.283446e-005 0 0)
(-1.3842889e-005 1.6265609e-005 0 1.3348069e-005 0 0)
(-1.5827771e-005 2.5902899e-005 0 1.5743749e-005 0 0)
(-1.9574509e-005 3.7596977e-005 0 1.9310972e-005 0 0)
(-2.5319632e-005 5.4069978e-005 0 2.4974609e-005 0 0)
(-3.3124655e-005 7.5775864e-005 0 3.266136e-005 0 0)
(-4.3647146e-005 0.00010536816 0 4.2965899e-005 0 0)
(-5.7529094e-005 0.00014643918 0 5.6533987e-005 0 0)
(-7.5150167e-005 0.00020333097 0 7.3638301e-005 0 0)
(-9.6673697e-005 0.00028311774 0 9.4311727e-005 0 0)
(-0.00012101457 0.00039581665 0 0.00011722354 0 0)
(-0.00014440546 0.00055563992 0 0.00013794074 0 0)
(-0.00015671207 0.00078405551 0 0.00014577694 0 0)
(-0.00013488599 0.0011060364 0 0.00011331961 0 0)
(-3.4379953e-005 0.0015803787 0 -4.854799e-006 0 0)
(0.00019743991 0.0022522501 0 -0.000394432 0 0)
(0.0013094848 0.0034167974 0 -0.0015397995 0 0)
(0.0035781259 0.0025893441 0 -0.004710242 0 0)
(0.0048735399 -0.0038779856 0 -0.0071996011 0 0)
(0.00018622659 6.5343096e-005 0 3.2506357e-005 0 0)
(-0.00040244993 -1.2201653e-005 0 1.0069355e-005 0 0)
(0.00021298608 -1.9879618e-005 0 4.1486455e-005 0 0)
(-0.000107331 3.5995963e-006 0 6.1182937e-006 0 0)
(-4.8968063e-006 -6.8380159e-006 0 1.339437e-005 0 0)
(-1.7805276e-006 2.0783626e-006 0 8.6941647e-006 0 0)
(-8.7298789e-006 8.9836731e-006 0 7.2826651e-006 0 0)
(-7.3175008e-006 1.700838e-005 0 6.8424584e-006 0 0)
(-7.24065e-006 2.7375553e-005 0 7.3042063e-006 0 0)