/*--------------------------------*- C++ -*----------------------------------*\
| =========                 |                                                 |
| \\      /  F ield         | OpenFOAM: The Open Source CFD Toolbox           |
|  \\    /   O peration     | Version:  5.x                                   |
|   \\  /    A nd           | Web:      www.OpenFOAM.org                      |
|    \\/     M anipulation  |                                                 |
\*---------------------------------------------------------------------------*/
/*   Windows 32 and 64 bit porting by blueCAPE: http://www.bluecape.com.pt   *\
|  Based on Windows porting (2.0.x v4) by Symscape: http://www.symscape.com   |
\*---------------------------------------------------------------------------*/
FoamFile
{
    version     2.0;
    format      ascii;
    class       volSymmTensorField;
    location    "0.03";
    object      sigma;
}
// * * * * * * * * * * * * * * * * * * * * * * * * * * * * * * * * * * * * * //

dimensions      [0 2 -2 0 0 0 0];

internalField   nonuniform List<symmTensor> 
750
(
(8.7616827e-005 8.9525666e-006 0 -3.0897093e-006 0 0)
(-0.00024284288 -2.0043224e-006 0 9.1928902e-005 0 0)
(0.00014522427 -2.576889e-006 0 -4.4497202e-005 0 0)
(-0.00011586058 3.6361856e-006 0 5.9625004e-005 0 0)
(2.3276923e-005 -2.2880201e-006 0 2.3445849e-006 0 0)
(-4.0881784e-005 1.5348563e-006 0 2.9835296e-005 0 0)
(-1.8831379e-005 -2.7289385e-008 0 2.2979766e-005 0 0)
(-3.2484613e-005 9.4124721e-007 0 3.1038605e-005 0 0)
(-3.7193402e-005 1.100211e-006 0 3.7591523e-005 0 0)
(-4.915291e-005 1.709757e-006 0 4.8985327e-005 0 0)
(-6.5353348e-005 2.4279503e-006 0 6.5278364e-005 0 0)
(-8.7696855e-005 3.4142149e-006 0 8.7528378e-005 0 0)
(-0.00012007531 4.8316384e-006 0 0.0001197661 0 0)
(-0.00016541437 6.8318979e-006 0 0.00016483966 0 0)
(-0.00022958345 9.7238687e-006 0 0.00022849777 0 0)
(-0.00032104518 1.3959796e-005 0 0.00031888846 0 0)
(-0.00045392192 2.0447038e-005 0 0.000449983 0 0)
(-0.00064589335 2.9889663e-005 0 0.00063655099 0 0)
(-0.00094021213 4.6352058e-005 0 0.00092590242 0 0)
(-0.0013821749 6.8326301e-005 0 0.0013348603 0 0)
(-0.0020606382 0.00011197289 0 0.0020046117 0 0)
(-0.0032369209 0.0001618092 0 0.0029790946 0 0)
(-0.0046648908 0.00022272574 0 0.0043964942 0 0)
(-0.0071553379 0.00020463771 0 0.0060663728 0 0)
(-0.0080817186 -0.00023210168 0 0.0073707827 0 0)
(9.0030506e-005 2.0517432e-005 0 1.9810517e-005 0 0)
(-0.00024573411 -4.7613108e-006 0 4.8897803e-005 0 0)
(0.00014598806 -4.8179082e-006 0 -6.9845459e-006 0 0)
(-0.00011560793 7.5468193e-006 0 3.8143796e-005 0 0)
(2.2789217e-005 -4.7278944e-006 0 1.4473152e-005 0 0)
(-4.0382561e-005 3.2544176e-006 0 2.524114e-005 0 0)
(-1.8916915e-005 3.9233256e-007 0 2.4524333e-005 0 0)
(-3.2219268e-005 2.6524075e-006 0 3.0269851e-005 0 0)
(-3.6990467e-005 3.3725501e-006 0 3.7471496e-005 0 0)
(-4.8825857e-005 5.1146544e-006 0 4.8574814e-005 0 0)
(-6.4884347e-005 7.2816845e-006 0 6.474294e-005 0 0)
(-8.7109094e-005 1.022859e-005 0 8.6838059e-005 0 0)
(-0.00011921768 1.4456905e-005 0 0.0001187712 0 0)
(-0.0001641802 2.0421914e-005 0 0.00016341079 0 0)
(-0.0002277909 2.9034841e-005 0 0.0002264243 0 0)
(-0.00031837847 4.1645323e-005 0 0.00031580054 0 0)
(-0.00044994175 6.0866554e-005 0 0.00044544089 0 0)
(-0.00063919481 8.8912174e-005 0 0.00062863973 0 0)
(-0.00093112272 0.0001375914 0 0.000916372 0 0)
(-0.0013726851 0.0002040612 0 0.0013189692 0 0)
(-0.0020322883 0.00033283236 0 0.0019820134 0 0)
(-0.0032237735 0.00049169395 0 0.0029367525 0 0)
(-0.0046522003 0.00066569495 0 0.0044184893 0 0)
(-0.007302837 0.00062810215 0 0.0061013057 0 0)
(-0.008162881 -0.00071951802 0 0.0075424545 0 0)
(9.2791676e-005 2.5938459e-005 0 2.4907847e-005 0 0)
(-0.00024943903 -7.0780401e-006 0 3.7010099e-005 0 0)
(0.00014731615 -5.3827404e-006 0 2.5612136e-006 0 0)
(-0.00011569596 9.3100549e-006 0 3.1563394e-005 0 0)
(2.2249518e-005 -5.7621825e-006 0 1.7256511e-005 0 0)
(-3.9654148e-005 4.2187199e-006 0 2.3339513e-005 0 0)
(-1.8931681e-005 1.1818328e-006 0 2.4912354e-005 0 0)
(-3.1750925e-005 4.2147094e-006 0 2.9711614e-005 0 0)
(-3.6567673e-005 5.6846112e-006 0 3.7080654e-005 0 0)
(-4.8202276e-005 8.4877293e-006 0 4.7961382e-005 0 0)
(-6.399795e-005 1.2104297e-005 0 6.3876522e-005 0 0)
(-8.5928669e-005 1.699513e-005 0 8.5686573e-005 0 0)
(-0.00011752367 2.4000028e-005 0 0.00011711751 0 0)
(-0.00016175631 3.3887983e-005 0 0.00016104555 0 0)
(-0.00022424925 4.8151263e-005 0 0.00022297028 0 0)
(-0.0003131044 6.9038614e-005 0 0.00031066076 0 0)
(-0.00044194419 0.00010078709 0 0.00043766347 0 0)
(-0.00062659651 0.00014741977 0 0.00061633415 0 0)
(-0.00091173376 0.00022712865 0 0.0008978007 0 0)
(-0.0013432424 0.00034022995 0 0.0012895155 0 0)
(-0.0019828106 0.00054456581 0 0.0019365103 0 0)
(-0.0031720826 0.00082025395 0 0.0028754144 0 0)
(-0.0046422349 0.0011166119 0 0.0044136985 0 0)
(-0.0076289302 0.0011013165 0 0.0062896657 0 0)
(-0.0086229972 -0.0012978613 0 0.007918603 0 0)
(9.5510209e-005 3.1351259e-005 0 2.1063415e-005 0 0)
(-0.00025357421 -9.7259751e-006 0 4.2903183e-005 0 0)
(0.00014930123 -6.4824712e-006 0 -2.5421637e-006 0 0)
(-0.00011589838 1.1475326e-005 0 3.3912403e-005 0 0)
(2.1631808e-005 -7.0173023e-006 0 1.5874524e-005 0 0)
(-3.8680112e-005 5.3464834e-006 0 2.3201097e-005 0 0)
(-1.8902649e-005 1.957041e-006 0 2.4490775e-005 0 0)
(-3.1095365e-005 5.7272912e-006 0 2.9209649e-005 0 0)
(-3.5921455e-005 7.9459761e-006 0 3.638803e-005 0 0)
(-4.7258796e-005 1.1783422e-005 0 4.7036266e-005 0 0)
(-6.2705431e-005 1.6821637e-005 0 6.2585386e-005 0 0)
(-8.4159366e-005 2.3613642e-005 0 8.3925207e-005 0 0)
(-0.00011500466 3.3324815e-005 0 0.00011460694 0 0)
(-0.00015815803 4.7028357e-005 0 0.00015745992 0 0)
(-0.00021899969 6.676422e-005 0 0.00021773995 0 0)
(-0.00030532966 9.5649743e-005 0 0.00030292283 0 0)
(-0.00043003707 0.0001393647 0 0.00042579177 0 0)
(-0.00060847549 0.00020397388 0 0.00059840832 0 0)
(-0.00088193725 0.00031419724 0 0.00086790586 0 0)
(-0.0012955987 0.00046943224 0 0.0012433064 0 0)
(-0.0019080838 0.00075980424 0 0.001861299 0 0)
(-0.0030795645 0.001163314 0 0.0027807408 0 0)
(-0.0046219986 0.0016404467 0 0.0043756078 0 0)
(-0.0081643569 0.0017020641 0 0.0066404361 0 0)
(-0.0095018523 -0.0018375993 0 0.0085567799 0 0)
(9.8398751e-005 3.8304937e-005 0 1.7529897e-005 0 0)
(-0.00025841372 -1.2375368e-005 0 4.9610777e-005 0 0)
(0.00015192159 -8.1863805e-006 0 -7.3631579e-006 0 0)
(-0.00011608604 1.4175109e-005 0 3.6622403e-005 0 0)
(2.0842736e-005 -8.6031019e-006 0 1.5125168e-005 0 0)
(-3.7428412e-005 6.472308e-006 0 2.2996585e-005 0 0)
(-1.883019e-005 2.6677242e-006 0 2.396154e-005 0 0)
(-3.0252154e-005 7.2001501e-006 0 2.8537633e-005 0 0)
(-3.5055005e-005 1.0143147e-005 0 3.5466856e-005 0 0)
(-4.6009369e-005 1.4994855e-005 0 4.5803167e-005 0 0)
(-6.0993923e-005 2.14147e-005 0 6.0871864e-005 0 0)
(-8.1821104e-005 3.0064704e-005 0 8.1587778e-005 0 0)
(-0.00011168355 4.2402099e-005 0 0.00011128785 0 0)
(-0.00015340188 5.979715e-005 0 0.00015270724 0 0)
(-0.00021207688 8.4816503e-005 0 0.00021082344 0 0)
(-0.00029507881 0.00012138981 0 0.00029269105 0 0)
(-0.00041434577 0.00017658091 0 0.00041010892 0 0)
(-0.0005845532 0.00025834502 0 0.00057467245 0 0)
(-0.00084358 0.00039556295 0 0.00082934919 0 0)
(-0.0012323325 0.00059276981 0 0.0011811915 0 0)
(-0.0018092563 0.00096422614 0 0.0017609758 0 0)
(-0.0029414205 0.0015087827 0 0.0026387686 0 0)
(-0.0045662475 0.0022297699 0 0.0042938474 0 0)
(-0.0088675883 0.0025347985 0 0.0070601055 0 0)
(-0.010818195 -0.0019943064 0 0.0095166803 0 0)
(0.00010189159 4.7338436e-005 0 1.3780646e-005 0 0)
(-0.00026441838 -1.4712451e-005 0 5.6663928e-005 0 0)
(0.00015517001 -1.0501222e-005 0 -1.2380475e-005 0 0)
(-0.00011622002 1.746357e-005 0 3.9096039e-005 0 0)
(1.9826754e-005 -1.0522123e-005 0 1.4436151e-005 0 0)
(-3.5873669e-005 7.5814295e-006 0 2.2489008e-005 0 0)
(-1.8716768e-005 3.3421362e-006 0 2.338465e-005 0 0)
(-2.9224222e-005 8.6155586e-006 0 2.7682432e-005 0 0)
(-3.3973643e-005 1.2268677e-005 0 3.4334899e-005 0 0)
(-4.4465637e-005 1.8103723e-005 0 4.4278707e-005 0 0)
(-5.888066e-005 2.5859417e-005 0 5.8762983e-005 0 0)
(-7.8931868e-005 3.6303019e-005 0 7.8708536e-005 0 0)
(-0.00010758747 5.1160608e-005 0 0.00010720807 0 0)
(-0.00014754333 7.2084312e-005 0 0.00014687316 0 0)
(-0.00020356736 0.00010212905 0 0.00020235364 0 0)
(-0.00028249074 0.00014595814 0 0.00028017685 0 0)
(-0.0003951573 0.00021186768 0 0.00039102336 0 0)
(-0.00055519597 0.00030961077 0 0.00054567966 0 0)
(-0.00079587715 0.00047302047 0 0.0007817506 0 0)
(-0.0011544152 0.00070785118 0 0.0011051172 0 0)
(-0.0016848816 0.001157347 0 0.0016362253 0 0)
(-0.0027645208 0.001823297 0 0.0024585623 0 0)
(-0.0044297208 0.0029042842 0 0.0041245732 0 0)
(-0.0095643732 0.0036688297 0 0.0073924309 0 0)
(-0.012215946 -0.0012231121 0 0.010572388 0 0)
(0.00010664166 5.9332398e-005 0 8.3402879e-006 0 0)
(-0.00027223209 -1.6611274e-005 0 6.6631413e-005 0 0)
(0.00015903901 -1.3622363e-005 0 -1.9069158e-005 0 0)
(-0.00011626194 2.1631277e-005 0 4.2397885e-005 0 0)
(1.8473609e-005 -1.2919182e-005 0 1.352208e-005 0 0)
(-3.3970696e-005 8.6986157e-006 0 2.1840056e-005 0 0)
(-1.8564315e-005 3.9911957e-006 0 2.2693105e-005 0 0)
(-2.8017955e-005 9.9614339e-006 0 2.6672857e-005 0 0)
(-3.268403e-005 1.4311102e-005 0 3.2992029e-005 0 0)
(-4.2636115e-005 2.1094122e-005 0 4.2473287e-005 0 0)
(-5.6378294e-005 3.0134177e-005 0 5.6268604e-005 0 0)
(-7.5506954e-005 4.2300778e-005 0 7.5298642e-005 0 0)
(-0.00010274935 5.9564644e-005 0 0.00010239249 0 0)
(-0.00014062813 8.3840884e-005 0 0.00013999076 0 0)
(-0.00019353671 0.00011863945 0 0.00019237322 0 0)
(-0.00026765859 0.00016929965 0 0.00026543198 0 0)
(-0.00037258727 0.00024519426 0 0.00036856745 0 0)
(-0.00052045488 0.00035801107 0 0.00051131949 0 0)
(-0.00073942273 0.00054476851 0 0.00072534613 0 0)
(-0.0010604647 0.00081507299 0 0.0010135021 0 0)
(-0.0015289394 0.0013433871 0 0.0014797759 0 0)
(-0.0025046076 0.0021553374 0 0.0021983428 0 0)
(-0.004137397 0.0036716893 0 0.0037962624 0 0)
(-0.0099665368 0.0051574763 0 0.0074187029 0 0)
(-0.012745469 0.00032460468 0 0.010991117 0 0)
(0.000113529 7.5413941e-005 0 -3.471562e-007 0 0)
(-0.00028273623 -1.8250008e-005 0 8.1106318e-005 0 0)
(0.00016359795 -1.7967955e-005 0 -2.9101316e-005 0 0)
(-0.00011617326 2.7146775e-005 0 4.6991586e-005 0 0)
(1.6600019e-005 -1.6149951e-005 0 1.2289449e-005 0 0)
(-3.162339e-005 9.9238811e-006 0 2.0920373e-005 0 0)
(-1.8387175e-005 4.6139664e-006 0 2.1919829e-005 0 0)
(-2.66428e-005 1.1226334e-005 0 2.5514012e-005 0 0)
(-3.1198221e-005 1.6260729e-005 0 3.1447798e-005 0 0)
(-4.0532351e-005 2.3931323e-005 0 4.0386403e-005 0 0)
(-5.3527553e-005 3.4206383e-005 0 5.3421339e-005 0 0)
(-7.1576944e-005 4.7987468e-005 0 7.1375335e-005 0 0)
(-9.7240489e-005 6.7515482e-005 0 9.689087e-005 0 0)
(-0.00013278425 9.4899537e-005 0 0.00013215884 0 0)
(-0.00018221916 0.00013404864 0 0.00018107679 0 0)
(-0.00025105981 0.00019083058 0 0.0002488814 0 0)
(-0.00034760299 0.00027546207 0 0.00034365657 0 0)
(-0.00048259964 0.00040087895 0 0.00047382056 0 0)
(-0.00067799372 0.0006070325 0 0.00066402842 0 0)
(-0.00095985046 0.00090455522 0 0.00091561843 0 0)
(-0.001351927 0.0015045269 0 0.0013017984 0 0)
(-0.0022037518 0.0024200846 0 0.0019024451 0 0)
(-0.0035731179 0.0045313399 0 0.0031773767 0 0)
(-0.009631244 0.0069211345 0 0.0066884303 0 0)
(-0.010791709 0.0039879501 0 0.0092705051 0 0)
(0.00012355219 9.5491868e-005 0 -7.2842398e-006 0 0)
(-0.00029713616 -2.030464e-005 0 8.794133e-005 0 0)
(0.00016897093 -2.3994159e-005 0 -3.3345063e-005 0 0)
(-0.00011585387 3.4659502e-005 0 4.6420728e-005 0 0)
(1.3964024e-005 -2.0551481e-005 0 1.3394113e-005 0 0)
(-2.8669648e-005 1.139155e-005 0 1.8925969e-005 0 0)
(-1.823023e-005 5.227224e-006 0 2.1256702e-005 0 0)
(-2.5111968e-005 1.2382028e-005 0 2.4164137e-005 0 0)
(-2.9511708e-005 1.8095707e-005 0 2.9697203e-005 0 0)
(-3.816488e-005 2.6620229e-005 0 3.8020017e-005 0 0)
(-5.0282449e-005 3.802697e-005 0 5.0157434e-005 0 0)
(-6.7162487e-005 5.3374692e-005 0 6.6937205e-005 0 0)
(-9.1025458e-005 7.5015177e-005 0 9.0642955e-005 0 0)
(-0.00012394163 0.00010531257 0 0.00012327135 0 0)
(-0.00016944628 0.00014852321 0 0.0001682403 0 0)
(-0.00023227555 0.00021103518 0 0.00023001432 0 0)
(-0.0003192026 0.00030376433 0 0.00031511981 0 0)
(-0.00043884394 0.00044128615 0 0.00042997754 0 0)
(-0.0006061968 0.000664366 0 0.00059175178 0 0)
(-0.00083844694 0.00098634448 0 0.00079506681 0 0)
(-0.0011364945 0.0016463492 0 0.0010831097 0 0)
(-0.0017723749 0.0026558011 0 0.0014632081 0 0)
(-0.0027906511 0.0052124659 0 0.0023466506 0 0)
(-0.0082662605 0.0081814726 0 0.0051255264 0 0)
(-0.0069717338 0.006701645 0 0.0057394159 0 0)
(0.00013721765 0.00011253691 0 5.5264595e-006 0 0)
(-0.00031620586 -2.266145e-005 0 5.6498204e-005 0 0)
(0.00017547185 -3.0199793e-005 0 -1.1246608e-006 0 0)
(-0.00011512171 4.2085889e-005 0 2.6979041e-005 0 0)
(1.0316347e-005 -2.4690549e-005 0 2.1723523e-005 0 0)
(-2.490895e-005 1.2499463e-005 0 1.5707018e-005 0 0)
(-1.817158e-005 5.9627589e-006 0 2.0625638e-005 0 0)
(-2.3443713e-005 1.3375188e-005 0 2.2567075e-005 0 0)
(-2.7645731e-005 1.9812085e-005 0 2.7700345e-005 0 0)
(-3.5463835e-005 2.9032002e-005 0 3.5224473e-005 0 0)
(-4.6689156e-005 4.1539453e-005 0 4.6403212e-005 0 0)
(-6.2342674e-005 5.8425805e-005 0 6.1911649e-005 0 0)
(-8.4136988e-005 8.1897462e-005 0 8.3468128e-005 0 0)
(-0.00011418176 0.00011483396 0 0.00011309431 0 0)
(-0.00015538873 0.00016163351 0 0.00015355552 0 0)
(-0.00021172721 0.00022908133 0 0.00020851103 0 0)
(-0.00028849533 0.00032833439 0 0.00028288107 0 0)
(-0.00039299317 0.00047497415 0 0.00038169651 0 0)
(-0.00053397517 0.00070752811 0 0.00051528277 0 0)
(-0.00072117355 0.0010460822 0 0.00067102811 0 0)
(-0.00090960201 0.0017251054 0 0.00084783146 0 0)
(-0.0012973935 0.0027622703 0 0.00095843703 0 0)
(-0.001333317 0.0055228194 0 0.00094592314 0 0)
(-0.0033476257 0.0083563448 0 0.0007733459 0 0)
(0.0020159009 0.0087792543 0 -0.003404187 0 0)
(-0.0037349497 -0.00041465363 0 0.0031217814 0 0)
(-0.0012857545 -0.00020059409 0 0.0014221647 0 0)
(-0.0006349718 -7.7258471e-005 0 0.00051890422 0 0)
(-0.00012035163 -2.9438582e-005 0 0.0001564503 0 0)
(-7.1386939e-005 -6.4274341e-006 0 5.8214102e-005 0 0)
(-1.2880934e-005 -1.8675708e-006 0 1.5678654e-005 0 0)
(-5.2803872e-006 7.7580513e-007 0 4.9168083e-006 0 0)
(-1.554905e-006 1.3328909e-006 0 1.4610192e-006 0 0)
(-3.6847407e-007 1.525542e-006 0 4.320115e-007 0 0)
(-1.7396565e-007 1.5982927e-006 0 1.4121341e-007 0 0)
(-3.3355156e-008 1.6140368e-006 0 3.257532e-008 0 0)
(-1.5311151e-008 1.6206531e-006 0 8.2237738e-009 0 0)
(-9.5167597e-009 1.622032e-006 0 2.1409729e-009 0 0)
(-7.2186297e-009 1.6224054e-006 0 3.3845096e-010 0 0)
(-7.0617362e-009 1.6225425e-006 0 -1.6323284e-011 0 0)
(-6.9978476e-009 1.622563e-006 0 -4.7871506e-011 0 0)
(-7.0360776e-009 1.622571e-006 0 -1.7621253e-011 0 0)
(-7.1147401e-009 1.6225757e-006 0 2.6316088e-011 0 0)
(-7.2370942e-009 1.6225887e-006 0 1.1483297e-010 0 0)
(-7.4228509e-009 1.6226087e-006 0 2.2142152e-010 0 0)
(-7.8069897e-009 1.6226973e-006 0 5.444154e-010 0 0)
(-9.013711e-009 1.6229147e-006 0 1.2228452e-009 0 0)
(-8.1584147e-009 1.62353e-006 0 2.8107189e-009 0 0)
(-1.5102008e-008 1.6225112e-006 0 6.8833348e-009 0 0)
(-1.7424687e-008 1.6283666e-006 0 5.3953195e-009 0 0)
(-0.0038338109 -0.0013535593 0 0.0030479922 0 0)
(-0.0012262318 -0.00073581581 0 0.0014246194 0 0)
(-0.00059789532 -0.00037373392 0 0.00043224888 0 0)
(-0.00010199716 -0.00021429427 0 0.00015246829 0 0)
(-6.5299832e-005 -0.00015184786 0 4.6737372e-005 0 0)
(-1.1323069e-005 -0.00013625432 0 1.4543414e-005 0 0)
(-4.7798036e-006 -0.00012933482 0 4.1243404e-006 0 0)
(-1.6349768e-006 -0.00012758517 0 1.1764276e-006 0 0)
(-5.7841403e-007 -0.00012704897 0 4.0791079e-007 0 0)
(-4.1808937e-007 -0.0001268383 0 1.0659948e-007 0 0)
(-2.9369839e-007 -0.00012678803 0 2.7555192e-008 0 0)
(-2.7954477e-007 -0.00012677099 0 6.7683492e-009 0 0)
(-2.7521482e-007 -0.00012676687 0 1.5547741e-009 0 0)
(-2.7315594e-007 -0.00012676573 0 2.9637666e-010 0 0)
(-2.7309604e-007 -0.00012676535 0 -4.2953666e-011 0 0)
(-2.7309096e-007 -0.0001267653 0 -3.4250803e-011 0 0)
(-2.7311894e-007 -0.00012676527 0 -2.0024183e-011 0 0)
(-2.7320255e-007 -0.00012676526 0 1.2190147e-011 0 0)
(-2.7330587e-007 -0.00012676524 0 6.2840236e-011 0 0)
(-2.734833e-007 -0.0001267652 0 1.4158612e-010 0 0)
(-2.7376961e-007 -0.00012676506 0 3.7671321e-010 0 0)
(-2.7475031e-007 -0.00012676472 0 8.9669406e-010 0 0)
(-2.7399514e-007 -0.00012676379 0 2.3649139e-009 0 0)
(-2.7912502e-007 -0.00012676481 0 6.410662e-009 0 0)
(-2.8041127e-007 -0.00012676388 0 4.8343266e-009 0 0)
(-0.0039537691 -0.0025682428 0 0.0029972075 0 0)
(-0.001105351 -0.0015798687 0 0.0013161641 0 0)
(-0.00052331028 -0.00097939094 0 0.00032471129 0 0)
(-6.8776844e-005 -0.00069588026 0 0.00011971048 0 0)
(-5.8195999e-005 -0.00060013373 0 3.2598003e-005 0 0)
(-1.2630753e-005 -0.00057309033 0 1.1210568e-005 0 0)
(-8.3075426e-006 -0.00056316537 0 2.8345971e-006 0 0)
(-6.0842901e-006 -0.00056026391 0 7.756403e-007 0 0)
(-5.2556559e-006 -0.00055944473 0 2.805599e-007 0 0)
(-5.1934724e-006 -0.00055912549 0 6.3452192e-008 0 0)
(-5.0978041e-006 -0.00055904214 0 1.7404541e-008 0 0)
(-5.0906801e-006 -0.00055901792 0 3.4852903e-009 0 0)
(-5.0889291e-006 -0.0005590115 0 6.0200916e-010 0 0)
(-5.0874347e-006 -0.00055900965 0 3.8763687e-011 0 0)
(-5.087616e-006 -0.00055900913 0 -9.5584977e-011 0 0)
(-5.0876417e-006 -0.00055900904 0 -5.0312745e-011 0 0)
(-5.0876791e-006 -0.000559009 0 -2.8551166e-011 0 0)
(-5.0877635e-006 -0.00055900899 0 -3.8052632e-013 0 0)
(-5.0878631e-006 -0.00055900896 0 3.9808962e-011 0 0)
(-5.088037e-006 -0.00055900892 0 1.0871461e-010 0 0)
(-5.0882906e-006 -0.00055900878 0 3.0596384e-010 0 0)
(-5.0892345e-006 -0.00055900838 0 7.9893595e-010 0 0)
(-5.0886605e-006 -0.00055900756 0 2.3791457e-009 0 0)
(-5.0956581e-006 -0.00055900788 0 7.4828957e-009 0 0)
(-5.0973705e-006 -0.00055901393 0 6.0489301e-009 0 0)
(-0.0042684437 -0.0039052744 0 0.0030691524 0 0)
(-0.00097678259 -0.0025541737 0 0.0011324552 0 0)
(-0.00042000677 -0.0016994866 0 0.00017679668 0 0)
(-2.9039108e-005 -0.0013067043 0 5.8332058e-005 0 0)
(-5.8405734e-005 -0.0011832857 0 1.3953693e-005 0 0)
(-2.4993736e-005 -0.0011481022 0 5.8796258e-006 0 0)
(-2.3814192e-005 -0.0011362363 0 1.0539814e-006 0 0)
(-2.2728637e-005 -0.0011325704 0 2.2489818e-007 0 0)
(-2.2235662e-005 -0.0011315789 0 8.0289766e-008 0 0)
(-2.2303596e-005 -0.0011311942 0 7.3428017e-009 0 0)
(-2.2247063e-005 -0.0011310925 0 1.7544084e-009 0 0)
(-2.2249849e-005 -0.0011310645 0 -1.1076715e-009 0 0)
(-2.2251074e-005 -0.0011310569 0 -7.3883632e-010 0 0)
(-2.2250504e-005 -0.0011310548 0 -3.4596634e-010 0 0)
(-2.2250921e-005 -0.0011310542 0 -1.9994926e-010 0 0)
(-2.2251008e-005 -0.0011310541 0 -8.2664226e-011 0 0)
(-2.2251066e-005 -0.0011310541 0 -3.8371288e-011 0 0)
(-2.225115e-005 -0.0011310541 0 -6.03857e-012 0 0)
(-2.2251245e-005 -0.001131054 0 3.1111037e-011 0 0)
(-2.2251404e-005 -0.001131054 0 9.0467704e-011 0 0)
(-2.2251601e-005 -0.0011310538 0 2.450607e-010 0 0)
(-2.2252429e-005 -0.0011310532 0 6.73956e-010 0 0)
(-2.2251933e-005 -0.0011310518 0 1.9577107e-009 0 0)
(-2.2259366e-005 -0.0011310522 0 7.8541261e-009 0 0)
(-2.2261004e-005 -0.0011310504 0 7.0838382e-009 0 0)
(-0.0047091901 -0.0046687978 0 0.0032381994 0 0)
(-0.00078216009 -0.0027828607 0 0.00092401623 0 0)
(-0.00026487143 -0.0017194486 0 -4.9397404e-006 0 0)
(4.2083994e-005 -0.0012620028 0 -1.6506553e-005 0 0)
(-4.0624922e-005 -0.0011284587 0 -8.3884253e-006 0 0)
(-2.2096573e-005 -0.0010900613 0 -2.9416535e-007 0 0)
(-2.5134166e-005 -0.0010779284 0 -9.4293456e-007 0 0)
(-2.5346072e-005 -0.001074107 0 -3.9787036e-007 0 0)
(-2.5275757e-005 -0.0010731289 0 -1.380327e-007 0 0)
(-2.5493055e-005 -0.0010727492 0 -5.4680817e-008 0 0)
(-2.5481185e-005 -0.0010726504 0 -1.5706048e-008 0 0)
(-2.549633e-005 -0.0010726246 0 -5.8970111e-009 0 0)
(-2.5500692e-005 -0.0010726174 0 -2.1311711e-009 0 0)
(-2.5501104e-005 -0.0010726158 0 -7.6637586e-010 0 0)
(-2.5501805e-005 -0.0010726153 0 -2.9108443e-010 0 0)
(-2.5501953e-005 -0.0010726152 0 -1.0997925e-010 0 0)
(-2.5502032e-005 -0.0010726152 0 -4.4368479e-011 0 0)
(-2.5502113e-005 -0.0010726152 0 -1.0196604e-011 0 0)
(-2.5502199e-005 -0.0010726152 0 2.1141346e-011 0 0)
(-2.5502338e-005 -0.0010726151 0 6.4413402e-011 0 0)
(-2.550246e-005 -0.0010726149 0 1.6384408e-010 0 0)
(-2.5503121e-005 -0.0010726141 0 4.9965105e-010 0 0)
(-2.5502753e-005 -0.0010726119 0 1.3601976e-009 0 0)
(-2.5508228e-005 -0.0010726128 0 5.5580346e-009 0 0)
(-2.5509632e-005 -0.0010725997 0 5.516169e-009 0 0)
(-0.0047346269 -0.003774061 0 0.0031797022 0 0)
(-0.00035494052 -0.00084532384 0 0.00062681741 0 0)
(-7.7978466e-005 0.00034095376 0 -0.00017592487 0 0)
(0.00012672631 0.00080704424 0 -8.329283e-005 0 0)
(-1.5958669e-005 0.00091630872 0 -2.9464698e-005 0 0)
(-1.2741855e-005 0.00095187882 0 -6.2769853e-006 0 0)
(-2.1136032e-005 0.00096147746 0 -2.7660355e-006 0 0)
(-2.2777714e-005 0.00096465277 0 -9.0716527e-007 0 0)
(-2.3125286e-005 0.00096534069 0 -3.1964432e-007 0 0)
(-2.3485724e-005 0.00096561184 0 -1.0539446e-007 0 0)
(-2.3516449e-005 0.00096568138 0 -2.9332587e-008 0 0)
(-2.3543298e-005 0.00096569497 0 -9.4470604e-009 0 0)
(-2.3550491e-005 0.00096569905 0 -2.9607352e-009 0 0)
(-2.3551524e-005 0.00096569943 0 -1.0193231e-009 0 0)
(-2.3552468e-005 0.00096569951 0 -3.1755857e-010 0 0)
(-2.3552634e-005 0.00096569939 0 -1.0712274e-010 0 0)
(-2.3552709e-005 0.00096569933 0 -3.8503212e-011 0 0)
(-2.3552773e-005 0.0009656993 0 -1.3374044e-011 0 0)
(-2.3552851e-005 0.00096569935 0 2.74842e-012 0 0)
(-2.3552966e-005 0.00096569945 0 1.6055284e-011 0 0)
(-2.3553001e-005 0.0009656998 0 2.4310358e-011 0 0)
(-2.3553432e-005 0.00096570078 0 1.8595013e-010 0 0)
(-2.355336e-005 0.00096570362 0 3.7623747e-010 0 0)
(-2.3554121e-005 0.00096570171 0 7.3797022e-010 0 0)
(-2.3556498e-005 0.00096572593 0 1.4459523e-009 0 0)
(-0.003982977 2.288908e-005 0 0.0024021283 0 0)
(-0.00015381139 0.0046291107 0 0.00010486105 0 0)
(-0.00054514955 0.0057460363 0 -0.00027444757 0 0)
(-0.00043877037 0.0061670491 0 -0.00011289554 0 0)
(-0.00062267423 0.0062121716 0 -4.161061e-005 0 0)
(-0.00062956882 0.0062375825 0 -1.0393809e-005 0 0)
(-0.00064285052 0.0062409494 0 -3.7555439e-006 0 0)
(-0.00064548733 0.0062425398 0 -1.0787298e-006 0 0)
(-0.00064604313 0.0062427296 0 -3.695025e-007 0 0)
(-0.00064644621 0.0062427713 0 -1.1906697e-007 0 0)
(-0.00064649554 0.0062427849 0 -3.0090265e-008 0 0)
(-0.00064652312 0.0062427767 0 -9.5647701e-009 0 0)
(-0.00064653031 0.0062427751 0 -2.6642673e-009 0 0)
(-0.00064653117 0.0062427739 0 -7.7340561e-010 0 0)
(-0.00064653192 0.0062427733 0 -1.8755203e-010 0 0)
(-0.00064653195 0.0062427729 0 -4.4550621e-011 0 0)
(-0.00064653198 0.0062427728 0 -1.1268786e-011 0 0)
(-0.00064653198 0.0062427728 0 -1.0922407e-011 0 0)
(-0.00064653204 0.0062427728 0 -2.5552915e-011 0 0)
(-0.00064653216 0.0062427729 0 -5.7815345e-011 0 0)
(-0.00064653213 0.0062427733 0 -1.7138486e-010 0 0)
(-0.00064653228 0.0062427743 0 -3.1924992e-010 0 0)
(-0.00064653312 0.0062427779 0 -8.9923816e-010 0 0)
(-0.00064652791 0.0062427773 0 -4.7110675e-009 0 0)
(-0.00064653365 0.0062428005 0 -3.6071662e-009 0 0)
(-0.0036317385 0.0075041209 0 0.00099395796 0 0)
(-0.0022479738 0.013845257 0 -0.00062638988 0 0)
(-0.0037170395 0.01454224 0 -0.00026861891 0 0)
(-0.0036506849 0.014857548 0 -9.6652704e-005 0 0)
(-0.0038323939 0.014828274 0 -3.7720383e-005 0 0)
(-0.0038317818 0.014837906 0 -1.1576035e-005 0 0)
(-0.0038462378 0.014833061 0 -3.1531516e-006 0 0)
(-0.0038479345 0.014832854 0 -8.3597846e-007 0 0)
(-0.0038482516 0.014832492 0 -2.5796488e-007 0 0)
(-0.0038485175 0.014832323 0 -7.209747e-008 0 0)
(-0.0038485067 0.014832279 0 -1.9266942e-008 0 0)
(-0.0038485221 0.014832254 0 -3.2112799e-009 0 0)
(-0.0038485213 0.014832248 0 -9.4480685e-010 0 0)
(-0.0038485203 0.014832245 0 -3.1842446e-011 0 0)
(-0.0038485202 0.014832244 0 1.2601801e-010 0 0)
(-0.0038485199 0.014832244 0 7.0103159e-011 0 0)
(-0.0038485198 0.014832243 0 3.3956476e-011 0 0)
(-0.0038485197 0.014832243 0 -7.9794384e-012 0 0)
(-0.0038485197 0.014832243 0 -6.3850513e-011 0 0)
(-0.0038485198 0.014832244 0 -1.5391865e-010 0 0)
(-0.0038485199 0.014832244 0 -3.5893375e-010 0 0)
(-0.0038485198 0.014832245 0 -9.3305399e-010 0 0)
(-0.0038485219 0.014832249 0 -2.3338752e-009 0 0)
(-0.0038485115 0.014832249 0 -8.3318157e-009 0 0)
(-0.0038485166 0.014832257 0 -6.9814907e-009 0 0)
(-0.0087957953 0.019571126 0 -5.2973171e-005 0 0)
(-0.01017421 0.025469452 0 -0.0012968179 0 0)
(-0.013000941 0.025690396 0 -0.00010143197 0 0)
(-0.012543716 0.025710828 0 -7.9969445e-005 0 0)
(-0.012719332 0.025656559 0 -1.9367987e-005 0 0)
(-0.012674675 0.025643794 0 -1.0694623e-005 0 0)
(-0.012686422 0.025634403 0 -1.262763e-006 0 0)
(-0.012685045 0.025633551 0 -3.9383615e-007 0 0)
(-0.012684582 0.025632819 0 -1.0787336e-007 0 0)
(-0.012684641 0.02563263 0 -1.179703e-009 0 0)
(-0.012684522 0.025632575 0 -2.8497061e-009 0 0)
(-0.012684514 0.02563255 0 2.8422093e-009 0 0)
(-0.012684506 0.025632546 0 1.5996261e-009 0 0)
(-0.012684502 0.025632544 0 7.2795959e-010 0 0)
(-0.012684501 0.025632543 0 3.8153871e-010 0 0)
(-0.0126845 0.025632543 0 1.6826072e-010 0 0)
(-0.0126845 0.025632543 0 6.3966639e-011 0 0)
(-0.0126845 0.025632543 0 -1.2168652e-011 0 0)
(-0.0126845 0.025632543 0 -1.0386577e-010 0 0)
(-0.0126845 0.025632543 0 -2.4720854e-010 0 0)
(-0.0126845 0.025632544 0 -5.5456088e-010 0 0)
(-0.0126845 0.025632545 0 -1.6093342e-009 0 0)
(-0.012684505 0.025632549 0 -3.3310268e-009 0 0)
(-0.012684498 0.025632554 0 -1.1775111e-008 0 0)
(-0.012684495 0.025632549 0 -9.743553e-009 0 0)
(-0.036259932 0.04204917 0 -0.0041512129 0 0)
(-0.031803909 0.038906482 0 -0.00086062204 0 0)
(-0.039961519 0.042164804 0 2.8192032e-005 0 0)
(-0.037692968 0.041218478 0 -3.9849205e-005 0 0)
(-0.038200903 0.041415135 0 1.766756e-007 0 0)
(-0.038021913 0.041335925 0 -5.1160379e-006 0 0)
(-0.03804322 0.04134009 0 8.4404722e-007 0 0)
(-0.038040108 0.041340036 0 3.6988384e-008 0 0)
(-0.038038703 0.041339338 0 7.7497823e-008 0 0)
(-0.038039118 0.041339652 0 4.6323109e-008 0 0)
(-0.038038932 0.041339614 0 1.1244904e-008 0 0)
(-0.038038952 0.041339634 0 7.6614441e-009 0 0)
(-0.038038955 0.041339644 0 2.5315762e-009 0 0)
(-0.038038953 0.041339646 0 1.0104117e-009 0 0)
(-0.038038954 0.041339648 0 4.6906253e-010 0 0)
(-0.038038954 0.041339648 0 1.8183153e-010 0 0)
(-0.038038954 0.041339648 0 5.8976725e-011 0 0)
(-0.038038954 0.041339648 0 -3.3190552e-011 0 0)
(-0.038038954 0.041339648 0 -1.3796561e-010 0 0)
(-0.038038953 0.041339648 0 -3.2502337e-010 0 0)
(-0.038038952 0.041339648 0 -7.5204509e-010 0 0)
(-0.038038948 0.041339647 0 -1.9478416e-009 0 0)
(-0.03803894 0.041339643 0 -5.4256157e-009 0 0)
(-0.038038929 0.041339648 0 -1.3836296e-008 0 0)
(-0.03803883 0.041339599 0 -9.7509418e-009 0 0)
(0.00016785009 9.9095677e-005 0 3.7449744e-005 0 0)
(-0.00035944717 -2.1633803e-005 0 -7.6041474e-006 0 0)
(0.00019161821 -2.942528e-005 0 6.0465922e-005 0 0)
(-0.00011333431 3.5569635e-005 0 -3.8142183e-006 0 0)
(1.3500486e-006 -2.1512244e-005 0 2.9603187e-005 0 0)
(-1.6096237e-005 9.8295758e-006 0 1.3321041e-005 0 0)
(-1.8116101e-005 7.7127689e-006 0 1.8001888e-005 0 0)
(-1.9896233e-005 1.4880851e-005 0 1.9127772e-005 0 0)
(-2.3565628e-005 2.2770733e-005 0 2.3252083e-005 0 0)
(-2.976486e-005 3.3170096e-005 0 2.9194048e-005 0 0)
(-3.9021654e-005 4.7568704e-005 0 3.8267999e-005 0 0)
(-5.1838502e-005 6.6871858e-005 0 5.081073e-005 0 0)
(-6.9498816e-005 9.3463491e-005 0 6.8046902e-005 0 0)
(-9.3537054e-005 0.00013055822 0 9.1425951e-005 0 0)
(-0.00012588388 0.00018284671 0 0.00012274358 0 0)
(-0.0001688421 0.00025742359 0 0.00016406056 0 0)
(-0.00022479048 0.00036539458 0 0.00021738391 0 0)
(-0.00029536575 0.00052341711 0 0.00028306979 0 0)
(-0.00037811717 0.00076310104 0 0.000359562 0 0)
(-0.0004626013 0.0011191067 0 0.00042747829 0 0)
(-0.00049207473 0.0017356818 0 0.00046343824 0 0)
(-0.00047433097 0.0027839438 0 0.00026368323 0 0)
(0.00046634797 0.0049876453 0 -0.00046842675 0 0)
(0.0015656661 0.0062585921 0 -0.0025478395 0 0)
(0.0078245695 0.0023603472 0 -0.0076750527 0 0)
(0.00018181238 7.0687824e-005 0 4.319948e-005 0 0)
(-0.00038546038 -1.456047e-005 0 -1.9778125e-005 0 0)
(0.00020269547 -2.01903e-005 0 6.8765859e-005 0 0)
(-0.00011131882 1.3450028e-005 0 -7.9618634e-006 0 0)
(-2.7415332e-006 -1.016473e-005 0 2.3882911e-005 0 0)
(-7.9461244e-006 4.2029366e-006 0 1.1811774e-005 0 0)
(-1.4309743e-005 9.0763303e-006 0 1.295636e-005 0 0)
(-1.3939178e-005 1.6261233e-005 0 1.3440561e-005 0 0)
(-1.5917045e-005 2.595158e-005 0 1.5834146e-005 0 0)
(-1.9666918e-005 3.7703881e-005 0 1.9403316e-005 0 0)
(-2.5426298e-005 5.4255895e-005 0 2.5081659e-005 0 0)
(-3.3254378e-005 7.6057738e-005 0 3.2791346e-005 0 0)
(-4.3810569e-005 0.00010577617 0 4.3128765e-005 0 0)
(-5.7740281e-005 0.00014702505 0 5.6743256e-005 0 0)
(-7.5421328e-005 0.00020415857 0 7.3903844e-005 0 0)
(-9.7016753e-005 0.00028428498 0 9.4641565e-005 0 0)
(-0.00012143349 0.00039746611 0 0.00011761461 0 0)
(-0.00014488599 0.00055795757 0 0.00013835568 0 0)
(-0.00015718714 0.00078736013 0 0.00014613227 0 0)
(-0.00013522024 0.0011105635 0 0.00011335294 0 0)
(-3.4172914e-005 0.0015871922 0 -5.5163727e-006 0 0)
(0.00019872205 0.0022618508 0 -0.0003978186 0 0)
(0.0013177202 0.0034307259 0 -0.0015500171 0 0)
(0.0035921951 0.0025923155 0 -0.0047308573 0 0)
(0.0048869829 -0.0038825751 0 -0.0072210144 0 0)
(0.00018495965 6.6100179e-005 0 3.2907876e-005 0 0)
(-0.00040138828 -1.2337941e-005 0 1.0606417e-005 0 0)
(0.00021162525 -2.0112463e-005 0 4.1847291e-005 0 0)
(-0.00010731852 3.3778905e-006 0 6.3433406e-006 0 0)
(-5.0179576e-006 -7.0234038e-006 0 1.3580975e-005 0 0)
(-1.9146789e-006 1.9703931e-006 0 8.7964563e-006 0 0)
(-8.8089066e-006 8.9199063e-006 0 7.360343e-006 0 0)
(-7.3733983e-006 1.6999899e-005 0 6.8967012e-006 0 0)
(-7.2842361e-006 2.7428658e-005 0 7.348077e-006 0 0)