/*--------------------------------*- C++ -*----------------------------------*\
| =========                 |                                                 |
| \\      /  F ield         | OpenFOAM: The Open Source CFD Toolbox           |
|  \\    /   O peration     | Version:  5.x                                   |
|   \\  /    A nd           | Web:      www.OpenFOAM.org                      |
|    \\/     M anipulation  |                                                 |
\*---------------------------------------------------------------------------*/
/*   Windows 32 and 64 bit porting by blueCAPE: http://www.bluecape.com.pt   *\
|  Based on Windows porting (2.0.x v4) by Symscape: http://www.symscape.com   |
\*---------------------------------------------------------------------------*/
FoamFile
{
    version     2.0;
    format      ascii;
    class       volVectorField;
    location    "0.03";
    object      U;
}
// * * * * * * * * * * * * * * * * * * * * * * * * * * * * * * * * * * * * * //

dimensions      [0 1 -1 0 0 0 0];

internalField   nonuniform List<vector> 
750
(
(0.038109986 -2.7185975e-005 0)
(0.03973776 -3.0954998e-005 0)
(0.03880979 -4.8305912e-006 0)
(0.039668844 -2.8570931e-005 0)
(0.039398723 -9.8883987e-006 0)
(0.039747167 -2.1227587e-005 0)
(0.039782936 -1.5106389e-005 0)
(0.039965288 -1.9752033e-005 0)
(0.040109112 -2.1574308e-005 0)
(0.040305042 -2.7210334e-005 0)
(0.040545083 -3.4928487e-005 0)
(0.040862018 -4.6519885e-005 0)
(0.041287446 -6.3061693e-005 0)
(0.041868163 -8.6682857e-005 0)
(0.042670359 -0.00012043799 0)
(0.043789073 -0.00016906046 0)
(0.045367137 -0.00023945219 0)
(0.047603205 -0.00034491292 0)
(0.050876633 -0.00049947188 0)
(0.055525868 -0.00075357405 0)
(0.062947923 -0.0011110811 0)
(0.073019989 -0.0017683377 0)
(0.091559856 -0.0026338499 0)
(0.1143457 -0.0038193752 0)
(0.15484061 -0.0043584187 0)
(0.038098471 -7.9595909e-005 0)
(0.039740639 -9.2599261e-005 0)
(0.038810221 -2.3290518e-005 0)
(0.039667648 -8.1874763e-005 0)
(0.03940083 -3.4180345e-005 0)
(0.039746027 -6.0055636e-005 0)
(0.03978311 -4.729263e-005 0)
(0.039963767 -5.8056796e-005 0)
(0.040107174 -6.4930003e-005 0)
(0.040301675 -8.121607e-005 0)
(0.040540252 -0.00010448547 0)
(0.040855002 -0.00013903919 0)
(0.041277399 -0.00018848826 0)
(0.041853849 -0.00025904984 0)
(0.042649846 -0.00035984527 0)
(0.043759426 -0.00050487303 0)
(0.045323397 -0.00071518516 0)
(0.047538758 -0.0010286036 0)
(0.050778062 -0.001491856 0)
(0.05537154 -0.0022370239 0)
(0.062700074 -0.003327454 0)
(0.072628384 -0.0052373434 0)
(0.091026451 -0.0079688342 0)
(0.11395585 -0.011505939 0)
(0.15599428 -0.013507316 0)
(0.038083067 -0.00013223741 0)
(0.039745279 -0.00015238374 0)
(0.03881067 -4.5352894e-005 0)
(0.039666213 -0.00013230261 0)
(0.039404523 -6.1205927e-005 0)
(0.039744144 -9.674702e-005 0)
(0.039783241 -8.0448246e-005 0)
(0.039960949 -9.548235e-005 0)
(0.040103255 -0.00010816678 0)
(0.04029507 -0.00013464637 0)
(0.04053063 -0.00017342938 0)
(0.04084105 -0.00023065051 0)
(0.041257427 -0.00031265265 0)
(0.041825365 -0.00042960647 0)
(0.042609022 -0.00059660154 0)
(0.043700372 -0.00083665338 0)
(0.045236573 -0.0011849749 0)
(0.04740974 -0.0017023058 0)
(0.050580333 -0.0024700976 0)
(0.055065958 -0.0036896383 0)
(0.062203108 -0.0055108227 0)
(0.071836711 -0.0086328408 0)
(0.089944475 -0.013344425 0)
(0.11310631 -0.019411741 0)
(0.15817299 -0.023230626 0)
(0.038066746 -0.00018683349 0)
(0.03975222 -0.00020933125 0)
(0.038811019 -6.7907861e-005 0)
(0.039664464 -0.00018134339 0)
(0.039409665 -8.8867827e-005 0)
(0.039741585 -0.00013294217 0)
(0.039783335 -0.00011331094 0)
(0.039956895 -0.0001323891 0)
(0.04009738 -0.0001507535 0)
(0.040285308 -0.00018720737 0)
(0.040516296 -0.0002412039 0)
(0.040820272 -0.0003206473 0)
(0.041227698 -0.00043453806 0)
(0.04178296 -0.00059689111 0)
(0.042548265 -0.00082856449 0)
(0.043612503 -0.0011612498 0)
(0.045107662 -0.0016437557 0)
(0.047217581 -0.0023587292 0)
(0.050285683 -0.003420767 0)
(0.054613907 -0.0050972619 0)
(0.061463691 -0.0076177844 0)
(0.070653815 -0.011935774 0)
(0.088292576 -0.018710783 0)
(0.11158691 -0.027786163 0)
(0.16056919 -0.033843509 0)
(0.038047834 -0.00024098631 0)
(0.039761558 -0.00026710872 0)
(0.038811864 -8.9925245e-005 0)
(0.039662183 -0.00023089314 0)
(0.039416378 -0.00011589257 0)
(0.039738352 -0.0001688257 0)
(0.039783394 -0.00014561563 0)
(0.03995163 -0.00016862787 0)
(0.04008958 -0.0001924123 0)
(0.040272433 -0.00023857421 0)
(0.04049733 -0.00030735708 0)
(0.040792797 -0.00040840393 0)
(0.041188404 -0.00055326947 0)
(0.041726939 -0.00075965378 0)
(0.042468064 -0.0010539034 0)
(0.043496627 -0.0014759354 0)
(0.044937913 -0.0020873008 0)
(0.046964685 -0.0029910689 0)
(0.049897713 -0.0043330544 0)
(0.054020039 -0.0064418406 0)
(0.060492159 -0.0096170633 0)
(0.069099267 -0.015105632 0)
(0.086037149 -0.024012995 0)
(0.10902437 -0.036652303 0)
(0.16135235 -0.045588554 0)
(0.038021752 -0.00029325613 0)
(0.03977252 -0.00032856494 0)
(0.038814229 -0.00010991977 0)
(0.039658702 -0.00028205503 0)
(0.03942506 -0.00014202909 0)
(0.039734435 -0.00020428477 0)
(0.039783421 -0.00017729324 0)
(0.039945196 -0.000203952 0)
(0.040079901 -0.00023291933 0)
(0.040256524 -0.00028841323 0)
(0.040473838 -0.00037146117 0)
(0.040758804 -0.00049332243 0)
(0.041139811 -0.00066801542 0)
(0.041657719 -0.00091671075 0)
(0.042369084 -0.0012708977 0)
(0.043353843 -0.001778153 0)
(0.044729117 -0.0025117095 0)
(0.04665416 -0.0035932516 0)
(0.049422134 -0.0051971038 0)
(0.053291438 -0.0077054644 0)
(0.059292713 -0.011478219 0)
(0.067168463 -0.0180857 0)
(0.083098327 -0.029139378 0)
(0.10492331 -0.045736362 0)
(0.15832642 -0.058068119 0)
(0.03798321 -0.00034271273 0)
(0.039783989 -0.00039511548 0)
(0.038818661 -0.00012726808 0)
(0.039653187 -0.00033490923 0)
(0.039436253 -0.00016763933 0)
(0.039729855 -0.00023905478 0)
(0.039783402 -0.00020824079 0)
(0.039937658 -0.00023816365 0)
(0.040068404 -0.00027203728 0)
(0.040237695 -0.00033640765 0)
(0.040445962 -0.00043309636 0)
(0.040718507 -0.00057482976 0)
(0.04108225 -0.00077798041 0)
(0.041575804 -0.0010669392 0)
(0.042252121 -0.0014779404 0)
(0.043185446 -0.0020655617 0)
(0.044483439 -0.0029134919 0)
(0.046289876 -0.0041598694 0)
(0.048866441 -0.0060043822 0)
(0.052436695 -0.0088728076 0)
(0.057878821 -0.013175403 0)
(0.064876911 -0.020820729 0)
(0.079389329 -0.033915041 0)
(0.098843201 -0.054515398 0)
(0.15020789 -0.069891075 0)
(0.037927784 -0.00038781348 0)
(0.039795481 -0.00046777073 0)
(0.038825025 -0.00014235732 0)
(0.039645002 -0.00038914602 0)
(0.039450638 -0.00019272659 0)
(0.039724416 -0.00027294959 0)
(0.039783329 -0.00023828009 0)
(0.039929101 -0.00027110655 0)
(0.040055162 -0.00030951217 0)
(0.040216079 -0.00038223747 0)
(0.040413893 -0.00049181381 0)
(0.040672144 -0.00065233901 0)
(0.041016108 -0.00088233255 0)
(0.041481755 -0.0012091608 0)
(0.042118021 -0.0016733314 0)
(0.04299274 -0.0023356581 0)
(0.044202994 -0.0032888364 0)
(0.045875223 -0.0046850295 0)
(0.048236488 -0.0067443175 0)
(0.051463215 -0.0099252023 0)
(0.056273753 -0.014672028 0)
(0.062242419 -0.023230398 0)
(0.074862013 -0.038137002 0)
(0.0905812 -0.062531535 0)
(0.13802131 -0.079256509 0)
(0.037854052 -0.00042882724 0)
(0.039807836 -0.00054550674 0)
(0.038832598 -0.00015718646 0)
(0.039634395 -0.00044387757 0)
(0.039468536 -0.00021726121 0)
(0.039717744 -0.00030583447 0)
(0.039783328 -0.00026733668 0)
(0.039919613 -0.00030257797 0)
(0.040040274 -0.00034510717 0)
(0.040191843 -0.00042556003 0)
(0.040377889 -0.00054716889 0)
(0.040620053 -0.00072526364 0)
(0.040941898 -0.00098024714 0)
(0.041376356 -0.0013422229 0)
(0.041967976 -0.00185545 0)
(0.042777598 -0.0025861445 0)
(0.04389078 -0.0036345095 0)
(0.045415444 -0.0051641601 0)
(0.047541047 -0.0074097391 0)
(0.050387264 -0.010851757 0)
(0.054509939 -0.015944248 0)
(0.059313274 -0.025229096 0)
(0.069479009 -0.041477749 0)
(0.079962513 -0.06907701 0)
(0.12208544 -0.084558906 0)
(0.037764352 -0.00046513069 0)
(0.039822838 -0.00062738211 0)
(0.038841203 -0.00017194632 0)
(0.039622262 -0.00049719334 0)
(0.039489773 -0.00024359698 0)
(0.039709612 -0.00033580624 0)
(0.039783688 -0.00029611135 0)
(0.039909321 -0.00033215557 0)
(0.0400239 -0.00037871473 0)
(0.040165152 -0.00046617042 0)
(0.040338265 -0.00059891374 0)
(0.04056274 -0.00079323081 0)
(0.040860309 -0.0010712779 0)
(0.04126067 -0.0014655145 0)
(0.041803628 -0.0020234549 0)
(0.042542623 -0.0028158108 0)
(0.043550883 -0.0039488241 0)
(0.044917611 -0.0055939473 0)
(0.046791002 -0.0079957513 0)
(0.049236283 -0.011639353 0)
(0.052632553 -0.0169818 0)
(0.056209397 -0.026720393 0)
(0.063408177 -0.043825078 0)
(0.067206435 -0.074086354 0)
(0.099479427 -0.08573854 0)
(0.18288643 -0.001880894 0)
(0.18709789 -0.00066106231 0)
(0.19163287 -0.00022647517 0)
(0.19128291 -3.8306982e-005 0)
(0.19181212 -2.1036868e-005 0)
(0.19173837 -1.6131276e-007 0)
(0.19176688 -8.4521049e-007 0)
(0.19176385 1.6846631e-007 0)
(0.19176105 1.4350825e-007 0)
(0.1917614 3.3863413e-008 0)
(0.19176079 3.2723819e-008 0)
(0.19176073 9.7459997e-009 0)
(0.19176068 4.3923378e-009 0)
(0.19176065 1.9411815e-009 0)
(0.19176065 5.9701787e-010 0)
(0.19176064 2.5140678e-010 0)
(0.19176064 9.860964e-011 0)
(0.19176064 3.2236936e-011 0)
(0.19176064 2.044461e-011 0)
(0.19176064 1.0695832e-011 0)
(0.19176064 9.8858263e-011 0)
(0.19176064 2.4047408e-010 0)
(0.19176064 2.8973547e-010 0)
(0.19176064 1.1988705e-009 0)
(0.19176062 1.3075499e-009 0)
(0.18499005 -0.0054457276 0)
(0.18883335 -0.0020178937 0)
(0.19300871 -0.00055914525 0)
(0.19247114 -0.00012741558 0)
(0.1929498 -4.5648884e-005 0)
(0.19287129 -4.4624842e-006 0)
(0.19289616 -1.201857e-006 0)
(0.19289279 4.9812304e-007 0)
(0.19288961 3.9092755e-007 0)
(0.19288995 1.4164563e-007 0)
(0.19288935 8.3804487e-008 0)
(0.19288929 3.0666979e-008 0)
(0.19288924 1.3133557e-008 0)
(0.19288922 5.3594854e-009 0)
(0.19288921 1.8170898e-009 0)
(0.19288921 7.3357682e-010 0)
(0.19288921 2.8486598e-010 0)
(0.19288921 8.9158835e-011 0)
(0.19288921 2.4447141e-011 0)
(0.19288921 -8.1191859e-012 0)
(0.19288921 1.616102e-010 0)
(0.19288921 5.5626815e-010 0)
(0.19288921 5.3061473e-010 0)
(0.1928892 2.2234434e-009 0)
(0.1928892 2.9146864e-009 0)
(0.18950514 -0.0090026911 0)
(0.19290302 -0.003342396 0)
(0.19641047 -0.00075112285 0)
(0.1954909 -0.00019470342 0)
(0.19587611 -5.2980295e-005 0)
(0.19578445 -9.8200726e-006 0)
(0.1958048 -3.4038651e-007 0)
(0.19580015 9.1097808e-007 0)
(0.19579651 6.5718282e-007 0)
(0.19579681 2.7590094e-007 0)
(0.19579622 1.2556406e-007 0)
(0.19579616 5.2445825e-008 0)
(0.19579612 2.1387948e-008 0)
(0.19579609 8.3375681e-009 0)
(0.19579609 3.0089001e-009 0)
(0.19579609 1.1744492e-009 0)
(0.19579609 4.5877181e-010 0)
(0.19579609 1.3955822e-010 0)
(0.19579609 1.0372522e-011 0)
(0.19579609 -5.455374e-011 0)
(0.19579609 1.281427e-010 0)
(0.19579609 7.2012215e-010 0)
(0.19579609 7.5162862e-010 0)
(0.19579608 3.044598e-009 0)
(0.19579607 4.3547776e-009 0)
(0.19560513 -0.012878551 0)
(0.19853213 -0.0045527133 0)
(0.20124925 -0.00077382906 0)
(0.19984419 -0.00019130961 0)
(0.20011658 -4.3451747e-005 0)
(0.2000064 -1.2230262e-005 0)
(0.20002289 1.2867562e-006 0)
(0.20001663 1.5959448e-006 0)
(0.20001272 9.9159409e-007 0)
(0.200013 4.1543886e-007 0)
(0.20001243 1.6603844e-007 0)
(0.20001238 7.258906e-008 0)
(0.20001235 2.8540969e-008 0)
(0.20001233 1.0847242e-008 0)
(0.20001233 4.02222e-009 0)
(0.20001233 1.5385881e-009 0)
(0.20001232 6.0292185e-010 0)
(0.20001232 1.8022474e-010 0)
(0.20001232 -3.121816e-012 0)
(0.20001232 -1.0409614e-010 0)
(0.20001233 7.1791044e-011 0)
(0.20001232 7.3030572e-010 0)
(0.20001233 1.0712518e-009 0)
(0.20001232 7.2494438e-009 0)
(0.20001227 8.9896253e-009 0)
(0.1996693 -0.017171251 0)
(0.20130203 -0.005638396 0)
(0.20345516 -0.00062318406 0)
(0.20166181 -0.0001149475 0)
(0.20186024 -1.6238209e-005 0)
(0.2017299 -1.1982701e-005 0)
(0.20174468 3.5731785e-006 0)
(0.20173762 2.4553938e-006 0)
(0.201734 1.3583421e-006 0)
(0.20173438 5.4657254e-007 0)
(0.20173388 2.0026867e-007 0)
(0.20173386 8.8811512e-008 0)
(0.20173385 3.3734795e-008 0)
(0.20173384 1.261616e-008 0)
(0.20173383 4.735447e-009 0)
(0.20173383 1.780075e-009 0)
(0.20173383 6.9702809e-010 0)
(0.20173383 2.0698156e-010 0)
(0.20173383 -1.5256788e-011 0)
(0.20173383 -1.4258744e-010 0)
(0.20173383 1.7958188e-011 0)
(0.20173383 5.7561176e-010 0)
(0.20173384 1.4742712e-009 0)
(0.20173383 1.7438594e-008 0)
(0.20173374 1.9465019e-008 0)
(0.19536857 -0.021414083 0)
(0.19310806 -0.0064843034 0)
(0.19529564 -0.00037152975 0)
(0.19340308 -8.030179e-006 0)
(0.19363443 2.0821813e-005 0)
(0.19348393 -1.0093288e-005 0)
(0.1935011 6.188576e-006 0)
(0.19349506 3.1546855e-006 0)
(0.19349259 1.6394461e-006 0)
(0.19349334 6.363392e-007 0)
(0.19349298 2.16322e-007 0)
(0.19349303 9.7425813e-008 0)
(0.19349304 3.5635414e-008 0)
(0.19349303 1.3122918e-008 0)
(0.19349304 4.9735796e-009 0)
(0.19349304 1.829734e-009 0)
(0.19349304 7.1207076e-010 0)
(0.19349304 2.0935442e-010 0)
(0.19349304 -1.9027682e-011 0)
(0.19349304 -1.4772887e-010 0)
(0.19349304 -4.3515452e-012 0)
(0.19349304 3.8191472e-010 0)
(0.19349304 2.0331626e-009 0)
(0.19349303 3.138608e-008 0)
(0.19349294 3.3578813e-008 0)
(0.17659469 -0.02417914 0)
(0.16611489 -0.0067098064 0)
(0.16905019 -0.00015310157 0)
(0.16731921 6.4366569e-005 0)
(0.16771863 5.2044219e-005 0)
(0.16754503 -7.4614917e-006 0)
(0.16757216 8.3310171e-006 0)
(0.16756875 3.2493404e-006 0)
(0.16756827 1.6858677e-006 0)
(0.16756966 6.3192712e-007 0)
(0.16756948 2.015991e-007 0)
(0.16756962 9.3173857e-008 0)
(0.16756966 3.2454344e-008 0)
(0.16756966 1.1822204e-008 0)
(0.16756967 4.5304183e-009 0)
(0.16756967 1.6188163e-009 0)
(0.16756967 6.2319819e-010 0)
(0.16756967 1.7989141e-010 0)
(0.16756967 -1.0247594e-011 0)
(0.16756967 -1.0825547e-010 0)
(0.16756967 5.9100303e-011 0)
(0.16756967 3.587815e-010 0)
(0.16756968 2.2341002e-009 0)
(0.16756967 4.1924753e-008 0)
(0.16756964 4.4331118e-008 0)
(0.14168233 -0.023023976 0)
(0.119367 -0.0057494621 0)
(0.12333072 -7.1439931e-005 0)
(0.12171581 5.9179085e-005 0)
(0.12237756 6.2241028e-005 0)
(0.12217042 -5.1584796e-006 0)
(0.12221945 8.6654165e-006 0)
(0.12221777 2.4862691e-006 0)
(0.12221968 1.3970109e-006 0)
(0.12222177 4.964883e-007 0)
(0.12222175 1.5022866e-007 0)
(0.12222198 7.2968995e-008 0)
(0.12222204 2.3472781e-008 0)
(0.12222206 8.6195247e-009 0)
(0.12222207 3.3504807e-009 0)
(0.12222208 1.1460983e-009 0)
(0.12222208 4.4091001e-010 0)
(0.12222208 1.2233531e-010 0)
(0.12222208 -4.571929e-013 0)
(0.12222208 -6.1919433e-011 0)
(0.12222208 1.5374479e-010 0)
(0.12222208 4.6653402e-010 0)
(0.12222208 1.5187943e-009 0)
(0.12222208 3.9946011e-008 0)
(0.12222215 4.2311356e-008 0)
(0.094863972 -0.016770227 0)
(0.063152055 -0.003481638 0)
(0.067620148 1.0575721e-005 0)
(0.065833782 -1.06523e-006 0)
(0.066723448 4.3953657e-005 0)
(0.066478435 -3.8227687e-006 0)
(0.066555757 6.1145268e-006 0)
(0.066551782 1.1396625e-006 0)
(0.066555651 8.0347497e-007 0)
(0.066558005 2.5910861e-007 0)
(0.066557997 7.460114e-008 0)
(0.066558299 3.9619219e-008 0)
(0.066558361 1.1147898e-008 0)
(0.06655838 4.2775956e-009 0)
(0.066558392 1.6775489e-009 0)
(0.066558395 5.3839399e-010 0)
(0.066558396 2.1480737e-010 0)
(0.066558397 5.4878924e-011 0)
(0.066558397 -1.6954615e-014 0)
(0.066558397 -5.4587543e-011 0)
(0.066558397 2.568124e-011 0)
(0.066558396 1.3559323e-010 0)
(0.066558404 -4.4855436e-011 0)
(0.066558397 2.3129933e-008 0)
(0.066558563 2.5183505e-008 0)
(0.040957176 -0.0086788998 0)
(0.015540197 -0.00063170144 0)
(0.01941101 -5.1817802e-005 0)
(0.017733387 3.4948768e-006 0)
(0.018499583 6.386752e-006 0)
(0.018294861 1.1271947e-006 0)
(0.018366447 1.6802168e-006 0)
(0.018359685 6.7486601e-008 0)
(0.01836311 2.0071288e-007 0)
(0.018364569 2.9710715e-008 0)
(0.0183645 1.139409e-008 0)
(0.018364718 6.4943629e-009 0)
(0.018364746 8.3707155e-010 0)
(0.018364757 5.481869e-010 0)
(0.018364764 1.7144342e-010 0)
(0.018364765 3.2411007e-011 0)
(0.018364766 2.0094318e-011 0)
(0.018364766 7.6020401e-013 0)
(0.018364767 5.6552796e-012 0)
(0.018364766 -4.8850716e-012 0)
(0.018364767 2.6954925e-011 0)
(0.018364766 2.2611299e-010 0)
(0.01836477 -3.5127129e-010 0)
(0.018364759 7.6422898e-009 0)
(0.018364883 8.8012988e-009 0)
(0.037566933 -0.00054204812 0)
(0.039860096 -0.00076194509 0)
(0.038865527 -0.00024103284 0)
(0.039594334 -0.00057618182 0)
(0.039538893 -0.00031651702 0)
(0.039692298 -0.00038370733 0)
(0.039784831 -0.00035434027 0)
(0.039887803 -0.0003867497 0)
(0.039988578 -0.00044165944 0)
(0.040107391 -0.00054156808 0)
(0.040252514 -0.00069466923 0)
(0.040438766 -0.00091864561 0)
(0.040683965 -0.0012387274 0)
(0.041011019 -0.001691316 0)
(0.041449768 -0.0023293284 0)
(0.042038225 -0.0032304556 0)
(0.042823809 -0.0045099023 0)
(0.04385851 -0.0063461681 0)
(0.045205624 -0.0089972342 0)
(0.0468479 -0.012905676 0)
(0.048783413 -0.018556181 0)
(0.050179137 -0.028385452 0)
(0.051782765 -0.045937465 0)
(0.042426572 -0.076899716 0)
(0.036714653 -0.071313953 0)
(0.037440865 -0.00070950435 0)
(0.039920381 -0.00085123268 0)
(0.038916899 -0.00050412052 0)
(0.039604352 -0.00061428276 0)
(0.03960382 -0.0004545383 0)
(0.039695647 -0.00044139552 0)
(0.03978181 -0.00042597013 0)
(0.039855976 -0.00045014134 0)
(0.039926634 -0.00051237598 0)
(0.040005834 -0.00062428343 0)
(0.040100572 -0.00079782038 0)
(0.040219094 -0.0010518946 0)
(0.040372545 -0.0014140266 0)
(0.040572621 -0.0019233968 0)
(0.040833594 -0.0026361517 0)
(0.041170375 -0.0036325604 0)
(0.04159522 -0.0050278585 0)
(0.042109637 -0.0069898323 0)
(0.042689458 -0.0097567804 0)
(0.043232935 -0.013659936 0)
(0.043526817 -0.019095485 0)
(0.042981474 -0.027405534 0)
(0.040779933 -0.040903045 0)
(0.028251285 -0.059463008 0)
(0.0081839698 -0.044006749 0)
(0.03740762 -0.00087775593 0)
(0.040009585 -0.00099904439 0)
(0.038998349 -0.00070161 0)
(0.039640939 -0.00067872136 0)
(0.039668887 -0.0005485846 0)
(0.03971713 -0.00049477925 0)
(0.039781037 -0.00047386227 0)
(0.039825441 -0.00049171402 0)
(0.039860665 -0.00055458768 0)
(0.039895889 -0.00067121017 0)
(0.039934775 -0.00085412723 0)
(0.039980056 -0.0011221963 0)
(0.040034132 -0.0015032366 0)
(0.0400992 -0.002036644 0)
(0.040174013 -0.0027771501 0)
(0.0402528 -0.0038013931 0)
(0.040318745 -0.0052153282 0)
(0.040333291 -0.0071650799 0)
(0.040216225 -0.0098475443 0)
(0.039805699 -0.013505297 0)
(0.038804023 -0.018426939 0)
(0.036685297 -0.025282811 0)
(0.032376008 -0.035444857 0)
(0.020633035 -0.047607066 0)
(0.0032837191 -0.037192106 0)
(0.037410034 -0.0010818216 0)
(0.040110346 -0.0011893708 0)
(0.039101711 -0.00088194393 0)
(0.039704458 -0.00075588541 0)
(0.039734559 -0.00061445792 0)
(0.03974413 -0.00053244613 0)
(0.039776636 -0.00049790035 0)
(0.039787828 -0.00050754801 0)
(0.039784554 -0.00056581151 0)
(0.039773738 -0.00067967634 0)
(0.039754989 -0.00086050912 0)
(0.039725255 -0.0011265068 0)
(0.039679624 -0.0015037538 0)
(0.039610451 -0.0020288116 0)
(0.039503522 -0.0027525079 0)
(0.039335705 -0.0037430811 0)
(0.039068012 -0.0050918037 0)
(0.038634733 -0.0069179348 0)
(0.037923562 -0.0093708928 0)
(0.036748627 -0.01261618 0)
(0.034799658 -0.016822863 0)
(0.031627058 -0.022325177 0)
(0.026365446 -0.029850324 0)
(0.016450053 -0.037631422 0)
(0.0030693486 -0.029235898 0)
(0.037421733 -0.0013349343 0)
(0.040209221 -0.0014188027 0)
(0.03921178 -0.0010443546 0)
(0.039773727 -0.00082434166 0)
(0.039782834 -0.00065274574 0)
(0.03975109 -0.00054574271 0)
(0.039746048 -0.00049574355 0)
(0.039720931 -0.0004952838 0)
(0.039678023 -0.00054488804 0)
(0.039621575 -0.00064904612 0)
(0.03954675 -0.00081759819 0)
(0.039444709 -0.0010662001 0)
(0.039305102 -0.0014180713 0)
(0.039110675 -0.0019057384 0)
(0.038836974 -0.0025729981 0)
(0.038447585 -0.003477682 0)
(0.037888167 -0.0046939815 0)
(0.037076828 -0.0063135833 0)
(0.035889334 -0.0084427679 0)
(0.034140236 -0.011183254 0)
(0.031555467 -0.014609132 0)
(0.027777742 -0.018887098 0)
(0.022205909 -0.024424362 0)
(0.013579324 -0.02953259 0)
(0.0028033676 -0.022581551 0)
(0.037503838 -0.0016173598 0)
(0.040450397 -0.0016726936 0)
(0.039467074 -0.0011831262 0)
(0.039966814 -0.00086745454 0)
(0.039929298 -0.00065712222 0)
(0.039848462 -0.00052839577 0)
(0.039800831 -0.00046485697 0)
(0.039737457 -0.00045416118 0)
(0.039655593 -0.00049247198 0)
(0.039556025 -0.00058146047 0)
(0.039429195 -0.00072846238 0)
(0.039261946 -0.00094635233 0)
(0.039037655 -0.0012543989 0)
(0.038732381 -0.0016796666 0)
(0.038313211 -0.0022578653 0)
(0.037734453 -0.0030351936 0)
(0.036931742 -0.0040687854 0)
(0.035814966 -0.0054254062 0)
(0.034258763 -0.0071764663 0)
(0.032091752 -0.0093778766 0)
(0.029087114 -0.012048388 0)
(0.024978235 -0.015262952 0)
(0.019367329 -0.019285387 0)
(0.011529695 -0.022694476 0)
(0.0023472289 -0.017044929 0)
(0.03809296 -0.0021769086 0)
(0.041472677 -0.0020356103 0)
(0.04047319 -0.0012992276 0)
(0.040843356 -0.00086734517 0)
(0.040727553 -0.00061847521 0)
(0.040586126 -0.00047483709 0)
(0.040490667 -0.00040306998 0)
(0.040387612 -0.00038425563 0)
(0.040267974 -0.00041016023 0)
(0.040127982 -0.00047974659 0)
(0.039953413 -0.00059745604 0)
(0.039726975 -0.00077323997 0)
(0.039426663 -0.0010217327 0)
(0.039022604 -0.0013636275 0)
(0.038475458 -0.001826171 0)
(0.03773217 -0.0024434548 0)
(0.03672141 -0.0032565227 0)
(0.035348945 -0.0043111893 0)
(0.033491622 -0.0056520739 0)
(0.03099362 -0.0073058507 0)
(0.027669315 -0.0092642599 0)
(0.023324838 -0.011559386 0)
(0.017686389 -0.014357521 0)
(0.010299944 -0.016594288 0)
(0.001999387 -0.012281636 0)
(0.039734278 -0.0037431867 0)
(0.04366104 -0.0025995069 0)
(0.042363773 -0.0013018939 0)
(0.042468135 -0.00075688042 0)
(0.042227298 -0.00051193884 0)
(0.042007694 -0.00037597201 0)
(0.041858372 -0.00030734445 0)
(0.041715178 -0.00028555279 0)
(0.04155985 -0.00029946785 0)
(0.041382709 -0.00034645046 0)
(0.041165374 -0.00042867173 0)
(0.040886417 -0.00055239842 0)
(0.040518954 -0.00072751011 0)
(0.040028278 -0.00096799692 0)
(0.039369424 -0.001292191 0)
(0.03848324 -0.0017223515 0)
(0.037293328 -0.0022845164 0)
(0.035702499 -0.0030066163 0)
(0.033589775 -0.0039132939 0)
(0.030811659 -0.0050139606 0)
(0.02721226 -0.0062923929 0)
(0.022647725 -0.0077600195 0)
(0.016916849 -0.0095133503 0)
(0.0096887891 -0.010840007 0)
(0.001814369 -0.0079010381 0)
(0.040050757 -0.0067109897 0)
(0.042878406 -0.0027429769 0)
(0.040618238 -0.00094083093 0)
(0.040429128 -0.0004730691 0)
(0.040046213 -0.00031975257 0)
(0.039756228 -0.00022698272 0)
(0.039566008 -0.00017828986 0)
(0.039396569 -0.00016114765 0)
(0.039222627 -0.00016534756 0)
(0.039030049 -0.00018840246 0)
(0.038798 -0.00023097782 0)
(0.03850305 -0.00029598326 0)
(0.038117356 -0.00038822234 0)
(0.03760554 -0.00051491007 0)
(0.036922149 -0.00068519799 0)
(0.03600899 -0.00091012152 0)
(0.034792496 -0.0012022004 0)
(0.033181566 -0.0015741441 0)
(0.031066907 -0.0020361029 0)
(0.028325332 -0.0025895156 0)
(0.024833278 -0.0032207503 0)
(0.02048939 -0.003930179 0)
(0.015142037 -0.0047549154 0)
(0.0085333229 -0.0053195766 0)
(0.0015374325 -0.0038105248 0)
(0.027808812 -0.0087500641 0)
(0.027205131 -0.0023044661 0)
(0.024183955 -0.00018128626 0)
(0.024265746 -0.00012163537 0)
(0.023899994 -8.5190241e-005 0)
(0.023659553 -5.2291855e-005 0)
(0.023509825 -3.831533e-005 0)
(0.023380233 -3.036617e-005 0)
(0.023255475 -2.6780448e-005 0)
(0.023123195 -2.70506e-005 0)
(0.022967971 -3.0252682e-005 0)
(0.022774077 -3.6572728e-005 0)
(0.022523189 -4.633958e-005 0)
(0.022192571 -6.0167627e-005 0)
(0.021753512 -7.8868804e-005 0)
(0.021169961 -0.00010334647 0)
(0.020397267 -0.00013448451 0)
(0.019381589 -0.00017290487 0)
(0.018060601 -0.00021865984 0)
(0.016366531 -0.00027039666 0)
(0.014237979 -0.00032396881 0)
(0.011633066 -0.00037703598 0)
(0.0084951747 -0.00042345284 0)
(0.0047267629 -0.00044570531 0)
(0.00088860451 -0.00042251113 0)
)
;

boundaryField
{
    inlet
    {
        type            fixedValue;
        value           uniform (0.03876 0 0);
    }
    walls
    {
        type            fixedValue;
        value           uniform (0 0 0);
    }
    outlet
    {
        type            zeroGradient;
    }
    centreline
    {
        type            symmetryPlane;
    }
    frontAndBack
    {
        type            empty;
    }
}


// ************************************************************************* //
