/*--------------------------------*- C++ -*----------------------------------*\
| =========                 |                                                 |
| \\      /  F ield         | OpenFOAM: The Open Source CFD Toolbox           |
|  \\    /   O peration     | Version:  5.x                                   |
|   \\  /    A nd           | Web:      www.OpenFOAM.org                      |
|    \\/     M anipulation  |                                                 |
\*---------------------------------------------------------------------------*/
/*   Windows 32 and 64 bit porting by blueCAPE: http://www.bluecape.com.pt   *\
|  Based on Windows porting (2.0.x v4) by Symscape: http://www.symscape.com   |
\*---------------------------------------------------------------------------*/
FoamFile
{
    version     2.0;
    format      ascii;
    class       volVectorField;
    location    "0.03";
    object      U_0;
}
// * * * * * * * * * * * * * * * * * * * * * * * * * * * * * * * * * * * * * //

dimensions      [0 1 -1 0 0 0 0];

internalField   nonuniform List<vector> 
750
(
(0.038096684 -2.6863912e-005 0)
(0.039744817 -3.0953417e-005 0)
(0.038798935 -4.2330656e-006 0)
(0.039666218 -2.8608657e-005 0)
(0.039390085 -9.6187413e-006 0)
(0.039739559 -2.1171956e-005 0)
(0.039773885 -1.499995e-005 0)
(0.03995577 -1.9690831e-005 0)
(0.040099161 -2.1524443e-005 0)
(0.04029471 -2.7171942e-005 0)
(0.040534519 -3.4899921e-005 0)
(0.040851239 -4.6495629e-005 0)
(0.041276487 -6.3037728e-005 0)
(0.041857007 -8.6653871e-005 0)
(0.042658939 -0.00012039582 0)
(0.04377725 -0.00016899182 0)
(0.045354627 -0.00023933995 0)
(0.047589616 -0.00034471615 0)
(0.050860945 -0.00049913565 0)
(0.055507027 -0.00075294289 0)
(0.062922381 -0.0011099869 0)
(0.072983992 -0.0017660844 0)
(0.091499452 -0.0026289651 0)
(0.11423015 -0.0038127148 0)
(0.15466785 -0.0043510458 0)
(0.038085015 -7.8732033e-005 0)
(0.039747715 -9.2379892e-005 0)
(0.038799364 -2.207508e-005 0)
(0.039664959 -8.1818322e-005 0)
(0.039392203 -3.353849e-005 0)
(0.039738392 -5.9818521e-005 0)
(0.039774057 -4.7005614e-005 0)
(0.039954237 -5.7863727e-005 0)
(0.040097218 -6.4782286e-005 0)
(0.040291338 -8.1101927e-005 0)
(0.040529684 -0.00010440033 0)
(0.040844222 -0.00013896631 0)
(0.041266441 -0.00018841717 0)
(0.041842698 -0.00025896372 0)
(0.042638436 -0.00035971997 0)
(0.043747619 -0.00050467003 0)
(0.045310921 -0.00071485102 0)
(0.047525215 -0.0010280132 0)
(0.05076244 -0.0014908696 0)
(0.055352895 -0.0022351628 0)
(0.062674865 -0.0033242789 0)
(0.072593454 -0.0052307567 0)
(0.090967686 -0.0079541669 0)
(0.11384153 -0.011483911 0)
(0.15581117 -0.013479632 0)
(0.038069421 -0.00013087579 0)
(0.039752353 -0.00015183072 0)
(0.038799796 -4.3664409e-005 0)
(0.039663458 -0.00013205609 0)
(0.039395911 -6.0263042e-005 0)
(0.039736463 -9.6290884e-005 0)
(0.039774177 -7.9998438e-005 0)
(0.039951398 -9.5152246e-005 0)
(0.040093285 -0.000107923 0)
(0.040284723 -0.00013445742 0)
(0.040520055 -0.00017328796 0)
(0.040830268 -0.00023052996 0)
(0.041246471 -0.00031253559 0)
(0.041814223 -0.00042946473 0)
(0.04259763 -0.00059639542 0)
(0.043688601 -0.00083632026 0)
(0.045224159 -0.0011844246 0)
(0.047396302 -0.0017013298 0)
(0.050564884 -0.0024684891 0)
(0.055047674 -0.0036866031 0)
(0.062178674 -0.0055057295 0)
(0.071803671 -0.0086221343 0)
(0.089888516 -0.013320057 0)
(0.11299636 -0.019372758 0)
(0.15798896 -0.023176979 0)
(0.03805292 -0.00018495968 0)
(0.039759317 -0.00020844521 0)
(0.038800117 -6.5591399e-005 0)
(0.039661615 -0.00018090794 0)
(0.039401076 -8.7604642e-005 0)
(0.039733833 -0.00013227025 0)
(0.039774249 -0.00011269738 0)
(0.039947314 -0.00013192384 0)
(0.040087388 -0.00015041465 0)
(0.040274945 -0.00018694479 0)
(0.040505711 -0.00024100699 0)
(0.040809486 -0.00032048093 0)
(0.041216746 -0.00043437663 0)
(0.041771832 -0.00059669633 0)
(0.042536903 -0.00082828158 0)
(0.043600786 -0.0011607935 0)
(0.045095342 -0.0016430002 0)
(0.04720431 -0.002357387 0)
(0.050270515 -0.0034185677 0)
(0.054596142 -0.0050931411 0)
(0.061440434 -0.0076109633 0)
(0.070623071 -0.011921215 0)
(0.088239929 -0.018677251 0)
(0.11148752 -0.027731321 0)
(0.16042085 -0.033761047 0)
(0.038033835 -0.00023857637 0)
(0.039768723 -0.00026591914 0)
(0.038800931 -8.6968561e-005 0)
(0.039659205 -0.00023029496 0)
(0.039407818 -0.00011429489 0)
(0.039730504 -0.00016794307 0)
(0.039774278 -0.0001448382 0)
(0.039942009 -0.00016802998 0)
(0.040079559 -0.00019197983 0)
(0.040262051 -0.00023823964 0)
(0.040486732 -0.00030710656 0)
(0.040782006 -0.00040819341 0)
(0.041177457 -0.00055306607 0)
(0.04171583 -0.00075940948 0)
(0.04245674 -0.0010535492 0)
(0.043484982 -0.0014753651 0)
(0.044925717 -0.0020863557 0)
(0.046951639 -0.0029893914 0)
(0.049882936 -0.0043303109 0)
(0.054002964 -0.0064367658 0)
(0.060470471 -0.0096087458 0)
(0.069070939 -0.015087459 0)
(0.085988194 -0.023971735 0)
(0.10894238 -0.036588458 0)
(0.16128668 -0.045485554 0)
(0.038007576 -0.00029029589 0)
(0.039779793 -0.00032710042 0)
(0.038803274 -0.0001063044 0)
(0.039655564 -0.00028131571 0)
(0.039416533 -0.00014009266 0)
(0.03972647 -0.00020319181 0)
(0.039774266 -0.00017635532 0)
(0.039935529 -0.00020322373 0)
(0.040069844 -0.00023239536 0)
(0.040246118 -0.000288009 0)
(0.040463224 -0.00037115927 0)
(0.040748007 -0.00049307024 0)
(0.041128871 -0.00066777357 0)
(0.041646634 -0.00091642168 0)
(0.042357809 -0.0012704797 0)
(0.043342287 -0.0017774808 0)
(0.044717074 -0.0025105963 0)
(0.046641393 -0.0035912774 0)
(0.049407859 -0.0051938884 0)
(0.053275245 -0.0076995973 0)
(0.059272953 -0.011468644 0)
(0.067142911 -0.018064261 0)
(0.083053846 -0.029092797 0)
(0.10486343 -0.045675992 0)
(0.15836689 -0.057972802 0)
(0.037968808 -0.00033919468 0)
(0.039791397 -0.00039340272 0)
(0.038807703 -0.00012295164 0)
(0.039649845 -0.00033404601 0)
(0.039427762 -0.00016536192 0)
(0.039721754 -0.00023775201 0)
(0.039774198 -0.00020714605 0)
(0.039927936 -0.00023730779 0)
(0.040058303 -0.00027142438 0)
(0.04022726 -0.00033593665 0)
(0.040435328 -0.00043274585 0)
(0.040707704 -0.00057453935 0)
(0.041071318 -0.00077770462 0)
(0.041564747 -0.0010666115 0)
(0.042240904 -0.0014774682 0)
(0.043173995 -0.0020648029 0)
(0.044471578 -0.0029122366 0)
(0.046277431 -0.0041576455 0)
(0.04885274 -0.0060007786 0)
(0.052421556 -0.0088663456 0)
(0.057861167 -0.013164794 0)
(0.064854702 -0.020796245 0)
(0.079349884 -0.033865713 0)
(0.098806088 -0.054471419 0)
(0.15033342 -0.069842772 0)
(0.037913017 -0.00038371582 0)
(0.039803019 -0.00046585925 0)
(0.038814092 -0.00013731198 0)
(0.039641397 -0.00038819075 0)
(0.039442199 -0.00019009507 0)
(0.039716163 -0.00027144123 0)
(0.039774066 -0.00023703136 0)
(0.039919315 -0.00027012637 0)
(0.040045011 -0.0003088132 0)
(0.04020561 -0.00038170275 0)
(0.040403235 -0.00049141791 0)
(0.040661334 -0.00065201387 0)
(0.041005184 -0.00088202728 0)
(0.041470729 -0.001208801 0)
(0.042106868 -0.001672815 0)
(0.042981407 -0.002334829 0)
(0.044191333 -0.0032874682 0)
(0.045863133 -0.0046826096 0)
(0.048223403 -0.0067404237 0)
(0.051449262 -0.0099183494 0)
(0.056258188 -0.014660733 0)
(0.062224338 -0.023203293 0)
(0.0748279 -0.038086707 0)
(0.090564709 -0.062510374 0)
(0.13816816 -0.079271636 0)
(0.037838678 -0.00042409732 0)
(0.039815487 -0.00054348743 0)
(0.038821716 -0.00015127477 0)
(0.039630444 -0.00044287639 0)
(0.039460191 -0.00021424897 0)
(0.039709311 -0.00030412072 0)
(0.039773992 -0.00026593899 0)
(0.039909755 -0.00030147713 0)
(0.040030065 -0.00034432528 0)
(0.040181334 -0.00042496466 0)
(0.040367201 -0.00054673131 0)
(0.040609233 -0.00072490704 0)
(0.040930981 -0.00097991666 0)
(0.04136536 -0.0013418373 0)
(0.041956888 -0.0018548995 0)
(0.042766384 -0.0025852611 0)
(0.043879327 -0.0036330566 0)
(0.045403715 -0.0051615929 0)
(0.047528588 -0.0074056499 0)
(0.050374529 -0.010844697 0)
(0.054496293 -0.015932643 0)
(0.059299842 -0.025200166 0)
(0.069452629 -0.041428887 0)
(0.079958424 -0.069079432 0)
(0.12219882 -0.08463321 0)
(0.037748105 -0.00045972967 0)
(0.039830645 -0.00062525605 0)
(0.038830388 -0.00016504237 0)
(0.039617827 -0.00049609036 0)
(0.039481577 -0.00024025636 0)
(0.039700953 -0.0003338564 0)
(0.039774263 -0.00029457558 0)
(0.039899384 -0.00033094012 0)
(0.040013623 -0.00037785328 0)
(0.040154599 -0.00046551907 0)
(0.040327544 -0.00059843796 0)
(0.040551905 -0.00079284857 0)
(0.040849395 -0.0010709285 0)
(0.041249701 -0.0014651117 0)
(0.041792603 -0.0020228825 0)
(0.042531526 -0.0028148929 0)
(0.043539636 -0.0039473162 0)
(0.044906228 -0.0055912925 0)
(0.046779164 -0.007991571 0)
(0.049224677 -0.011632251 0)
(0.052620508 -0.016970205 0)
(0.056200482 -0.026690342 0)
(0.063391426 -0.043777485 0)
(0.067209771 -0.074101476 0)
(0.099543698 -0.085850855 0)
(0.18262131 -0.0018715102 0)
(0.18676452 -0.00065786383 0)
(0.19130943 -0.00022655665 0)
(0.19095765 -3.8357552e-005 0)
(0.1914897 -2.1188427e-005 0)
(0.19141655 -2.1394338e-007 0)
(0.19144506 -8.6511233e-007 0)
(0.19144231 1.5547298e-007 0)
(0.1914395 1.4173361e-007 0)
(0.19143987 3.2275927e-008 0)
(0.19143927 3.2263321e-008 0)
(0.1914392 9.6721901e-009 0)
(0.19143915 4.3290368e-009 0)
(0.19143913 1.9270499e-009 0)
(0.19143912 5.9204343e-010 0)
(0.19143912 2.5033933e-010 0)
(0.19143912 9.8843726e-011 0)
(0.19143912 3.5768186e-011 0)
(0.19143912 2.5547139e-011 0)
(0.19143912 1.7043159e-011 0)
(0.19143912 1.071489e-010 0)
(0.19143912 2.4203727e-010 0)
(0.19143911 2.9513778e-010 0)
(0.19143911 1.2138256e-009 0)
(0.1914391 1.3191783e-009 0)
(0.18468773 -0.0054133096 0)
(0.18844915 -0.0020083695 0)
(0.19263684 -0.0005597271 0)
(0.19210033 -0.00012819967 0)
(0.19258268 -4.613163e-005 0)
(0.19250476 -4.5958808e-006 0)
(0.19252956 -1.2731381e-006 0)
(0.19252648 4.6564782e-007 0)
(0.19252328 3.8215642e-007 0)
(0.19252365 1.3744907e-007 0)
(0.19252306 8.2611731e-008 0)
(0.19252299 3.0358166e-008 0)
(0.19252295 1.2978954e-008 0)
(0.19252292 5.3183964e-009 0)
(0.19252291 1.8035917e-009 0)
(0.19252291 7.3078135e-010 0)
(0.19252291 2.84811e-010 0)
(0.19252291 9.43291e-011 0)
(0.19252291 3.2676478e-011 0)
(0.19252291 1.4231701e-012 0)
(0.19252291 1.7435918e-010 0)
(0.19252291 5.5645229e-010 0)
(0.19252291 5.3689821e-010 0)
(0.19252291 2.2361186e-009 0)
(0.1925229 2.9167189e-009 0)
(0.18916889 -0.0089401439 0)
(0.19246231 -0.0033247898 0)
(0.19598222 -0.00075268215 0)
(0.19506685 -0.00019691373 0)
(0.19545694 -5.3893877e-005 0)
(0.19536586 -1.0020632e-005 0)
(0.19538602 -4.5841951e-007 0)
(0.19538164 8.6400803e-007 0)
(0.19537798 6.3964387e-007 0)
(0.19537831 2.6957861e-007 0)
(0.19537772 1.2377428e-007 0)
(0.19537766 5.1879106e-008 0)
(0.19537762 2.1176691e-008 0)
(0.19537759 8.2725717e-009 0)
(0.19537759 2.991013e-009 0)
(0.19537759 1.1709283e-009 0)
(0.19537759 4.5860576e-010 0)
(0.19537759 1.4192776e-010 0)
(0.19537759 1.5126461e-011 0)
(0.19537759 -5.1019387e-011 0)
(0.19537759 1.3284208e-010 0)
(0.19537759 7.1426791e-010 0)
(0.19537759 7.4434956e-010 0)
(0.19537758 2.9982206e-009 0)
(0.19537757 4.2951547e-009 0)
(0.19530599 -0.012778645 0)
(0.19811271 -0.0045233261 0)
(0.20083543 -0.00077624569 0)
(0.19943412 -0.00019538306 0)
(0.19971174 -4.4943374e-005 0)
(0.1996021 -1.248251e-005 0)
(0.19961826 1.1436545e-006 0)
(0.19961224 1.5388467e-006 0)
(0.1996083 9.6663269e-007 0)
(0.19960859 4.0748329e-007 0)
(0.19960803 1.6384943e-007 0)
(0.19960798 7.1840469e-008 0)
(0.19960795 2.8298702e-008 0)
(0.19960793 1.0766444e-008 0)
(0.19960792 4.0024537e-009 0)
(0.19960792 1.5352621e-009 0)
(0.19960792 6.0300935e-010 0)
(0.19960792 1.8095825e-010 0)
(0.19960792 -7.9246688e-013 0)
(0.19960792 -1.0468612e-010 0)
(0.19960792 7.0558109e-011 0)
(0.19960792 7.2220672e-010 0)
(0.19960792 1.0471972e-009 0)
(0.19960792 7.0778543e-009 0)
(0.19960786 8.8067516e-009 0)
(0.19953211 -0.017038045 0)
(0.20105945 -0.0055951609 0)
(0.20320567 -0.00062468152 0)
(0.2014102 -0.00012044007 0)
(0.2016122 -1.8336147e-005 0)
(0.20148236 -1.2259864e-005 0)
(0.20149668 3.4279001e-006 0)
(0.20148978 2.3978647e-006 0)
(0.2014861 1.3290353e-006 0)
(0.20148649 5.3813052e-007 0)
(0.201486 1.9804365e-007 0)
(0.20148598 8.8008482e-008 0)
(0.20148596 3.3506581e-008 0)
(0.20148595 1.2536546e-008 0)
(0.20148595 4.7189758e-009 0)
(0.20148595 1.7789012e-009 0)
(0.20148595 6.983311e-010 0)
(0.20148595 2.0718533e-010 0)
(0.20148595 -1.4560634e-011 0)
(0.20148595 -1.4658771e-010 0)
(0.20148595 1.0567168e-011 0)
(0.20148595 5.648183e-010 0)
(0.20148595 1.431104e-009 0)
(0.20148594 1.7138472e-008 0)
(0.20148585 1.9158168e-008 0)
(0.19549913 -0.021268524 0)
(0.19319069 -0.0064305646 0)
(0.19536274 -0.00036921281 0)
(0.1934595 -1.3578255e-005 0)
(0.19369094 1.8529114e-005 0)
(0.19354086 -1.0360701e-005 0)
(0.19355745 6.0621939e-006 0)
(0.19355152 3.1106506e-006 0)
(0.19354896 1.6103075e-006 0)
(0.19354971 6.2920257e-007 0)
(0.19354935 2.1453771e-007 0)
(0.19354939 9.6727716e-008 0)
(0.1935494 3.5482598e-008 0)
(0.1935494 1.3065257e-008 0)
(0.1935494 4.9669999e-009 0)
(0.1935494 1.8329365e-009 0)
(0.1935494 7.1554053e-010 0)
(0.1935494 2.0985113e-010 0)
(0.1935494 -1.9345248e-011 0)
(0.1935494 -1.5437889e-010 0)
(0.1935494 -1.6696896e-011 0)
(0.1935494 3.6412404e-010 0)
(0.1935494 1.9746389e-009 0)
(0.19354939 3.1057954e-008 0)
(0.1935493 3.3249269e-008 0)
(0.17697925 -0.024052116 0)
(0.16653421 -0.006656132 0)
(0.16946218 -0.00014475509 0)
(0.16771522 6.0509252e-005 0)
(0.16811129 5.0141902e-005 0)
(0.16793797 -7.686943e-006 0)
(0.16796439 8.2388115e-006 0)
(0.1679611 3.2283256e-006 0)
(0.1679605 1.662013e-006 0)
(0.16796188 6.2785196e-007 0)
(0.16796171 2.0058955e-007 0)
(0.16796184 9.2721107e-008 0)
(0.16796188 3.2421026e-008 0)
(0.16796189 1.1800622e-008 0)
(0.16796189 4.5380528e-009 0)
(0.16796189 1.6273633e-009 0)
(0.1679619 6.2904905e-010 0)
(0.1679619 1.8099855e-010 0)
(0.1679619 -1.1099005e-011 0)
(0.1679619 -1.1653182e-010 0)
(0.1679619 4.2538179e-011 0)
(0.16796189 3.3088921e-010 0)
(0.1679619 2.1704621e-009 0)
(0.16796189 4.1708838e-008 0)
(0.16796186 4.4120591e-008 0)
(0.14216532 -0.022943635 0)
(0.11993736 -0.005707824 0)
(0.12392676 -6.2083689e-005 0)
(0.1222972 5.7640224e-005 0)
(0.12295442 6.1026324e-005 0)
(0.12274747 -5.3187017e-006 0)
(0.12279568 8.6116028e-006 0)
(0.12279421 2.4860738e-006 0)
(0.12279598 1.3812213e-006 0)
(0.12279807 4.9570737e-007 0)
(0.12279804 1.4993839e-007 0)
(0.12279827 7.2793993e-008 0)
(0.12279834 2.3542296e-008 0)
(0.12279835 8.6275274e-009 0)
(0.12279836 3.3693199e-009 0)
(0.12279837 1.1579133e-009 0)
(0.12279837 4.4829447e-010 0)
(0.12279837 1.2366629e-010 0)
(0.12279837 -1.9681481e-012 0)
(0.12279837 -7.1055031e-011 0)
(0.12279837 1.3709309e-010 0)
(0.12279837 4.3609031e-010 0)
(0.12279837 1.460141e-009 0)
(0.12279837 3.9882579e-008 0)
(0.12279844 4.2258075e-008 0)
(0.095248495 -0.016741854 0)
(0.06360614 -0.0034596209 0)
(0.068138005 1.6940229e-005 0)
(0.066342636 -1.215638e-006 0)
(0.067228693 4.3451205e-005 0)
(0.066983819 -3.8833086e-006 0)
(0.067060313 6.0956139e-006 0)
(0.067056687 1.1476387e-006 0)
(0.067060393 7.9601807e-007 0)
(0.067062765 2.6016238e-007 0)
(0.067062757 7.4636587e-008 0)
(0.067063056 3.9640741e-008 0)
(0.067063119 1.1242845e-008 0)
(0.067063138 4.2952762e-009 0)
(0.06706315 1.6982756e-009 0)
(0.067063153 5.492006e-010 0)
(0.067063154 2.2240916e-010 0)
(0.067063154 5.5992821e-011 0)
(0.067063155 -1.543203e-012 0)
(0.067063154 -6.3039084e-011 0)
(0.067063155 1.0066854e-011 0)
(0.067063154 1.0602471e-010 0)
(0.067063161 -9.4572864e-011 0)
(0.067063154 2.3138236e-008 0)
(0.06706332 2.5203317e-008 0)
(0.041117419 -0.0086878209 0)
(0.015721284 -0.0006284335 0)
(0.019644325 -4.9627098e-005 0)
(0.017963543 3.6382665e-006 0)
(0.018728656 6.4813246e-006 0)
(0.018524179 1.1182359e-006 0)
(0.018595214 1.6995799e-006 0)
(0.018588752 7.2083599e-008 0)
(0.018592062 2.0103522e-007 0)
(0.018593546 3.1117856e-008 0)
(0.018593477 1.1512174e-008 0)
(0.018593694 6.6293734e-009 0)
(0.018593723 8.9856972e-010 0)
(0.018593733 5.631371e-010 0)
(0.018593741 1.8405888e-010 0)
(0.018593742 3.764606e-011 0)
(0.018593743 2.3885392e-011 0)
(0.018593743 1.1028847e-012 0)
(0.018593743 4.8180679e-012 0)
(0.018593743 -8.7388225e-012 0)
(0.018593743 1.7810188e-011 0)
(0.018593742 2.0890491e-010 0)
(0.018593747 -3.7590144e-010 0)
(0.018593735 7.6914565e-009 0)
(0.01859386 8.8613177e-009 0)
(0.037548784 -0.00053557558 0)
(0.039868361 -0.00075886007 0)
(0.038854839 -0.00023308408 0)
(0.039588687 -0.00057428509 0)
(0.03953103 -0.00031289906 0)
(0.039683127 -0.00038121335 0)
(0.03977519 -0.00035253463 0)
(0.039877692 -0.00038532627 0)
(0.03997815 -0.00044064363 0)
(0.040096734 -0.0005408156 0)
(0.040241718 -0.00069412277 0)
(0.040427889 -0.00091822235 0)
(0.040673051 -0.0012383511 0)
(0.0410001 -0.0016908932 0)
(0.041438866 -0.002328734 0)
(0.042027358 -0.003229506 0)
(0.042812982 -0.004508336 0)
(0.043847815 -0.0063434627 0)
(0.045195026 -0.0089930075 0)
(0.046838173 -0.01289885 0)
(0.048774128 -0.018545093 0)
(0.050175897 -0.028355444 0)
(0.051779515 -0.045890081 0)
(0.042442054 -0.076919887 0)
(0.036694043 -0.071443334 0)
(0.037421901 -0.00070233239 0)
(0.039928527 -0.00084469821 0)
(0.038905784 -0.00049682681 0)
(0.039597673 -0.00061007838 0)
(0.039595713 -0.00045068984 0)
(0.039685873 -0.0004383293 0)
(0.039771684 -0.00042374736 0)
(0.039845507 -0.00044846975 0)
(0.03991591 -0.00051117046 0)
(0.03999496 -0.00062341777 0)
(0.040089621 -0.00079720436 0)
(0.040208127 -0.0010514406 0)
(0.040361605 -0.001413648 0)
(0.04056176 -0.0019229969 0)
(0.040822865 -0.0026356066 0)
(0.041159844 -0.0036316964 0)
(0.041584982 -0.0050264254 0)
(0.042099866 -0.00698742 0)
(0.042680373 -0.0097529712 0)
(0.043225096 -0.013654235 0)
(0.043520354 -0.019086857 0)
(0.042981088 -0.027383145 0)
(0.040790589 -0.040866454 0)
(0.028286649 -0.059470271 0)
(0.0081811618 -0.044116112 0)
(0.03738797 -0.00086899645 0)
(0.04001726 -0.00098979077 0)
(0.038986474 -0.00069316769 0)
(0.039632972 -0.00067298622 0)
(0.039660104 -0.00054410566 0)
(0.039706718 -0.00049127942 0)
(0.039770353 -0.00047131629 0)
(0.039814566 -0.00048985791 0)
(0.039849629 -0.0005532662 0)
(0.039884789 -0.00067028948 0)
(0.039923672 -0.00085349907 0)
(0.039968996 -0.0011217711 0)
(0.040023174 -0.0015029276 0)
(0.040088396 -0.0020363581 0)
(0.040163445 -0.0027767796 0)
(0.040242573 -0.0038007882 0)
(0.040309014 -0.0052142831 0)
(0.040324299 -0.0071632908 0)
(0.040208351 -0.0098446528 0)
(0.039799556 -0.013501012 0)
(0.03880013 -0.018420472 0)
(0.036686814 -0.025268011 0)
(0.032388526 -0.035421225 0)
(0.020668281 -0.047617414 0)
(0.0033140853 -0.037286242 0)
(0.037389762 -0.001071 0)
(0.040117292 -0.0011775109 0)
(0.039088912 -0.00087226217 0)
(0.039695314 -0.00074906354 0)
(0.039725084 -0.00060937642 0)
(0.039733201 -0.00052863426 0)
(0.039765576 -0.00049515498 0)
(0.039776743 -0.00050559341 0)
(0.039773428 -0.00056445173 0)
(0.039762642 -0.0006787609 0)
(0.039743965 -0.0008599256 0)
(0.039714338 -0.0011261626 0)
(0.039668873 -0.0015035695 0)
(0.039599924 -0.0020287104 0)
(0.039493312 -0.0027524005 0)
(0.039325948 -0.0037428585 0)
(0.039058899 -0.0050913139 0)
(0.038626552 -0.0069169725 0)
(0.037916757 -0.0093692213 0)
(0.036743818 -0.012613669 0)
(0.03479757 -0.016818985 0)
(0.031629674 -0.02231644 0)
(0.026376535 -0.029838359 0)
(0.01647364 -0.037650155 0)
(0.0031008404 -0.029306761 0)
(0.037400806 -0.0013216066 0)
(0.040214786 -0.0014040677 0)
(0.03919739 -0.0010332635 0)
(0.039763085 -0.00081662077 0)
(0.039772315 -0.00064724076 0)
(0.039739424 -0.00054178068 0)
(0.039734473 -0.00049294735 0)
(0.039709518 -0.00049334023 0)
(0.039666707 -0.00054357348 0)
(0.039610391 -0.00064820186 0)
(0.039535707 -0.00081710704 0)
(0.039433841 -0.001065977 0)
(0.039294444 -0.0014180496 0)
(0.039100293 -0.0019058627 0)
(0.03882697 -0.0025732099 0)
(0.038438105 -0.0034779064 0)
(0.037879428 -0.0046941304 0)
(0.037069139 -0.0063135419 0)
(0.035883156 -0.0084424243 0)
(0.034136159 -0.011182627 0)
(0.031554222 -0.014607917 0)
(0.02778092 -0.01888289 0)
(0.022216021 -0.02441917 0)
(0.013594651 -0.029553586 0)
(0.0028242854 -0.022634131 0)
(0.037480011 -0.0016003806 0)
(0.040450431 -0.0016547229 0)
(0.039446917 -0.0011706524 0)
(0.039951036 -0.00085919112 0)
(0.039914273 -0.00065149588 0)
(0.039832738 -0.00052451251 0)
(0.039785505 -0.00046219091 0)
(0.039722514 -0.00045235837 0)
(0.039640905 -0.00049129593 0)
(0.039541578 -0.00058075359 0)
(0.039414974 -0.00072811478 0)
(0.039247966 -0.0009462935 0)
(0.039023943 -0.0012545798 0)
(0.038719006 -0.0016800518 0)
(0.038300286 -0.0022584388 0)
(0.037722132 -0.0030359219 0)
(0.036920274 -0.0040696419 0)
(0.035804693 -0.0054263641 0)
(0.034250169 -0.0071775196 0)
(0.03208545 -0.0093791474 0)
(0.029083821 -0.012049777 0)
(0.024979389 -0.015262733 0)
(0.019374787 -0.019285142 0)
(0.011540143 -0.022715892 0)
(0.002361447 -0.017088411 0)
(0.038061353 -0.0021505468 0)
(0.041460883 -0.0020128342 0)
(0.040441893 -0.001285826 0)
(0.040817976 -0.00085921835 0)
(0.040703941 -0.0006132017 0)
(0.040562421 -0.00047135018 0)
(0.040467746 -0.00040075717 0)
(0.040365327 -0.00038275038 0)
(0.040246119 -0.00040923831 0)
(0.04010649 -0.00047926613 0)
(0.03993225 -0.00059733294 0)
(0.039706134 -0.00077342138 0)
(0.039406175 -0.0010222039 0)
(0.03900255 -0.0013643808 0)
(0.038455956 -0.0018272293 0)
(0.037713421 -0.0024448582 0)
(0.036703706 -0.0032583144 0)
(0.035332679 -0.0043134385 0)
(0.033477341 -0.0056548883 0)
(0.030982003 -0.0073094546 0)
(0.027661114 -0.0092687034 0)
(0.023321474 -0.011563501 0)
(0.017689715 -0.014362567 0)
(0.010306887 -0.016616372 0)
(0.0020111093 -0.012318883 0)
(0.039700627 -0.0036966488 0)
(0.043651888 -0.0025694262 0)
(0.04234003 -0.0012885365 0)
(0.042452805 -0.00075000582 0)
(0.042215071 -0.00050772942 0)
(0.041996063 -0.00037328917 0)
(0.041847924 -0.00030562972 0)
(0.041705587 -0.00028449757 0)
(0.041550811 -0.00029889494 0)
(0.041374088 -0.00034625563 0)
(0.041157081 -0.00042880362 0)
(0.040878399 -0.00055283814 0)
(0.040511195 -0.00072827201 0)
(0.040020805 -0.0009691194 0)
(0.039362306 -0.0012937289 0)
(0.038476602 -0.0017244075 0)
(0.037287349 -0.0022872074 0)
(0.035697441 -0.0030100974 0)
(0.033586007 -0.0039177822 0)
(0.030809618 -0.0050197519 0)
(0.027212391 -0.0062996671 0)
(0.022651017 -0.0077681621 0)
(0.016924878 -0.0095234045 0)
(0.0096984607 -0.010862706 0)
(0.0018265035 -0.0079322135 0)
(0.040045811 -0.0066662755 0)
(0.042915368 -0.0027213719 0)
(0.040651874 -0.00093271778 0)
(0.040474195 -0.00046929555 0)
(0.040095393 -0.00031746155 0)
(0.039806462 -0.00022548573 0)
(0.039617643 -0.00017734282 0)
(0.039449103 -0.00016060026 0)
(0.039275634 -0.00016509756 0)
(0.0390833 -0.00018839508 0)
(0.038851297 -0.00023119163 0)
(0.038556218 -0.00029642242 0)
(0.038170222 -0.00038890809 0)
(0.037657926 -0.00051589152 0)
(0.036973852 -0.00068654023 0)
(0.03605977 -0.00091191709 0)
(0.034842065 -0.0012045707 0)
(0.033229581 -0.0015772465 0)
(0.031112936 -0.0020401374 0)
(0.028368805 -0.0025947398 0)
(0.024873454 -0.0032273765 0)
(0.020525841 -0.0039380021 0)
(0.015174753 -0.0047648276 0)
(0.0085572217 -0.0053371111 0)
(0.00155238 -0.0038302555 0)
(0.027840186 -0.0087136366 0)
(0.027273552 -0.0022965441 0)
(0.024253985 -0.00018042713 0)
(0.024342125 -0.00012141454 0)
(0.023978351 -8.4991533e-005 0)
(0.023738532 -5.2089131e-005 0)
(0.023589825 -3.8195189e-005 0)
(0.023460815 -3.0354606e-005 0)
(0.023336289 -2.6865499e-005 0)
(0.023204036 -2.7227478e-005 0)
(0.023048645 -3.0538078e-005 0)
(0.022854384 -3.6986993e-005 0)
(0.02260291 -4.6916568e-005 0)
(0.022271448 -6.0953619e-005 0)
(0.021831224 -7.9926492e-005 0)
(0.021246104 -0.00010475879 0)
(0.020471324 -0.00013635622 0)
(0.019452897 -0.00017536419 0)
(0.018128322 -0.00022185258 0)
(0.016429591 -0.00027451075 0)
(0.014294964 -0.00032917771 0)
(0.011682723 -0.00038340936 0)
(0.0085361094 -0.00043155443 0)
(0.0047527283 -0.00045629943 0)
(0.00089941704 -0.00043043332 0)
)
;

boundaryField
{
    inlet
    {
        type            fixedValue;
        value           uniform (0.03876 0 0);
    }
    walls
    {
        type            fixedValue;
        value           uniform (0 0 0);
    }
    outlet
    {
        type            zeroGradient;
    }
    centreline
    {
        type            symmetryPlane;
    }
    frontAndBack
    {
        type            empty;
    }
}


// ************************************************************************* //
