# vtk DataFile Version 2.0
track0
ASCII
DATASET POLYDATA
POINTS 11980 float
-0.0205 0.001 1e-005
-0.0202034 0.00100022 1e-005
-0.0199069 0.00100067 1e-005
-0.0196103 0.00100132 1e-005
-0.0193137 0.00100219 1e-005
-0.0190172 0.00100326 1e-005
-0.0187132 0.00100466 1e-005
-0.0184093 0.00100588 1e-005
-0.0181054 0.0010071 1e-005
-0.0178015 0.00100832 1e-005
-0.0174976 0.00100953 1e-005
-0.0172058 0.00101083 1e-005
-0.016914 0.00101193 1e-005
-0.0166222 0.00101303 1e-005
-0.0163305 0.00101413 1e-005
-0.0160387 0.00101522 1e-005
-0.0157586 0.00101636 1e-005
-0.0154784 0.00101744 1e-005
-0.0151983 0.00101856 1e-005
-0.0149182 0.00101971 1e-005
-0.0146381 0.0010209 1e-005
-0.0143744 0.00102208 1e-005
-0.0141106 0.00102327 1e-005
-0.0138469 0.00102449 1e-005
-0.0135832 0.00102574 1e-005
-0.0133604 0.00102682 1e-005
-0.013347 0.00102688 1e-005
-0.0133336 0.00102695 1e-005
-0.0133202 0.00102702 1e-005
-0.0133068 0.00102708 1e-005
-0.0132934 0.00102715 1e-005
-0.0130353 0.00102844 1e-005
-0.0127771 0.00102974 1e-005
-0.0125189 0.00103106 1e-005
-0.0122607 0.00103239 1e-005
-0.0120025 0.00103374 1e-005
-0.0117547 0.00103505 1e-005
-0.0115068 0.00103636 1e-005
-0.0112589 0.00103768 1e-005
-0.0110111 0.00103901 1e-005
-0.0107632 0.00104034 1e-005
-0.0105252 0.00104161 1e-005
-0.0102873 0.00104289 1e-005
-0.0100493 0.00104417 1e-005
-0.00981133 0.00104544 1e-005
-0.00957337 0.00104672 1e-005
-0.00934491 0.00104794 1e-005
-0.00911645 0.00104916 1e-005
-0.00888799 0.00105038 1e-005
-0.00865954 0.00105159 1e-005
-0.00843108 0.00105281 1e-005
-0.00821175 0.00105396 1e-005
-0.00799242 0.00105512 1e-005
-0.00777309 0.00105627 1e-005
-0.00755376 0.00105742 1e-005
-0.00733443 0.00105856 1e-005
-0.00712387 0.00105965 1e-005
-0.0069133 0.00106074 1e-005
-0.00670273 0.00106182 1e-005
-0.00649216 0.0010629 1e-005
-0.0062816 0.00106398 1e-005
-0.00607944 0.001065 1e-005
-0.00587729 0.00106603 1e-005
-0.00567514 0.00106704 1e-005
-0.00547298 0.00106806 1e-005
-0.00527083 0.00106907 1e-005
-0.00507675 0.00107003 1e-005
-0.00488267 0.00107099 1e-005
-0.0046886 0.00107195 1e-005
-0.00449452 0.0010729 1e-005
-0.00430044 0.00107385 1e-005
-0.00411412 0.00107475 1e-005
-0.0039278 0.00107566 1e-005
-0.00374147 0.00107656 1e-005
-0.00355515 0.00107745 1e-005
-0.00336883 0.00107835 1e-005
-0.00318995 0.00107919 1e-005
-0.00301107 0.00108004 1e-005
-0.00283219 0.00108089 1e-005
-0.00265331 0.00108173 1e-005
-0.00247443 0.00108258 1e-005
-0.0023027 0.00108337 1e-005
-0.00213097 0.00108418 1e-005
-0.00195924 0.00108498 1e-005
-0.0017875 0.00108577 1e-005
-0.00161577 0.00108657 1e-005
-0.0014509 0.00108732 1e-005
-0.00128603 0.00108808 1e-005
-0.00112116 0.00108884 1e-005
-0.000956289 0.00108959 1e-005
-0.000791418 0.00109035 1e-005
-0.000633135 0.00109106 1e-005
-0.000474851 0.00109179 1e-005
-0.000316567 0.00109251 1e-005
-0.000158284 0.00109322 1e-005
0 0.00109393 1e-005
0.000105677 0.0010944 1e-005
0.000211355 0.00109488 1e-005
0.000317032 0.00109534 1e-005
0.00042271 0.00109581 1e-005
0.000528387 0.00109627 1e-005
0.000634886 0.00109672 1e-005
0.000741385 0.00109718 1e-005
0.000847885 0.00109763 1e-005
0.000954384 0.00109808 1e-005
0.00106088 0.00109853 1e-005
0.00116821 0.00109897 1e-005
0.00127554 0.00109941 1e-005
0.00138286 0.00109985 1e-005
0.00149019 0.00110028 1e-005
0.00159752 0.00110071 1e-005
0.00170568 0.00110113 1e-005
0.00181384 0.00110154 1e-005
0.001922 0.00110195 1e-005
0.00203016 0.00110235 1e-005
0.00213833 0.00110274 1e-005
0.00224733 0.00110312 1e-005
0.00235633 0.0011035 1e-005
0.00246533 0.00110387 1e-005
0.00257434 0.00110423 1e-005
0.00268334 0.00110458 1e-005
0.00279319 0.00110493 1e-005
0.00290304 0.00110527 1e-005
0.00301289 0.0011056 1e-005
0.00312274 0.00110592 1e-005
0.00323259 0.00110624 1e-005
0.00334329 0.00110654 1e-005
0.003454 0.00110685 1e-005
0.0035647 0.00110715 1e-005
0.0036754 0.00110743 1e-005
0.00378611 0.00110772 1e-005
0.00389767 0.00110799 1e-005
0.00400924 0.00110825 1e-005
0.0041208 0.00110851 1e-005
0.00423237 0.00110877 1e-005
0.00434393 0.00110901 1e-005
0.00445636 0.00110925 1e-005
0.00456879 0.00110948 1e-005
0.00468123 0.0011097 1e-005
0.00479366 0.00110992 1e-005
0.00490609 0.00111013 1e-005
0.0050194 0.00111032 1e-005
0.0051327 0.00111052 1e-005
0.00524601 0.00111071 1e-005
0.00535932 0.00111088 1e-005
0.00547262 0.00111106 1e-005
0.00558681 0.00111122 1e-005
0.005701 0.00111138 1e-005
0.00581518 0.00111153 1e-005
0.00592937 0.00111167 1e-005
0.00604356 0.0011118 1e-005
0.00615863 0.00111193 1e-005
0.00627371 0.00111205 1e-005
0.00638878 0.00111216 1e-005
0.00650386 0.00111227 1e-005
0.00661893 0.00111237 1e-005
0.0067349 0.00111246 1e-005
0.00685087 0.00111254 1e-005
0.00696684 0.00111262 1e-005
0.00708281 0.00111269 1e-005
0.00719878 0.00111275 1e-005
0.00726191 0.00111278 1e-005
0.00732505 0.00111281 1e-005
0.00738818 0.00111284 1e-005
0.00745132 0.00111286 1e-005
0.00751262 0.00111288 1e-005
0.00756672 0.00111289 1e-005
0.00762082 0.00111291 1e-005
0.00767493 0.00111292 1e-005
0.00772903 0.00111293 1e-005
0.00778313 0.00111294 1e-005
0.00790091 0.00111296 1e-005
0.00801869 0.00111297 1e-005
0.00813647 0.00111297 1e-005
0.00825425 0.00111296 1e-005
0.00837203 0.00111295 1e-005
0.00849073 0.00111292 1e-005
0.00860942 0.00111289 1e-005
0.00872812 0.00111286 1e-005
0.00884682 0.00111281 1e-005
0.00896551 0.00111276 1e-005
0.00908513 0.00111269 1e-005
0.00920475 0.00111262 1e-005
0.00932437 0.00111254 1e-005
0.00944398 0.00111246 1e-005
0.0095636 0.00111237 1e-005
0.00968415 0.00111226 1e-005
0.0098047 0.00111215 1e-005
0.00992525 0.00111203 1e-005
0.0100458 0.0011119 1e-005
0.0101663 0.00111177 1e-005
0.0102878 0.00111161 1e-005
0.0104093 0.00111146 1e-005
0.0105308 0.0011113 1e-005
0.0106523 0.00111114 1e-005
0.0107738 0.00111096 1e-005
0.0108962 0.00111076 1e-005
0.0110186 0.00111057 1e-005
0.0111411 0.00111037 1e-005
0.0112635 0.00111016 1e-005
0.0113859 0.00110994 1e-005
0.0115093 0.0011097 1e-005
0.0116327 0.00110946 1e-005
0.0117561 0.00110921 1e-005
0.0118795 0.00110896 1e-005
0.0120028 0.0011087 1e-005
0.0121272 0.00110841 1e-005
0.0122515 0.00110813 1e-005
0.0123759 0.00110784 1e-005
0.0125002 0.00110754 1e-005
0.0126245 0.00110723 1e-005
0.0127498 0.0011069 1e-005
0.0128752 0.00110657 1e-005
0.0130005 0.00110624 1e-005
0.0131258 0.00110589 1e-005
0.0132511 0.00110554 1e-005
0.0133774 0.00110516 1e-005
0.0135036 0.00110479 1e-005
0.0136299 0.00110441 1e-005
0.0137562 0.00110402 1e-005
0.0138825 0.00110362 1e-005
0.0140098 0.00110319 1e-005
0.014137 0.00110277 1e-005
0.0142643 0.00110234 1e-005
0.0143915 0.0011019 1e-005
0.0145188 0.00110146 1e-005
0.0146471 0.00110099 1e-005
0.0147753 0.00110052 1e-005
0.0149036 0.00110004 1e-005
0.0150318 0.00109955 1e-005
0.0151601 0.00109905 1e-005
0.0152893 0.00109854 1e-005
0.0154186 0.00109802 1e-005
0.0155478 0.00109749 1e-005
0.0156771 0.00109696 1e-005
0.0158063 0.00109641 1e-005
0.0159366 0.00109585 1e-005
0.0160668 0.00109528 1e-005
0.0161971 0.0010947 1e-005
0.0163274 0.00109412 1e-005
0.0164576 0.00109352 1e-005
0.0165889 0.00109291 1e-005
0.0167201 0.0010923 1e-005
0.0168514 0.00109167 1e-005
0.0169827 0.00109103 1e-005
0.0171139 0.00109039 1e-005
0.0172462 0.00108973 1e-005
0.0173785 0.00108907 1e-005
0.0175108 0.00108839 1e-005
0.0176431 0.0010877 1e-005
0.0177754 0.00108701 1e-005
0.0179087 0.00108631 1e-005
0.018042 0.00108559 1e-005
0.0181753 0.00108486 1e-005
0.0183087 0.00108413 1e-005
0.018442 0.00108339 1e-005
0.0185763 0.00108264 1e-005
0.0187107 0.00108187 1e-005
0.018845 0.00108109 1e-005
0.0189794 0.0010803 1e-005
0.0191137 0.00107951 1e-005
0.0192491 0.00107872 1e-005
0.0193845 0.00107791 1e-005
0.0195199 0.00107708 1e-005
0.0196553 0.00107623 1e-005
0.0197907 0.0010754 1e-005
0.0199272 0.00107455 1e-005
0.0200636 0.00107369 1e-005
0.0202001 0.00107281 1e-005
0.0203365 0.00107192 1e-005
0.020473 0.00107103 1e-005
0.0206105 0.00107014 1e-005
0.020748 0.00106923 1e-005
0.0208855 0.0010683 1e-005
0.021023 0.00106736 1e-005
0.0211606 0.00106642 1e-005
0.0212991 0.00106549 1e-005
0.0214377 0.00106453 1e-005
0.0215763 0.00106354 1e-005
0.0217149 0.00106255 1e-005
0.0218535 0.00106157 1e-005
0.0219931 0.00106058 1e-005
0.0221328 0.00105958 1e-005
0.0222724 0.00105854 1e-005
0.0224121 0.0010575 1e-005
0.0225517 0.00105647 1e-005
0.0226925 0.00105544 1e-005
0.0228332 0.00105438 1e-005
0.022974 0.00105329 1e-005
0.0231147 0.0010522 1e-005
0.0232555 0.00105112 1e-005
0.0233973 0.00105004 1e-005
0.0235391 0.00104893 1e-005
0.023681 0.0010478 1e-005
0.0238228 0.00104666 1e-005
0.0239647 0.00104552 1e-005
0.0241076 0.00104439 1e-005
0.0242505 0.00104324 1e-005
0.0243935 0.00104205 1e-005
0.0245364 0.00104086 1e-005
0.0246794 0.00103968 1e-005
0.0248234 0.0010385 1e-005
0.0249675 0.00103729 1e-005
0.0251115 0.00103605 1e-005
0.0252556 0.00103481 1e-005
0.0253996 0.00103358 1e-005
0.0255448 0.00103235 1e-005
0.02569 0.00103109 1e-005
0.0258351 0.0010298 1e-005
0.0259803 0.00102851 1e-005
0.0261255 0.00102723 1e-005
0.0262718 0.00102595 1e-005
0.0264181 0.00102464 1e-005
0.0265644 0.0010233 1e-005
0.0267107 0.00102196 1e-005
0.026857 0.00102063 1e-005
0.0270044 0.00101929 1e-005
0.0271519 0.00101793 1e-005
0.0272993 0.00101654 1e-005
0.0274468 0.00101515 1e-005
0.0275942 0.00101376 1e-005
0.0277428 0.00101237 1e-005
0.0278914 0.00101095 1e-005
0.0280399 0.00100952 1e-005
0.0281885 0.00100808 1e-005
0.0283371 0.00100663 1e-005
0.0284869 0.00100519 1e-005
0.0286366 0.00100371 1e-005
0.0287863 0.00100222 1e-005
0.0289361 0.00100073 1e-005
0.0290858 0.000999227 1e-005
0.0292367 0.000997725 1e-005
0.0293876 0.000996193 1e-005
0.0295385 0.00099465 1e-005
0.0296894 0.000993099 1e-005
0.0298403 0.000991541 1e-005
0.0299924 0.000989979 1e-005
0.0301445 0.000988389 1e-005
0.0302966 0.000986789 1e-005
0.0304486 0.000985181 1e-005
0.0306007 0.000983564 1e-005
0.030754 0.000981942 1e-005
0.0309072 0.000980293 1e-005
0.0310605 0.000978635 1e-005
0.0312138 0.000976968 1e-005
0.031367 0.000975292 1e-005
0.0315215 0.000973607 1e-005
[...]
POINT_DATA 11980
 FIELD attributes 1
U 3 11980 float
10.0004 	0.00731845 	0 10.0024 	0.015169 	0 10.0045 	0.0221881 	0 10.0065 	0.029163 	0 10.0085 	0.036094 	0 10.0135 	0.0463094 	0 10.0163 	0.0402081 	0 10.0207 	0.0401657 	0 10.0252 	0.0401234 	0 10.0296 	0.0400812 	0 10.0356 	0.0445406 	0 10.0385 	0.0378986 	0 10.0424 	0.0378531 	0 10.0464 	0.0378075 	0 10.0504 	0.0377619 	0 10.0545 	0.040862 	0 10.0567 	0.0387827 	0 10.0592 	0.0400908 	0 10.0616 	0.0414004 	0 10.0641 	0.0427117 	0 10.0662 	0.0451692 	0 10.0677 	0.0452795 	0 10.0691 	0.0464815 	0 10.0704 	0.0476846 	0 10.0718 	0.0488889 	0 10.0729 	0.049907 	0 10.073 	0.0499686 	0 10.073 	0.0500303 	0 10.0731 	0.0500919 	0 10.0732 	0.0501536 	0 10.0732 	0.0502059 	0 10.0738 	0.0508313 	0 10.0743 	0.0514508 	0 10.0748 	0.0520707 	0 10.0753 	0.0526912 	0 10.0758 	0.0531478 	0 10.0757 	0.053442 	0 10.0754 	0.0536309 	0 10.075 	0.0538198 	0 10.0747 	0.0540089 	0 10.0742 	0.0539596 	0 10.0737 	0.0541028 	0 10.0727 	0.0540777 	0 10.0716 	0.0540526 	0 10.0705 	0.0540274 	0 10.069 	0.0537331 	0 10.0686 	0.0538111 	0 10.067 	0.0536755 	0 10.0653 	0.0535398 	0 10.0637 	0.0534041 	0 10.0612 	0.0529818 	0 10.0612 	0.053033 	0 10.0592 	0.0528355 	0 10.0572 	0.052638 	0 10.0552 	0.0524404 	0 10.0516 	0.0519436 	0 10.0522 	0.0519925 	0 10.0499 	0.0517676 	0 10.0476 	0.0515427 	0 10.0453 	0.0513178 	0 10.0407 	0.0507854 	0 10.0422 	0.0508525 	0 10.0397 	0.0506211 	0 10.0372 	0.0503896 	0 10.0347 	0.050158 	0 10.029 	0.0496054 	0 10.0314 	0.0496961 	0 10.0288 	0.0494734 	0 10.0262 	0.0492507 	0 10.0235 	0.0490278 	0 10.0167 	0.0484763 	0 10.0203 	0.0485989 	0 10.0176 	0.0483853 	0 10.0149 	0.0481716 	0 10.0122 	0.0479578 	0 10.0041 	0.0473969 	0 10.009 	0.0475474 	0 10.0063 	0.0473751 	0 10.0036 	0.0472027 	0 10.0008 	0.0470303 	0 9.99162 	0.0465187 	0 9.99781 	0.0467238 	0 9.99514 	0.0465522 	0 9.99247 	0.0463805 	0 9.98979 	0.0462088 	0 9.97939 	0.045646 	0 9.98694 	0.0458466 	0 9.98435 	0.0457853 	0 9.98175 	0.0457239 	0 9.97916 	0.0456626 	0 9.96759 	0.0452623 	0 9.97658 	0.0455139 	9.22878e-022 9.97457 	0.0453211 	5.95666e-021 9.97256 	0.0451282 	1.09906e-020 9.97054 	0.0449353 	1.60248e-020 9.95847 	0.0442916 	1.36196e-020 9.96867 	0.044371 	9.34369e-020 9.96684 	0.0440372 	8.67091e-020 9.96501 	0.0437034 	7.99774e-020 9.96317 	0.0433696 	7.32418e-020 9.95089 	0.0426757 	-1.48542e-020 9.96092 	0.0426342 	-4.02548e-020 9.95913 	0.042345 	-4.47896e-020 9.95734 	0.0420557 	-4.93229e-020 9.95555 	0.0417663 	-5.38547e-020 9.94348 	0.0412009 	-2.12767e-020 9.95305 	0.0410055 	-1.8713e-020 9.95113 	0.0404562 	-1.30313e-020 9.94921 	0.0399068 	-7.34995e-021 9.94728 	0.0393574 	-1.66905e-021 9.93544 	0.0385829 	6.9559e-021 9.94461 	0.0382681 	-5.72954e-021 9.9425 	0.0374661 	-2.41949e-020 9.94038 	0.036664 	-4.26623e-020 9.93827 	0.0358617 	-6.11316e-020 9.92655 	0.0347979 	-8.71278e-020 9.93513 	0.0345433 	-1.2271e-019 9.93268 	0.0337256 	-1.10435e-019 9.93021 	0.0329077 	-9.81521e-020 9.92775 	0.0320895 	-8.58617e-020 9.91604 	0.0308928 	-2.97137e-020 9.92388 	0.0307614 	3.36049e-020 9.92104 	0.0300216 	4.69745e-020 9.91818 	0.0292815 	6.03349e-020 9.91533 	0.0285412 	7.3686e-020 9.9037 	0.0273203 	3.65287e-020 9.91071 	0.0272336 	-4.51884e-020 9.90748 	0.0265318 	-5.11964e-020 9.90425 	0.0258298 	-5.71902e-020 9.90101 	0.0251276 	-6.31699e-020 9.88957 	0.0239166 	-3.39334e-022 9.89562 	0.0237929 	5.88235e-020 9.89199 	0.0230981 	4.94867e-020 9.88836 	0.0224029 	4.01356e-020 9.88472 	0.0217075 	3.07704e-020 9.87353 	0.0205429 	-2.85688e-020 9.87844 	0.0203539 	-8.22433e-020 9.87437 	0.0196657 	-1.04226e-019 9.87028 	0.0189772 	-1.26203e-019 9.86619 	0.0182885 	-1.48175e-019 9.85536 	0.0172034 	-1.35831e-019 9.8589 	0.0169443 	-1.54181e-019 9.85435 	0.0162673 	-1.41854e-019 9.84979 	0.0155901 	-1.29523e-019 9.84523 	0.0149126 	-1.17187e-019 9.83491 	0.0139243 	-8.31281e-020 9.83682 	0.0136018 	-6.97225e-020 9.83179 	0.012942 	-5.14046e-020 9.82676 	0.0122818 	-3.30883e-020 9.82173 	0.0116214 	-1.47738e-020 9.81216 	0.0107342 	1.94442e-021 9.81214 	0.0103438 	0 9.80665 	0.00969699 	0 9.80116 	0.00904991 	0 9.79566 	0.00840255 	0 9.78714 	0.00761204 	0 9.78483 	0.00713965 	-1.66157e-020 9.77889 	0.0064998 	-3.53913e-020 9.77294 	0.00585964 	-5.41686e-020 9.76698 	0.00521917 	-7.29475e-020 9.75986 	0.00452525 	-9.22245e-020 9.7578 	0.00424703 	-9.52288e-020 9.75435 	0.00390504 	-9.56268e-020 9.7509 	0.00356296 	-9.60234e-020 9.74744 	0.00322078 	-9.64184e-020 9.74409 	0.00288844 	-9.68006e-020 9.74109 	0.00259343 	-9.76562e-020 9.73809 	0.00229835 	-9.85122e-020 9.73509 	0.00200318 	-9.93684e-020 9.73208 	0.00170795 	-1.00225e-019 9.72613 	0.00128096 	-1.00214e-019 9.72195 	0.000773 	-7.5392e-020 9.71504 	0.000144111 	-4.65824e-020 9.70812 	-0.000485158 	-1.7782e-020 9.7012 	-0.00111481 	1.1009e-020 9.68494 	-0.00215302 	4.92558e-020 9.6862 	-0.00240472 	5.01168e-020 9.67886 	-0.0030267 	5.12516e-020 9.67151 	-0.00364908 	5.23842e-020 9.66415 	-0.00427188 	5.35146e-020 9.64121 	-0.005553 	5.68326e-020 9.64779 	-0.00557842 	4.47591e-020 9.64004 	-0.00619368 	3.26832e-020 9.63229 	-0.00680939 	2.0606e-020 9.62452 	-0.00742554 	8.52776e-021 9.59523 	-0.00890646 	-1.10125e-021 9.60682 	-0.00874809 	-8.0221e-021 9.59869 	-0.00935707 	-1.95472e-020 9.59055 	-0.00996654 	-3.10711e-020 9.58239 	-0.0105765 	-4.25939e-020 9.54723 	-0.0122059 	-5.41324e-020 9.56344 	-0.0119135 	-5.38082e-020 9.55494 	-0.0125182 	-6.11201e-020 9.54644 	-0.0131235 	-6.84289e-020 9.53792 	-0.0137292 	-7.57348e-020 9.49749 	-0.0154531 	-9.46816e-020 9.51782 	-0.0150774 	-1.50843e-019 9.50899 	-0.0156782 	-1.41445e-019 9.50015 	-0.0162796 	-1.3206e-019 9.49129 	-0.0168815 	-1.22688e-019 9.44626 	-0.0186404 	-4.13518e-020 9.47014 	-0.0182325 	-2.63246e-020 9.461 	-0.0188289 	-1.84325e-020 9.45184 	-0.0194259 	-1.05397e-020 9.44268 	-0.0200235 	-2.64609e-021 9.39377 	-0.0217596 	0 9.42061 	-0.0213677 	0 9.41118 	-0.0219606 	0 9.40174 	-0.0225541 	0 9.39228 	-0.0231483 	0 9.34027 	-0.0248115 	0 9.36946 	-0.0244818 	1.52175e-021 9.35977 	-0.0250733 	8.86703e-021 9.35006 	-0.0256654 	1.62116e-020 9.34035 	-0.0262582 	2.35553e-020 9.28596 	-0.0278016 	4.15323e-020 9.31692 	-0.0275828 	1.60984e-019 9.30699 	-0.0281735 	1.63891e-019 9.29705 	-0.0287648 	1.66811e-019 9.2871 	-0.0293568 	1.69745e-019 9.23105 	-0.0307292 	4.17228e-020 9.26301 	-0.030668 	2.2264e-020 9.2531 	-0.0312533 	1.56345e-020 9.24295 	-0.0318427 	9.07144e-021 9.22975 	-0.0324693 	3.91123e-021 9.17574 	-0.0335876 	1.76321e-020 9.20417 	-0.0337614 	1.04448e-019 9.19831 	-0.0342999 	1.15499e-019 9.18797 	-0.0348865 	1.16705e-019 9.1706 	-0.0355203 	1.00729e-019 9.1202 	-0.0363731 	4.02059e-021 9.14527 	-0.0367638 	-9.87555e-020 9.14287 	-0.037303 	-1.29993e-019 9.13237 	-0.0378863 	-1.40183e-019 9.11152 	-0.0384768 	-1.28481e-019 9.06458 	-0.0390843 	-6.15762e-020 9.08648 	-0.0396724 	-1.77911e-019 9.08698 	-0.0402549 	-2.19179e-019 9.07635 	-0.0408348 	-2.21416e-019 9.05269 	-0.0413376 	-1.73061e-019 9.00905 	-0.0417215 	-4.70481e-020 9.02799 	-0.0424867 	-2.49124e-020 9.03087 	-0.0431498 	-1.08258e-020 9.02012 	-0.0437262 	-3.57468e-021 8.99426 	-0.0441032 	0 8.95373 	-0.0442862 	0 8.96993 	-0.0452083 	0 8.97472 	-0.0459835 	0 8.96387 	-0.0465564 	0 8.93638 	-0.0467761 	2.05113e-021 8.89875 	-0.0467807 	5.35132e-021 8.91242 	-0.0478398 	2.20441e-021 8.91872 	-0.0487528 	0 8.90779 	-0.0493222 	0 8.87915 	-0.0493595 	2.43844e-021 8.84422 	-0.0492079 	5.74273e-021 8.85559 	-0.0503853 	2.59528e-021 8.86301 	-0.0514563 	1.15419e-021 8.85203 	-0.0520224 	7.73812e-021 8.82267 	-0.0518582 	2.44484e-020 8.79023 	-0.0515713 	4.28581e-020 8.79951 	-0.0528488 	1.6789e-019 8.80775 	-0.0540925 	2.86973e-019 8.79674 	-0.0546554 	2.90405e-019 8.76703 	-0.0542767 	1.68397e-019 8.73689 	-0.0538751 	4.3366e-020 8.74427 	-0.0552362 	2.52198e-020 8.7516 	-0.0565987 	7.07471e-021 8.74035 	-0.0571183 	3.13022e-022 8.7123 	-0.0566209 	3.49258e-021 8.68426 	-0.0561231 	6.67199e-021 8.68994 	-0.0575516 	3.65301e-021 8.69556 	-0.0589816 	6.3481e-022 8.68467 	-0.0594709 	2.0128e-021 8.65854 	-0.0588957 	-1.90726e-021 8.63243 	-0.0583201 	-5.82635e-021 8.63657 	-0.0598024 	-4.90954e-020 8.64066 	-0.0612862 	-9.23681e-020 8.63017 	-0.0617458 	-9.37338e-020 8.6058 	-0.0611087 	-5.41426e-020 8.58144 	-0.060471 	-1.45496e-020 8.58422 	-0.0619965 	8.43835e-020 8.58694 	-0.0635236 	1.83311e-019 8.5769 	-0.0639544 	1.91859e-019 8.55412 	-0.0632679 	1.09468e-019 8.53136 	-0.0625809 	2.70782e-020 8.53293 	-0.0641415 	1.57353e-020 8.53443 	-0.0657037 	4.38908e-021 8.52486 	-0.0661072 	4.43672e-022 8.50354 	-0.0653823 	5.04642e-021 8.48223 	-0.0646569 	9.65095e-021 8.48273 	-0.0662437 	4.1405e-021 8.48317 	-0.0678321 	-1.37492e-021 8.47409 	-0.0682094 	-2.07698e-020 8.45407 	-0.0674571 	-7.07136e-020 8.43408 	-0.0667042 	-1.2066e-019 8.43364 	-0.0683026 	-2.51399e-019 8.43315 	-0.0699025 	-3.82133e-019 8.42457 	-0.0702547 	-3.6701e-019 8.40574 	-0.069491 	-2.17155e-019 8.38693 	-0.0687267 	-6.73029e-020 8.38567 	-0.0703242 	5.64324e-020 8.38433 	-0.0719196 	1.79823e-019 8.37598 	-0.0722179 	1.77444e-019 8.35853 	-0.0714945 	9.03525e-020 8.34079 	-0.0707354 	3.50128e-022 8.3388 	-0.0723279 	-8.8982e-020 8.33591 	-0.0737426 	-1.67204e-019 8.32771 	-0.0740469 	-1.76491e-019 8.31245 	-0.0734873 	-1.14287e-019 8.29568 	-0.0727419 	-3.67382e-020 8.29305 	-0.0743253 	-2.55092e-020 8.28889 	-0.0755581 	-1.43793e-020 8.28084 	-0.0758697 	-3.50274e-021 8.26747 	-0.0754785 	1.39372e-020 8.25159 	-0.074753 	3.4497e-020 8.24839 	-0.0763246 	1.27306e-020 8.24322 	-0.0773771 	-2.40543e-021 8.23531 	-0.0776977 	-8.19862e-021 8.22359 	-0.0774767 	-3.00742e-021 8.20851 	-0.0767765 	1.18976e-020 8.20481 	-0.0783352 	-4.5957e-021 8.19884 	-0.0792119 	-1.54767e-020 8.19106 	-0.079543 	-2.18684e-020 8.18077 	-0.0794918 	-3.40762e-020 8.16642 	-0.0788208 	-5.5706e-020 8.16228 	-0.0803661 	5.27027e-020 8.15569 	-0.0810727 	8.71976e-020 8.14803 	-0.0814159 	8.96621e-020 8.13898 	-0.0815328 	7.01453e-020 8.12531 	-0.0808943 	-2.26755e-020 8.12077 	-0.0824265 	6.88753e-020 8.11372 	-0.0829697 	8.61656e-020 8.10619 	-0.0833264 	8.94371e-020 8.09821 	-0.0836087 	8.65321e-020 8.08515 	-0.0830051 	1.03537e-020 8.08026 	-0.0845248 	-5.66584e-022 8.07289 	-0.0849118 	-4.84817e-022 8.06546 	-0.0852833 	-2.51423e-022 8.05802 	-0.0856551 	-1.80506e-023 8.04592 	-0.085161 	1.83579e-020 8.04044 	-0.0865198 	0 8.03314 	-0.0869073 	0 8.02581 	-0.087295 	0 8.01847 	-0.0876829 	0 8.00758 	-0.0873695 	1.53562e-020 8.00163 	-0.0885595 	0 7.99442 	-0.0889644 	0 7.98719 	-0.0893696 	0 7.97995 	-0.089775 	0 7.97011 	-0.0896385 	0 7.9638 	-0.0906675 	0 7.95668 	-0.0910912 	0 7.94954 	-0.0915151 	0 7.94239 	-0.0919393 	0 7.93347 	-0.0919756 	-8.67076e-021 7.92691 	-0.0928516 	0 7.91987 	-0.0932952 	0 7.91281 	-0.093739 	0 7.90574 	-0.0941831 	0 7.89763 	-0.0943882 	-1.09698e-020 7.8909 	-0.0951189 	0 7.88393 	-0.0955834 	0 7.87695 	-0.0960483 	0 7.86994 	-0.0965134 	0 7.86254 	-0.0968831 	-4.46301e-021 7.85786 	-0.097324 	-6.00393e-021 7.85312 	-0.0976589 	-1.31225e-020 7.84836 	-0.0979939 	-2.02415e-020 7.8436 	-0.098329 	-2.73612e-020 7.83895 	-0.098655 	-3.42867e-020 7.8367 	-0.0988094 	-3.73393e-020 7.83444 	-0.0989638 	-4.03919e-020 7.83218 	-0.0991182 	-4.34443e-020 7.82992 	-0.0992726 	-4.64966e-020 7.82791 	-0.0993781 	-4.9551e-020 7.82079 	-0.0999335 	-4.83959e-020 7.81374 	-0.100445 	-4.77769e-020 7.80668 	-0.100957 	-4.71553e-020 7.79959 	-0.101469 	-4.65312e-020 7.79353 	-0.101781 	-4.81815e-020 7.78615 	-0.102498 	-3.77463e-020 7.77916 	-0.103033 	-2.72996e-020 7.77214 	-0.103569 	-1.68516e-020 7.7651 	-0.104106 	-6.40218e-021 7.75985 	-0.104297 	0 7.75221 	-0.10517 	-2.8198e-021 7.74526 	-0.105732 	-7.63277e-021 7.73828 	-0.106293 	-1.2445e-020 7.73128 	-0.106855 	-1.72566e-020 7.72682 	-0.106932 	-2.20329e-020 7.71892 	-0.107959 	-5.07425e-020 7.71199 	-0.108548 	-7.0493e-020 7.70504 	-0.109136 	-9.02451e-020 7.69807 	-0.109725 	-1.09999e-019 7.69438 	-0.109693 	-1.03308e-019 7.6862 	-0.110871 	-8.12297e-020 7.6793 	-0.111487 	-7.01293e-020 7.67238 	-0.112104 	-5.90229e-020 7.66543 	-0.11272 	-4.79103e-020 7.66248 	-0.112588 	-6.89232e-020 7.65403 	-0.113913 	-8.21537e-020 7.64714 	-0.114559 	-6.36799e-020 7.64023 	-0.115205 	-4.52109e-020 7.63367 	-0.115783 	-2.54855e-020 7.63107 	-0.115624 	7.8281e-021 7.62262 	-0.11698 	1.22235e-020 7.61547 	-0.11777 	8.75632e-021 7.60857 	-0.118447 	3.70806e-021 7.60278 	-0.118916 	0 7.60012 	-0.118808 	0 7.59169 	-0.120177 	0 7.58423 	-0.121125 	0 7.57733 	-0.121834 	0 7.57229 	-0.122199 	0 7.56956 	-0.122144 	0 7.56115 	-0.123527 	0 7.55338 	-0.124631 	-7.71708e-021 7.54647 	-0.125373 	-2.54422e-020 7.54216 	-0.125641 	-4.32164e-020 7.53935 	-0.125638 	-6.10199e-020 7.53095 	-0.127038 	-4.18442e-020 7.52286 	-0.128295 	-2.16904e-020 7.51594 	-0.12907 	1.70756e-021 7.51234 	-0.129247 	9.21193e-021 7.50944 	-0.129297 	1.3335e-020 7.50104 	-0.130716 	4.59212e-020 7.49263 	-0.132122 	7.82124e-020 7.48575 	-0.132919 	9.68298e-020 7.48276 	-0.133022 	8.18981e-020 7.47977 	-0.133126 	6.69652e-020 7.47137 	-0.134565 	4.29683e-020 7.46292 	-0.136004 	1.89631e-020 7.45648 	-0.136816 	2.00832e-021 7.45339 	-0.136973 	1.13781e-020 7.4503 	-0.137129 	2.07487e-020 7.44189 	-0.13859 	8.42061e-020 7.43342 	-0.140051 	1.47667e-019 7.42738 	-0.140893 	1.48313e-019 7.42418 	-0.141102 	8.5467e-020 7.42097 	-0.141312 	2.26196e-020 7.41254 	-0.142796 	1.40284e-020 7.40406 	-0.14428 	5.44065e-021 7.39838 	-0.145153 	5.62891e-021 7.39506 	-0.145416 	1.47793e-020 7.39173 	-0.145679 	2.39308e-020 7.38327 	-0.147187 	8.59423e-020 7.37476 	-0.148696 	1.47957e-019 7.36945 	-0.149602 	1.48637e-019 7.36599 	-0.149918 	8.72654e-020 7.36253 	-0.150234 	2.58925e-020 7.35403 	-0.151768 	1.75458e-020 7.34562 	-0.153279 	9.1988e-021 7.34064 	-0.154193 	7.56286e-022 7.33692 	-0.154611 	0 7.33331 	-0.15498 	0 7.32477 	-0.156541 	0 7.31708 	-0.157948 	0 7.31199 	-0.158903 	0 7.30779 	-0.159499 	0 7.30403 	-0.159921 	0 7.29544 	-0.16151 	0 7.28844 	-0.162817 	0 7.28323 	-0.163812 	0 7.27856 	-0.164585 	6.83601e-021 7.27464 	-0.165059 	2.2776e-020 7.26598 	-0.166677 	5.23612e-021 7.25966 	-0.167887 	6.0444e-021 7.25431 	-0.168924 	1.46623e-020 7.24916 	-0.16987 	2.40464e-020 7.24507 	-0.170397 	3.69506e-020 7.23634 	-0.172044 	1.23547e-019 7.23066 	-0.173161 	1.33746e-019 7.22518 	-0.174239 	1.38368e-019 7.21965 	-0.175318 	1.42968e-019 7.21528 	-0.175936 	4.60251e-020 7.20701 	-0.177519 	1.34148e-019 7.20141 	-0.178639 	1.22314e-019 7.19578 	-0.179759 	1.10458e-019 7.19011 	-0.180879 	9.85799e-020 7.18521 	-0.181677 	3.81269e-020 7.17762 	-0.183161 	3.148e-020 7.17186 	-0.184322 	3.1952e-020 7.16607 	-0.185483 	3.2429e-020 7.16024 	-0.186644 	3.29111e-020 7.15483 	-0.187621 	4.80508e-020 7.14788 	-0.189008 	5.40081e-020 7.14196 	-0.19021 	5.15255e-020 7.13599 	-0.191412 	4.90274e-020 7.12999 	-0.192614 	4.65137e-020 7.12407 	-0.193768 	3.96836e-020 7.12157 	-0.194272 	3.32991e-020 7.11935 	-0.194728 	3.11692e-020 7.11712 	-0.195183 	2.90412e-020 7.11488 	-0.195638 	2.69149e-020 7.11269 	-0.196083 	2.48415e-020 7.10869 	-0.196872 	2.06259e-020 7.10466 	-0.19766 	1.64136e-020 7.10062 	-0.198449 	1.22045e-020 7.09656 	-0.199238 	7.99876e-021 7.09321 	-0.19995 	3.772e-022 7.08636 	-0.201309 	-2.41958e-022 7.0799 	-0.202591 	-1.73987e-022 7.0734 	-0.203872 	-1.05993e-022 7.06685 	-0.205154 	-3.79749e-023 7.06215 	-0.20624 	0 7.05442 	-0.20776 	-6.98544e-021 7.04776 	-0.209081 	-2.08105e-020 7.04105 	-0.210403 	-3.46298e-020 7.0343 	-0.211724 	-4.84434e-020 7.03058 	-0.212732 	-5.95157e-020 7.02194 	-0.214412 	-4.68246e-020 7.01507 	-0.215772 	-3.15624e-020 7.00816 	-0.217132 	-1.62943e-020 7.00121 	-0.218491 	-1.05676e-021 6.99846 	-0.219423 	6.30293e-021 6.98918 	-0.221209 	-1.3432e-022 6.98179 	-0.22266 	1.11283e-020 6.97466 	-0.224058 	2.51283e-020 6.96872 	-0.225332 	4.12654e-020 6.96573 	-0.226308 	6.25051e-020 6.95623 	-0.228126 	4.04055e-020 6.94787 	-0.229741 	2.18842e-020 6.9405 	-0.231177 	6.52018e-021 6.93559 	-0.232365 	-1.71427e-021 6.93236 	-0.233385 	-5.06156e-021 6.92263 	-0.235234 	-5.69001e-020 6.91326 	-0.237013 	-9.97827e-020 6.90566 	-0.238484 	-1.03378e-019 6.90178 	-0.239587 	-6.7132e-020 6.89829 	-0.240647 	-2.63589e-020 6.88833 	-0.242526 	-6.77089e-020 6.8783 	-0.244405 	-1.09066e-019 6.87094 	-0.24589 	-1.09405e-019 6.86723 	-0.246991 	-6.5968e-020 6.86348 	-0.248091 	-2.25302e-020 6.85328 	-0.249999 	-6.61031e-020 6.843 	-0.251907 	-1.09682e-019 6.8359 	-0.253433 	-1.06882e-019 6.83192 	-0.254571 	-5.76183e-020 6.8279 	-0.25571 	-8.35046e-021 6.81744 	-0.257646 	-5.54287e-021 6.8069 	-0.259582 	-2.73742e-021 6.80005 	-0.261148 	0 6.79579 	-0.262323 	0 6.79149 	-0.263498 	0 6.78077 	-0.26546 	0 6.77077 	-0.267347 	0 6.76404 	-0.268918 	0 6.75881 	-0.270238 	0 6.75423 	-0.271448 	0 6.74323 	-0.273435 	0 6.73438 	-0.275214 	-1.69938e-021 6.72736 	-0.276815 	-4.85092e-021 6.72095 	-0.27831 	-4.66079e-021 6.71607 	-0.279552 	3.61714e-021 6.70479 	-0.281563 	-5.47189e-020 6.6971 	-0.283232 	-5.8216e-020 6.6898 	-0.28486 	-5.50534e-020 6.68244 	-0.286487 	-5.18692e-020 6.67698 	-0.287803 	-2.28572e-021 6.66645 	-0.289741 	-8.13589e-021 6.6589 	-0.291393 	6.48698e-022 6.65131 	-0.293046 	9.4346e-021 6.64365 	-0.294698 	1.82218e-020 6.63693 	-0.296193 	2.09761e-020 6.62761 	-0.298012 	4.11524e-020 6.61976 	-0.299688 	4.1413e-020 6.61186 	-0.301363 	4.16562e-020 6.6039 	-0.303038 	4.18822e-020 6.59589 	-0.304713 	4.20345e-020 6.59586 	-0.304718 	4.20369e-020 6.59584 	-0.304722 	4.20322e-020 6.59582 	-0.304727 	4.20274e-020 6.5958 	-0.304731 	4.20227e-020 6.59578 	-0.304736 	4.2018e-020 6.5872 	-0.306425 	3.97881e-020 6.57856 	-0.308114 	3.75633e-020 6.56986 	-0.309803 	3.53434e-020 6.56109 	-0.311492 	3.31286e-020 6.55336 	-0.313052 	2.26398e-020 6.54385 	-0.314908 	2.92514e-020 6.53484 	-0.316621 	2.30434e-020 6.52577 	-0.318333 	1.68472e-020 6.51663 	-0.320045 	1.06628e-020 6.50965 	-0.321499 	-1.46528e-020 6.49919 	-0.323517 	-7.40526e-021 6.48982 	-0.325247 	-9.34878e-021 6.48039 	-0.326976 	-1.13304e-020 6.47161 	-0.328622 	-1.26286e-020 6.46475 	-0.330043 	-1.2052e-020 6.45391 	-0.332072 	-1.07162e-020 6.44354 	-0.333969 	-7.3584e-021 6.43374 	-0.335712 	-1.65387e-021 6.42581 	-0.337238 	3.78013e-021 6.41861 	-0.338675 	9.10614e-021 6.40739 	-0.340713 	4.75063e-021 6.39609 	-0.34275 	3.99072e-022 6.38625 	-0.344481 	0 6.37876 	-0.345931 	0 6.37121 	-0.347381 	0 6.35959 	-0.349426 	0 6.3479 	-0.35147 	0 6.33828 	-0.35323 	0 6.33042 	-0.354691 	0 6.32251 	-0.356152 	0 6.3105 	-0.358201 	0 6.29872 	-0.360216 	5.18622e-022 6.28932 	-0.361964 	5.14608e-021 6.28078 	-0.363505 	9.7865e-021 6.2725 	-0.364974 	1.44341e-020 6.26008 	-0.367025 	1.07189e-020 6.24928 	-0.368894 	9.74078e-021 6.2395 	-0.370645 	1.05612e-020 6.22981 	-0.372361 	1.1612e-020 6.22115 	-0.373834 	1.43001e-020 6.20862 	-0.375853 	-2.54729e-021 6.19853 	-0.377603 	-8.70564e-021 6.18837 	-0.379353 	-1.48512e-020 6.17813 	-0.381102 	-2.09838e-020 6.16843 	-0.382721 	-1.91245e-020 6.15981 	-0.384102 	-1.57498e-020 6.15222 	-0.385369 	-1.33469e-020 6.14459 	-0.386637 	-1.09458e-020 6.13693 	-0.387904 	-8.54631e-021 6.1296 	-0.389109 	-6.26515e-021 6.12671 	-0.389602 	-6.06265e-021 6.12381 	-0.390095 	-5.86174e-021 6.12091 	-0.390588 	-5.6624e-021 6.118 	-0.391081 	-5.46465e-021 6.11514 	-0.391529 	-2.05182e-021 6.10486 	-0.393327 	5.12143e-021 6.0944 	-0.395073 	5.81673e-021 6.08386 	-0.396818 	6.53707e-021 6.07325 	-0.398563 	7.28257e-021 6.06278 	-0.400105 	-1.99238e-020 6.05255 	-0.402079 	-6.08891e-020 6.04169 	-0.403816 	-7.0298e-020 6.03076 	-0.405553 	-7.97425e-020 6.01981 	-0.407229 	-7.57753e-020 6.00905 	-0.408661 	-1.75936e-020 5.99853 	-0.410664 	-1.51837e-020 5.98761 	-0.412538 	-1.02028e-020 5.97627 	-0.414263 	-2.31611e-021 5.9651 	-0.415763 	7.88886e-021 5.95393 	-0.417184 	1.88987e-020 5.943 	-0.419171 	3.62789e-020 5.93199 	-0.421158 	5.36676e-020 5.9205 	-0.422846 	5.48055e-020 5.90899 	-0.424254 	3.92356e-020 5.89742 	-0.425662 	