/*--------------------------------*- C++ -*----------------------------------*\
| =========                 |                                                 |
| \\      /  F ield         | OpenFOAM: The Open Source CFD Toolbox           |
|  \\    /   O peration     | Version:  5.x                                   |
|   \\  /    A nd           | Web:      www.OpenFOAM.org                      |
|    \\/     M anipulation  |                                                 |
\*---------------------------------------------------------------------------*/
/*   Windows 32 and 64 bit porting by blueCAPE: http://www.bluecape.com.pt   *\
|  Based on Windows porting (2.0.x v4) by Symscape: http://www.symscape.com   |
\*---------------------------------------------------------------------------*/
FoamFile
{
    version     2.0;
    format      ascii;
    class       volVectorField;
    location    "2771";
    object      U;
}
// * * * * * * * * * * * * * * * * * * * * * * * * * * * * * * * * * * * * * //

dimensions      [0 1 -1 0 0 0 0];

internalField   nonuniform List<vector> 
4000
(
(0.999143 0.000750763 2.14127e-023)
(0.997621 0.00243077 0)
(0.994319 0.00350703 0)
(0.990411 0.00388472 0)
(0.986349 0.00403882 0)
(0.982166 0.00409475 0)
(0.9779 0.00410136 -3.10377e-023)
(0.973595 0.00407377 0)
(0.969275 0.00402994 0)
(0.96496 0.00398247 -2.76061e-023)
(0.960656 0.00393588 0)
(0.956365 0.00389207 0)
(0.952087 0.00384985 -2.51455e-023)
(0.947822 0.00380899 0)
(0.943573 0.00376902 -2.39042e-023)
(0.939344 0.00372973 -2.33681e-023)
(0.935137 0.00369163 -2.2871e-023)
(0.930951 0.00365463 -2.24094e-023)
(0.926786 0.00361842 -2.19805e-023)
(0.922644 0.00358303 -2.15788e-023)
(0.918524 0.00354856 -2.12e-023)
(0.914427 0.00351484 -2.08426e-023)
(0.910351 0.00348203 0)
(0.906299 0.00345026 -2.01778e-023)
(0.90227 0.00341949 -1.98652e-023)
(0.898265 0.00338969 -1.95632e-023)
(0.894282 0.00336072 -1.92703e-023)
(0.890324 0.00333252 -1.89847e-023)
(0.886389 0.0033051 -1.87046e-023)
(0.882477 0.00327834 -1.84295e-023)
(0.878589 0.0032521 0)
(0.874725 0.00322626 -1.78902e-023)
(0.870885 0.00320076 -1.76241e-023)
(0.867069 0.00317555 -1.73594e-023)
(0.863276 0.00315059 -1.70957e-023)
(0.859507 0.00312586 -1.68326e-023)
(0.855761 0.00310134 -1.65699e-023)
(0.852039 0.00307698 -1.63077e-023)
(0.84834 0.00305273 -1.60458e-023)
(0.844665 0.00302856 0)
(0.841013 0.00300444 -1.55219e-023)
(0.837385 0.00298039 -1.52591e-023)
(0.83378 0.00295645 -1.49954e-023)
(0.830199 0.0029328 -1.47303e-023)
(0.826641 0.00290945 -1.44636e-023)
(0.823107 0.00288505 -1.41955e-023)
(0.819596 0.00285991 -1.39259e-023)
(0.816108 0.00283555 0)
(0.812643 0.00281179 -1.33825e-023)
(0.809202 0.0027884 -1.3109e-023)
(0.805783 0.00276519 -1.28343e-023)
(0.802388 0.00274205 -1.25586e-023)
(0.799016 0.00271887 -1.22819e-023)
(0.795668 0.0026956 -1.20043e-023)
(0.792343 0.0026722 -1.17258e-023)
(0.789042 0.00264866 -1.14463e-023)
(0.785765 0.00262496 0)
(0.782513 0.0026011 -1.08848e-023)
(0.779284 0.00257706 -1.06031e-023)
(0.77608 0.00255286 -1.03209e-023)
(0.772901 0.00252848 -1.00385e-023)
(0.769746 0.00250391 -9.756e-024)
(0.766616 0.00247914 -9.47357e-024)
(0.763511 0.00245419 -9.19137e-024)
(0.760431 0.00242904 0)
(0.757376 0.00240372 -8.62818e-024)
(0.754347 0.00237819 -8.34751e-024)
(0.751343 0.00235245 -8.06769e-024)
(0.748365 0.00232656 -7.78887e-024)
(0.745412 0.00230051 -7.51123e-024)
(0.742485 0.00227432 -7.23501e-024)
(0.739584 0.00224802 -6.96047e-024)
(0.736709 0.00222165 -6.68794e-024)
(0.73386 0.00219528 -6.4178e-024)
(0.731036 0.00216907 -6.15055e-024)
(0.728238 0.00214332 -5.88683e-024)
(0.725464 0.00211859 -5.6273e-024)
(0.722713 0.00209626 -5.37277e-024)
(0.719982 0.0020797 -5.12338e-024)
(0.717264 0.00206965 -4.87336e-024)
(0.714559 0.00206295 -4.6179e-024)
(0.711867 0.00205729 0)
(0.709185 0.00205174 -4.09906e-024)
(0.706515 0.00204585 -3.83768e-024)
(0.703857 0.00203939 -3.57544e-024)
(0.70121 0.00203227 -3.31276e-024)
(0.698575 0.00202447 -3.04994e-024)
(0.695953 0.002016 -2.78725e-024)
(0.693343 0.00200688 -2.5249e-024)
(0.690747 0.00199714 -2.26308e-024)
(0.688165 0.00198681 0)
(0.685597 0.00197593 -1.74176e-024)
(0.683043 0.00196451 -1.48256e-024)
(0.680503 0.0019526 -1.22455e-024)
(0.677979 0.00194022 -9.67853e-025)
(0.675469 0.00192741 -7.12635e-025)
(0.672975 0.00191418 -4.59044e-025)
(0.670496 0.00190056 -2.07294e-025)
(0.668034 0.00188658 4.24844e-026)
(0.665587 0.00187212 2.89718e-025)
(0.663157 0.00185709 5.34768e-025)
(0.660743 0.00184163 7.78426e-025)
(0.658347 0.00182585 1.02022e-024)
(0.655967 0.00180983 1.25976e-024)
(0.653605 0.00179358 1.49691e-024)
(0.65126 0.00177715 1.73151e-024)
(0.648932 0.00176054 1.96344e-024)
(0.646622 0.00174376 2.19256e-024)
(0.644329 0.00172681 2.41875e-024)
(0.642055 0.00170971 2.64188e-024)
(0.639799 0.00169246 2.86185e-024)
(0.63756 0.00167506 3.07854e-024)
(0.63534 0.00165753 3.29183e-024)
(0.633139 0.00163988 3.50164e-024)
(0.630956 0.00162211 3.70784e-024)
(0.628791 0.00160424 3.91034e-024)
(0.626645 0.00158626 4.10904e-024)
(0.624518 0.00156819 4.30384e-024)
(0.62241 0.00155002 4.49462e-024)
(0.62032 0.00153176 4.68129e-024)
(0.618249 0.00151342 4.86373e-024)
(0.616198 0.001495 5.04183e-024)
(0.614166 0.00147652 5.2155e-024)
(0.612152 0.00145798 5.38464e-024)
(0.610158 0.00143938 5.54915e-024)
(0.608184 0.00142073 5.70893e-024)
(0.606228 0.00140203 5.86388e-024)
(0.604292 0.00138329 6.01391e-024)
(0.602375 0.00136452 6.15893e-024)
(0.600478 0.00134572 6.29886e-024)
(0.5986 0.0013269 6.4336e-024)
(0.596742 0.00130807 6.56307e-024)
(0.594903 0.00128922 6.68717e-024)
(0.593084 0.00127036 6.80582e-024)
(0.591284 0.00125149 6.91893e-024)
(0.589504 0.00123262 7.02642e-024)
(0.587744 0.00121375 7.1282e-024)
(0.586003 0.00119489 7.22422e-024)
(0.584281 0.00117605 7.31438e-024)
(0.58258 0.00115722 7.39862e-024)
(0.580897 0.00113842 7.47687e-024)
(0.579235 0.00111964 7.54906e-024)
(0.577592 0.00110089 7.61512e-024)
(0.575968 0.00108218 7.675e-024)
(0.574364 0.0010635 7.72862e-024)
(0.572779 0.00104488 7.77594e-024)
(0.571214 0.00102631 7.8169e-024)
(0.569669 0.00100779 7.85146e-024)
(0.568142 0.000989336 7.87957e-024)
(0.566635 0.00097093 7.90117e-024)
(0.565147 0.000952577 7.91621e-024)
(0.563679 0.000934284 7.92465e-024)
(0.56223 0.000916061 7.92644e-024)
(0.5608 0.000897921 7.92155e-024)
(0.559389 0.000879873 7.90996e-024)
(0.557997 0.000861919 7.89164e-024)
(0.556624 0.000844056 7.86658e-024)
(0.55527 0.000826279 7.83473e-024)
(0.553934 0.000808584 7.79608e-024)
(0.552618 0.000790974 7.75058e-024)
(0.55132 0.000773462 7.69824e-024)
(0.55004 0.000756058 7.63904e-024)
(0.54878 0.000738772 7.57297e-024)
(0.547537 0.000721605 7.50002e-024)
(0.546313 0.000704558 7.42021e-024)
(0.545107 0.000687631 7.33352e-024)
(0.543919 0.000670773 7.23992e-024)
(0.542749 0.000654042 7.13945e-024)
(0.541597 0.000637442 7.03211e-024)
(0.540463 0.00062097 6.91791e-024)
(0.539347 0.000604626 6.79686e-024)
(0.538248 0.000588412 6.66897e-024)
(0.537167 0.000572335 6.53424e-024)
(0.536103 0.000556399 6.39269e-024)
(0.535056 0.000540608 6.24434e-024)
(0.534026 0.000524964 6.0892e-024)
(0.533013 0.000509468 5.92729e-024)
(0.532017 0.000494125 5.75862e-024)
(0.531038 0.000478943 5.5832e-024)
(0.530076 0.000463926 5.40105e-024)
(0.529129 0.000449079 5.21217e-024)
(0.528199 0.000434407 5.01655e-024)
(0.527285 0.000419917 4.81417e-024)
(0.526387 0.000405621 4.60502e-024)
(0.525505 0.00039153 4.38904e-024)
(0.524638 0.000377658 4.16618e-024)
(0.523786 0.00036402 3.93632e-024)
(0.52295 0.000350636 3.69935e-024)
(0.522127 0.000337532 3.45503e-024)
(0.52132 0.000324752 3.2033e-024)
(0.520526 0.00031231 2.94338e-024)
(0.519745 0.000300335 2.67608e-024)
(0.518979 0.000288646 2.39785e-024)
(0.518222 0.000277941 2.11573e-024)
(0.517484 0.000266585 1.8097e-024)
(0.51674 0.000259186 1.52664e-024)
(0.516046 0.000243605 1.14536e-024)
(0.515263 0.0002479 9.62641e-025)
(0.514727 0.000227166 3.0274e-025)
(0.513594 0.000286975 7.78754e-025)
(1.00018 0.00115668 6.81526e-024)
(1.00081 0.00276739 0)
(1.00147 0.00347812 0)
(1.00184 0.00394638 0)
(1.00201 0.00424029 0)
(1.002 0.00444137 0)
(1.00185 0.0045629 -2.35794e-023)
(1.00158 0.00466926 0)
(1.00123 0.00472805 0)
(1.0008 0.00476024 -2.20716e-023)
(1.0003 0.00478511 0)
(0.99974 0.00480623 0)
(0.999124 0.00482407 -2.0527e-023)
(0.99846 0.0048366 0)
(0.997755 0.00484239 -1.96885e-023)
(0.997019 0.00484363 -1.92988e-023)
(0.996255 0.00484266 -1.89199e-023)
(0.995467 0.00484048 -1.85627e-023)
(0.994656 0.00483644 -1.82295e-023)
(0.993826 0.0048309 -1.79089e-023)
(0.992978 0.00482509 -1.75982e-023)
(0.992114 0.00481762 -1.73075e-023)
(0.991237 0.00480833 0)
(0.990347 0.00479754 -1.67536e-023)
(0.989446 0.00478547 -1.64876e-023)
(0.988535 0.00477232 -1.62278e-023)
(0.987615 0.00475802 -1.59743e-023)
(0.986688 0.00474269 -1.57244e-023)
(0.985753 0.00472664 -1.54768e-023)
(0.984812 0.00470995 -1.52325e-023)
(0.983865 0.00469275 0)
(0.982912 0.00467509 -1.47498e-023)
(0.981955 0.00465713 -1.451e-023)
(0.980993 0.00463899 -1.42706e-023)
(0.980027 0.00462071 -1.40317e-023)
(0.979057 0.00460238 -1.37929e-023)
(0.978083 0.00458405 -1.35547e-023)
(0.977106 0.00456564 -1.33175e-023)
(0.976125 0.0045471 -1.30813e-023)
(0.97514 0.00452834 0)
(0.974153 0.00450935 -1.26107e-023)
(0.973162 0.00449014 -1.23757e-023)
(0.972169 0.00447057 -1.2141e-023)
(0.971173 0.00445074 -1.19051e-023)
(0.970176 0.00443095 -1.16669e-023)
(0.969176 0.00441157 -1.14266e-023)
(0.968175 0.00439262 -1.11864e-023)
(0.967172 0.00437372 0)
(0.966167 0.00435461 -1.07102e-023)
(0.965159 0.00433525 -1.04726e-023)
(0.96415 0.0043156 -1.02352e-023)
(0.963139 0.00429565 -9.99809e-024)
(0.962126 0.00427541 -9.76129e-024)
(0.961111 0.00425488 -9.52481e-024)
(0.960093 0.00423408 -9.28858e-024)
(0.959074 0.00421304 -9.0525e-024)
(0.958053 0.00419181 0)
(0.957029 0.00417041 -8.58122e-024)
(0.956004 0.00414886 -8.34636e-024)
(0.954976 0.00412717 -8.11231e-024)
(0.953946 0.00410533 -7.87923e-024)
(0.952914 0.00408335 -7.64725e-024)
(0.95188 0.00406122 -7.4165e-024)
(0.950843 0.00403893 -7.18708e-024)
(0.949804 0.00401649 0)
(0.948762 0.00399388 -6.7326e-024)
(0.947718 0.00397111 -6.50769e-024)
(0.946672 0.00394818 -6.28445e-024)
(0.945623 0.0039251 -6.06308e-024)
(0.944572 0.00390187 -5.84366e-024)
(0.943518 0.00387853 -5.62623e-024)
(0.942462 0.00385512 -5.41088e-024)
(0.941403 0.00383172 -5.19764e-024)
(0.940342 0.00380846 -4.98652e-024)
(0.939278 0.00378554 -4.77739e-024)
(0.938211 0.00376329 -4.56968e-024)
(0.937142 0.00374248 -4.36221e-024)
(0.936071 0.00372348 -4.15123e-024)
(0.934999 0.00370464 -3.93275e-024)
(0.933934 0.00368651 -3.71829e-024)
(0.932875 0.00367044 -3.51595e-024)
(0.931821 0.00365547 0)
(0.930774 0.00364108 -3.12201e-024)
(0.929732 0.00362693 -2.92669e-024)
(0.928694 0.0036128 -2.73225e-024)
(0.927662 0.00359859 -2.53858e-024)
(0.926633 0.00358426 -2.34574e-024)
(0.925608 0.00356979 -2.15387e-024)
(0.924586 0.00355517 -1.9631e-024)
(0.923567 0.00354037 -1.77354e-024)
(0.922551 0.0035254 0)
(0.921538 0.00351027 -1.39851e-024)
(0.920527 0.00349497 -1.21326e-024)
(0.919517 0.00347952 -1.02964e-024)
(0.91851 0.00346393 -8.47739e-025)
(0.917505 0.00344819 -6.67656e-025)
(0.916501 0.00343232 -4.89473e-025)
(0.915498 0.00341632 -3.13319e-025)
(0.914497 0.00340024 -1.39249e-025)
(0.913496 0.00338405 3.21996e-026)
(0.912497 0.00336771 2.01512e-025)
(0.911499 0.00335125 3.69232e-025)
(0.910502 0.00333465 5.34699e-025)
(0.909506 0.00331787 6.97767e-025)
(0.908511 0.00330091 8.58428e-025)
(0.907517 0.00328377 1.01662e-024)
(0.906523 0.00326645 1.17226e-024)
(0.905529 0.00324896 1.3253e-024)
(0.904537 0.0032313 1.47568e-024)
(0.903545 0.00321347 1.62334e-024)
(0.902553 0.00319547 1.76822e-024)
(0.901562 0.00317732 1.91027e-024)
(0.900571 0.00315903 2.04944e-024)
(0.899581 0.0031406 2.18567e-024)
(0.898591 0.00312203 2.31892e-024)
(0.897602 0.00310334 2.44914e-024)
(0.896613 0.00308451 2.57629e-024)
(0.895624 0.00306555 2.70032e-024)
(0.894636 0.00304646 2.82117e-024)
(0.893649 0.00302725 2.93879e-024)
(0.892661 0.00300792 3.05315e-024)
(0.891674 0.00298846 3.16421e-024)
(0.890688 0.00296889 3.27193e-024)
(0.889702 0.00294921 3.37626e-024)
(0.888717 0.00292942 3.47716e-024)
(0.887732 0.00290954 3.5746e-024)
(0.886748 0.00288955 3.66854e-024)
(0.885764 0.00286947 3.75894e-024)
(0.884781 0.0028493 3.84576e-024)
(0.883798 0.00282904 3.92899e-024)
(0.882816 0.00280869 4.00857e-024)
(0.881834 0.00278825 4.08447e-024)
(0.880854 0.00276772 4.15666e-024)
(0.879874 0.00274711 4.22511e-024)
(0.878894 0.00272642 4.28979e-024)
(0.877916 0.00270566 4.35068e-024)
(0.876938 0.00268483 4.40776e-024)
(0.875961 0.00266393 4.461e-024)
(0.874985 0.00264298 4.51037e-024)
(0.87401 0.00262197 4.55585e-024)
(0.873036 0.0026009 4.59742e-024)
(0.872063 0.00257978 4.63507e-024)
(0.871091 0.00255861 4.66876e-024)
(0.870119 0.0025374 4.6985e-024)
(0.869149 0.00251615 4.72425e-024)
(0.86818 0.00249487 4.746e-024)
(0.867213 0.00247356 4.76375e-024)
(0.866246 0.00245222 4.77748e-024)
(0.865281 0.00243086 4.78718e-024)
(0.864317 0.00240947 4.79283e-024)
(0.863354 0.00238806 4.79444e-024)
(0.862393 0.00236664 4.79198e-024)
(0.861433 0.00234523 4.78545e-024)
(0.860474 0.00232383 4.77486e-024)
(0.859517 0.00230244 4.7602e-024)
(0.858561 0.00228107 4.74146e-024)
(0.857607 0.0022597 4.71864e-024)
(0.856655 0.00223832 4.69174e-024)
(0.855704 0.00221696 4.66076e-024)
(0.854755 0.00219562 4.62571e-024)
(0.853808 0.00217431 4.58658e-024)
(0.852862 0.00215304 4.54339e-024)
(0.851918 0.00213181 4.49614e-024)
(0.850976 0.00211063 4.44484e-024)
(0.850036 0.00208949 4.38949e-024)
(0.849097 0.00206839 4.3301e-024)
(0.848161 0.00204736 4.26671e-024)
(0.847227 0.00202639 4.19928e-024)
(0.846294 0.00200548 4.12783e-024)
(0.845364 0.00198462 4.05238e-024)
(0.844436 0.00196382 3.97294e-024)
(0.843509 0.00194309 3.88954e-024)
(0.842585 0.00192242 3.8022e-024)
(0.841664 0.00190184 3.71091e-024)
(0.840744 0.00188134 3.61571e-024)
(0.839827 0.00186094 3.51661e-024)
(0.838912 0.00184064 3.41362e-024)
(0.837999 0.00182044 3.30676e-024)
(0.837089 0.00180036 3.19604e-024)
(0.836181 0.0017804 3.08148e-024)
(0.835276 0.00176058 2.96307e-024)
(0.834373 0.0017409 2.84085e-024)
(0.833472 0.00172139 2.71481e-024)
(0.832574 0.00170207 2.58496e-024)
(0.831678 0.00168295 2.45127e-024)
(0.830784 0.00166406 2.31374e-024)
(0.829893 0.00164543 2.17234e-024)
(0.829004 0.00162712 2.02705e-024)
(0.828118 0.00160918 1.87775e-024)
(0.827234 0.0015917 1.72454e-024)
(0.826351 0.00157471 1.5668e-024)
(0.825471 0.00155849 1.40565e-024)
(0.824593 0.00154261 1.23723e-024)
(0.823713 0.00152861 1.07073e-024)
(0.822842 0.00151285 8.78957e-025)
(0.821953 0.00150378 7.34913e-025)
(0.821111 0.00148976 4.85908e-025)
(0.820138 0.00149277 4.61173e-025)
(0.819466 0.00149186 5.98384e-026)
(0.818099 0.00153614 5.17018e-025)
(1.00008 0.000603524 -1.03758e-023)
(1.00044 0.00177488 0)
(1.00106 0.00269991 0)
(1.00162 0.00337127 0)
(1.00209 0.00384525 0)
(1.00247 0.00418806 0)
(1.00276 0.00443218 3.06589e-023)
(1.00298 0.00459536 0)
(1.00313 0.00472301 0)
(1.00322 0.00483111 3.06108e-023)
(1.00325 0.00492169 0)
(1.00324 0.00500745 0)
(1.00319 0.00507711 2.97676e-023)
(1.0031 0.00513621 0)
(1.00299 0.00517819 2.91711e-023)
(1.00286 0.00520445 2.88636e-023)
(1.0027 0.00522561 2.85446e-023)
(1.00252 0.00524306 2.82268e-023)
(1.00231 0.00525513 2.79159e-023)
(1.0021 0.00526238 2.76044e-023)
(1.00186 0.00526695 2.72909e-023)
(1.00161 0.00526887 2.69859e-023)
(1.00135 0.00526863 0)
(1.00109 0.00526647 2.63763e-023)
(1.00081 0.00526268 2.60703e-023)
(1.00052 0.00525778 2.57634e-023)
(1.00022 0.00525109 2.54559e-023)
(0.999923 0.00524321 2.51457e-023)
(0.999614 0.00523489 7.46619e-023)
(0.9993 0.00522563 2.45152e-023)
(0.998981 0.0052153 0)
(0.998656 0.00520388 2.38724e-023)
(0.998327 0.00519167 2.35449e-023)
(0.997993 0.00517889 2.32131e-023)
(0.997656 0.00516559 6.88428e-023)
(0.997314 0.00515206 2.25369e-023)
(0.996969 0.00513845 2.21933e-023)
(0.99662 0.00512469 2.1847e-023)
(0.996266 0.00511069 2.14982e-023)
(0.99591 0.00509622 0)
(0.995549 0.00508134 6.26132e-023)
(0.995185 0.00506629 2.04354e-023)
(0.994818 0.005051 2.00755e-023)
(0.994449 0.00503548 1.97116e-023)
(0.994077 0.00501983 1.93426e-023)
(0.993702 0.0050039 1.8969e-023)
(0.993325 0.00498767 5.60227e-023)
(0.992944 0.00497133 0)
(0.992561 0.00495499 1.78368e-023)
(0.992176 0.0049387 1.74563e-023)
(0.991787 0.00492243 1.70743e-023)
(0.991396 0.00490615 1.66911e-023)
(0.991002 0.00488979 1.63067e-023)
(0.990605 0.00487328 1.59214e-023)
(0.990205 0.00485658 1.55352e-023)
(0.989803 0.00483972 1.5148e-023)
(0.989398 0.00482274 0)
(0.98899 0.00480566 1.43718e-023)
(0.988579 0.00478852 1.39834e-023)
(0.988166 0.00477129 1.35953e-023)
(0.987749 0.00475398 1.32078e-023)
(0.98733 0.00473657 1.28211e-023)
(0.986907 0.00471906 1.24356e-023)
(0.986481 0.00470141 1.20514e-023)
(0.986053 0.00468362 0)
(0.98562 0.00466567 1.12881e-023)
(0.985185 0.00464756 1.09093e-023)
(0.984747 0.00462929 1.05328e-023)
(0.984305 0.0046109 1.01587e-023)
(0.98386 0.0045924 9.78744e-024)
(0.983412 0.00457383 9.4191e-024)
(0.98296 0.00455525 9.05398e-024)
(0.982504 0.00453672 8.69232e-024)
(0.982046 0.00451836 8.33439e-024)
(0.981583 0.00450031 7.9804e-024)
(0.981118 0.00448275 7.63029e-024)
(0.980649 0.00446588 7.28344e-024)
(0.980178 0.00444973 6.93709e-024)
(0.979704 0.00443386 6.58754e-024)
(0.979229 0.00441804 6.24093e-024)
(0.978753 0.00440253 5.90172e-024)
(0.978276 0.00438745 0)
(0.977799 0.00437279 5.22936e-024)
(0.977321 0.00435847 -5.1315e-024)
(0.976844 0.0043444 -4.79558e-024)
(0.976366 0.0043305 4.22684e-024)
(0.975887 0.00431672 3.89492e-024)
(0.975408 0.00430299 3.56457e-024)
(0.974929 0.00428927 3.23603e-024)
(0.974448 0.00427552 2.90953e-024)
(0.973968 0.00426172 -5.40388e-024)
(0.973486 0.00424786 2.26349e-024)
(0.973003 0.00423395 1.94432e-024)
(0.972519 0.00421996 1.62796e-024)
(0.972035 0.00420592 1.31455e-024)
(0.971549 0.00419182 1.00428e-024)
(0.971062 0.00417766 -9.33381e-025)
(0.970574 0.00416347 3.93837e-025)
(0.970085 0.00414947 9.4024e-026)
(0.969594 0.00413466 -2.01349e-025)
(0.969102 0.00411879 -4.92925e-025)
(0.968608 0.00410295 -7.81654e-025)
(0.968113 0.00408723 8.42042e-025)
(0.967617 0.00407158 -1.34771e-024)
(0.967119 0.00405595 -1.6246e-024)
(0.96662 0.00404028 -1.89725e-024)
(0.966119 0.00402454 -2.16553e-024)
(0.965617 0.00400873 -2.42933e-024)
(0.965113 0.00399282 -2.68853e-024)
(0.964608 0.00397681 2.71296e-024)
(0.964101 0.0039607 -3.19273e-024)
(0.963592 0.00394448 -3.43754e-024)
(0.963082 0.00392816 -3.67737e-024)
(0.96257 0.00391174 -3.91211e-024)
(0.962056 0.00389521 -4.14169e-024)
(0.96154 0.00387857 4.12884e-024)
(0.961023 0.00386182 -4.58508e-024)
(0.960504 0.00384496 -4.79873e-024)
(0.959983 0.00382799 -5.00688e-024)
(0.95946 0.0038109 -5.20947e-024)
(0.958936 0.00379371 -5.40642e-024)
(0.958409 0.00377641 5.35278e-024)
(0.957881 0.00375901 -5.78309e-024)
(0.957351 0.00374151 -5.96268e-024)
(0.956818 0.00372391 -6.13635e-024)
(0.956284 0.0037062 -6.30402e-024)
(0.955748 0.0036884 -6.46563e-024)
(0.95521 0.00367051 6.3687e-024)
(0.95467 0.00365252 -6.77044e-024)
(0.954128 0.00363444 -6.91354e-024)
(0.953585 0.00361627 -7.05034e-024)
(0.953039 0.00359801 -7.18079e-024)
(0.952491 0.00357966 -7.30484e-024)
(0.951941 0.00356123 7.16263e-024)
(0.951389 0.00354271 -7.53352e-024)
(0.950835 0.00352411 -7.63807e-024)
(0.950279 0.00350544 -7.73603e-024)
(0.949721 0.0034867 -7.82737e-024)
(0.949161 0.00346787 -7.91204e-024)
(0.948599 0.00344898 7.72312e-024)
(0.948036 0.00343001 -8.06122e-024)
(0.94747 0.00341097 -8.12566e-024)
(0.946902 0.00339187 -8.18331e-024)
(0.946332 0.00337272 -8.23413e-024)
(0.94576 0.00335351 -8.27809e-024)
(0.945186 0.00333425 -8.31517e-024)
(0.94461 0.00331494 8.07105e-024)
(0.944032 0.00329559 -8.36864e-024)
(0.943452 0.0032762 -8.385e-024)
(0.94287 0.00325677 -8.39441e-024)
(0.942287 0.00323732 -8.39685e-024)
(0.941701 0.00321784 -8.39231e-024)
(0.941113 0.00319835 8.1011e-024)
(0.940523 0.00317884 -8.36229e-024)
(0.939932 0.00315932 -8.3368e-024)
(0.939338 0.00313977 -8.30433e-024)
(0.938743 0.00312019 -8.26487e-024)
(0.938145 0.00310061 -8.21842e-024)
(0.937546 0.00308101 7.88071e-024)
(0.936945 0.00306142 -8.10458e-024)
(0.936342 0.00304184 -8.0372e-024)
(0.935737 0.00302226 -7.96286e-024)
(0.935131 0.0030027 -7.88158e-024)
(0.934522 0.00298315 -7.79338e-024)
(0.933912 0.00296361 7.41036e-024)
(0.9333 0.00294409 -7.59626e-024)
(0.932686 0.00292458 -7.4874e-024)
(0.93207 0.00290509 -7.37165e-024)
(0.931453 0.00288561 -7.24907e-024)
(0.930834 0.00286617 -7.11968e-024)
(0.930214 0.00284675 6.69271e-024)
(0.929591 0.00282738 -6.84058e-024)
(0.928967 0.00280805 -6.69092e-024)
(0.928342 0.00278876 -6.53456e-024)
(0.927714 0.00276954 -6.37153e-024)
(0.927086 0.00275037 -6.20186e-024)
(0.926455 0.00273128 -6.02556e-024)
(0.925823 0.00271227 5.55043e-024)
(0.92519 0.00269335 -5.65321e-024)
(0.924555 0.00267453 -5.4572e-024)
(0.923918 0.00265582 -5.25465e-024)
(0.92328 0.00263725 -5.04557e-024)
(0.922641 0.00261883 -4.82997e-024)
(0.922 0.00260058 4.31811e-024)
(0.921357 0.00258253 -4.37911e-024)
(0.920713 0.00256472 -4.14378e-024)
(0.920068 0.00254721 -3.90174e-024)
(0.919421 0.00253007 -3.65294e-024)
(0.918773 0.00251336 -3.39713e-024)
(0.918123 0.00249721 2.86006e-024)
(0.917471 0.00248169 -2.86376e-024)
(0.916818 0.00246707 -2.58663e-024)
(0.916164 0.00245324 -2.29786e-024)
(0.915503 0.00244119 -2.00893e-024)
(0.914852 0.00242992 -1.68633e-024)
(0.914165 0.00242218 1.22827e-024)
(0.913548 0.00241966 -1.00663e-024)
(0.912779 0.00241824 -8.90638e-025)
(0.912303 0.00243912 -2.07528e-025)
(0.911265 0.00244005 -8.59057e-025)
(1.00003 0.000497685 1.33014e-023)
(1.00025 0.0014667 0)
(1.00065 0.00226721 0)
(1.0011 0.0029064 0)
(1.00153 0.00340605 0)
(1.00193 0.00379572 0)
(1.00229 0.00409864 -3.62272e-023)
(1.00258 0.00433558 0)
(1.00283 0.00452593 0)
(1.00302 0.0046823 -3.89638e-023)
(1.00318 0.00480945 0)
(1.0033 0.00491651 0)
(1.00339 0.00500866 -4.01707e-023)
(1.00345 0.00508229 0)
(1.0035 0.00513605 -4.04748e-023)
(1.00352 0.00518434 -4.05374e-023)
(1.00352 0.00523172 -4.05455e-023)
(1.0035 0.00527395 -4.0517e-023)
(1.00347 0.00530522 -4.04785e-023)
(1.00342 0.00533226 -4.04166e-023)
(1.00336 0.00535883 -4.03186e-023)
(1.0033 0.00537505 -4.01842e-023)
(1.00322 0.0053863 0)
(1.00314 0.00539423 -3.98255e-023)
(1.00305 0.00539968 -3.96088e-023)
(1.00295 0.00540282 -3.937e-023)
(1.00285 0.00540257 -3.913e-023)
(1.00274 0.00539914 -3.8868e-023)
(1.00263 0.00539465 -7.70689e-023)
(1.00251 0.00538955 -3.82666e-023)
(1.00239 0.00538348 0)
(1.00227 0.00537609 -3.76052e-023)
(1.00214 0.00536788 -3.72421e-023)
(1.00201 0.00535917 -3.68605e-023)
(1.00188 0.00535009 -7.28063e-023)
(1.00174 0.00534116 -3.60451e-023)
(1.0016 0.00533231 -3.56152e-023)
(1.00146 0.00532323 -3.51766e-023)
(1.00132 0.00531374 -3.47286e-023)
(1.00117 0.0053037 0)
(1.00102 0.00529319 -6.74693e-023)
(1.00087 0.0052819 -3.33109e-023)
(1.00071 0.0052689 -3.28107e-023)
(1.00056 0.00525492 -3.22967e-023)
(1.0004 0.00524114 -3.1772e-023)
(1.00024 0.00522759 -3.12376e-023)
(1.00008 0.00521435 -6.12722e-023)
(0.999917 0.00520136 0)
(0.999751 0.00518851 -2.95842e-023)
(0.999582 0.00517571 -2.90191e-023)
(0.999412 0.00516286 -2.84479e-023)
(0.999239 0.00514986 -2.78715e-023)
(0.999064 0.00513665 -2.72904e-023)
(0.998887 0.00512315 -2.67048e-023)
(0.998707 0.00510935 -2.61138e-023)
(0.998526 0.00509534 -2.55167e-023)
(0.998342 0.00508121 0)
(0.998157 0.00506705 -2.43078e-023)
(0.997969 0.00505289 -2.36979e-023)
(0.997778 0.00503874 -2.30861e-023)
(0.997586 0.00502455 -2.2473e-023)
(0.997391 0.00501031 -2.1859e-023)
(0.997194 0.004996 -2.12446e-023)
(0.996994 0.00498159 -2.06303e-023)
(0.996791 0.00496706 0)
(0.996586 0.0049524 -1.94034e-023)
(0.996379 0.00493764 -1.87911e-023)
(0.996169 0.00492281 -1.81804e-023)
(0.995957 0.00490792 -1.75718e-023)
(0.995742 0.00489298 -1.69657e-023)
(0.995524 0.00487801 -1.63621e-023)
(0.995303 0.00486304 -1.57613e-023)
(0.99508 0.00484815 -1.51634e-023)
(0.994854 0.00483344 -1.45685e-023)
(0.994626 0.00481899 -1.39767e-023)
(0.994395 0.00480492 -1.3388e-023)
(0.994162 0.00479127 -1.28017e-023)
(0.993926 0.00477792 -1.22171e-023)
(0.993688 0.00476433 -1.16334e-023)
(0.993448 0.00475053 -1.10524e-023)
(0.993205 0.00473709 -1.04755e-023)
(0.992961 0.00472416 0)
(0.992715 0.00471161 -9.32804e-024)
(0.992467 0.00469933 -1.35674e-025)
(0.992217 0.00468724 -1.34798e-025)
(0.991966 0.00467528 -7.61795e-024)
(0.991714 0.00466338 -7.05124e-024)
(0.99146 0.00465152 -6.48672e-024)
(0.991204 0.00463966 -5.92476e-024)
(0.990948 0.00462778 -5.36564e-024)
(0.990689 0.00461587 4.67396e-024)
(0.990429 0.00460394 -4.25716e-024)
(0.990167 0.00459198 -3.70839e-024)
(0.989904 0.00457999 -3.16367e-024)
(0.98964 0.00456797 -2.62328e-024)
(0.989373 0.00455592 -2.08744e-024)
(0.989105 0.00454384 -1.39502e-025)
(0.988836 0.00453172 -1.03006e-024)
(0.988565 0.00451959 -5.08736e-025)
(0.988293 0.00450746 8.63778e-027)
(0.988019 0.00449525 5.209e-025)
(0.987743 0.00448287 1.02569e-024)
(0.987466 0.00447031 -1.41954e-025)
(0.987186 0.00445763 2.0143e-024)
(0.986905 0.00444483 2.49831e-024)
(0.986622 0.00443192 2.97522e-024)
(0.986338 0.00441891 3.44485e-024)
(0.986051 0.00440579 3.90706e-024)
(0.985763 0.00439258 4.36166e-024)
(0.985473 0.00437927 -1.47777e-025)
(0.985181 0.00436586 5.24738e-024)
(0.984888 0.00435236 5.6781e-024)
(0.984593 0.00433878 6.10049e-024)
(0.984296 0.0043251 6.51437e-024)
(0.983997 0.00431134 6.91957e-024)
(0.983696 0.00429749 -1.53218e-025)
(0.983393 0.00428357 7.70331e-024)
(0.983088 0.00426955 8.08148e-024)
(0.982782 0.00425545 8.45031e-024)
(0.982473 0.00424127 8.80964e-024)
(0.982163 0.004227 9.15932e-024)
(0.981851 0.00421264 -1.58768e-025)
(0.981536 0.0041982 9.82922e-024)
(0.98122 0.00418368 1.01491e-023)
(0.980902 0.00416908 1.04588e-023)
(0.980582 0.0041544 1.07581e-023)
(0.980259 0.00413964 1.1047e-023)
(0.979935 0.00412481 -1.63977e-025)
(0.979609 0.00410991 1.15926e-023)
(0.97928 0.00409494 1.18492e-023)
(0.97895 0.00407989 1.20949e-023)
(0.978618 0.00406478 1.23294e-023)
(0.978283 0.0040496 1.25527e-023)
(0.977946 0.00403435 -1.68869e-025)
(0.977607 0.00401904 1.29653e-023)
(0.977266 0.00400366 1.31543e-023)
(0.976923 0.00398822 1.33318e-023)
(0.976578 0.00397271 1.34975e-023)
(0.976231 0.00395713 1.36515e-023)
(0.975881 0.00394149 -1.73435e-025)
(0.97553 0.00392579 1.39238e-023)
(0.975176 0.00391002 1.4042e-023)
(0.97482 0.0038942 1.41481e-023)
(0.974462 0.00387833 1.42421e-023)
(0.974102 0.00386242 1.4324e-023)
(0.97374 0.00384646 1.43937e-023)
(0.973375 0.00383047 -1.77978e-025)
(0.973008 0.00381444 1.44962e-023)
(0.972639 0.00379839 1.45289e-023)
(0.972268 0.00378232 1.45492e-023)
(0.971895 0.00376622 1.45571e-023)
(0.971519 0.00375009 1.45525e-023)
(0.971142 0.00373394 -1.80947e-025)
(0.970762 0.00371778 1.45058e-023)
(0.97038 0.00370159 1.44636e-023)
(0.969995 0.00368538 1.44089e-023)
(0.969609 0.00366915 1.43417e-023)
(0.96922 0.00365292 1.42619e-023)
(0.968829 0.00363668 -1.83224e-025)
(0.968436 0.00362043 1.40646e-023)
(0.968041 0.00360419 1.39472e-023)
(0.967643 0.00358796 1.38172e-023)
(0.967244 0.00357172 1.36747e-023)
(0.966842 0.0035555 1.35197e-023)
(0.966438 0.00353927 -1.84678e-025)
(0.966032 0.00352305 1.31722e-023)
(0.965623 0.00350684 1.29798e-023)
(0.965213 0.00349064 1.2775e-023)
(0.9648 0.00347446 1.25579e-023)
(0.964385 0.00345831 1.23284e-023)
(0.963968 0.00344218 -1.85217e-025)
(0.963549 0.00342608 1.18327e-023)
(0.963128 0.00341001 1.15666e-023)
(0.962705 0.00339398 1.12884e-023)
(0.962279 0.00337799 1.09981e-023)
(0.961851 0.00336206 1.06958e-023)
(0.961422 0.00334619 1.03815e-023)
(0.96099 0.00333039 -1.84093e-025)
(0.960556 0.00331467 9.71741e-024)
(0.96012 0.00329904 9.36769e-024)
(0.959682 0.00328351 9.00629e-024)
(0.959242 0.0032681 8.63327e-024)
(0.958799 0.00325283 8.24869e-024)
(0.958355 0.00323773 -1.79313e-025)
(0.957909 0.00322284 7.44516e-024)
(0.95746 0.0032082 7.02634e-024)
(0.95701 0.00319387 6.59623e-024)
(0.956557 0.00317991 6.15495e-024)
(0.956102 0.00316642 5.7024e-024)
(0.955645 0.0031535 -1.60911e-025)
(0.955187 0.00314132 4.76376e-024)
(0.954725 0.00313003 4.28008e-024)
(0.954263 0.00311999 3.77784e-024)
(0.953794 0.00311125 3.28611e-024)
(0.953333 0.00310587 2.73812e-024)
(0.952845 0.00310056 -8.54926e-026)
(0.952408 0.00310353 1.65253e-024)
(0.951864 0.00310115 1.44857e-024)
(0.951524 0.00311791 5.0397e-025)
(0.950788 0.00310978 1.25526e-024)
(1.00001 0.00038667 -1.23407e-023)
(1.00016 0.00118377 0)
(1.00044 0.00190001 0)
(1.00078 0.00251091 0)
(1.00114 0.00301883 0)
(1.00149 0.00343601 0)
(1.00181 0.00377624 2.55999e-023)
(1.0021 0.00405349 0)
(1.00235 0.00428333 -5.24248e-023)
(1.00257 0.00447693 2.76511e-023)
(1.00276 0.00464075 -5.49062e-023)
(1.00292 0.00478139 -5.587e-023)
(1.00305 0.00490191 2.8891e-023)
(1.00317 0.00500402 0)
(1.00326 0.00508815 2.9407e-023)
(1.00333 0.005159 2.96042e-023)
(1.00338 0.00522297 2.97615e-023)
(1.00342 0.00528229 2.98907e-023)
(1.00345 0.00532372 3.00101e-023)
(1.00347 0.00534992 3.01095e-023)
(1.00348 0.00537596 3.01785e-023)
(1.00349 0.00539789 3.02165e-023)
(1.00348 0.00541581 0)
(1.00347 0.00542968 3.02119e-023)
(1.00346 0.00544116 3.01745e-023)
(1.00344 0.00545134 3.01156e-023)
(1.00341 0.00545591 3.00512e-023)
(1.00338 0.00546012 2.99653e-023)
(1.00335 0.00546459 2.9851e-023)
(1.00332 0.00546533 2.97194e-023)
(1.00328 0.0054637 0)
(1.00325 0.00545927 2.94084e-023)
(1.0032 0.00545373 2.92209e-023)
(1.00316 0.00544734 2.90143e-023)
(1.00312 0.00543968 2.87905e-023)
(1.00307 0.0054319 2.85469e-023)
(1.00302 0.00542459 2.82892e-023)
(1.00297 0.00541751 2.80204e-023)
(1.00292 0.00541001 2.77401e-023)
(1.00286 0.00540078 0)
(1.0028 0.00539024 2.71398e-023)
(1.00274 0.00537966 2.68168e-023)
(1.00269 0.00536887 2.64793e-023)
(1.00263 0.00535795 2.61271e-023)
(1.00256 0.0053472 2.57626e-023)
(1.0025 0.00533683 2.53869e-023)
(1.00243 0.00532665 2.50002e-023)
(1.00237 0.00531635 0)
(1.0023 0.00530585 2.4199e-023)
(1.00223 0.00529522 2.37852e-023)
(1.00215 0.00528454 2.33635e-023)