# vtk DataFile Version 2.0
track0
ASCII
DATASET POLYDATA
POINTS 11930 float
-0.0205 0.001 1e-005
-0.020385 0.00100536 1.50247e-005
-0.0202701 0.00101047 1.96648e-005
-0.0201551 0.00101535 2.3973e-005
-0.02004 0.00102 2.79447e-005
-0.0198622 0.00102682 3.35555e-005
-0.0196932 0.00103275 3.8101e-005
-0.0195242 0.00103808 4.16153e-005
-0.0193551 0.0010428 4.41074e-005
-0.0191859 0.00104691 4.55865e-005
-0.0190172 0.0010504 4.6061e-005
-0.0187132 0.0010559 4.6061e-005
-0.0184093 0.00106076 4.6061e-005
-0.0181054 0.00106509 4.6061e-005
-0.0178014 0.00106889 4.6061e-005
-0.0174976 0.00107217 4.6061e-005
-0.0172058 0.00107502 4.6061e-005
-0.016914 0.0010778 4.6061e-005
-0.0166222 0.00108051 4.6061e-005
-0.0163305 0.00108316 4.6061e-005
-0.0160387 0.00108575 4.6061e-005
-0.0157586 0.00108813 4.6061e-005
-0.0154784 0.00109046 4.6061e-005
-0.0151983 0.0010927 4.6061e-005
-0.0149182 0.00109487 4.6061e-005
-0.0146381 0.00109696 4.6061e-005
-0.0143692 0.00109884 4.6061e-005
-0.0141002 0.00110063 4.6061e-005
-0.0138313 0.00110235 4.6061e-005
-0.0135624 0.001104 4.6061e-005
-0.0132934 0.00110557 4.6061e-005
-0.0130353 0.00110701 4.6061e-005
-0.0127771 0.00110839 4.6061e-005
-0.0125189 0.00110974 4.6061e-005
-0.0122607 0.00111106 4.6061e-005
-0.0120025 0.00111233 4.6061e-005
-0.0117547 0.00111352 4.6061e-005
-0.0115068 0.00111469 4.6061e-005
-0.0112589 0.00111583 4.6061e-005
-0.0110111 0.00111696 4.6061e-005
-0.0107632 0.00111808 4.6061e-005
-0.0105252 0.00111912 4.6061e-005
-0.0102873 0.00112015 4.6061e-005
-0.0100493 0.00112117 4.6061e-005
-0.00981133 0.00112218 4.6061e-005
-0.00957337 0.00112317 4.6061e-005
-0.00934491 0.00112411 4.6061e-005
-0.00911645 0.00112504 4.6061e-005
-0.00888799 0.00112596 4.6061e-005
-0.00865954 0.00112687 4.6061e-005
-0.00843108 0.00112777 4.6061e-005
-0.00821175 0.00112862 4.6061e-005
-0.00799242 0.00112947 4.6061e-005
-0.00777309 0.00113031 4.6061e-005
-0.00755376 0.00113114 4.6061e-005
-0.00733443 0.00113197 4.6061e-005
-0.00712387 0.00113276 4.6061e-005
-0.0069133 0.00113354 4.6061e-005
-0.00670273 0.00113431 4.6061e-005
-0.00649216 0.00113509 4.6061e-005
-0.0062816 0.00113586 4.6061e-005
-0.00607944 0.0011366 4.6061e-005
-0.00587729 0.00113733 4.6061e-005
-0.00567514 0.00113806 4.6061e-005
-0.00547298 0.00113879 4.6061e-005
-0.00527083 0.00113951 4.6061e-005
-0.00507675 0.00114021 4.6061e-005
-0.00488267 0.0011409 4.6061e-005
-0.0046886 0.00114159 4.6061e-005
-0.00449452 0.00114228 4.6061e-005
-0.00430044 0.00114297 4.6061e-005
-0.00411412 0.00114364 4.6061e-005
-0.0039278 0.0011443 4.6061e-005
-0.00374147 0.00114495 4.6061e-005
-0.00355515 0.00114561 4.6061e-005
-0.00336883 0.00114627 4.6061e-005
-0.00318995 0.00114691 4.6061e-005
-0.00301107 0.00114755 4.6061e-005
-0.00283219 0.00114818 4.6061e-005
-0.00265331 0.00114881 4.6061e-005
-0.00247443 0.00114945 4.6061e-005
-0.0023027 0.00115007 4.6061e-005
-0.00213097 0.00115068 4.6061e-005
-0.00195924 0.00115129 4.6061e-005
-0.0017875 0.00115191 4.6061e-005
-0.00161577 0.00115252 4.6061e-005
-0.0014509 0.00115313 4.6061e-005
-0.00128603 0.00115372 4.6061e-005
-0.00112116 0.00115432 4.6061e-005
-0.000956289 0.00115492 4.6061e-005
-0.000791418 0.00115553 4.6061e-005
-0.000633135 0.00115612 4.6061e-005
-0.000474851 0.00115672 4.6061e-005
-0.000316567 0.00115731 4.6061e-005
-0.000158284 0.00115791 4.6061e-005
0 0.00115851 4.6061e-005
0.000105677 0.00115892 4.6061e-005
0.000211355 0.00115933 4.6061e-005
0.000317032 0.00115974 4.6061e-005
0.00042271 0.00116015 4.6061e-005
0.000528387 0.00116057 4.6061e-005
0.000634886 0.001161 4.6061e-005
0.000741385 0.00116142 4.6061e-005
0.000847885 0.00116185 4.6061e-005
0.000954384 0.00116228 4.6061e-005
0.00106088 0.00116271 4.6061e-005
0.00116821 0.00116316 4.6061e-005
0.00127554 0.00116361 4.6061e-005
0.00138286 0.00116406 4.6061e-005
0.00149019 0.00116451 4.6061e-005
0.00159752 0.00116497 4.6061e-005
0.00170568 0.00116544 4.6061e-005
0.00181384 0.00116591 4.6061e-005
0.001922 0.00116638 4.6061e-005
0.00203016 0.00116685 4.6061e-005
0.00213833 0.00116732 4.6061e-005
0.00224733 0.0011678 4.6061e-005
0.00235633 0.00116829 4.6061e-005
0.00246533 0.00116878 4.6061e-005
0.00257434 0.00116927 4.6061e-005
0.00268334 0.00116975 4.6061e-005
0.00279319 0.00117025 4.6061e-005
0.00290304 0.00117075 4.6061e-005
0.00301289 0.00117125 4.6061e-005
0.00312274 0.00117175 4.6061e-005
0.00323259 0.00117226 4.6061e-005
0.00334329 0.00117276 4.6061e-005
0.003454 0.00117327 4.6061e-005
0.0035647 0.00117379 4.6061e-005
0.0036754 0.00117431 4.6061e-005
0.00378611 0.00117482 4.6061e-005
0.00389767 0.00117533 4.6061e-005
0.00400924 0.00117585 4.6061e-005
0.0041208 0.00117638 4.6061e-005
0.00423237 0.00117691 4.6061e-005
0.00434393 0.00117744 4.6061e-005
0.00445636 0.00117795 4.6061e-005
0.00456879 0.00117848 4.6061e-005
0.00468123 0.00117902 4.6061e-005
0.00479366 0.00117956 4.6061e-005
0.00490609 0.00118009 4.6061e-005
0.0050194 0.0011806 4.6061e-005
0.0051327 0.00118114 4.6061e-005
0.00524601 0.00118168 4.6061e-005
0.00535931 0.00118223 4.6061e-005
0.00547262 0.00118276 4.6061e-005
0.00558681 0.00118328 4.6061e-005
0.005701 0.00118382 4.6061e-005
0.00581518 0.00118437 4.6061e-005
0.00592937 0.00118491 4.6061e-005
0.00604356 0.00118545 4.6061e-005
0.00615863 0.00118598 4.6061e-005
0.00627371 0.00118652 4.6061e-005
0.00638878 0.00118706 4.6061e-005
0.00650386 0.00118761 4.6061e-005
0.00661893 0.00118815 4.6061e-005
0.0067349 0.00118868 4.6061e-005
0.00685087 0.00118922 4.6061e-005
0.00696684 0.00118976 4.6061e-005
0.00708281 0.00119031 4.6061e-005
0.00719878 0.00119085 4.6061e-005
0.00731565 0.00119137 4.6061e-005
0.00743252 0.00119191 4.6061e-005
0.00754939 0.00119245 4.6061e-005
0.00766626 0.00119299 4.6061e-005
0.00778313 0.00119352 4.6061e-005
0.00790091 0.00119405 4.6061e-005
0.00801869 0.00119458 4.6061e-005
0.00813647 0.00119512 4.6061e-005
0.00825425 0.00119565 4.6061e-005
0.00837203 0.00119618 4.6061e-005
0.00849073 0.0011967 4.6061e-005
0.00860942 0.00119723 4.6061e-005
0.00872812 0.00119776 4.6061e-005
0.00884682 0.00119828 4.6061e-005
0.00896551 0.00119881 4.6061e-005
0.00908513 0.00119932 4.6061e-005
0.00920475 0.00119985 4.6061e-005
0.00932437 0.00120037 4.6061e-005
0.00944398 0.00120089 4.6061e-005
0.0095636 0.0012014 4.6061e-005
0.00968415 0.00120192 4.6061e-005
0.0098047 0.00120243 4.6061e-005
0.00992525 0.00120295 4.6061e-005
0.0100458 0.00120346 4.6061e-005
0.0101663 0.00120396 4.6061e-005
0.0102878 0.00120447 4.6061e-005
0.0104093 0.00120498 4.6061e-005
0.0105308 0.00120548 4.6061e-005
0.0106523 0.00120598 4.6061e-005
0.0107738 0.00120648 4.6061e-005
0.0108962 0.00120697 4.6061e-005
0.0110186 0.00120747 4.6061e-005
0.0111411 0.00120796 4.6061e-005
0.0112635 0.00120845 4.6061e-005
0.0113859 0.00120894 4.6061e-005
0.0115093 0.00120942 4.6061e-005
0.0116327 0.0012099 4.6061e-005
0.0117561 0.00121039 4.6061e-005
0.0118795 0.00121087 4.6061e-005
0.0120028 0.00121135 4.6061e-005
0.0121272 0.00121182 4.6061e-005
0.0122515 0.0012123 4.6061e-005
0.0123759 0.00121278 4.6061e-005
0.0125002 0.00121325 4.6061e-005
0.0126245 0.00121372 4.6061e-005
0.0127498 0.00121419 4.6061e-005
0.0128752 0.00121466 4.6061e-005
0.0130005 0.00121512 4.6061e-005
0.0131258 0.00121558 4.6061e-005
0.0132511 0.00121603 4.6061e-005
0.0133774 0.00121648 4.6061e-005
0.0135036 0.00121693 4.6061e-005
0.0136299 0.00121737 4.6061e-005
0.0137562 0.00121781 4.6061e-005
0.0138825 0.00121825 4.6061e-005
0.0140098 0.00121867 4.6061e-005
0.014137 0.0012191 4.6061e-005
0.0142643 0.00121953 4.6061e-005
0.0143915 0.00121995 4.6061e-005
0.0145188 0.00122037 4.6061e-005
0.0146471 0.00122077 4.6061e-005
0.0147753 0.00122119 4.6061e-005
0.0149036 0.00122159 4.6061e-005
0.0150318 0.001222 4.6061e-005
0.0151601 0.00122239 4.6061e-005
0.0152893 0.00122278 4.6061e-005
0.0154186 0.00122317 4.6061e-005
0.0155478 0.00122356 4.6061e-005
0.0156771 0.00122394 4.6061e-005
0.0158063 0.00122432 4.6061e-005
0.0159366 0.00122468 4.6061e-005
0.0160668 0.00122505 4.6061e-005
0.0161971 0.00122541 4.6061e-005
0.0163274 0.00122577 4.6061e-005
0.0164576 0.00122612 4.6061e-005
0.0165889 0.00122647 4.6061e-005
0.0167201 0.00122681 4.6061e-005
0.0168514 0.00122714 4.6061e-005
0.0169827 0.00122747 4.6061e-005
0.0171139 0.0012278 4.6061e-005
0.0172229 0.00122806 4.6061e-005
0.0173318 0.00122832 4.6061e-005
0.0174407 0.00122857 4.6061e-005
0.0175496 0.00122882 4.6061e-005
0.0176546 0.00122906 4.6061e-005
0.0176787 0.00122911 4.6061e-005
0.0177029 0.00122917 4.6061e-005
0.0177271 0.00122922 4.6061e-005
0.0177512 0.00122927 4.6061e-005
0.0177754 0.00122933 4.6061e-005
0.0179087 0.00122961 4.6061e-005
0.018042 0.0012299 4.6061e-005
0.0181753 0.00123017 4.6061e-005
0.0183087 0.00123044 4.6061e-005
0.018442 0.0012307 4.6061e-005
0.0185763 0.00123095 4.6061e-005
0.0187107 0.0012312 4.6061e-005
0.018845 0.00123143 4.6061e-005
0.0189794 0.00123167 4.6061e-005
0.0191137 0.00123189 4.6061e-005
0.0192491 0.0012321 4.6061e-005
0.0193845 0.00123231 4.6061e-005
0.0195199 0.00123251 4.6061e-005
0.0196553 0.0012327 4.6061e-005
0.0197907 0.00123288 4.6061e-005
0.0199272 0.00123305 4.6061e-005
0.0200636 0.00123322 4.6061e-005
0.0202001 0.00123338 4.6061e-005
0.0203365 0.00123352 4.6061e-005
0.020473 0.00123366 4.6061e-005
0.0206105 0.00123379 4.6061e-005
0.020748 0.00123391 4.6061e-005
0.0208855 0.00123402 4.6061e-005
0.021023 0.00123412 4.6061e-005
0.0211606 0.00123422 4.6061e-005
0.0212991 0.0012343 4.6061e-005
0.0214377 0.00123437 4.6061e-005
0.0215763 0.00123443 4.6061e-005
0.0217149 0.00123448 4.6061e-005
0.0218535 0.00123452 4.6061e-005
0.0219931 0.00123456 4.6061e-005
0.0221328 0.00123458 4.6061e-005
0.0222724 0.00123459 4.6061e-005
0.0224121 0.00123459 4.6061e-005
0.0225517 0.00123458 4.6061e-005
0.0226925 0.00123456 4.6061e-005
0.0228332 0.00123453 4.6061e-005
0.022974 0.00123448 4.6061e-005
0.0231147 0.00123443 4.6061e-005
0.0232555 0.00123436 4.6061e-005
0.0233973 0.00123429 4.6061e-005
0.0235391 0.0012342 4.6061e-005
0.023681 0.0012341 4.6061e-005
0.0238228 0.00123399 4.6061e-005
[...]
POINT_DATA 11930
 FIELD attributes 2
p 1 11930 float
-1547.71 -1535.05 -1521.18 -1507.45 -1493.87 -1473.13 -1458.39 -1443.58 -1428.69 -1413.72 -1392.84 -1344.54 -1296.39 -1248.31 -1200.29 -1157.86 -1126.34 -1101.04 -1075.76 -1050.48 -1033.84 -1022.19 -1012.77 -1003.36 -993.948 -986.342 -979.542 -971.607 -963.672 -955.737 -946.691 -938.211 -929.599 -920.984 -912.39 -904.066 -896.16 -889.057 -882.049 -875.198 -869.261 -863.563 -858.44 -853.442 -848.6 -844.34 -840.23 -836.343 -832.527 -828.803 -825.322 -821.953 -818.71 -815.522 -812.408 -809.45 -806.58 -803.828 -801.141 -798.537 -796.072 -793.673 -791.378 -789.151 -787.009 -784.98 -783 -781.095 -779.25 -777.478 -775.788 -774.126 -772.519 -770.967 -769.479 -768.053 -766.633 -765.254 -763.923 -762.652 -761.431 -760.192 -758.991 -757.841 -756.757 -755.72 -754.636 -753.577 -752.555 -751.602 -750.69 -749.706 -748.766 -747.908 -747.166 -746.482 -745.738 -745.049 -744.467 -744.021 -743.652 -743.127 -742.639 -742.205 -741.865 -741.593 -741.155 -740.818 -740.599 -740.5 -740.511 -740.35 -740.27 -740.267 -740.328 -740.463 -740.568 -740.658 -740.739 -740.808 -740.863 -741.14 -741.314 -741.426 -741.474 -741.409 -741.806 -742.032 -742.176 -742.229 -742.077 -742.552 -742.803 -742.97 -743.042 -742.834 -743.333 -743.564 -743.718 -743.792 -743.539 -743.994 -744.169 -744.286 -744.347 -744.075 -744.455 -744.582 -744.676 -744.739 -744.503 -744.807 -744.908 -744.994 -745.071 -744.901 -745.13 -745.207 -745.281 -745.356 -745.252 -745.403 -745.458 -745.514 -745.569 -745.527 -745.614 -745.66 -745.706 -745.753 -745.764 -745.817 -745.866 -745.915 -745.964 -746.017 -746.057 -746.111 -746.165 -746.219 -746.298 -746.337 -746.395 -746.453 -746.511 -746.603 -746.652 -746.715 -746.779 -746.843 -746.938 -747.005 -747.079 -747.152 -747.225 -747.319 -747.415 -747.505 -747.595 -747.686 -747.785 -747.918 -748.033 -748.149 -748.264 -748.374 -748.548 -748.686 -748.825 -748.963 -749.077 -749.277 -749.427 -749.578 -749.728 -749.84 -750.049 -750.207 -750.364 -750.522 -750.638 -750.852 -751.018 -751.184 -751.349 -751.477 -751.692 -751.865 -752.039 -752.212 -752.355 -752.571 -752.756 -752.941 -753.126 -753.29 -753.509 -753.709 -753.908 -754.108 -754.299 -754.482 -754.658 -754.833 -755.008 -755.178 -755.216 -755.255 -755.294 -755.333 -755.378 -755.597 -755.821 -756.045 -756.27 -756.534 -756.734 -756.97 -757.205 -757.441 -757.747 -757.933 -758.18 -758.427 -758.673 -759.016 -759.194 -759.451 -759.709 -759.967 -760.338 -760.515 -760.784 -761.053 -761.322 -761.714 -761.898 -762.178 -762.458 -762.739 -763.143 -763.342 -763.633 -763.924 -764.215 -764.623 -764.844 -765.146 -765.448 -765.75 -766.152 -766.402 -766.714 -767.026 -767.339 -767.728 -768.012 -768.334 -768.656 -768.979 -769.35 -769.671 -770.003 -770.334 -770.666 -771.014 -771.375 -771.716 -772.057 -772.397 -772.719 -773.117 -773.469 -773.819 -774.163 -774.463 -774.89 -775.259 -775.617 -775.959 -776.243 -776.694 -777.082 -777.447 -777.784 -778.058 -778.526 -778.934 -779.307 -779.637 -779.907 -780.386 -780.816 -781.197 -781.521 -781.794 -782.284 -782.735 -783.125 -783.441 -783.717 -784.216 -784.686 -785.082 -785.389 -785.667 -786.168 -786.654 -787.053 -787.349 -787.63 -788.128 -788.622 -789.022 -789.311 -789.599 -790.088 -790.578 -790.974 -791.272 -791.571 -792.048 -792.526 -792.922 -793.232 -793.542 -794.006 -794.471 -794.865 -795.187 -795.51 -795.959 -796.408 -796.8 -797.134 -797.468 -797.902 -798.335 -798.724 -799.069 -799.413 -799.831 -800.248 -800.633 -800.986 -801.339 -801.741 -802.143 -802.523 -802.881 -803.24 -803.626 -804.012 -804.386 -804.748 -805.11 -805.48 -805.851 -806.218 -806.581 -806.943 -807.298 -807.655 -808.014 -808.373 -808.733 -809.074 -809.418 -809.767 -810.119 -810.474 -810.8 -811.133 -811.472 -811.813 -812.16 -812.472 -812.794 -813.12 -813.449 -813.785 -814.082 -814.393 -814.705 -815.018 -815.341 -815.622 -815.919 -816.215 -816.512 -816.818 -817.082 -817.36 -817.638 -817.917 -818.205 -818.451 -818.71 -818.969 -819.229 -819.497 -819.725 -819.964 -820.203 -820.442 -820.687 -820.897 -821.114 -821.331 -821.548 -821.769 -821.958 -822.152 -822.345 -822.539 -822.733 -822.736 -822.74 -822.744 -822.747 -822.751 -822.915 -823.079 -823.244 -823.408 -823.571 -823.711 -823.848 -823.986 -824.124 -824.257 -824.368 -824.472 -824.577 -824.681 -824.779 -824.859 -824.928 -824.998 -825.067 -825.126 -825.174 -825.206 -825.237 -825.269 -825.286 -825.299 -825.29 -825.281 -825.27 -825.243 -825.214 -825.167 -825.115 -825.056 -824.983 -824.91 -824.823 -824.724 -824.614 -824.493 -824.373 -824.244 -824.097 -823.931 -823.76 -823.59 -823.417 -823.218 -822.994 -822.769 -822.546 -822.323 -822.07 -821.789 -821.508 -821.23 -820.952 -820.643 -820.304 -819.965 -819.628 -819.292 -818.925 -818.525 -818.126 -817.729 -817.332 -816.905 -816.442 -815.979 -815.519 -815.055 -814.562 -814.041 -813.514 -812.99 -812.453 -811.895 -811.317 -810.723 -810.132 -809.52 -808.894 -808.26 -807.599 -806.94 -806.25 -805.555 -804.86 -804.131 -803.397 -802.631 -801.865 -801.1 -800.31 -799.494 -798.655 -797.816 -796.978 -796.126 -795.225 -794.311 -793.398 -792.485 -791.571 -791.43 -791.287 -791.145 -791.002 -790.861 -790.019 -789.176 -788.334 -787.493 -786.638 -785.591 -784.53 -783.47 -782.411 -781.323 -780.213 -779.075 -777.938 -776.801 -775.618 -774.447 -773.23 -772.014 -770.789 -769.52 -768.269 -766.989 -765.694 -764.371 -763.022 -761.691 -760.348 -758.972 -757.55 -756.119 -754.706 -753.293 -751.831 -750.318 -748.804 -747.309 -745.813 -744.267 -742.67 -741.073 -739.493 -737.915 -736.283 -734.601 -732.919 -731.254 -729.577 -727.855 -726.103 -724.335 -722.585 -720.8 -718.99 -717.171 -715.317 -713.48 -711.584 -709.686 -707.789 -705.857 -703.91 -701.923 -699.937 -697.951 -695.95 -694.592 -693.216 -691.842 -690.467 -689.149 -688.44 -687.732 -687.023 -686.314 -685.597 -683.449 -681.295 -679.14 -676.987 -674.798 -672.581 -670.336 -668.09 -665.843 -663.538 -661.242 -658.916 -656.579 -654.212 -651.814 -649.426 -647.032 -644.604 -642.115 -639.624 -637.144 -634.664 -632.133 -629.549 -626.965 -624.392 -621.82 -619.188 -616.512 -613.835 -611.169 -608.476 -605.746 -603.003 -600.232 -597.474 -594.654 -591.831 -589.008 -586.157 -583.275 -580.359 -577.443 -574.527 -571.665 -571.654 -571.643 -571.633 -571.622 -571.611 -568.609 -565.608 -562.606 -559.606 -556.58 -553.503 -550.41 -547.318 -544.223 -541.084 -537.924 -534.75 -531.568 -528.357 -525.128 -521.878 -518.629 -515.352 -512.035 -508.717 -505.379 -502.041 -498.666 -495.262 -491.857 -488.432 -484.993 -481.525 -478.048 -474.559 -471.049 -467.5 -463.948 -460.396 -456.832 -454.082 -451.312 -448.543 -445.774 -443.123 -442.236 -441.35 -440.463 -439.577 -438.684 -434.98 -431.273 -427.567 -423.862 -420.121 -416.356 -412.573 -408.79 -404.991 -401.164 -397.324 -393.482 -389.625 -385.727 -381.828 -377.915 -374.004 -370.061 -366.094 -362.127 -358.145 -354.152 -350.133 -346.11 -342.077 -338.029 -333.946 -329.864 -325.782 -321.693 -319.828 -317.952 -316.076 -314.201 -312.369 -310.095 -307.821 -305.547 -303.274 -300.986 -296.795 -292.598 -288.402 -284.205 -279.973 -275.731 -271.486 -267.236 -262.962 -258.679 -254.385 -250.093 -245.782 -241.453 -237.122 -232.78 -228.434 -224.066 -219.696 -215.321 -210.935 -206.526 -202.116 -197.707 -193.294 -191.565 -189.829 -188.094 -186.358 -184.655 -181.936 -179.218 -176.499 -173.781 -171.051 -166.569 -162.087 -157.605 -153.118 -148.612 -144.099 -139.586 -135.073 -130.54 -126.005 -121.462 -116.92 -112.364 -107.804 -103.241 -98.6709 -94.0928 -89.5091 -84.9258 -80.3429 -76.8236 -73.2989 -69.7746 -66.2506 -62.8453 -61.7442 -60.6433 -59.5423 -58.4414 -57.3379 -52.7181 -48.0995 -43.4815 -38.8639 -34.2318 -29.5951 -24.9609 -20.3295 -15.69 -11.0467 -6.39808 -1.75 2.90064 7.54823 12.198 16.8538 21.5111 26.1699 30.8281 35.4813 38.7074 41.9341 45.1606 48.3869 51.5223 52.9762 54.43 55.8838 57.3376 58.7926 63.4617 68.1268 72.7915 77.4558 82.1232 86.7939 91.4617 96.1215 100.779 105.44 110.103 114.767 119.426 124.075 128.725 133.379 138.027 142.674 147.32 151.964 153.15 154.333 155.517 156.7 157.872 161.331 164.789 168.247 171.705 175.159 179.797 184.423 189.047 193.665 198.282 202.9 207.518 212.123 216.715 221.31 225.906 230.494 235.076 239.657 244.229 246.612 248.987 251.362 253.737 256.07 258.265 260.46 262.654 264.849 267.038 271.589 276.129 280.668 285.2 289.726 294.249 298.772 303.279 307.769 312.262 316.752 321.234 325.705 330.176 334.635 336.985 339.325 341.664 344.004 346.305 348.415 350.526 352.636 354.745 356.847 361.272 365.684 370.095 374.496 378.89 383.277 387.664 392.032 396.382 400.734 405.079 409.409 413.731 418.052 422.367 423.682 424.991 426.299 427.607 428.904 431.888 434.872 437.855 440.838 443.807 448.071 452.325 456.573 460.802 465.029 469.245 473.461 477.654 481.833 486.011 489.691 493.351 497.008 500.665 504.248 504.748 505.248 505.749 506.249 506.746 510.859 514.968 519.076 523.179 527.264 531.334 535.403 539.452 543.48 547.511 551.525 555.524 559.511 563.497 567.476 568.524 569.565 570.605 571.645 572.68 575.587 578.493 581.4 584.302 587.188 591.097 594.999 598.888 602.749 606.611 610.457 614.293 618.107 621.92 625.716 627.329 628.93 630.529 632.127 633.719 635.884 638.049 640.214 642.374 644.521 648.245 651.956 655.66 659.331 663 666.651 670.295 673.905 677.511 681.096 682.759 684.411 686.06 687.708 689.365 691.265 693.166 695.067 696.963 698.848 702.364 705.842 709.303 712.682 716.051 719.399 722.771 726.262 729.765 733.316 735.023 736.409 737.694 738.979 740.293 741.891 743.488 745.085 746.583 747.748 749.977 752.869 755.969 760.504 765.283 769.945 774.06 776.507 778.959 781.013 781.195 781.419 781.706 781.993 782.281 784.078 785.876 787.674 789.957 792.555 795.512 798.462 801.272 804.082 806.825 807.399 807.962 808.503 809.044 809.596 811.773 813.948 816.123 818.227 820.287 822.901 825.514 828.032 830.53 832.977 833.619 834.246 834.845 835.445 836.065 837.869 839.672 841.472 843.204 844.891 847.168 849.441 851.556 853.581 855.56 856.254 856.917 857.528 858.139 858.788 860.018 861.245 862.469 863.613 864.694 866.331 867.961 869.391 870.613 871.825 872.496 873.079 873.557 874.033 874.572 874.989 875.405 875.819 876.177 876.471 877.108 877.625 878.04 878.105 878.16 878.08 877.801 877.284 876.76 876.135 876.004 875.828 875.627 875.426 875.217 874.284 873.34 872.384 871.296 869.928 868.113 866.285 864.016 861.335 858.643 855.692 852.354 848.755 845.149 841.359 840.4 839.316 838.211 837.105 835.919 832.351 828.773 825.184 821.546 817.472 811.803 805.826 799.586 792.608 785.52 777.961 770.39 762.248 753.617 744.931 735.721 725.348 714.671 703.992 692.803 688.009 683.207 678.402 673.597 668.127 660.749 653.367 645.98 638.59 631.158 617.3 601.589 585.846 569.167 549.832 529.525 509.829 492.265 478.267 464.353 449.691 435.031 407.567 367.771 327.941 286.317 253.335 236.926 228.372 231.286 234.009 177.592 120.206 62.5256 0