# vtk DataFile Version 2.0
track0
ASCII
DATASET POLYDATA
POINTS 11980 float
-0.0205 0.001 1e-005
-0.0202034 0.00100022 1e-005
-0.0199069 0.00100067 1e-005
-0.0196103 0.00100132 1e-005
-0.0193137 0.00100219 1e-005
-0.0190172 0.00100326 1e-005
-0.0187132 0.00100466 1e-005
-0.0184093 0.00100588 1e-005
-0.0181054 0.0010071 1e-005
-0.0178015 0.00100832 1e-005
-0.0174976 0.00100953 1e-005
-0.0172058 0.00101083 1e-005
-0.016914 0.00101193 1e-005
-0.0166222 0.00101303 1e-005
-0.0163305 0.00101413 1e-005
-0.0160387 0.00101522 1e-005
-0.0157586 0.00101636 1e-005
-0.0154784 0.00101744 1e-005
-0.0151983 0.00101856 1e-005
-0.0149182 0.00101971 1e-005
-0.0146381 0.0010209 1e-005
-0.0143744 0.00102208 1e-005
-0.0141107 0.00102327 1e-005
-0.0138469 0.00102449 1e-005
-0.0135832 0.00102574 1e-005
-0.0133605 0.00102682 1e-005
-0.0133471 0.00102688 1e-005
-0.0133337 0.00102695 1e-005
-0.0133203 0.00102702 1e-005
-0.0133069 0.00102708 1e-005
-0.0132934 0.00102715 1e-005
-0.0130353 0.00102844 1e-005
-0.0127771 0.00102974 1e-005
-0.0125189 0.00103106 1e-005
-0.0122607 0.00103239 1e-005
-0.0120025 0.00103374 1e-005
-0.0117547 0.00103505 1e-005
-0.0115068 0.00103637 1e-005
-0.0112589 0.00103768 1e-005
-0.0110111 0.00103901 1e-005
-0.0107632 0.00104034 1e-005
-0.0105252 0.00104161 1e-005
-0.0102873 0.00104289 1e-005
-0.0100493 0.00104417 1e-005
-0.00981133 0.00104545 1e-005
-0.00957337 0.00104672 1e-005
-0.00934491 0.00104794 1e-005
-0.00911645 0.00104916 1e-005
-0.00888799 0.00105038 1e-005
-0.00865954 0.0010516 1e-005
-0.00843108 0.00105281 1e-005
-0.00821175 0.00105396 1e-005
-0.00799242 0.00105512 1e-005
-0.00777309 0.00105627 1e-005
-0.00755376 0.00105742 1e-005
-0.00733443 0.00105856 1e-005
-0.00712387 0.00105965 1e-005
-0.0069133 0.00106074 1e-005
-0.00670273 0.00106182 1e-005
-0.00649216 0.0010629 1e-005
-0.0062816 0.00106398 1e-005
-0.00607944 0.001065 1e-005
-0.00587729 0.00106603 1e-005
-0.00567514 0.00106705 1e-005
-0.00547298 0.00106806 1e-005
-0.00527083 0.00106907 1e-005
-0.00507675 0.00107003 1e-005
-0.00488267 0.00107099 1e-005
-0.0046886 0.00107195 1e-005
-0.00449452 0.0010729 1e-005
-0.00430044 0.00107385 1e-005
-0.00411412 0.00107475 1e-005
-0.0039278 0.00107566 1e-005
-0.00374147 0.00107656 1e-005
-0.00355515 0.00107745 1e-005
-0.00336883 0.00107835 1e-005
-0.00318995 0.00107919 1e-005
-0.00301107 0.00108004 1e-005
-0.00283219 0.00108089 1e-005
-0.00265331 0.00108173 1e-005
-0.00247443 0.00108258 1e-005
-0.0023027 0.00108338 1e-005
-0.00213097 0.00108418 1e-005
-0.00195924 0.00108498 1e-005
-0.0017875 0.00108577 1e-005
-0.00161577 0.00108657 1e-005
-0.0014509 0.00108732 1e-005
-0.00128603 0.00108808 1e-005
-0.00112116 0.00108884 1e-005
-0.000956289 0.00108959 1e-005
-0.000791418 0.00109035 1e-005
-0.000633135 0.00109106 1e-005
-0.000474851 0.00109179 1e-005
-0.000316567 0.00109251 1e-005
-0.000158284 0.00109322 1e-005
0 0.00109393 1e-005
0.000105677 0.0010944 1e-005
0.000211355 0.00109487 1e-005
0.000317032 0.00109534 1e-005
0.00042271 0.0010958 1e-005
0.000528387 0.00109626 1e-005
0.000634886 0.00109672 1e-005
0.000741385 0.00109718 1e-005
0.000847885 0.00109763 1e-005
0.000954384 0.00109808 1e-005
0.00106088 0.00109853 1e-005
0.00116821 0.00109897 1e-005
0.00127554 0.00109941 1e-005
0.00138286 0.00109985 1e-005
0.00149019 0.00110028 1e-005
0.00159752 0.0011007 1e-005
0.00170568 0.00110112 1e-005
0.00181384 0.00110154 1e-005
0.001922 0.00110195 1e-005
0.00203016 0.00110235 1e-005
0.00213833 0.00110274 1e-005
0.00224733 0.00110312 1e-005
0.00235633 0.0011035 1e-005
0.00246533 0.00110387 1e-005
0.00257434 0.00110423 1e-005
0.00268334 0.00110458 1e-005
0.00279319 0.00110493 1e-005
0.00290304 0.00110527 1e-005
0.00301289 0.0011056 1e-005
0.00312274 0.00110592 1e-005
0.00323259 0.00110624 1e-005
0.00334329 0.00110655 1e-005
0.003454 0.00110685 1e-005
0.0035647 0.00110715 1e-005
0.0036754 0.00110744 1e-005
0.00378611 0.00110772 1e-005
0.00389767 0.00110799 1e-005
0.00400924 0.00110825 1e-005
0.0041208 0.00110852 1e-005
0.00423237 0.00110877 1e-005
0.00434393 0.00110901 1e-005
0.00445636 0.00110925 1e-005
0.00456879 0.00110948 1e-005
0.00468123 0.0011097 1e-005
0.00479366 0.00110992 1e-005
0.00490609 0.00111013 1e-005
0.0050194 0.00111033 1e-005
0.0051327 0.00111052 1e-005
0.00524601 0.00111071 1e-005
0.00535932 0.00111089 1e-005
0.00547262 0.00111106 1e-005
0.00558681 0.00111122 1e-005
0.005701 0.00111138 1e-005
0.00581518 0.00111153 1e-005
0.00592937 0.00111167 1e-005
0.00604356 0.00111181 1e-005
0.00615863 0.00111193 1e-005
0.00627371 0.00111206 1e-005
0.00638878 0.00111217 1e-005
0.00650386 0.00111228 1e-005
0.00661893 0.00111237 1e-005
0.0067349 0.00111246 1e-005
0.00685087 0.00111255 1e-005
0.00696684 0.00111263 1e-005
0.00708281 0.0011127 1e-005
0.00719878 0.00111276 1e-005
0.00726202 0.00111279 1e-005
0.00732526 0.00111282 1e-005
0.00738849 0.00111284 1e-005
0.00745173 0.00111286 1e-005
0.00751313 0.00111288 1e-005
0.00756713 0.0011129 1e-005
0.00762113 0.00111291 1e-005
0.00767513 0.00111293 1e-005
0.00772913 0.00111294 1e-005
0.00778313 0.00111295 1e-005
0.00790091 0.00111296 1e-005
0.00801869 0.00111297 1e-005
0.00813647 0.00111298 1e-005
0.00825425 0.00111297 1e-005
0.00837203 0.00111296 1e-005
0.00849073 0.00111293 1e-005
0.00860942 0.0011129 1e-005
0.00872812 0.00111286 1e-005
0.00884682 0.00111282 1e-005
0.00896551 0.00111277 1e-005
0.00908513 0.0011127 1e-005
0.00920475 0.00111263 1e-005
0.00932437 0.00111255 1e-005
0.00944398 0.00111247 1e-005
0.0095636 0.00111237 1e-005
0.00968415 0.00111226 1e-005
0.0098047 0.00111215 1e-005
0.00992525 0.00111204 1e-005
0.0100458 0.00111191 1e-005
0.0101663 0.00111178 1e-005
0.0102878 0.00111162 1e-005
0.0104093 0.00111147 1e-005
0.0105308 0.00111131 1e-005
0.0106523 0.00111114 1e-005
0.0107738 0.00111097 1e-005
0.0108962 0.00111077 1e-005
0.0110186 0.00111058 1e-005
0.0111411 0.00111037 1e-005
0.0112635 0.00111016 1e-005
0.0113859 0.00110995 1e-005
0.0115093 0.0011097 1e-005
0.0116327 0.00110946 1e-005
0.0117561 0.00110922 1e-005
0.0118795 0.00110896 1e-005
0.0120028 0.0011087 1e-005
0.0121272 0.00110841 1e-005
0.0122515 0.00110813 1e-005
0.0123759 0.00110784 1e-005
0.0125002 0.00110754 1e-005
0.0126245 0.00110724 1e-005
0.0127498 0.0011069 1e-005
0.0128752 0.00110658 1e-005
0.0130005 0.00110624 1e-005
0.0131258 0.0011059 1e-005
0.0132511 0.00110554 1e-005
0.0133774 0.00110517 1e-005
0.0135036 0.00110479 1e-005
0.0136299 0.00110441 1e-005
0.0137562 0.00110402 1e-005
0.0138825 0.00110362 1e-005
0.0140098 0.0011032 1e-005
0.014137 0.00110277 1e-005
0.0142643 0.00110234 1e-005
0.0143915 0.0011019 1e-005
0.0145188 0.00110146 1e-005
0.0146471 0.00110099 1e-005
0.0147753 0.00110052 1e-005
0.0149036 0.00110004 1e-005
0.0150318 0.00109955 1e-005
0.0151601 0.00109905 1e-005
0.0152893 0.00109854 1e-005
0.0154186 0.00109802 1e-005
0.0155478 0.00109749 1e-005
0.0156771 0.00109695 1e-005
0.0158063 0.00109641 1e-005
0.0159366 0.00109585 1e-005
0.0160668 0.00109528 1e-005
0.0161971 0.0010947 1e-005
0.0163274 0.00109411 1e-005
0.0164576 0.00109352 1e-005
0.0165889 0.00109291 1e-005
0.0167201 0.00109229 1e-005
0.0168514 0.00109167 1e-005
0.0169827 0.00109103 1e-005
0.0171139 0.00109038 1e-005
0.0172462 0.00108973 1e-005
0.0173785 0.00108906 1e-005
0.0175108 0.00108839 1e-005
0.0176431 0.0010877 1e-005
0.0177754 0.00108701 1e-005
0.0179087 0.0010863 1e-005
0.018042 0.00108559 1e-005
0.0181753 0.00108486 1e-005
0.0183087 0.00108412 1e-005
0.018442 0.00108338 1e-005
0.0185763 0.00108263 1e-005
0.0187107 0.00108187 1e-005
0.018845 0.00108109 1e-005
0.0189794 0.0010803 1e-005
0.0191137 0.00107951 1e-005
0.0192491 0.00107871 1e-005
0.0193845 0.0010779 1e-005
0.0195199 0.00107707 1e-005
0.0196553 0.00107623 1e-005
0.0197907 0.00107539 1e-005
0.0199272 0.00107455 1e-005
0.0200636 0.00107369 1e-005
0.0202001 0.0010728 1e-005
0.0203365 0.00107191 1e-005
0.020473 0.00107103 1e-005
0.0206105 0.00107014 1e-005
0.020748 0.00106923 1e-005
0.0208855 0.00106829 1e-005
0.021023 0.00106735 1e-005
0.0211606 0.00106642 1e-005
0.0212991 0.00106548 1e-005
0.0214377 0.00106452 1e-005
0.0215763 0.00106354 1e-005
0.0217149 0.00106255 1e-005
0.0218535 0.00106156 1e-005
0.0219931 0.00106058 1e-005
0.0221328 0.00105957 1e-005
0.0222724 0.00105854 1e-005
0.0224121 0.0010575 1e-005
0.0225517 0.00105646 1e-005
0.0226925 0.00105543 1e-005
0.0228332 0.00105437 1e-005
0.022974 0.00105329 1e-005
0.0231147 0.0010522 1e-005
0.0232555 0.00105112 1e-005
0.0233973 0.00105003 1e-005
0.0235391 0.00104893 1e-005
0.023681 0.00104779 1e-005
0.0238228 0.00104665 1e-005
0.0239647 0.00104552 1e-005
0.0241076 0.00104439 1e-005
0.0242505 0.00104323 1e-005
0.0243935 0.00104205 1e-005
0.0245364 0.00104086 1e-005
0.0246794 0.00103967 1e-005
0.0248234 0.00103849 1e-005
0.0249675 0.00103729 1e-005
0.0251115 0.00103605 1e-005
0.0252556 0.00103481 1e-005
0.0253996 0.00103358 1e-005
0.0255448 0.00103235 1e-005
0.02569 0.00103109 1e-005
0.0258351 0.0010298 1e-005
0.0259803 0.00102851 1e-005
0.0261255 0.00102723 1e-005
0.0262718 0.00102595 1e-005
0.0264181 0.00102464 1e-005
0.0265644 0.0010233 1e-005
0.0267107 0.00102196 1e-005
0.026857 0.00102063 1e-005
0.0270044 0.00101929 1e-005
0.0271519 0.00101793 1e-005
0.0272993 0.00101654 1e-005
0.0274468 0.00101515 1e-005
0.0275942 0.00101376 1e-005
0.0277428 0.00101237 1e-005
0.0278914 0.00101095 1e-005
0.0280399 0.00100952 1e-005
0.0281885 0.00100808 1e-005
0.0283371 0.00100663 1e-005
0.0284869 0.00100519 1e-005
0.0286366 0.00100371 1e-005
0.0287863 0.00100222 1e-005
0.0289361 0.00100073 1e-005
0.0290858 0.000999228 1e-005
0.0292367 0.000997726 1e-005
0.0293876 0.000996194 1e-005
0.0295385 0.000994651 1e-005
0.0296894 0.0009931 1e-005
0.0298403 0.000991542 1e-005
0.0299924 0.00098998 1e-005
0.0301445 0.00098839 1e-005
0.0302966 0.00098679 1e-005
0.0304486 0.000985182 1e-005
0.0306007 0.000983565 1e-005
0.030754 0.000981943 1e-005
0.0309072 0.000980294 1e-005
0.0310605 0.000978636 1e-005
0.0312138 0.000976969 1e-005
0.031367 0.000975293 1e-005
0.0315215 0.000973607 1e-005
[...]
POINT_DATA 11980
 FIELD attributes 2
p 1 11980 float
-4.83427 -4.83356 -4.82995 -4.82626 -4.82249 -4.81412 -4.82798 -4.84297 -4.85796 -4.87294 -4.89738 -4.91918 -4.94914 -4.9791 -5.00907 -5.04184 -5.05753 -5.07926 -5.101 -5.12274 -5.1461 -5.16505 -5.18601 -5.20697 -5.22794 -5.24565 -5.24671 -5.24778 -5.24884 -5.2499 -5.25096 -5.27268 -5.29439 -5.31611 -5.33782 -5.35927 -5.3781 -5.39673 -5.41537 -5.43401 -5.45208 -5.46778 -5.4832 -5.49863 -5.51405 -5.52893 -5.5428 -5.55642 -5.57004 -5.58366 -5.59684 -5.60966 -5.62222 -5.63478 -5.64735 -5.65948 -5.67141 -5.68305 -5.69468 -5.70632 -5.71753 -5.72865 -5.7395 -5.75036 -5.76121 -5.77171 -5.78223 -5.79249 -5.80275 -5.81301 -5.82295 -5.833 -5.84287 -5.85273 -5.8626 -5.87225 -5.882 -5.89151 -5.90101 -5.91051 -5.9198 -5.92936 -5.93905 -5.94875 -5.95844 -5.96825 -5.97826 -5.98803 -5.9978 -6.00757 -6.01714 -6.02713 -6.03789 -6.04865 -6.05941 -6.07028 -6.08003 -6.0904 -6.10077 -6.11114 -6.12104 -6.13003 -6.13853 -6.14703 -6.15552 -6.16326 -6.17024 -6.17832 -6.18639 -6.19447 -6.20331 -6.21143 -6.22003 -6.22862 -6.23722 -6.24595 -6.25401 -6.2611 -6.2682 -6.27529 -6.28156 -6.28818 -6.29354 -6.2989 -6.30426 -6.3086 -6.31418 -6.31873 -6.32329 -6.32784 -6.33146 -6.33631 -6.34027 -6.34424 -6.3482 -6.35135 -6.35524 -6.35838 -6.36153 -6.36467 -6.3672 -6.37006 -6.37238 -6.37469 -6.377 -6.37894 -6.38105 -6.38281 -6.38457 -6.38633 -6.3879 -6.38964 -6.39117 -6.3927 -6.39423 -6.39567 -6.39721 -6.39864 -6.40007 -6.4015 -6.4029 -6.40366 -6.40438 -6.4051 -6.40582 -6.40652 -6.40714 -6.40776 -6.40838 -6.40899 -6.40965 -6.41087 -6.41213 -6.4134 -6.41467 -6.41613 -6.41716 -6.41842 -6.41968 -6.42093 -6.42261 -6.42344 -6.42474 -6.42603 -6.42733 -6.42934 -6.42995 -6.43134 -6.43274 -6.43413 -6.43659 -6.43701 -6.43853 -6.44005 -6.44156 -6.4445 -6.4447 -6.44631 -6.44792 -6.44953 -6.45291 -6.4529 -6.45462 -6.45634 -6.45805 -6.4619 -6.46174 -6.4636 -6.46546 -6.46732 -6.47161 -6.47136 -6.47337 -6.47537 -6.47737 -6.48204 -6.48174 -6.48388 -6.48602 -6.48816 -6.49316 -6.49285 -6.49512 -6.49741 -6.49989 -6.50498 -6.50498 -6.50714 -6.50957 -6.51247 -6.51752 -6.51787 -6.51995 -6.52253 -6.52581 -6.53081 -6.53151 -6.53355 -6.53629 -6.5399 -6.54484 -6.54589 -6.54794 -6.55083 -6.55473 -6.5596 -6.56101 -6.5631 -6.56615 -6.57029 -6.57509 -6.57684 -6.57902 -6.58221 -6.58655 -6.5913 -6.59338 -6.59568 -6.59901 -6.60352 -6.60822 -6.6106 -6.61304 -6.61652 -6.62115 -6.62582 -6.62849 -6.63117 -6.63482 -6.63945 -6.64409 -6.64703 -6.64998 -6.65376 -6.65838 -6.66301 -6.66621 -6.66941 -6.67332 -6.67796 -6.68259 -6.68604 -6.6895 -6.69354 -6.69817 -6.70281 -6.7065 -6.71019 -6.71435 -6.71898 -6.7236 -6.72751 -6.73141 -6.73567 -6.74028 -6.74489 -6.74896 -6.75303 -6.75738 -6.762 -6.76662 -6.77082 -6.77502 -6.77947 -6.78411 -6.78876 -6.79307 -6.79741 -6.80193 -6.80659 -6.81129 -6.81569 -6.82015 -6.82474 -6.82943 -6.83417 -6.83865 -6.84321 -6.84786 -6.85258 -6.85737 -6.86192 -6.86655 -6.87126 -6.87602 -6.88085 -6.88545 -6.89016 -6.89492 -6.8997 -6.90457 -6.90921 -6.91398 -6.91877 -6.92357 -6.92847 -6.93314 -6.93796 -6.94277 -6.94759 -6.9525 -6.9572 -6.96203 -6.96686 -6.97169 -6.97659 -6.98132 -6.98615 -6.99098 -6.99582 -7.0007 -7.00545 -7.01026 -7.01508 -7.01991 -7.02476 -7.0295 -7.0343 -7.0391 -7.04389 -7.04871 -7.05343 -7.05819 -7.06295 -7.06771 -7.07247 -7.0757 -7.07893 -7.08217 -7.0854 -7.08855 -7.09004 -7.09152 -7.09301 -7.0945 -7.09599 -7.10063 -7.10527 -7.10991 -7.11455 -7.11921 -7.12376 -7.12832 -7.13287 -7.13743 -7.14201 -7.14647 -7.15093 -7.15539 -7.15985 -7.16433 -7.16869 -7.17303 -7.17738 -7.18172 -7.18609 -7.19033 -7.19454 -7.19875 -7.20296 -7.20717 -7.21129 -7.21533 -7.21938 -7.22343 -7.22748 -7.23143 -7.23532 -7.2392 -7.24306 -7.24692 -7.2507 -7.25441 -7.25809 -7.26175 -7.26538 -7.26896 -7.27248 -7.27593 -7.27934 -7.28273 -7.28608 -7.2894 -7.2926 -7.29573 -7.29885 -7.30195 -7.30504 -7.30797 -7.3108 -7.31363 -7.31644 -7.31926 -7.3219 -7.32441 -7.32692 -7.32943 -7.33195 -7.33428 -7.33644 -7.3386 -7.34079 -7.34297 -7.34497 -7.34675 -7.34854 -7.35036 -7.35219 -7.35382 -7.35521 -7.35659 -7.35802 -7.35945 -7.36068 -7.36166 -7.36261 -7.36362 -7.36458 -7.36537 -7.36596 -7.36645 -7.36701 -7.36746 -7.36778 -7.36796 -7.36796 -7.36804 -7.36793 -7.36775 -7.36751 -7.36699 -7.36655 -7.36585 -7.36513 -7.36442 -7.36337 -7.36234 -7.36105 -7.35977 -7.35849 -7.35696 -7.35526 -7.35338 -7.35149 -7.34961 -7.34758 -7.34518 -7.34266 -7.34015 -7.33763 -7.33508 -7.33395 -7.33278 -7.33162 -7.33045 -7.32932 -7.32733 -7.32534 -7.32335 -7.32137 -7.31931 -7.31557 -7.31175 -7.30793 -7.30411 -7.30009 -7.29579 -7.29124 -7.28669 -7.28215 -7.27726 -7.27237 -7.26707 -7.26176 -7.25646 -7.25066 -7.2451 -7.23908 -7.23299 -7.22674 -7.22013 -7.21376 -7.20711 -7.2002 -7.19296 -7.1855 -7.1783 -7.171 -7.16324 -7.15497 -7.14664 -7.13857 -7.1305 -7.12184 -7.1126 -7.10337 -7.0944 -7.08545 -7.07589 -7.06572 -7.05555 -7.04566 -7.03578 -7.02529 -7.01416 -7.00304 -6.9922 -6.98123 -6.96972 -6.95779 -6.94568 -6.93386 -6.92167 -6.90916 -6.89647 -6.88335 -6.87052 -6.85705 -6.84351 -6.82998 -6.8159 -6.80185 -6.78725 -6.77266 -6.75808 -6.74321 -6.72782 -6.71215 -6.69648 -6.68082 -6.66516 -6.66512 -6.66508 -6.66504 -6.66501 -6.66497 -6.64837 -6.63178 -6.6152 -6.59863 -6.58179 -6.56431 -6.54658 -6.52885 -6.51113 -6.49284 -6.47452 -6.45566 -6.4368 -6.41776 -6.39821 -6.37875 -6.35905 -6.33905 -6.31854 -6.29783 -6.27721 -6.2566 -6.23538 -6.21348 -6.19159 -6.16981 -6.14803 -6.1256 -6.10252 -6.07944 -6.05647 -6.03343 -6.00971 -5.98558 -5.9613 -5.93715 -5.91253 -5.8876 -5.86261 -5.83713 -5.81169 -5.78554 -5.7594 -5.73327 -5.70688 -5.68734 -5.6675 -5.64766 -5.62782 -5.60896 -5.60127 -5.59359 -5.58591 -5.57823 -5.57046 -5.54203 -5.51355 -5.48507 -5.4566 -5.42775 -5.39833 -5.36864 -5.33895 -5.30915 -5.27889 -5.24831 -5.21758 -5.18669 -5.15536 -5.12389 -5.09209 -5.06031 -5.02812 -4.99543 -4.96275 -4.92975 -4.89676 -4.86326 -4.82938 -4.79549 -4.7613 -4.72684 -4.69207 -4.65724 -4.62217 -4.58676 -4.5508 -4.51485 -4.4789 -4.44283 -4.42322 -4.40342 -4.38363 -4.36383 -4.3447 -4.32729 -4.30989 -4.29249 -4.27509 -4.25751 -4.21945 -4.18128 -4.14312 -4.10497 -4.06624 -4.02723 -3.988 -3.94872 -3.90911 -3.8692 -3.82907 -3.78896 -3.74848 -3.70748 -3.66648 -3.62526 -3.58405 -3.54233 -3.50027 -3.4582 -3.41592 -3.37335 -3.33049 -3.28761 -3.24452 -3.20109 -3.1572 -3.11332 -3.06945 -3.02554 -3.01916 -3.01271 -3.00627 -2.99983 -2.99344 -2.95506 -2.9167 -2.87835 -2.84 -2.80127 -2.75571 -2.70997 -2.66424 -2.61835 -2.57202 -2.52556 -2.47908 -2.43243 -2.38522 -2.33801 -2.29065 -2.2433 -2.19553 -2.14748 -2.09942 -2.05121 -2.00275 -1.95404 -1.90533 -1.85647 -1.81018 -1.76355 -1.71693 -1.67032 -1.62609 -1.62274 -1.6194 -1.61605 -1.61271 -1.60933 -1.55914 -1.50896 -1.45878 -1.40861 -1.358 -1.30722 -1.25636 -1.20549 -1.15434 -1.10297 -1.05152 -1.00008 -0.948416 -0.896468 -0.844494 -0.792425 -0.740277 -0.687824 -0.635355 -0.582823 -0.530172 -0.477171 -0.424179 -0.371197 -0.31818 -0.311949 -0.305685 -0.29942 -0.293155 -0.286928 -0.239689 -0.192456 -0.145232 -0.0980142 -0.0504873 0.00343854 0.0573742 0.111303 0.165421 0.219708 0.274055 0.328391 0.38283 0.4374 0.492005 0.546682 0.60143 0.65633 0.711212 0.766095 0.812619 0.859295 0.905965 0.952628 0.997417 1.00628 1.01515 1.02402 1.03289 1.04179 1.09722 1.15264 1.20804 1.26344 1.31909 1.37474 1.43036 1.48592 1.54164 1.5974 1.65319 1.70896 1.76484 1.82063 1.87645 1.93231 1.98822 2.04414 2.10005 2.15596 2.167 2.17804 2.18908 2.20012 2.21107 2.25603 2.30099 2.34595 2.3909 2.43593 2.49201 2.54799 2.60391 2.65986 2.71585 2.77184 2.82782 2.88376 2.93955 2.99538 3.05122 3.10701 3.16277 3.21853 3.27425 3.28886 3.30343 3.31801 3.33259 3.34702 3.38812 3.42922 3.47032 3.51141 3.55248 3.60809 3.66355 3.71896 3.77428 3.82962 3.88492 3.94022 3.99539 4.05032 4.1053 4.16025 4.21504 4.26979 4.32453 4.37929 4.38421 4.38912 4.39402 4.39892 4.40381 4.45343 4.50304 4.55265 4.60225 4.65171 4.70602 4.76024 4.81429 4.86812 4.92199 4.9758 5.02958 5.08312 5.13654 5.18987 5.22875 5.26743 5.30609 5.34474 5.38259 5.39714 5.41169 5.42624 5.44078 5.45527 5.50803 5.56066 5.61328 5.66579 5.71816 5.77043 5.82269 5.87466 5.92633 5.97804 6.02966 6.08105 6.1323 6.18356 6.23472 6.24561 6.25642 6.26722 6.27802 6.28878 6.32876 6.36875 6.40873 6.44868 6.48842 6.53879 6.58906 6.63916 6.6889 6.73866 6.78829 6.83785 6.88707 6.93622 6.98521 7.01402 7.04264 7.07121 7.09978 7.12815 7.14818 7.16822 7.18825 7.20825 7.22811 7.27631 7.32426 7.3722 7.41983 7.46733 7.51472 7.56211 7.60909 7.65579 7.70243 7.73746 7.77219 7.80685 7.84151 7.87611 7.8876 7.89909 7.91058 7.92205 7.93342 7.97911 8.02463 8.07015 8.11542 8.16044 8.20534 8.25025 8.29477 8.33888 8.38299 8.41959 8.45587 8.49204 8.52821 8.56472 8.57201 8.57929 8.58658 8.59385 8.60106 8.64407 8.68698 8.72988 8.77256 8.81493 8.85716 8.89939 8.94122 8.98264 9.02404 9.06095 9.09749 9.13392 9.17035 9.20761 9.21178 9.21594 9.2201 9.22426 9.22837 9.26856 9.30868 9.34881 9.38875 9.42832 9.46772 9.50712 9.54612 9.58472 9.62329 9.66168 9.69966 9.73753 9.7754 9.81322 9.81392 9.81462 9.81532 9.81601 9.81671 9.85323 9.88975 9.92627 9.96269 9.99867 10.0351 10.0716 10.1077 10.1433 10.179 10.2144 10.2496 10.2845 10.3194 10.3541 10.3638 10.3733 10.3829 10.3924 10.4021 10.4267 10.4512 10.4758 10.5003 10.5245 10.5579 10.5912 10.6244 10.6571 10.6898 10.7221 10.7545 10.7864 10.8182 10.8498 10.8752 10.9003 10.9254 10.9505 10.9774 10.9828 10.9883 10.9938 10.9993 11.0047 11.0349 11.0651 11.0952 11.1252 11.1549 11.1842 11.2136 11.2425 11.2713 11.3 11.3284 11.3566 11.3843 11.4117 11.4386 11.4633 11.489 11.5147 11.5404 11.5705 11.5715 11.5726 11.5736 11.5746 11.5757 11.5993 11.6225 11.6457 11.6689 11.6867 11.7032 11.7253 11.7496 11.7814 11.8174 11.8528 11.8881 11.9087 11.9146 11.9205 11.925 11.9335 11.9433 11.9531 11.9643 11.9651 11.966 11.9669 11.9679 11.9693 11.9825 11.9956 12.0086 12.0213 12.0333 12.0445 12.0556 12.065 12.0727 12.0803 12.0869 12.0926 12.0976 12.1026 12.107 12.1077 12.108 12.1082 12.1084 12.1086 12.1101 12.1116 12.1131 12.1144 12.1146 12.1134 12.1112 12.1083 12.1039 12.0991 12.0925 12.0858 12.0772 12.0668 12.0561 12.0434 12.0285 12.0131 11.9977 11.9816 11.9774 11.9726 11.9678 11.9629 11.9578 11.9413 11.9248 11.9082 11.8915 11.873 11.8461 11.8171 11.7877 11.7565 11.7239 11.6882 11.6523 11.6132 11.571 11.5287 11.4828 11.4358 11.3858 11.3344 11.281 11.2237 11.1618 11.0998 11.0378 10.9746 10.951 10.9261 10.9012 10.8763 10.849 10.8002 10.7514 10.7026 10.6537 10.6025 10.517 10.4287 10.3402 10.251 10.157 10.0574 9.95478 9.84923 9.73839 9.62567 9.50677 9.38781 9.26311 9.13302 9.00281 8.8659 8.72893 8.58114 8.42247 8.26363 8.09714 7.92971 7.76101 7.59162 7.42087 7.24217 7.03542 6.82593 6.61649 6.38768 6.1533 5.93717 5.72098 5.50474 5.29385 5.18399 5.05069 4.91748 4.78436 4.62828 4.45284 4.27725 4.1015 3.9256 3.72232 3.41137 3.15004 2.888 2.62529 2.49435 2.36312 1.92799 1.49789 0.941046 0