/*--------------------------------*- C++ -*----------------------------------*\
| =========                 |                                                 |
| \\      /  F ield         | OpenFOAM: The Open Source CFD Toolbox           |
|  \\    /   O peration     | Version:  5.x                                   |
|   \\  /    A nd           | Web:      www.OpenFOAM.org                      |
|    \\/     M anipulation  |                                                 |
\*---------------------------------------------------------------------------*/
/*   Windows 32 and 64 bit porting by blueCAPE: http://www.bluecape.com.pt   *\
|  Based on Windows porting (2.0.x v4) by Symscape: http://www.symscape.com   |
\*---------------------------------------------------------------------------*/
FoamFile
{
    version     2.0;
    format      ascii;
    class       volScalarField;
    location    "0.18";
    object      p;
}
// * * * * * * * * * * * * * * * * * * * * * * * * * * * * * * * * * * * * * //

dimensions      [0 2 -2 0 0 0 0];

internalField   nonuniform List<scalar> 
750
(
0.40298138
0.40324322
0.40294418
0.40281955
0.40255122
0.40228707
0.40198571
0.40167035
0.40134346
0.40100852
0.4006665
0.40032185
0.39996804
0.3995992
0.39922276
0.39881872
0.39836321
0.39786117
0.39723648
0.39635218
0.39544223
0.39290509
0.39174796
0.38299477
0.37899502
0.40298754
0.40324276
0.40295163
0.40282086
0.40255371
0.40228851
0.40198693
0.40167079
0.40134386
0.40100881
0.40066689
0.40032214
0.39996838
0.39960013
0.39922396
0.39882041
0.39836675
0.39786611
0.39724269
0.39637373
0.39544344
0.39299364
0.39171609
0.38323025
0.37917573
0.40299503
0.40325025
0.40296024
0.40282575
0.40255812
0.40229137
0.40198908
0.40167219
0.40134479
0.4010096
0.40066773
0.40032298
0.39996957
0.39960215
0.39922704
0.39882524
0.39837488
0.39787895
0.39726339
0.39641207
0.39549492
0.39311376
0.39182076
0.38348628
0.37975481
0.40300536
0.40326338
0.40297184
0.40283355
0.40256477
0.40229548
0.40199215
0.40167446
0.40134621
0.40101084
0.4006689
0.40032428
0.39997149
0.39960513
0.39923171
0.39883276
0.39838686
0.3978984
0.39729597
0.39646586
0.39558324
0.3932677
0.39205275
0.38382357
0.38054638
0.40301921
0.40328107
0.40298734
0.40284396
0.40257364
0.40230089
0.4019962
0.4016774
0.40134807
0.40101249
0.40067041
0.40032598
0.39997405
0.39960894
0.39923778
0.3988426
0.39840228
0.3979237
0.39733868
0.39653546
0.39570201
0.39346056
0.39238414
0.38427372
0.38166448
0.40303665
0.4033033
0.40300685
0.40285694
0.40258467
0.40230763
0.40200123
0.40168092
0.40135033
0.4010145
0.40067227
0.40032804
0.39997716
0.39961352
0.39924517
0.39885462
0.39842094
0.39795426
0.39738983
0.39662174
0.39585128
0.3936895
0.39281792
0.38478925
0.38340285
0.40305757
0.40333045
0.40303035
0.4028724
0.40259785
0.40231563
0.40200717
0.40168505
0.40135298
0.40101683
0.4006745
0.40033046
0.39998073
0.39961893
0.39925384
0.39886866
0.39844271
0.39799002
0.39744846
0.39672296
0.39603407
0.39395557
0.39340217
0.38544503
0.38594243
0.40308181
0.40336276
0.40305783
0.40289027
0.40261325
0.40232482
0.40201396
0.40168981
0.40135601
0.40101944
0.4006771
0.40033319
0.39998475
0.39962523
0.39926376
0.3988846
0.39846735
0.39803104
0.39751435
0.39683171
0.39625029
0.39426739
0.39414224
0.38641589
0.38984498
0.40311056
0.4033984
0.40309028
0.40291044
0.40263084
0.40233524
0.4020215
0.40169513
0.40135948
0.4010222
0.40067995
0.40033619
0.39998909
0.39963225
0.39927477
0.39890213
0.39849456
0.3980763
0.39758848
0.39694681
0.39648669
0.39466859
0.39501068
0.38767797
0.39468463
0.40314893
0.40343094
0.40313134
0.40293257
0.40264997
0.40234728
0.40202944
0.40170068
0.40136329
0.401025
0.40068281
0.40033924
0.39999352
0.39963969
0.3992862
0.39892034
0.39852391
0.3981232
0.39766812
0.39707806
0.39669088
0.39519681
0.39580651
0.38945615
0.39963833
0.35741541
0.34661601
0.33048576
0.31663634
0.30175617
0.28712597
0.27234811
0.25763132
0.24290124
0.22817786
0.21345582
0.19873457
0.18401349
0.16929246
0.15457136
0.13985028
0.1251292
0.11040811
0.095687031
0.080965949
0.066244866
0.051523783
0.036802701
0.022081618
0.0073605394
0.35728361
0.34647419
0.33044566
0.31658457
0.30172539
0.28710799
0.27234938
0.2576295
0.24290102
0.22817803
0.21345568
0.19873449
0.18401348
0.16929245
0.15457136
0.13985028
0.1251292
0.11040811
0.095687031
0.080965949
0.066244866
0.051523783
0.036802701
0.022081618
0.0073605398
0.35690315
0.34653307
0.33025962
0.31651967
0.30168302
0.28708419
0.2723436
0.25762784
0.24290039
0.2281779
0.21345562
0.19873446
0.18401349
0.16929245
0.15457136
0.13985028
0.12512919
0.11040811
0.095687031
0.080965949
0.066244866
0.051523784
0.036802702
0.022081618
0.0073605396
0.35637078
0.34667197
0.33000208
0.31645864
0.30166506
0.28707029
0.27233925
0.2576271
0.24289975
0.22817759
0.21345558
0.19873449
0.18401351
0.16929246
0.15457136
0.13985028
0.12512919
0.11040811
0.095687031
0.080965949
0.066244866
0.051523784
0.036802702
0.022081617
0.0073605392
0.35585076
0.34665947
0.32987571
0.31636988
0.30164412
0.28706656
0.27233815
0.25762663
0.2428991
0.22817728
0.2134555
0.19873452
0.18401353
0.16929247
0.15457137
0.13985028
0.12512919
0.11040811
0.095687031
0.080965949
0.066244866
0.051523784
0.036802702
0.022081617
0.0073605384
0.35520635
0.34664361
0.3298014
0.31629077
0.30161076
0.28706441
0.27233727
0.25762586
0.24289846
0.22817693
0.21345541
0.19873455
0.18401355
0.16929247
0.15457137
0.13985028
0.12512919
0.11040811
0.095687031
0.080965949
0.066244866
0.051523784
0.036802702
0.022081617
0.0073605372
0.35431656
0.34671473
0.32962473
0.31625099
0.30159002
0.28706558
0.27233628
0.25762498
0.2428978
0.22817664
0.21345537
0.1987346
0.18401356
0.16929247
0.15457136
0.13985027
0.12512919
0.11040811
0.095687031
0.080965949
0.066244866
0.051523784
0.036802702
0.022081617
0.0073605358
0.35361841
0.34667231
0.3294256
0.31625468
0.30158517
0.28707088
0.27233523
0.25762429
0.24289702
0.22817645
0.2134554
0.19873464
0.18401357
0.16929247
0.15457136
0.13985027
0.12512919
0.11040811
0.095687031
0.080965949
0.066244866
0.051523784
0.036802701
0.022081616
0.007360534
0.35251796
0.34662554
0.32937031
0.31629934
0.30159361
0.28707924
0.27233422
0.25762356
0.24289612
0.22817635
0.21345546
0.1987347
0.18401358
0.16929246
0.15457135
0.13985027
0.12512919
0.11040811
0.095687031
0.080965949
0.066244866
0.051523784
0.036802701
0.022081614
0.0073605322
0.34827226
0.34717349
0.32937163
0.31638552
0.30157932
0.2870862
0.27233191
0.25762363
0.24289546
0.22817635
0.21345549
0.19873475
0.18401359
0.16929246
0.15457135
0.13985027
0.12512919
0.11040811
0.095687031
0.080965949
0.066244867
0.051523784
0.0368027
0.022081613
0.0073605314
0.40324939
0.40348981
0.4032313
0.40298181
0.40268981
0.4023736
0.40204579
0.4017116
0.40137094
0.40103027
0.40068798
0.40034526
0.40000269
0.39965474
0.39930819
0.39895675
0.39858568
0.39821736
0.39782948
0.39736868
0.39702354
0.39634594
0.39707038
0.39448151
0.41255926
0.40340365
0.40367683
0.40338676
0.40308591
0.40276263
0.40242214
0.4020773
0.401732
0.40138481
0.40104022
0.40069758
0.4003571
0.40001994
0.39968169
0.39934476
0.39901914
0.398688
0.3983622
0.39806306
0.3977317
0.39749427
0.39718387
0.39741887
0.39588008
0.40177744
0.40361211
0.40393494
0.40356945
0.40320931
0.40284465
0.4024742
0.40210991
0.40175145
0.40139789
0.40104956
0.40070665
0.40036757
0.40003448
0.39970856
0.39938264
0.39907484
0.39878176
0.3984962
0.39826331
0.39804302
0.3979295
0.39787673
0.39817769
0.39810999
0.4007829
0.40391424
0.40425095
0.40378005
0.40334412
0.40292845
0.4025255
0.40214053
0.40176715
0.40140728
0.40105641
0.40071292
0.40037535
0.40004615
0.39972784
0.3994169
0.39912047
0.3988552
0.39860841
0.398421
0.39827754
0.3982293
0.39829294
0.39861681
0.39908131
0.40003351
0.40437417
0.40460955
0.40401491
0.40348193
0.40300573
0.40256805
0.40216468
0.40177809
0.40141172
0.40105838
0.40071432
0.4003784
0.40005268
0.39973685
0.39943754
0.39915312
0.39890211
0.39868414
0.39852337
0.39842939
0.3984195
0.39853435
0.39887583
0.39948139
0.39981763
0.40509628
0.40498482
0.40426331
0.40361043
0.40306873
0.40259704
0.40217655
0.401782
0.40141032
0.40105462
0.40070971
0.40037477
0.40005041
0.39973683
0.39944026
0.39916353
0.39891714
0.3987115
0.39856028
0.39848365
0.39849021
0.39862329
0.39892476
0.39952282
0.39964671
0.40621201
0.40534943
0.40448562
0.40370794
0.40310523
0.40260829
0.40217292
0.40177519
0.40140143
0.40104466
0.40069905
0.40036372
0.400038
0.39972384
0.39942463
0.39914626
0.3988964
0.39868715
0.39853009
0.39844604
0.39844967
0.39857092
0.3988279
0.39937688
0.39944266
0.4081053
0.40554798
0.40461504
0.40372923
0.40309225
0.40258885
0.40215135
0.40175577
0.40138398
0.40102778
0.40068191
0.40034482
0.40001596
0.39969679
0.39939044
0.39910207
0.3988391
0.39861259
0.39843492
0.39832453
0.39830445
0.39839958
0.39862804
0.39912276
0.39920272
0.41167198
0.40527532
0.40462726
0.40362537
0.40299982
0.40251798
0.40210095
0.40171768
0.4013534
0.40100068
0.40065527
0.40031563
0.39998133
0.39965294
0.3993333
0.39902632
0.39873853
0.39847958
0.39826259
0.3981076
0.39804243
0.39810694
0.39832753
0.39879408
0.39892973
0.4132674
0.40426617
0.40507158
0.40369628
0.40306246
0.40254147
0.40210952
0.4017194
0.4013523
0.40099793
0.4006513
0.40031044
0.39997453
0.399644
0.39932146
0.39901034
0.39871683
0.39844972
0.39822148
0.39805258
0.39797078
0.39802043
0.39820755
0.39863473
0.39880293
)
;

boundaryField
{
    inlet
    {
        type            zeroGradient;
    }
    walls
    {
        type            zeroGradient;
    }
    outlet
    {
        type            fixedValue;
        value           uniform 0;
    }
    centreline
    {
        type            symmetryPlane;
    }
    frontAndBack
    {
        type            empty;
    }
}


// ************************************************************************* //
