/*--------------------------------*- C++ -*----------------------------------*\
| =========                 |                                                 |
| \\      /  F ield         | OpenFOAM: The Open Source CFD Toolbox           |
|  \\    /   O peration     | Version:  5.x                                   |
|   \\  /    A nd           | Web:      www.OpenFOAM.org                      |
|    \\/     M anipulation  |                                                 |
\*---------------------------------------------------------------------------*/
/*   Windows 32 and 64 bit porting by blueCAPE: http://www.bluecape.com.pt   *\
|  Based on Windows porting (2.0.x v4) by Symscape: http://www.symscape.com   |
\*---------------------------------------------------------------------------*/
FoamFile
{
    version     2.0;
    format      ascii;
    class       surfaceScalarField;
    location    "0.18";
    object      phi;
}
// * * * * * * * * * * * * * * * * * * * * * * * * * * * * * * * * * * * * * //

dimensions      [0 3 -1 0 0 0 0];

internalField   nonuniform List<scalar> 
1430
(
5.1383658e-006
-1.370854e-007
5.3106503e-006
-1.7228452e-007
5.4804119e-006
-1.6976156e-007
5.6266135e-006
-1.4620152e-007
5.7488199e-006
-1.2220634e-007
5.8456362e-006
-9.6816292e-008
5.922552e-006
-7.6915777e-008
5.9846505e-006
-6.2098531e-008
6.0373176e-006
-5.2667009e-008
6.0859853e-006
-4.8667682e-008
6.1363165e-006
-5.0331236e-008
6.1946769e-006
-5.836034e-008
6.2685374e-006
-7.3860491e-008
6.3681483e-006
-9.9610887e-008
6.5081536e-006
-1.400053e-007
6.7089558e-006
-2.0080224e-007
7.0032668e-006
-2.9431095e-007
7.4457604e-006
-4.4249353e-007
8.1243636e-006
-6.7860321e-007
9.1890479e-006
-1.0646843e-006
1.0804904e-005
-1.6158562e-006
1.3244983e-005
-2.4400788e-006
1.6618348e-005
-3.3733651e-006
2.093175e-005
-4.3134023e-006
-4.8425676e-006
2.5774317e-005
5.1373917e-006
-2.7319672e-007
5.3129716e-006
-3.4786436e-007
5.4812483e-006
-3.3803817e-007
5.628345e-006
-2.9329819e-007
5.7500579e-006
-2.4391924e-007
5.8467587e-006
-1.9351696e-007
5.9233485e-006
-1.5350558e-007
5.9851025e-006
-1.2385248e-007
6.0374304e-006
-1.0499485e-007
6.0857543e-006
-9.6991636e-008
6.1356685e-006
-1.0024538e-007
6.1935204e-006
-1.1621225e-007
6.2667249e-006
-1.4706497e-007
6.3653482e-006
-1.9823418e-007
6.5039391e-006
-2.7859619e-007
6.7026582e-006
-3.9952128e-007
6.9934947e-006
-5.8514747e-007
7.4303414e-006
-8.7934017e-007
8.0998989e-006
-1.3481607e-006
9.1449443e-006
-2.1097296e-006
1.0740976e-005
-3.211888e-006
1.3117402e-005
-4.8165045e-006
1.645751e-005
-6.7134737e-006
2.0647123e-005
-8.5030155e-006
-9.7021822e-006
2.5506738e-005
5.138479e-006
-4.1039539e-007
5.3149285e-006
-5.243139e-007
5.4841035e-006
-5.0721312e-007
5.6313119e-006
-4.4050659e-007
5.7527659e-006
-3.6537326e-007
5.8489713e-006
-2.8972232e-007
5.9249517e-006
-2.2948599e-007
5.9860543e-006
-1.849551e-007
6.037714e-006
-1.566545e-007
6.0853293e-006
-1.4460694e-007
6.1344525e-006
-1.4936855e-007
6.1912958e-006
-1.7305554e-007
6.263142e-006
-2.1891119e-007
6.3598845e-006
-2.9497662e-007
6.4956742e-006
-4.1438594e-007
6.6901146e-006
-5.9396168e-007
6.9742459e-006
-8.6927873e-007
7.3999374e-006
-1.3050317e-006
8.0504016e-006
-1.9986248e-006
9.0626715e-006
-3.1219995e-006
1.060242e-005
-4.7516363e-006
1.2894168e-005
-7.1082529e-006
1.6102783e-005
-9.922088e-006
2.0153586e-005
-1.2553819e-005
-1.4412278e-005
2.4863681e-005
5.1400716e-006
-5.4918665e-007
5.3180016e-006
-7.0224395e-007
5.4884342e-006
-6.776457e-007
5.6358616e-006
-5.87934e-007
5.7569375e-006
-4.8644913e-007
5.8523692e-006
-3.8515403e-007
5.9274116e-006
-3.0452837e-007
5.9875607e-006
-2.4510422e-007
6.0382185e-006
-2.0731236e-007
6.0847693e-006
-1.9115773e-007
6.1327075e-006
-1.9730673e-007
6.18806e-006
-2.2840803e-007
6.2578903e-006
-2.887414e-007
6.3518226e-006
-3.8890896e-007
6.4834711e-006
-5.460344e-007
6.6715892e-006
-7.8207981e-007
6.9457814e-006
-1.1434709e-006
7.3551472e-006
-1.7143976e-006
7.9775405e-006
-2.6210181e-006
8.9411296e-006
-4.0855886e-006
1.0399164e-005
-6.2096708e-006
1.2563939e-005
-9.2730278e-006
1.5572438e-005
-1.2930587e-005
1.9403362e-005
-1.6384743e-005
-1.8876709e-005
2.3867794e-005
5.1422756e-006
-6.901819e-007
5.3222464e-006
-8.8221482e-007
5.4943797e-006
-8.4977896e-007
5.6421021e-006
-7.3565637e-007
5.7626694e-006
-6.0701644e-007
5.8570376e-006
-4.7952225e-007
5.9308134e-006
-3.783042e-007
5.9896881e-006
-3.0397888e-007
6.0390144e-006
-2.566386e-007
6.0841554e-006
-2.3629878e-007
6.1305203e-006
-2.4367162e-007
6.1839109e-006
-2.8179856e-007
6.2510945e-006
-3.5592501e-007
6.3413375e-006
-4.7915197e-007
6.4675731e-006
-6.7226994e-007
6.6474313e-006
-9.6193803e-007
6.9086477e-006
-1.4046873e-006
7.2968014e-006
-2.1025512e-006
7.8826167e-006
-3.2068335e-006
8.7836297e-006
-4.9866017e-006
1.0134578e-005
-7.5606193e-006
1.2129712e-005
-1.1268161e-005
1.4872506e-005
-1.5673381e-005
1.84043e-005
-1.9916537e-005
-2.2984464e-005
2.2512055e-005
5.1452096e-006
-8.3411115e-007
5.3278163e-006
-1.0648215e-006
5.5021386e-006
-1.0241013e-006
5.650226e-006
-8.8374375e-007
5.7701267e-006
-7.2691709e-007
5.8631273e-006
-5.7252289e-007
5.9352962e-006
-4.5047307e-007
5.9925589e-006
-3.6124155e-007
6.0402301e-006
-3.0430983e-007
6.0836279e-006
-2.7969655e-007
6.1280382e-006
-2.8808192e-007
6.1790098e-006
-3.3277016e-007
6.2429535e-006
-4.1986862e-007
6.328667e-006
-5.6486553e-007
6.4482561e-006
-7.9185899e-007
6.6180289e-006
-1.1317108e-006
6.8634345e-006
-1.650093e-006
7.2259244e-006
-2.4650412e-006
7.7677855e-006
-3.7486945e-006
8.5932074e-006
-5.8120236e-006
9.8125128e-006
-8.7799247e-006
1.1598893e-005
-1.3054542e-005
1.4008586e-005
-1.8083074e-005
1.7155821e-005
-2.3063772e-005
-2.6650093e-005
2.0821449e-005
5.1490351e-006
-9.8186595e-007
5.3349199e-006
-1.2507063e-006
5.5119571e-006
-1.2011385e-006
5.6604878e-006
-1.0322744e-006
5.7795289e-006
-8.4595823e-007
5.8708393e-006
-6.6383332e-007
5.9410463e-006
-5.2068003e-007
5.9963414e-006
-4.1653666e-007
6.0420449e-006
-3.500133e-007
6.0833735e-006
-3.2102521e-007
6.1254503e-006
-3.3015866e-007
6.1735766e-006
-3.8089643e-007
6.2337165e-006
-4.800085e-007
6.3141069e-006
-6.4525592e-007
6.4259014e-006
-9.0365348e-007
6.5839447e-006
-1.2897541e-006
6.8110157e-006
-1.8771639e-006
7.1438558e-006
-2.7978813e-006
7.6353108e-006
-4.2401495e-006
8.3734229e-006
-6.5501357e-006
9.4393056e-006
-9.8458073e-006
1.0979186e-005
-1.4594422e-005
1.2982105e-005
-2.0085992e-005
1.5691362e-005
-2.5773029e-005
-2.9702301e-005
1.874357e-005
5.1539964e-006
-1.1345821e-006
5.3438248e-006
-1.4405347e-006
5.5241558e-006
-1.3814696e-006
5.6731977e-006
-1.1813163e-006
5.7911332e-006
-9.6389379e-007
5.8804059e-006
-7.5310602e-007
5.9482813e-006
-5.8855541e-007
6.0012376e-006
-4.6949295e-007
6.0446712e-006
-3.9344686e-007
6.0836139e-006
-3.5996794e-007
6.1229815e-006
-3.6952626e-007
6.1678578e-006
-4.2577272e-007
6.2236816e-006
-5.3583228e-007
6.2980347e-006
-7.1960896e-007
6.4009945e-006
-1.0066133e-006
6.5458455e-006
-1.4346051e-006
6.7523757e-006
-2.0836941e-006
7.0521127e-006
-3.0976183e-006
7.4880312e-006
-4.676068e-006
8.1287948e-006
-7.1908993e-006
9.0222428e-006
-1.0739255e-005
1.0282669e-005
-1.5854848e-005
1.1839591e-005
-2.1642915e-005
1.4063113e-005
-2.7996551e-005
-3.1792373e-005
1.6153186e-005
5.1604618e-006
-1.2937635e-006
5.3548045e-006
-1.6348773e-006
5.5391021e-006
-1.5657671e-006
5.6886652e-006
-1.3308794e-006
5.8051674e-006
-1.080396e-006
5.8920472e-006
-8.3998576e-007
5.9572132e-006
-6.5372134e-007
6.0074573e-006
-5.1973702e-007
6.0483011e-006
-4.342907e-007
6.084544e-006
-3.962108e-007
6.1208684e-006
-4.0585067e-007
6.1621082e-006
-4.6701244e-007
6.2131637e-006
-5.8688777e-007
6.2808684e-006
-7.8731363e-007
6.3740692e-006
-1.0998141e-006
6.504394e-006
-1.5649299e-006
6.688605e-006
-2.2679052e-006
6.9524894e-006
-3.3615026e-006
7.3281389e-006
-5.0517175e-006
7.8643061e-006
-7.7270665e-006
8.5713106e-006
-1.144626e-005
9.5290354e-006
-1.6812573e-005
1.0595381e-005
-2.270926e-005
1.2276699e-005
-2.9677869e-005
-3.2525697e-005
1.3010022e-005
5.1677492e-006
-1.4602322e-006
5.3689924e-006
-1.8361205e-006
5.5569257e-006
-1.7537003e-006
5.7072121e-006
-1.4811656e-006
5.8217514e-006
-1.1949352e-006
5.905904e-006
-9.2413828e-007
5.9679804e-006
-7.1579762e-007
6.0151427e-006
-5.6689925e-007
6.0530348e-006
-4.7218279e-007
6.0862764e-006
-4.2945233e-007
6.1192614e-006
-4.3883561e-007
6.1565168e-006
-5.0426789e-007
6.2024147e-006
-6.3278565e-007
6.2629247e-006
-8.4782352e-007
6.3455644e-006
-1.1824539e-006
6.4601526e-006
-1.6795181e-006
6.6205155e-006
-2.4282681e-006
6.8463057e-006
-3.5872928e-006
7.1583292e-006
-5.3637408e-006
7.5850544e-006
-8.1537917e-006
8.107684e-006
-1.196889e-005
8.7285716e-006
-1.7433461e-005
9.2505858e-006
-2.3231274e-005
1.0064353e-005
-3.0491637e-005
8.7984029e-006
-3.1259747e-005
2.8402132e-005
-2.6278147e-006
2.9323533e-005
-9.2140057e-007
2.9506888e-005
-1.8335454e-007
2.9515734e-005
-8.8455811e-009
2.948357e-005
3.2164542e-008
2.9445803e-005
3.7767363e-008
2.9425259e-005
2.0543865e-008
2.9419496e-005
5.7626179e-009
2.9420475e-005
-9.7852913e-010
2.9422244e-005
-1.7689569e-009
2.9423048e-005
-8.0427913e-010
2.9423119e-005
-7.1293385e-011
2.9423004e-005
1.1545507e-010
2.9422946e-005
5.7838809e-011
2.9422944e-005
2.149954e-012
2.9422952e-005
-7.8079763e-012
2.9422954e-005
-2.7661434e-012
2.9422954e-005
5.7391547e-013
2.9422953e-005
7.4489763e-013
2.9422953e-005
2.194454e-013
2.9422953e-005
-2.1725494e-014
2.9422953e-005
-3.7071635e-013
2.9422954e-005
-7.731581e-013
2.9422954e-005
-2.0981799e-013
1.9733925e-013
2.7917271e-005
-5.0383478e-006
2.8795486e-005
-1.7996156e-006
2.8942444e-005
-3.3031157e-007
2.8946917e-005
-1.3318451e-008
2.8907699e-005
7.1383159e-008
2.8874287e-005
7.1179503e-008
2.8857409e-005
3.7422193e-008
2.8853433e-005
9.738536e-009
2.8854647e-005
-2.1927101e-009
2.8856304e-005
-3.4257601e-009
2.8856952e-005
-1.4523013e-009
2.8856963e-005
-8.2149638e-011
2.885685e-005
2.2835369e-010
2.8856803e-005
1.0508172e-010
2.8856803e-005
1.3327025e-012
2.8856811e-005
-1.5341935e-011
2.8856813e-005
-4.9719166e-012
2.8856813e-005
1.2173783e-012
2.8856812e-005
1.4166252e-012
2.8856812e-005
4.1147318e-013
2.8856812e-005
-2.3283974e-015
2.8856812e-005
-6.7139088e-013
2.8856813e-005
-1.5557863e-012
2.8856814e-005
-8.9962297e-013
-1.2256392e-013
2.6988975e-005
-7.1636416e-006
2.7719779e-005
-2.5304191e-006
2.782809e-005
-4.3862262e-007
2.780101e-005
1.376123e-008
2.7760532e-005
1.1186087e-007
2.7738837e-005
9.2874823e-008
2.7729529e-005
4.6729967e-008
2.7728411e-005
1.0856359e-008
2.7730057e-005
-3.8384085e-009
2.7731366e-005
-4.734546e-009
2.7731723e-005
-1.8090773e-009
2.7731648e-005
-7.542857e-012
2.7731549e-005
3.2698353e-010
2.7731522e-005
1.3217751e-010
2.7731528e-005
-4.2903162e-012
2.7731534e-005
-2.1497127e-011
2.7731535e-005
-6.1182435e-012
2.7731534e-005
1.9020934e-012
2.7731534e-005
1.8986902e-012
2.7731534e-005
5.2124702e-013
2.7731534e-005
6.8456006e-015
2.7731534e-005
-8.2354934e-013
2.7731535e-005
-2.2503261e-012
2.7731537e-005
-2.4990968e-012
-1.3422188e-012
2.559263e-005
-8.8884777e-006
2.6108174e-005
-3.0459629e-006
2.6132759e-005
-4.6320852e-007
2.6086109e-005
6.0411857e-008
2.6058247e-005
1.3972295e-007
2.6050845e-005
1.0027596e-007
2.6049447e-005
4.8128889e-008
2.6051216e-005
9.0872935e-009
2.6052921e-005
-5.5437045e-009
2.60536e-005
-5.4140812e-009
2.6053596e-005
-1.8050197e-009
2.6053456e-005
1.3267356e-010
2.6053393e-005
3.8980315e-010
2.6053392e-005
1.336172e-010
2.6053401e-005
-1.3239835e-011
2.6053404e-005
-2.4891469e-011
2.6053404e-005
-5.9528876e-012
2.6053403e-005
2.4807402e-012
2.6053403e-005
2.1350984e-012
2.6053403e-005
5.8400355e-013
2.6053403e-005
1.0462531e-015
2.6053403e-005
-8.7548307e-013
2.6053404e-005
-2.8198804e-012
2.6053406e-005
-4.794195e-012
-3.2653817e-012
2.3705549e-005
-1.0081972e-005
2.3905479e-005
-3.2458932e-006
2.3838137e-005
-3.9586691e-007
2.3809939e-005
8.8610276e-008
2.3803061e-005
1.466007e-007
2.3808176e-005
9.5160907e-008
2.381372e-005
4.2584755e-008
2.3817298e-005
5.509213e-009
2.3818394e-005
-6.6392883e-009
2.3818255e-005
-5.2752693e-009
2.3817924e-005
-1.4733341e-009
2.3817778e-005
2.780735e-010
2.3817773e-005
3.9504011e-010
2.3817795e-005
1.1124825e-010
2.3817804e-005
-2.177154e-011
2.3817803e-005
-2.4522414e-011
2.3817802e-005
-4.5971107e-012
2.3817802e-005
2.76274e-012
2.3817802e-005
2.0353668e-012
2.3817802e-005
5.8867697e-013
2.3817802e-005
4.9493126e-014
2.3817802e-005
-8.3528446e-013
2.3817802e-005
-3.2407554e-012
2.3817805e-005
-6.9694106e-012
-5.1153013e-012
2.1267081e-005
-1.0527603e-005
2.1064065e-005
-3.0428781e-006
2.0957251e-005
-2.8905201e-007
2.0958903e-005
8.6958039e-008
2.0973332e-005
1.3217166e-007
2.0990423e-005
7.8070084e-008
2.1001114e-005
3.1892983e-008
2.100492e-005
1.7037223e-009
2.1004815e-005
-6.5342951e-009
2.1003887e-005
-4.3477025e-009
2.1003372e-005
-9.5828318e-010
2.1003293e-005
3.5716747e-010
2.1003352e-005
3.3672251e-010
2.1003388e-005
7.4912571e-011
2.1003392e-005
-2.5648071e-011
2.1003388e-005
-2.038086e-011
2.1003386e-005
-2.6429286e-012
2.1003386e-005
2.6191971e-012
2.1003386e-005
1.6053177e-012
2.1003386e-005
4.7844217e-013
2.1003386e-005
1.2681698e-013
2.1003386e-005
-6.7118458e-013
2.1003386e-005
-3.3283422e-012
2.1003387e-005
-8.0480297e-012
-6.0325174e-012
1.8172808e-005
-9.9568405e-006
1.7588754e-005
-2.4588241e-006
1.7485302e-005
-1.8560064e-007
1.7506479e-005
6.57811e-008
1.7537951e-005
1.0069961e-007
1.7563295e-005
5.2725954e-008
1.7575925e-005
1.9263691e-008
1.7578511e-005
-8.8220726e-010
1.7577093e-005
-5.1167929e-009
1.7575666e-005
-2.920863e-009
1.7575165e-005
-4.5715526e-010
1.7575193e-005
3.2900998e-010
1.7575297e-005
2.3273782e-010
1.7575334e-005
3.8261297e-011
1.7575331e-005
-2.2659448e-011
1.7575324e-005
-1.3752861e-011
1.7575323e-005
-9.0189511e-013
1.7575323e-005
2.0289263e-012
1.7575324e-005
1.0310979e-012
1.7575324e-005
3.1850138e-013
1.7575324e-005
1.6169736e-013
1.7575324e-005
-4.5659005e-013
1.7575323e-005
-2.9331244e-012
1.7575323e-005
-7.3858518e-012
-5.5267316e-012
1.4319941e-005
-8.1235962e-006
1.348351e-005
-1.6223925e-006
1.3394258e-005
-9.6349e-008
1.3422197e-005
3.7841596e-008
1.3463768e-005
5.912929e-008
1.349033e-005
2.6163154e-008
1.3501286e-005
8.307891e-009
1.3502018e-005
-1.6142345e-009
1.3499826e-005
-2.924207e-009
1.3498354e-005
-1.4492475e-009
1.3498018e-005
-1.214923e-010
1.3498137e-005
2.1027991e-010
1.3498251e-005
1.1859946e-010
1.3498277e-005
1.2292134e-011
1.3498269e-005
-1.4146322e-011
1.3498262e-005
-6.8055125e-012
1.3498261e-005
6.2239609e-014
1.3498262e-005
1.1642566e-012
1.3498262e-005
4.9441274e-013
1.3498262e-005
1.7108665e-013
1.3498262e-005
1.3346087e-013
1.3498262e-005
-2.5385519e-013
1.3498261e-005
-2.0213611e-012
1.3498259e-005
-5.0549924e-012
-3.7421479e-012
9.6827479e-006
-4.7963218e-006
8.7394636e-006
-6.7910838e-007
8.6647428e-006
-2.1628307e-008
8.6914821e-006
1.1102229e-008
8.73015e-006
2.0461309e-008
8.7500564e-006
6.2567673e-009
8.7566508e-006
1.7134716e-009
8.7559669e-006
-9.3038654e-010
8.7539415e-006
-8.9875499e-010
8.7528779e-006
-3.856974e-010
8.7527487e-006
7.7495263e-012
8.7528883e-006
7.0711604e-011
8.7529747e-006
3.2204942e-011
8.7529861e-006
8.8100723e-013
8.7529766e-006
-4.6672216e-012
8.7529715e-006
-1.7651796e-012
8.7529714e-006
2.0521595e-013
8.7529722e-006
3.6469034e-013
8.7529725e-006
1.2601903e-013
8.7529727e-006
5.392062e-014
8.7529728e-006
6.1124824e-014
8.7529727e-006
-7.9066638e-014
8.7529715e-006
-8.0253222e-013
8.7529685e-006
-1.9741963e-012
-1.4419863e-012
4.0020811e-006
3.3229726e-006
3.3013443e-006
3.3124464e-006
3.3329077e-006
3.3391645e-006
3.3408779e-006
3.3399476e-006
3.3390488e-006
3.3386631e-006
3.3386709e-006
3.3387416e-006
3.3387738e-006
3.3387747e-006
3.33877e-006
3.3387682e-006
3.3387684e-006
3.3387688e-006
3.3387689e-006
3.338769e-006
3.3387691e-006
3.338769e-006
3.3387683e-006
3.3387663e-006
1.5537918e-005
-1.9943093e-006
1.622415e-005
-2.5223517e-006
1.6797279e-005
-2.326829e-006
1.7251383e-005
-1.9352695e-006
1.7580721e-005
-1.5242729e-006
1.7814086e-005
-1.1575037e-006
1.7978782e-005
-8.8049289e-007
1.8099722e-005
-6.8783988e-007
1.8193476e-005
-5.6593615e-007
1.8273681e-005
-5.0965713e-007
1.8351116e-005
-5.1627136e-007
1.8436616e-005
-5.8976766e-007
1.8541299e-005
-7.3746867e-007
1.8676252e-005
-9.8277652e-007
1.885676e-005
-1.3629616e-006
1.9102239e-005
-1.9249967e-006
1.9431226e-005
-2.7572552e-006
1.9870233e-005
-4.0263002e-006
2.0429059e-005
-5.9225669e-006
2.1052424e-005
-8.7771565e-006
2.1638594e-005
-1.2555059e-005
2.1510938e-005
-1.7305806e-005
1.9890747e-005
-2.1611084e-005
1.4644025e-005
-2.5244916e-005
-1.6615722e-005
1.5673051e-005
-2.6635193e-006
1.6460404e-005
-3.3097049e-006
1.7077362e-005
-2.9437871e-006
1.7520135e-005
-2.3780423e-006
1.7814712e-005
-1.8188497e-006
1.8003979e-005
-1.3467706e-006
1.8123887e-005
-1.0004011e-006
1.8203964e-005
-7.6791718e-007
1.8260677e-005
-6.2264911e-007
1.830483e-005
-5.5381009e-007
1.8343964e-005
-5.554056e-007
1.8383634e-005
-6.2943696e-007
1.8429832e-005
-7.8366725e-007
1.8486526e-005
-1.0394705e-006
1.8555875e-005
-1.43231e-006
1.8640945e-005
-2.0100667e-006
1.8734004e-005
-2.8503149e-006
1.8817448e-005
-4.1097436e-006
1.8838995e-005
-5.9441142e-006
1.8658726e-005
-8.5968876e-006
1.8059221e-005
-1.1955554e-005
1.642486e-005
-1.5671444e-005
1.3160272e-005
-1.8346496e-005
6.8540104e-006
-1.8938654e-005
-9.7617116e-006
1.587361e-005
-3.5332888e-006
1.6770622e-005
-4.2067165e-006
1.7405082e-005
-3.578247e-006
1.7809001e-005
-2.7819612e-006
1.8043058e-005
-2.0529069e-006
1.8168602e-005
-1.4723145e-006
1.8230995e-005
-1.0627939e-006
1.826093e-005
-7.9785306e-007
1.827408e-005
-6.3579863e-007
1.8277555e-005
-5.5728549e-007
1.827475e-005
-5.5259978e-007
1.8266291e-005
-6.209783e-007
1.8251483e-005
-7.6885945e-007
1.8226984e-005
-1.0149709e-006
1.8184267e-005
-1.3895929e-006
1.8113347e-005
-1.9391471e-006
1.7987436e-005
-2.7244037e-006
1.7754142e-005
-3.8764499e-006
1.7328507e-005
-5.5184789e-006
1.6522472e-005
-7.7908522e-006
1.5100358e-005
-1.053344e-005
1.262777e-005
-1.3198856e-005
8.8578272e-006
-1.4576553e-005
3.4893631e-006
-1.357019e-005
-6.2723485e-006
1.6122012e-005
-4.6514601e-006
1.7073428e-005
-5.1581321e-006
1.7650812e-005
-4.1556313e-006
1.7956797e-005
-3.0879456e-006
1.8091451e-005
-2.1875615e-006
1.8129959e-005
-1.5108227e-006
1.812212e-005
-1.0549551e-006
1.809522e-005
-7.7095295e-007
1.8061573e-005
-6.0215171e-007
1.8023317e-005
-5.190293e-007
1.7978874e-005
-5.0815624e-007
1.7923591e-005
-5.6569555e-007
1.7850673e-005
-6.9594157e-007
1.775047e-005
-9.1476773e-007
1.760705e-005
-1.2461729e-006
1.7396827e-005
-1.7289237e-006
1.7084244e-005
-2.4118208e-006
1.6595845e-005
-3.388051e-006
1.5832353e-005
-4.7549875e-006
1.4612745e-005
-6.5712441e-006
1.2740386e-005
-8.6610816e-006
9.9968464e-006
-1.0455316e-005
6.4101405e-006
-1.0989847e-005
2.2143179e-006
-9.3743676e-006
-4.0580306e-006
1.6352168e-005
-5.9997869e-006
1.7201813e-005
-6.0077778e-006
1.7585496e-005
-4.5393135e-006
1.7702588e-005
-3.2050378e-006
1.7687665e-005
-2.1726391e-006
1.7615524e-005
-1.4386815e-006
1.752848e-005
-9.6791121e-007
1.7443064e-005
-6.8553705e-007
1.7364177e-005
-5.232647e-007
1.7287953e-005
-4.4280476e-007
1.7207192e-005
-4.2739494e-007
1.711223e-005
-4.7073427e-007
1.6992354e-005
-5.7606528e-007
1.6831663e-005
-7.5407638e-007
1.660928e-005
-1.0237904e-006
1.6292551e-005
-1.4121945e-006
1.5840284e-005
-1.9595533e-006
1.5176888e-005
-2.7246549e-006
1.4198741e-005
-3.7768406e-006
1.2752826e-005
-5.1253293e-006
1.0697581e-005
-6.6058366e-006
7.9761106e-006
-7.7338461e-006
4.769321e-006
-7.7830576e-006
1.5616379e-006
-6.1666845e-006
-2.4963926e-006
1.6441457e-005
-7.4374025e-006
1.6929761e-005
-6.4960819e-006
1.6937563e-005
-4.5471164e-006
1.676223e-005
-3.0297044e-006
1.6548999e-005
-1.9594083e-006
1.6351388e-005
-1.2410704e-006
1.6185212e-005
-8.0173543e-007
1.6047802e-005
-5.4812631e-007
1.5932149e-005
-4.0761179e-007
1.5827616e-005
-3.382719e-007
1.5721877e-005
-3.2165607e-007
1.5601658e-005
-3.5051497e-007
1.5452442e-005
-4.2685e-007
1.525524e-005
-5.5687387e-007
1.498549e-005
-7.5404005e-007
1.4609705e-005
-1.0364096e-006
1.4082648e-005
-1.4324963e-006
1.3336097e-005
-1.9781042e-006
1.2274179e-005
-2.7149224e-006
1.0780988e-005
-3.6321385e-006
8.766518e-006
-4.5913664e-006
6.2726605e-006
-5.2399885e-006
3.5618016e-006
-5.0721986e-006
1.130142e-006
-3.7350248e-006
-1.3662506e-006
1.6231113e-005
-8.6646744e-006
1.600328e-005
-6.2682493e-006
1.5462004e-005
-4.0058405e-006
1.4925342e-005
-2.4930417e-006
1.4496211e-005
-1.5302778e-006
1.4181445e-005
-9.2630389e-007
1.3953136e-005
-5.7342653e-007
1.3782083e-005
-3.7707392e-007
1.3646905e-005
-2.7243386e-007
1.3530035e-005
-2.2140147e-007
1.3415707e-005
-2.0732806e-007
1.3289079e-005
-2.2388659e-007
1.3133473e-005
-2.7124479e-007
1.2930077e-005
-3.5347744e-007
1.2653844e-005
-4.7780697e-007
1.2273498e-005
-6.5606373e-007
1.1745857e-005
-9.0485541e-007
1.1012686e-005
-1.2449333e-006
9.9956502e-006
-1.6978863e-006
8.6122966e-006
-2.2487849e-006
6.818803e-006
-2.7978727e-006
4.7028602e-006
-3.1240458e-006
2.5425554e-006
-2.9118938e-006
7.70511e-007
-1.9629804e-006
-5.9573959e-007
1.5391609e-005
-9.0524427e-006
1.4083819e-005
-4.9604594e-006
1.2938732e-005
-2.8607532e-006
1.2079847e-005
-1.6341566e-006
1.149604e-005
-9.464706e-007
1.1115683e-005
-5.4594702e-007
1.0865387e-005
-3.2313085e-007
1.069186e-005
-2.0354629e-007
1.0561675e-005
-1.4224973e-007
1.0453134e-005
-1.1286035e-007
1.0349869e-005
-1.0406248e-007
1.0237347e-005
-1.1136497e-007
1.0100505e-005
-1.3440254e-007
9.9224285e-006
-1.7540099e-007
9.6818259e-006
-2.3720443e-007
9.3518291e-006
-3.2606684e-007
8.8966129e-006
-4.4963927e-007
8.2698212e-006
-6.1814163e-007
7.4130175e-006
-8.410826e-007
6.2721165e-006
-1.1078839e-006
4.8373892e-006
-1.3631454e-006
3.2053115e-006
-1.4919681e-006
1.6299467e-006
-1.336529e-006
4.5630919e-007
-7.893429e-007
-1.3943038e-007
1.3238536e-005
-7.287138e-006
1.0779808e-005
-2.5017313e-006
9.1715346e-006
-1.2524797e-006
8.188889e-006
-6.5151105e-007
7.600925e-006
-3.5850662e-007
7.2523405e-006
-1.9736257e-007
7.0408341e-006
-1.1162442e-007
6.9041384e-006
-6.6850635e-008
6.806473e-006
-4.458435e-008
6.7277461e-006
-3.4133421e-008
6.654511e-006
-3.0827307e-008
6.5757528e-006
-3.2606816e-008
6.4806109e-006
-3.9260595e-008
6.3566369e-006
-5.142699e-008
6.1891219e-006
-6.9689357e-008
5.9590721e-006
-9.6017055e-008
5.6418291e-006
-1.3239623e-007
5.2055499e-006
-1.8186245e-007
4.6114509e-006
-2.4698367e-007
3.8271686e-006
-3.236015e-007
2.8582718e-006
-3.9424867e-007
1.7859178e-006
-4.1961402e-007
8.0565515e-007
-3.5626626e-007
1.7346174e-007
-1.5714945e-007
3.4031384e-008
7.7167029e-006
5.2149716e-006
3.9624919e-006
3.3109809e-006
2.9524742e-006
2.7551117e-006
2.6434873e-006
2.5766366e-006
2.5320523e-006
2.4979189e-006
2.4670916e-006
2.4344848e-006
2.3952242e-006
2.3437972e-006
2.2741078e-006
2.1780908e-006
2.0456946e-006
1.8638321e-006
1.6168484e-006
1.2932469e-006
8.9899828e-007
4.7938428e-007
1.2311804e-007
-3.4031385e-008
)
;

boundaryField
{
    inlet
    {
        type            calculated;
        value           nonuniform List<scalar> 
20
(
-5.0012803e-006
-5.0012803e-006
-5.0012803e-006
-5.0012803e-006
-5.0012803e-006
-5.0012803e-006
-5.0012803e-006
-5.0012803e-006
-5.0012803e-006
-5.0012803e-006
-1.5003841e-005
-1.5003841e-005
-1.5003841e-005
-1.5003841e-005
-1.5003841e-005
-1.5003841e-005
-1.5003841e-005
-1.5003841e-005
-1.5003841e-005
-1.5003841e-005
)
;
    }
    walls
    {
        type            calculated;
        value           uniform 0;
    }
    outlet
    {
        type            calculated;
        value           nonuniform List<scalar> 10(2.9422954e-005 2.8856814e-005 2.7731538e-005 2.6053408e-005 2.3817806e-005 2.1003388e-005 1.7575322e-005 1.3498257e-005 8.7529663e-006 3.3387649e-006);
    }
    centreline
    {
        type            symmetryPlane;
        value           uniform 0;
    }
    frontAndBack
    {
        type            empty;
        value           nonuniform 0();
    }
}


// ************************************************************************* //
