/*--------------------------------*- C++ -*----------------------------------*\
| =========                 |                                                 |
| \\      /  F ield         | OpenFOAM: The Open Source CFD Toolbox           |
|  \\    /   O peration     | Version:  5.x                                   |
|   \\  /    A nd           | Web:      www.OpenFOAM.org                      |
|    \\/     M anipulation  |                                                 |
\*---------------------------------------------------------------------------*/
/*   Windows 32 and 64 bit porting by blueCAPE: http://www.bluecape.com.pt   *\
|  Based on Windows porting (2.0.x v4) by Symscape: http://www.symscape.com   |
\*---------------------------------------------------------------------------*/
FoamFile
{
    version     2.0;
    format      ascii;
    class       surfaceScalarField;
    location    "0.18";
    object      phi_0;
}
// * * * * * * * * * * * * * * * * * * * * * * * * * * * * * * * * * * * * * //

dimensions      [0 3 -1 0 0 0 0];

internalField   nonuniform List<scalar> 
1430
(
5.1382692e-006
-1.3698886e-007
5.3104295e-006
-1.7216028e-007
5.4800598e-006
-1.6963021e-007
5.6261377e-006
-1.4607791e-007
5.7482352e-006
-1.2209739e-007
5.8449664e-006
-9.6731242e-008
5.9218201e-006
-7.6853618e-008
5.9838766e-006
-6.2056466e-008
6.0365172e-006
-5.2640564e-008
6.0851681e-006
-4.8650888e-008
6.1354879e-006
-5.0319797e-008
6.1938409e-006
-5.8353007e-008
6.2676955e-006
-7.3854599e-008
6.367299e-006
-9.9603468e-008
6.5072919e-006
-1.3999289e-007
6.7080709e-006
-2.0077902e-007
7.0023323e-006
-2.9426134e-007
7.4447223e-006
-4.4239005e-007
8.1231605e-006
-6.7843811e-007
9.1876765e-006
-1.064516e-006
1.0803508e-005
-1.6158315e-006
1.3243868e-005
-2.4403603e-006
1.661782e-005
-3.373952e-006
2.0931828e-005
-4.3140077e-006
-4.8427339e-006
2.5774561e-005
5.1372963e-006
-2.7300479e-007
5.3127489e-006
-3.4761287e-007
5.4808954e-006
-3.3777662e-007
5.6278673e-006
-2.9304975e-007
5.7494718e-006
-2.4370183e-007
5.8460875e-006
-1.933469e-007
5.9226156e-006
-1.5338163e-007
5.984328e-006
-1.2376887e-007
6.0366296e-006
-1.0494212e-007
6.0849369e-006
-9.6958241e-008
6.1348398e-006
-1.0022265e-007
6.1926846e-006
-1.1619773e-007
6.2658834e-006
-1.4705341e-007
6.3644995e-006
-1.9821955e-007
6.5030782e-006
-2.7857157e-007
6.7017746e-006
-3.994754e-007
6.9925625e-006
-5.8504924e-007
7.4293082e-006
-8.7913575e-007
8.0987043e-006
-1.347834e-006
9.1435847e-006
-2.1093963e-006
1.0739591e-005
-3.2118375e-006
1.3116286e-005
-4.8170558e-006
1.6456961e-005
-6.7146273e-006
2.0647167e-005
-8.5042138e-006
-9.7025304e-006
2.5506963e-005
5.138383e-006
-4.1010746e-007
5.3147042e-006
-5.2393412e-007
5.4837475e-006
-5.0681987e-007
5.6308305e-006
-4.4013271e-007
5.7521761e-006
-3.6504744e-007
5.8482971e-006
-2.8946788e-007
5.9242165e-006
-2.29301e-007
5.9852783e-006
-1.848307e-007
6.0369121e-006
-1.5657587e-007
6.0845111e-006
-1.4455724e-007
6.1336233e-006
-1.4933491e-007
6.1904599e-006
-1.7303425e-007
6.2623008e-006
-2.1889432e-007
6.3590364e-006
-2.9495517e-007
6.4948146e-006
-4.1434972e-007
6.6892333e-006
-5.9389406e-007
6.9733181e-006
-8.6913411e-007
7.3989137e-006
-1.3047313e-006
8.0492247e-006
-1.9981451e-006
9.0613354e-006
-3.121507e-006
1.0601051e-005
-4.7515535e-006
1.2893051e-005
-7.1090554e-006
1.6102206e-005
-9.923782e-006
2.015358e-005
-1.2555588e-005
-1.4412817e-005
2.4863866e-005
5.1399742e-006
-5.4880136e-007
5.3177738e-006
-7.0173371e-007
5.4880725e-006
-6.7711854e-007
5.6353735e-006
-5.8743376e-007
5.7563411e-006
-4.8601507e-007
5.8516895e-006
-3.8481629e-007
5.9266723e-006
-3.0428372e-007
5.9867815e-006
-2.4493992e-007
6.037414e-006
-2.072084e-007
6.083949e-006
-1.9109225e-007
6.1318768e-006
-1.972627e-007
6.1872232e-006
-2.2838055e-007
6.2570487e-006
-2.8871986e-007
6.3509748e-006
-3.888813e-007
6.4826126e-006
-5.4598745e-007
6.6707103e-006
-7.8199182e-007
6.9448593e-006
-1.143283e-006
7.354136e-006
-1.714008e-006
7.9763869e-006
-2.6203961e-006
8.9398253e-006
-4.0849454e-006
1.0397823e-005
-6.2095514e-006
1.2562827e-005
-9.2740591e-006
1.557182e-005
-1.2932775e-005
1.9403263e-005
-1.6387031e-005
-1.8877441e-005
2.3867887e-005
5.1421755e-006
-6.8969654e-007
5.3220124e-006
-8.8157059e-007
5.4940086e-006
-8.4911476e-007
5.6416035e-006
-7.350286e-007
5.7620628e-006
-6.0647442e-007
5.8563493e-006
-4.7910278e-007
5.9300673e-006
-3.7800171e-007
5.9889032e-006
-3.0377579e-007
6.038205e-006
-2.5651017e-007
6.083331e-006
-2.3621829e-007
6.1296862e-006
-2.4361787e-007
6.1830712e-006
-2.8176558e-007
6.2502511e-006
-3.5589969e-007
6.3404888e-006
-4.7911898e-007
6.4667147e-006
-6.722134e-007
6.6465544e-006
-9.6183146e-007
6.9077313e-006
-1.40446e-006
7.2958039e-006
-2.1020806e-006
7.8814895e-006
-3.2060816e-006
8.7823669e-006
-4.9858228e-006
1.0133282e-005
-7.560467e-006
1.2128616e-005
-1.1269393e-005
1.4871818e-005
-1.5675977e-005
1.8404045e-005
-1.9919258e-005
-2.298545e-005
2.2512054e-005
5.1451048e-006
-8.33521e-007
5.3275723e-006
-1.0640381e-006
5.5017536e-006
-1.0232961e-006
5.6497122e-006
-8.8298716e-007
5.7695054e-006
-7.262676e-007
5.8624263e-006
-5.7202372e-007
5.9345396e-006
-4.50115e-007
5.991765e-006
-3.6100116e-007
6.0394129e-006
-3.0415804e-007
6.0827966e-006
-2.7960199e-007
6.1271981e-006
-2.8801936e-007
6.178165e-006
-3.3273252e-007
6.2421059e-006
-4.1984056e-007
6.3278151e-006
-5.6482814e-007
6.447396e-006
-7.9179429e-007
6.6171525e-006
-1.131588e-006
6.8625232e-006
-1.6498307e-006
7.2249415e-006
-2.4644988e-006
7.7666882e-006
-3.7478283e-006
8.5919932e-006
-5.8111278e-006
9.8112737e-006
-8.7797475e-006
1.1597821e-005
-1.305594e-005
1.4007843e-005
-1.8085998e-005
1.7155443e-005
-2.3066858e-005
-2.6651398e-005
2.0821391e-005
5.1489229e-006
-9.8116362e-007
5.3346617e-006
-1.249777e-006
5.511553e-006
-1.2001873e-006
5.6599535e-006
-1.0313877e-006
5.7788878e-006
-8.452019e-007
5.870121e-006
-6.6325689e-007
5.940275e-006
-5.2026907e-007
5.9955348e-006
-4.1626095e-007
6.0412163e-006
-3.4983954e-007
6.0825322e-006
-3.2091782e-007
6.1246012e-006
-3.3008837e-007
6.1727237e-006
-3.8085504e-007
6.232862e-006
-4.7997884e-007
6.3132491e-006
-6.4521523e-007
6.4250373e-006
-9.0358244e-007
6.5830672e-006
-1.2896179e-006
6.8101084e-006
-1.876872e-006
7.1428871e-006
-2.7972774e-006
7.6342449e-006
-4.2391862e-006
8.3722626e-006
-6.5491455e-006
9.4381332e-006
-9.8456181e-006
1.0978158e-005
-1.4595965e-005
1.2981353e-005
-2.0089193e-005
1.5690929e-005
-2.5776435e-005
-2.9703916e-005
1.8743447e-005
5.1538737e-006
-1.133757e-006
5.3435479e-006
-1.4394511e-006
5.5237275e-006
-1.3803669e-006
5.672638e-006
-1.1802982e-006
5.7904676e-006
-9.6303154e-007
5.8796659e-006
-7.5245518e-007
5.9474914e-006
-5.8809459e-007
6.0004148e-006
-4.6918429e-007
6.043828e-006
-3.9325281e-007
6.0827596e-006
-3.5984938e-007
6.1221208e-006
-3.6944955e-007
6.1669941e-006
-4.2572834e-007
6.2228175e-006
-5.3580225e-007
6.2971688e-006
-7.195665e-007
6.4001244e-006
-1.006538e-006
6.5449652e-006
-1.4344587e-006
6.7514716e-006
-2.0833784e-006
7.051158e-006
-3.0969639e-006
7.4869986e-006
-4.6750268e-006
8.127694e-006
-7.1898409e-006
9.0211494e-006
-1.0739074e-005
1.0281709e-005
-1.5856524e-005
1.1838862e-005
-2.1646346e-005
1.4062675e-005
-2.8000248e-005
-3.1794269e-005
1.6153028e-005
5.1603251e-006
-1.2928018e-006
5.3545048e-006
-1.6336307e-006
5.5386451e-006
-1.5645072e-006
5.688076e-006
-1.329729e-006
5.8044736e-006
-1.0794291e-006
5.8912822e-006
-8.3926381e-007
5.9564016e-006
-6.5321396e-007
6.0066154e-006
-5.1939807e-007
6.0474411e-006
-4.3407845e-007
6.0836748e-006
-3.9608307e-007
6.1199944e-006
-4.0576911e-007
6.1612319e-006
-4.6696586e-007
6.2122883e-006
-5.8685855e-007
6.279993e-006
-7.8727118e-007
6.3731919e-006
-1.099737e-006
6.5035104e-006
-1.5647772e-006
6.6877044e-006
-2.2675723e-006
6.9515503e-006
-3.3608098e-006
7.3271437e-006
-5.0506201e-006
7.8632703e-006
-7.7259675e-006
8.5703035e-006
-1.1446107e-005
9.5281573e-006
-1.6814378e-005
1.0594699e-005
-2.2712888e-005
1.2276276e-005
-2.9681825e-005
-3.2527835e-005
1.3009841e-005
5.1675965e-006
-1.4591178e-006
5.3686662e-006
-1.8347003e-006
5.5564375e-006
-1.7522784e-006
5.7065911e-006
-1.4798824e-006
5.8210282e-006
-1.1938662e-006
5.9051131e-006
-9.233486e-007
5.9671461e-006
-7.1524682e-007
6.0142812e-006
-5.6653313e-007
6.0521577e-006
-4.7195486e-007
6.0853921e-006
-4.2931748e-007
6.1183742e-006
-4.3875116e-007
6.1556287e-006
-5.0422037e-007
6.2015283e-006
-6.3275812e-007
6.26204e-006
-8.4778286e-007
6.344681e-006
-1.1823779e-006
6.4592672e-006
-1.6793634e-006
6.61962e-006
-2.4279251e-006
6.845386e-006
-3.5865757e-006
7.1573749e-006
-5.362609e-006
7.5840847e-006
-8.1526772e-006
8.1067656e-006
-1.1968788e-005
8.7277912e-006
-1.7435404e-005
9.2499879e-006
-2.3235085e-005
1.0063943e-005
-3.049578e-005
8.7981753e-006
-3.1262067e-005
2.8401892e-005
-2.6273301e-006
2.9322492e-005
-9.2059984e-007
2.9504962e-005
-1.8246934e-007
2.9512938e-005
-7.9763366e-009
2.9480057e-005
3.2882058e-008
2.9441907e-005
3.8150074e-008
2.9421287e-005
2.0620181e-008
2.9415571e-005
5.7153763e-009
2.9416596e-005
-1.0249197e-009
2.9418379e-005
-1.782487e-009
2.9419179e-005
-8.0057732e-010
2.9419246e-005
-6.6919559e-011
2.941913e-005
1.1645302e-010
2.9419072e-005
5.7353294e-011
2.9419071e-005
1.7630099e-012
2.9419078e-005
-7.8655137e-012
2.9419081e-005
-2.7245982e-012
2.941908e-005
5.9642656e-013
2.941908e-005
7.4587385e-013
2.941908e-005
2.1740993e-013
2.941908e-005
-2.1794549e-014
2.941908e-005
-3.7199464e-013
2.9419081e-005
-7.7686208e-013
2.9419081e-005
-2.1984332e-013
1.8684912e-013
2.7917057e-005
-5.0374241e-006
2.8794555e-005
-1.7980974e-006
2.89407e-005
-3.2861375e-007
2.8944372e-005
-1.1647787e-008
2.8904529e-005
7.2725526e-008
2.8870832e-005
7.1847123e-008
2.8853921e-005
3.7531286e-008
2.8850001e-005
9.63593e-009
2.8851255e-005
-2.2793292e-009
2.885292e-005
-3.4475811e-009
2.8853564e-005
-1.4439385e-009
2.8853571e-005
-7.3870131e-011
2.8853457e-005
2.3000955e-010
2.885341e-005
1.0405247e-010
2.8853411e-005
6.1521423e-013
2.8853419e-005
-1.5430853e-011
2.8853421e-005
-4.8896438e-012
2.885342e-005
1.2583183e-012
2.885342e-005
1.4168812e-012
2.885342e-005
4.0677993e-013
2.885342e-005
-2.1440711e-015
2.885342e-005
-6.7295702e-013
2.8853421e-005
-1.5637514e-012
2.8853422e-005
-9.2557609e-013
-1.5017305e-013
2.6988825e-005
-7.1623833e-006
2.7719085e-005
-2.5283566e-006
2.7826716e-005
-4.362455e-007
2.7798961e-005
1.6107246e-008
2.7758066e-005
1.1362091e-007
2.7736251e-005
9.3661637e-008
2.7726978e-005
4.6804818e-008
2.772592e-005
1.0694261e-008
2.7727592e-005
-3.9515709e-009
2.7728901e-005
-4.7565353e-009
2.7729252e-005
-1.7949731e-009
2.7729174e-005
3.587315e-012
2.7729076e-005
3.2869709e-010
2.7729049e-005
1.3057631e-010
2.7729055e-005
-5.2250362e-012
2.7729061e-005
-2.1575788e-011
2.7729062e-005
-5.9992413e-012
2.7729062e-005
1.9531863e-012
2.7729061e-005
1.8959425e-012
2.7729061e-005
5.1391333e-013
2.7729061e-005
7.0783233e-015
2.7729061e-005
-8.2363725e-013
2.7729062e-005
-2.2614666e-012
2.7729064e-005
-2.5500091e-012
-1.3945436e-012
2.5592578e-005
-8.8870743e-006
2.6107816e-005
-3.0435951e-006
2.6131912e-005
-4.6034095e-007
2.6084844e-005
6.3175339e-008
2.6056851e-005
1.4161375e-007
2.6049502e-005
1.0101068e-007
2.604819e-005
4.8116856e-008
2.6050006e-005
8.8777335e-009
2.6051719e-005
-5.6642928e-009
2.6052391e-005
-5.4287985e-009
2.6052382e-005
-1.7854113e-009
2.605224e-005
1.4500392e-010
2.6052178e-005
3.9090172e-010
2.6052177e-005
1.3155652e-010
2.6052186e-005
-1.4232989e-011
2.6052189e-005
-2.4922154e-011
2.6052189e-005
-5.8092424e-012
2.6052189e-005
2.5314396e-012
2.6052188e-005
2.1286929e-012
2.6052188e-005
5.7534118e-013
2.6052188e-005
8.9030274e-016
2.6052189e-005
-8.7319726e-013
2.6052189e-005
-2.8322976e-012
2.6052191e-005
-4.8744696e-012
-3.346071e-012
2.3705591e-005
-1.0080611e-005
2.3905445e-005
-3.2434485e-006
2.383796e-005
-3.9285591e-007
2.3809737e-005
9.13981e-008
2.380301e-005
1.4834083e-007
2.3808299e-005
9.572136e-008
2.3813939e-005
4.2477287e-008
2.3817535e-005
5.282e-009
2.3818618e-005
-6.7474276e-009
2.3818468e-005
-5.278916e-009
2.3818133e-005
-1.4506675e-009
2.3817989e-005
2.8950244e-010
2.3817984e-005
3.9516028e-010
2.3818007e-005
1.0901399e-010
2.3818015e-005
-2.2654612e-011
2.3818015e-005
-2.4489057e-011
2.3818013e-005
-4.4495426e-012
2.3818013e-005
2.8037913e-012
2.3818013e-005
2.0258388e-012
2.3818013e-005
5.803815e-013
2.3818013e-005
4.9726448e-014
2.3818013e-005
-8.3070651e-013
2.3818014e-005
-3.2533401e-012
2.3818016e-005
-7.073046e-012
-5.2184038e-012
2.1267184e-005
-1.0526405e-005
2.1064348e-005
-3.0406118e-006
2.0957839e-005
-2.8634747e-007
2.0959876e-005
8.9361543e-008
2.0974675e-005
1.3354193e-007
2.0991984e-005
7.8412283e-008
2.1002733e-005
3.1728422e-008
2.1006516e-005
1.4985954e-009
2.1006384e-005
-6.6151998e-009
2.1005446e-005
-4.3416083e-009
2.1004933e-005
-9.367917e-010
2.1004856e-005
3.6590175e-010
2.1004915e-005
3.3597788e-010
2.1004951e-005
7.2892125e-011
2.1004955e-005
-2.6297192e-011
2.1004951e-005
-2.0297642e-011
2.1004949e-005
-2.515079e-012
2.1004949e-005
2.6456052e-012
2.100495e-005
1.5942129e-012
2.100495e-005
4.716002e-013
2.100495e-005
1.2829841e-013
2.1004949e-005
-6.6466342e-013
2.100495e-005
-3.3395248e-012
2.1004951e-005
-8.1580022e-012
-6.1415865e-012
1.8172954e-005
-9.9559108e-006
1.7589379e-005
-2.4570371e-006
1.7486601e-005
-1.835692e-007
1.750846e-005
6.7502634e-008
1.754041e-005
1.0159146e-007
1.7565943e-005
5.2879048e-008
1.7578569e-005
1.9103106e-008
1.7581099e-005
-1.0314916e-009
1.7579649e-005
-5.1651904e-009
1.7578218e-005
-2.9105393e-009
1.7577722e-005
-4.4100611e-010
1.7577753e-005
3.3427854e-010
1.7577858e-005
2.3163774e-010
1.7577894e-005
3.6789033e-011
1.7577891e-005
-2.3035255e-011
1.7577884e-005
-1.3656799e-011
1.7577882e-005
-8.120059e-013
1.7577883e-005
2.0411951e-012
1.7577883e-005
1.0213166e-012
1.7577884e-005
3.1392413e-013
1.7577884e-005
1.6415648e-013
1.7577883e-005
-4.4935817e-013
1.7577883e-005
-2.9407421e-012
1.7577882e-005
-7.4791103e-012
-5.6197608e-012
1.4320119e-005
-8.1230019e-006
1.3484377e-005
-1.6212951e-006
1.3395986e-005
-9.5178591e-008
1.342471e-005
3.8778782e-008
1.3466735e-005
5.9566839e-008
1.3493413e-005
2.6200917e-008
1.3504313e-005
8.2023959e-009
1.3504976e-005
-1.6942217e-009
1.3502756e-005
-2.9449496e-009
1.3501286e-005
-1.4409385e-009
1.3500958e-005
-1.1269227e-010
1.350108e-005
2.1250642e-010
1.3501194e-005
1.1772751e-010
1.3501219e-005
1.1504135e-011
1.350121e-005
-1.4296776e-011
1.3501203e-005
-6.7360005e-012
1.3501202e-005
1.0870959e-013
1.3501203e-005
1.1672588e-012
1.3501204e-005
4.8840359e-013
1.3501204e-005
1.691047e-013
1.3501204e-005
1.3600402e-013
1.3501204e-005
-2.4782781e-013
1.3501203e-005
-2.0242024e-012
1.3501201e-005
-5.112272e-012
-3.8006734e-012
9.6829083e-006
-4.796069e-006
8.7403236e-006
-6.7871052e-007
8.6663883e-006
-2.1243432e-008
8.6937765e-006
1.1390515e-008
8.7327623e-006
2.0580932e-008
8.7527083e-006
6.2549256e-009
8.7592334e-006
1.6772721e-009
8.7584927e-006
-9.5348474e-010
8.7564509e-006
-9.0316437e-010
8.7553925e-006
-3.8251476e-010
8.7552695e-006
1.0276553e-011
8.7554109e-006
7.114551e-011
8.7554968e-006
3.1861975e-011
8.7555076e-006
6.5630973e-013
8.755498e-006
-4.6936263e-012
8.755493e-006
-1.7394772e-012
8.7554928e-006
2.1803665e-013
8.7554936e-006
3.6435522e-013
8.755494e-006
1.2408134e-013
8.7554942e-006
5.3638023e-014
8.7554943e-006
6.2616918e-014
8.7554942e-006
-7.6017242e-014
8.755493e-006
-8.019994e-013
8.7554899e-006
-1.9927541e-012
-1.4622881e-012
4.0021063e-006
3.3233957e-006
3.3021522e-006
3.3135427e-006
3.3341236e-006
3.3403785e-006
3.3420558e-006
3.3411023e-006
3.3401991e-006
3.3398166e-006
3.3398269e-006
3.339898e-006
3.3399299e-006
3.3399306e-006
3.3399258e-006
3.3399241e-006
3.3399243e-006
3.3399247e-006
3.3399248e-006
3.3399249e-006
3.339925e-006
3.3399249e-006
3.3399242e-006
3.3399222e-006
1.5537372e-005
-1.992649e-006
1.6222992e-005
-2.5203196e-006
1.6795631e-005
-2.3249175e-006
1.7249338e-005
-1.933589e-006
1.757839e-005
-1.5229181e-006
1.7811571e-005
-1.1565289e-006
1.7976155e-005
-8.7983157e-007
1.8097037e-005
-6.8741468e-007
1.8190761e-005
-5.6567871e-007
1.8270957e-005
-5.0951352e-007
1.8348396e-005
-5.1619036e-007
1.8433903e-005
-5.8972691e-007
1.8538597e-005
-7.3745224e-007
1.8673568e-005
-9.8275373e-007
1.8854095e-005
-1.3629053e-006
1.9099597e-005
-1.9248649e-006
1.9428603e-005
-2.7569313e-006
1.986762e-005
-4.025593e-006
2.0426459e-005
-5.921448e-006
2.1049918e-005
-8.7761361e-006
2.1636378e-005
-1.2555247e-005
2.1509237e-005
-1.7308264e-005
1.9889646e-005
-2.1615494e-005
1.4643393e-005
-2.5249528e-005
-1.6618674e-005
1.567235e-005
-2.6611585e-006
1.6459086e-005
-3.3070549e-006
1.7075589e-005
-2.941421e-006
1.7518016e-005
-2.3760159e-006
1.7812353e-005
-1.8172551e-006
1.8001474e-005
-1.3456499e-006
1.812132e-005
-9.9967725e-007
1.820138e-005
-7.6747523e-007
1.8258095e-005
-6.2239352e-007
1.830226e-005
-5.5367788e-007
1.8341412e-005
-5.5534242e-007
1.8381104e-005
-6.2941945e-007
1.842733e-005
-7.836783e-007
1.8484061e-005
-1.039484e-006
1.8553455e-005
-1.4322993e-006
1.8638587e-005
-2.0099971e-006
1.8731736e-005
-2.8500805e-006
1.8815309e-005
-4.1091661e-006
1.8837047e-005
-5.9431861e-006
1.8657042e-005
-8.596131e-006
1.8057897e-005
-1.1956101e-005
1.6424005e-005
-1.5674372e-005
1.3159888e-005
-1.8351377e-005
6.8538885e-006
-1.8943529e-005
-9.7647855e-006
1.5872896e-005
-3.5302141e-006
1.6769477e-005
-4.203635e-006
1.7403657e-005
-3.5756016e-006
1.7807359e-005
-2.7797181e-006
1.8041262e-005
-2.0511583e-006
1.8166727e-005
-1.4711149e-006
1.8229112e-005
-1.0620622e-006
1.8259074e-005
-7.9743671e-007
1.8272254e-005
-6.355739e-007
1.827576e-005
-5.5718331e-007
1.8272986e-005
-5.5256893e-007
1.8264563e-005
-6.2099599e-007
1.8249795e-005
-7.6891044e-007
1.8225345e-005
-1.0150339e-006
1.8182694e-005
-1.3896481e-006
1.8111861e-005
-1.939165e-006
1.7986085e-005
-2.724304e-006
1.7753007e-005
-3.8760881e-006
1.7327669e-005
-5.5178485e-006
1.6521996e-005
-7.7904581e-006
1.510024e-005
-1.0534345e-005
1.262791e-005
-1.3202042e-005
8.8581048e-006
-1.4581572e-005
3.4896143e-006
-1.3575038e-005
-6.2751712e-006
1.6121574e-005
-4.6479472e-006
1.7072983e-005
-5.1550442e-006
1.7650417e-005
-4.1530353e-006
1.7956415e-005
-3.0857157e-006
1.8091063e-005
-2.185807e-006
1.8129588e-005
-1.5096397e-006
1.8121797e-005
-1.0542705e-006
1.8094957e-005
-7.7059697e-007
1.8061365e-005
-6.0198173e-007
1.8023154e-005
-5.1897261e-007
1.7978751e-005
-5.0816609e-007
1.7923505e-005
-5.6574964e-007
1.7850625e-005
-6.9603072e-007
1.7750469e-005
-9.1487732e-007
1.7607113e-005
-1.2462927e-006
1.7396977e-005
-1.7290291e-006
1.7084528e-005
-2.4118544e-006
1.659635e-005
-3.3879102e-006
1.583317e-005
-4.7546687e-006
1.4613913e-005
-6.5712016e-006
1.2741783e-005
-8.6622145e-006
9.9981547e-006
-1.0458414e-005
6.4110703e-006
-1.0994488e-005
2.2147526e-006
-9.3787205e-006
-4.0604185e-006
1.6352286e-005
-5.9963921e-006
1.7202454e-005
-6.005212e-006
1.7586574e-005
-4.5371553e-006
1.7703969e-005
-3.2031108e-006
1.7689234e-005
-2.1710727e-006
1.7617222e-005
-1.4376278e-006
1.7530281e-005
-9.6732879e-007
1.7444951e-005
-6.8526741e-007
1.7366132e-005
-5.2316251e-007
1.7289955e-005
-4.4279612e-007
1.7209228e-005
-4.2743861e-007
1.711429e-005
-4.708118e-007
1.6994435e-005
-5.7617546e-007
1.6833769e-005
-7.5421123e-007
1.661142e-005
-1.0239438e-006
1.6294743e-005
-1.4123526e-006
1.5842562e-005
-1.9596732e-006
1.5179322e-005
-2.7246698e-006
1.420141e-005
-3.7767569e-006
1.2755712e-005
-5.1255039e-006
1.0700461e-005
-6.606963e-006
7.9785234e-006
-7.7364765e-006
4.7708359e-006
-7.7868002e-006
1.5622163e-006
-6.1701009e-006
-2.4982022e-006
1.6442171e-005
-7.4347225e-006
1.6931351e-005
-6.494392e-006
1.6939854e-005
-4.5456582e-006
1.6765057e-005
-3.0283139e-006
1.6552203e-005
-1.9582188e-006
1.6354834e-005
-1.2402581e-006
1.6188806e-005
-8.0130132e-007
1.6051491e-005
-5.479524e-007
1.5935901e-005
-4.0757193e-007
1.5831403e-005
-3.3829874e-007
1.5725681e-005
-3.2171645e-007
1.5605466e-005
-3.5059678e-007
1.5456246e-005
-4.2695558e-007
1.5259035e-005
-5.5700022e-007
1.4989274e-005
-7.5418242e-007
1.4613485e-005
-1.0365639e-006
1.4086443e-005
-1.4326307e-006
1.3339948e-005
-1.9781746e-006
1.2278136e-005
-2.7149456e-006
1.0784991e-005
-3.6323584e-006
8.7702789e-006
-4.592251e-006
6.2756646e-006
-5.2418621e-006
3.5636029e-006
-5.0747384e-006
1.1307428e-006
-3.7372407e-006
-1.3674595e-006
1.6232139e-005
-8.6630208e-006
1.6005179e-005
-6.2674319e-006
1.5464608e-005
-4.0050869e-006
1.4928557e-005
-2.4922631e-006
1.44999e-005
-1.5295614e-006
1.418544e-005
-9.2579856e-007
1.39573e-005
-5.7316133e-007
1.3786334e-005
-3.7698628e-007
1.3651199e-005
-2.7243716e-007
1.3534344e-005
-2.2144326e-007
1.3420013e-005
-2.0738544e-007
1.3293369e-005
-2.2395359e-007
1.3137737e-005
-2.7132323e-007
1.2934304e-005
-3.5356745e-007
1.2658029e-005
-4.77907e-007
1.2277636e-005
-6.5617098e-007
1.1749954e-005
-9.0494887e-007
1.1016764e-005
-1.2449848e-006
9.9997294e-006
-1.6979106e-006
8.6162957e-006
-2.2489247e-006
6.8224416e-006
-2.7983969e-006
4.7056889e-006
-3.1251094e-006
2.5442162e-006
-2.9132657e-006
7.7105865e-007
-1.9640832e-006
-5.964008e-007
1.5392549e-005
-9.0517292e-006
1.4085309e-005
-4.9601911e-006
1.2940735e-005
-2.8605129e-006
1.208235e-005
-1.6338788e-006
1.1498963e-005
-9.4617412e-007
1.1118889e-005
-5.4572458e-007
1.0868745e-005
-3.2301726e-007
1.069528e-005
-2.0352124e-007
1.0565112e-005
-1.4226975e-007
1.0456565e-005
-1.1289618e-007
1.0353282e-005
-1.0410178e-007
1.0240734e-005
-1.1140581e-007
1.0103856e-005
-1.3444562e-007
9.9257364e-006
-1.754474e-007
9.6850841e-006
-2.3725471e-007
9.3550307e-006
-3.261176e-007
8.8997601e-006
-4.4967826e-007
8.2729309e-006
-6.1815552e-007
7.4161e-006
-8.4107967e-007
6.2750997e-006
-1.1079244e-006
4.8400429e-006
-1.3633402e-006
3.2073204e-006
-1.4923868e-006
1.6311096e-006
-1.3370549e-006
4.5672026e-007
-7.8969383e-007
-1.3968052e-007
1.3239094e-005
-7.2869822e-006
1.0780582e-005
-2.5016792e-006
9.1725352e-006
-1.2524661e-006
8.1901433e-006
-6.5148699e-007
7.6024228e-006
-3.5845364e-007
7.2540131e-006
-1.9731492e-007
7.0425985e-006
-1.1160267e-007
6.9059299e-006
-6.685259e-008
6.8082585e-006
-4.4598302e-008
6.729513e-006
-3.4150753e-008
6.6562554e-006
-3.0844133e-008
6.5774724e-006
-3.2622778e-008
6.4823027e-006
-3.9275861e-008
6.3582978e-006
-5.1442579e-008
6.1907487e-006
-6.9705535e-008
5.9606633e-006
-9.6032195e-008
5.6433905e-006
-1.324055e-007
5.2070972e-006
-1.8186218e-007
4.6129927e-006
-2.4697513e-007
3.828666e-006
-3.2359771e-007
2.8595989e-006
-3.942731e-007
1.7868967e-006
-4.1968456e-007
8.0620106e-007
-3.5635919e-007
1.7367604e-007
-1.5716878e-007
3.3995546e-008
7.7168588e-006
5.2151796e-006
3.9627134e-006
3.3112264e-006
2.9527728e-006
2.7554579e-006
2.6438552e-006
2.5770026e-006
2.5324043e-006
2.4982536e-006
2.4674095e-006
2.4347867e-006
2.3955108e-006
2.3440683e-006
2.2743627e-006
2.1783305e-006
2.045925e-006
1.8640629e-006
1.6170877e-006
1.29349e-006
8.9921693e-007
4.7953238e-007
1.2317321e-007
-3.3995546e-008
)
;

boundaryField
{
    inlet
    {
        type            calculated;
        value           nonuniform List<scalar> 
20
(
-5.0012803e-006
-5.0012803e-006
-5.0012803e-006
-5.0012803e-006
-5.0012803e-006
-5.0012803e-006
-5.0012803e-006
-5.0012803e-006
-5.0012803e-006
-5.0012803e-006
-1.5003841e-005
-1.5003841e-005
-1.5003841e-005
-1.5003841e-005
-1.5003841e-005
-1.5003841e-005
-1.5003841e-005
-1.5003841e-005
-1.5003841e-005
-1.5003841e-005
)
;
    }
    walls
    {
        type            calculated;
        value           uniform 0;
    }
    outlet
    {
        type            calculated;
        value           nonuniform List<scalar> 10(2.9419081e-005 2.8853422e-005 2.7729065e-005 2.6052193e-005 2.3818018e-005 2.1004952e-005 1.7577882e-005 1.3501199e-005 8.7554877e-006 3.3399208e-006);
    }
    centreline
    {
        type            symmetryPlane;
        value           uniform 0;
    }
    frontAndBack
    {
        type            empty;
        value           nonuniform 0();
    }
}


// ************************************************************************* //
