/*--------------------------------*- C++ -*----------------------------------*\
| =========                 |                                                 |
| \\      /  F ield         | OpenFOAM: The Open Source CFD Toolbox           |
|  \\    /   O peration     | Version:  5.x                                   |
|   \\  /    A nd           | Web:      www.OpenFOAM.org                      |
|    \\/     M anipulation  |                                                 |
\*---------------------------------------------------------------------------*/
/*   Windows 32 and 64 bit porting by blueCAPE: http://www.bluecape.com.pt   *\
|  Based on Windows porting (2.0.x v4) by Symscape: http://www.symscape.com   |
\*---------------------------------------------------------------------------*/
FoamFile
{
    version     2.0;
    format      ascii;
    class       volSymmTensorField;
    location    "0.18";
    object      sigma_0;
}
// * * * * * * * * * * * * * * * * * * * * * * * * * * * * * * * * * * * * * //

dimensions      [0 2 -2 0 0 0 0];

internalField   nonuniform List<symmTensor> 
750
(
(-0.00034126827 2.2865121e-005 0 0.00033284379 0 0)
(-0.00044362519 2.5651765e-006 0 0.0004483581 0 0)
(-0.00045753462 -4.8415476e-006 0 0.00044610083 0 0)
(-0.00038919997 -7.8712102e-006 0 0.00038788154 0 0)
(-0.00032425581 -7.7099144e-006 0 0.00032064653 0 0)
(-0.00026272897 -6.9713677e-006 0 0.00026117084 0 0)
(-0.00020929792 -5.3947638e-006 0 0.00020809322 0 0)
(-0.00017181635 -3.7161943e-006 0 0.00017105539 0 0)
(-0.00014833362 -1.9637383e-006 0 0.00014772108 0 0)
(-0.00013968223 -1.4713369e-008 0 0.00013922797 0 0)
(-0.00014521255 1.8462239e-006 0 0.00014457972 0 0)
(-0.00016898698 4.321003e-006 0 0.00016817808 0 0)
(-0.00021641542 7.6509265e-006 0 0.00021528016 0 0)
(-0.00028723083 1.1833749e-005 0 0.00028483376 0 0)
(-0.0004027552 1.8052623e-005 0 0.00039821191 0 0)
(-0.00057911134 2.7673643e-005 0 0.00057035941 0 0)
(-0.00083805149 4.2030751e-005 0 0.00081856075 0 0)
(-0.0012522802 6.5649657e-005 0 0.0012104094 0 0)
(-0.0019171292 0.00010719261 0 0.0018255222 0 0)
(-0.0029986343 0.00016861021 0 0.0027618748 0 0)
(-0.0047348526 0.00027323637 0 0.0042319979 0 0)
(-0.007381862 0.00041430493 0 0.0060811129 0 0)
(-0.010894084 0.00056846124 0 0.0085080223 0 0)
(-0.014897987 0.00082040688 0 0.010365232 0 0)
(-0.018255824 0.00058346412 0 0.012073885 0 0)
(-0.00034306746 6.8959948e-005 0 0.00033233288 0 0)
(-0.00044431359 7.8833173e-006 0 0.00045299636 0 0)
(-0.00045874814 -1.4835621e-005 0 0.00044496978 0 0)
(-0.00038924705 -2.3345199e-005 0 0.00038885409 0 0)
(-0.00032449108 -2.317572e-005 0 0.00032038323 0 0)
(-0.00026168882 -2.0754488e-005 0 0.00026025808 0 0)
(-0.00020830529 -1.5968451e-005 0 0.0002070406 0 0)
(-0.00017130688 -1.0998016e-005 0 0.00017043376 0 0)
(-0.00014741966 -5.6855089e-006 0 0.00014672939 0 0)
(-0.0001387302 1.0904635e-007 0 0.0001382156 0 0)
(-0.00014403426 5.681935e-006 0 0.0001433119 0 0)
(-0.00016756779 1.3126553e-005 0 0.00016665552 0 0)
(-0.00021462679 2.3045042e-005 0 0.00021337078 0 0)
(-0.00028442445 3.5468531e-005 0 0.00028180171 0 0)
(-0.00039883665 5.4082244e-005 0 0.00039398641 0 0)
(-0.00057332967 8.2598139e-005 0 0.0005641494 0 0)
(-0.00082843458 0.00012504091 0 0.00080808249 0 0)
(-0.001237076 0.00019521106 0 0.0011939706 0 0)
(-0.0018926276 0.00031688663 0 0.0017994876 0 0)
(-0.0029504524 0.00048801418 0 0.0027091803 0 0)
(-0.0046669276 0.00082123658 0 0.0041645904 0 0)
(-0.0072302376 0.0011788995 0 0.0059174533 0 0)
(-0.010727054 0.0017012783 0 0.0083849781 0 0)
(-0.014662748 0.0025100894 0 0.010036928 0 0)
(-0.017850982 0.0017894104 0 0.011943021 0 0)
(-0.00034568398 0.00011558852 0 0.00033375156 0 0)
(-0.00044663175 1.3021434e-005 0 0.00045672142 0 0)
(-0.00046088518 -2.5143835e-005 0 0.00044610714 0 0)
(-0.00038982167 -3.8723185e-005 0 0.00038967565 0 0)
(-0.00032395208 -3.8818381e-005 0 0.00031975882 0 0)
(-0.00026050189 -3.4628031e-005 0 0.00025909709 0 0)
(-0.00020678834 -2.6531261e-005 0 0.00020555958 0 0)
(-0.0001695871 -1.8216958e-005 0 0.00016877386 0 0)
(-0.00014560228 -9.3704761e-006 0 0.00014496342 0 0)
(-0.00013677814 2.0079793e-007 0 0.00013633662 0 0)
(-0.00014176522 9.4806344e-006 0 0.00014110755 0 0)
(-0.00016479757 2.1894019e-005 0 0.00016396806 0 0)
(-0.00021095199 3.8246571e-005 0 0.00020981367 0 0)
(-0.00027904317 5.873742e-005 0 0.00027655922 0 0)
(-0.00039100136 8.9581931e-005 0 0.00038637125 0 0)
(-0.0005616403 0.00013649211 0 0.00055282234 0 0)
(-0.00080982207 0.00020623341 0 0.00078997905 0 0)
(-0.0012074568 0.00032160422 0 0.0011653553 0 0)
(-0.0018427944 0.00051900548 0 0.0017513758 0 0)
(-0.0028586797 0.00081576455 0 0.0026199727 0 0)
(-0.0045184337 0.0013339049 0 0.0040270314 0 0)
(-0.0069710648 0.0019634843 0 0.0056736385 0 0)
(-0.010336812 0.0028076799 0 0.008059987 0 0)
(-0.014395174 0.0041664865 0 0.0095718685 0 0)
(-0.016940081 0.0029513994 0 0.011542398 0 0)
(-0.00034944864 0.00016268997 0 0.00033710877 0 0)
(-0.00045041322 1.7990045e-005 0 0.000460429 0 0)
(-0.00046410936 -3.597412e-005 0 0.00044933 0 0)
(-0.00039077859 -5.4699174e-005 0 0.00039044413 0 0)
(-0.00032298103 -5.4914004e-005 0 0.00031887695 0 0)
(-0.0002588366 -4.8833324e-005 0 0.00025735204 0 0)
(-0.00020460198 -3.7360752e-005 0 0.00020337754 0 0)
(-0.00016686922 -2.555581e-005 0 0.00016608936 0 0)
(-0.00014289304 -1.3218271e-005 0 0.0001422596 0 0)
(-0.00013385084 5.2132355e-008 0 0.00013343213 0 0)
(-0.00013847258 1.3038474e-005 0 0.00013783324 0 0)
(-0.00016055 3.0256825e-005 0 0.00015973727 0 0)
(-0.00020534589 5.2965289e-005 0 0.0002042343 0 0)
(-0.00027118407 8.1258848e-005 0 0.00026873381 0 0)
(-0.00037935395 0.0001239802 0 0.00037475943 0 0)
(-0.00054394876 0.00018883813 0 0.00053523372 0 0)
(-0.00078219243 0.00028522862 0 0.00076245865 0 0)
(-0.0011624673 0.00044516336 0 0.0011205158 0 0)
(-0.0017652367 0.00071796215 0 0.001674353 0 0)
(-0.002732541 0.0011161231 0 0.0024958913 0 0)
(-0.0042843908 0.0018350977 0 0.0038004483 0 0)
(-0.0065991404 0.0027103437 0 0.0053198107 0 0)
(-0.0097019369 0.0039195873 0 0.0075096198 0 0)
(-0.013991526 0.0055359347 0 0.0090303225 0 0)
(-0.016052261 0.0040989922 0 0.011040283 0 0)
(-0.00035456036 0.00020997183 0 0.00034164602 0 0)
(-0.00045547465 2.2607212e-005 0 0.00046532676 0 0)
(-0.00046838158 -4.7223526e-005 0 0.00045363728 0 0)
(-0.0003920521 -7.1386653e-005 0 0.00039146472 0 0)
(-0.00032162416 -7.149981e-005 0 0.00031759399 0 0)
(-0.00025655425 -6.3378289e-005 0 0.00025500426 0 0)
(-0.00020155492 -4.8443123e-005 0 0.0002003536 0 0)
(-0.00016336228 -3.3042684e-005 0 0.00016260542 0 0)
(-0.00013930845 -1.7217781e-005 0 0.00013869229 0 0)
(-0.00012995139 -3.0055515e-007 0 0.00012956028 0 0)
(-0.00013413383 1.6344956e-005 0 0.00013352355 0 0)
(-0.00015495786 3.8126351e-005 0 0.00015417176 0 0)
(-0.00019799767 6.7028286e-005 0 0.00019694732 0 0)
(-0.00026080254 0.00010277479 0 0.00025838739 0 0)
(-0.00036408993 0.00015694327 0 0.00035952344 0 0)
(-0.00052083411 0.00023867518 0 0.00051223776 0 0)
(-0.00074631553 0.00035960027 0 0.00072677429 0 0)
(-0.0011047124 0.00055935538 0 0.001063188 0 0)
(-0.0016675215 0.00089860779 0 0.0015779978 0 0)
(-0.0025627168 0.0014036432 0 0.0023281703 0 0)
(-0.0039788739 0.0022959155 0 0.0035045797 0 0)
(-0.0061277236 0.0033806365 0 0.004873917 0 0)
(-0.0088714161 0.0049380912 0 0.0067797371 0 0)
(-0.013148289 0.0072208847 0 0.0081186417 0 0)
(-0.015059142 0.0052198257 0 0.010491324 0 0)
(-0.00036121691 0.00025749646 0 0.00034749102 0 0)
(-0.00046189561 2.672172e-005 0 0.00047161442 0 0)
(-0.00047382414 -5.939744e-005 0 0.00045901613 0 0)
(-0.00039366105 -8.9290535e-005 0 0.00039279771 0 0)
(-0.00031983026 -8.895626e-005 0 0.00031587381 0 0)
(-0.00025359963 -7.8553928e-005 0 0.00025198061 0 0)
(-0.00019763576 -6.0046284e-005 0 0.00019646986 0 0)
(-0.00015902578 -4.0918922e-005 0 0.00015829084 0 0)
(-0.00013483366 -2.1579612e-005 0 0.00013424421 0 0)
(-0.000125109 -1.1583526e-006 0 0.00012475206 0 0)
(-0.00012878432 1.9162764e-005 0 0.00012821501 0 0)
(-0.00014814154 4.5217534e-005 0 0.0001473897 0 0)
(-0.00018879223 8.0083959e-005 0 0.00018777555 0 0)
(-0.00024827402 0.00012306609 0 0.00024590639 0 0)
(-0.00034544257 0.00018748792 0 0.00034094667 0 0)
(-0.00049276678 0.00028501748 0 0.00048428419 0 0)
(-0.00070289271 0.00042894699 0 0.00068353753 0 0)
(-0.0010338195 0.00066603031 0 0.00099269719 0 0)
(-0.0015452661 0.0010693711 0 0.0014568693 0 0)
(-0.0023598083 0.0016592335 0 0.0021286568 0 0)
(-0.0036040093 0.0027094752 0 0.0031423858 0 0)
(-0.0055523175 0.0039938756 0 0.0043243714 0 0)
(-0.0077845202 0.005931008 0 0.00579871 0 0)
(-0.012323081 0.0084725752 0 0.0071983349 0 0)
(-0.01289126 0.006017465 0 0.0092916699 0 0)
(-0.00036965055 0.00030506003 0 0.00035513422 0 0)
(-0.00046972594 2.9962114e-005 0 0.0004790777 0 0)
(-0.00048063271 -7.3070739e-005 0 0.00046583823 0 0)
(-0.00039564114 -0.00010889064 0 0.00039442384 0 0)
(-0.00031750149 -0.00010765982 0 0.00031360722 0 0)
(-0.00024991118 -9.4712764e-005 0 0.0002482107 0 0)
(-0.00019283405 -7.2365812e-005 0 0.00019168659 0 0)
(-0.00015384131 -4.9396088e-005 0 0.00015312272 0 0)
(-0.00012957315 -2.6605813e-005 0 0.00012900581 0 0)
(-0.0001193784 -2.6833428e-006 0 0.00011905854 0 0)
(-0.00012236724 2.1126981e-005 0 0.00012183305 0 0)
(-0.00014000814 5.1171843e-005 0 0.00013927613 0 0)
(-0.00017820695 9.1926158e-005 0 0.00017721314 0 0)
(-0.00023355628 0.0001412896 0 0.00023124769 0 0)
(-0.0003236365 0.00021533835 0 0.00031918558 0 0)
(-0.00045977673 0.00032787282 0 0.00045137608 0 0)
(-0.0006524427 0.00049198733 0 0.00063332216 0 0)
(-0.00095286498 0.00076057239 0 0.00091221325 0 0)
(-0.0014095457 0.0012157806 0 0.0013227039 0 0)
(-0.0021221269 0.001882444 0 0.0018966159 0 0)
(-0.0031605904 0.0030733981 0 0.0027155983 0 0)
(-0.0048940345 0.0044973159 0 0.0036968105 0 0)
(-0.0065318683 0.0067808619 0 0.004669464 0 0)
(-0.011313102 0.0094929083 0 0.0061329526 0 0)
(-0.0095469823 0.0073724208 0 0.0066375238 0 0)
(-0.00038041373 0.00035293927 0 0.00036516087 0 0)
(-0.00047883038 3.1881721e-005 0 0.00048772322 0 0)
(-0.00048873371 -8.8230298e-005 0 0.00047405334 0 0)
(-0.00039795021 -0.0001306799 0 0.00039630178 0 0)
(-0.00031455292 -0.00012794395 0 0.00031072189 0 0)
(-0.00024538753 -0.0001120549 0 0.0002435211 0 0)
(-0.00018712067 -8.5772695e-005 0 0.00018596517 0 0)
(-0.00014773254 -5.8785991e-005 0 0.00014702016 0 0)
(-0.00012340964 -3.2450556e-005 0 0.00012283832 0 0)
(-0.00011278835 -5.2894825e-006 0 0.0001124925 0 0)
(-0.0001150244 2.2178609e-005 0 0.00011453076 0 0)
(-0.00013073037 5.5681466e-005 0 0.00013001899 0 0)
(-0.00016598405 0.00010200039 0 0.00016506704 0 0)
(-0.000216677 0.00015737794 0 0.0002144151 0 0)
(-0.00029886491 0.00023980277 0 0.00029439107 0 0)
(-0.00042287707 0.00036587579 0 0.00041458872 0 0)
(-0.00059544037 0.00054818728 0 0.00057661152 0 0)
(-0.00086025201 0.00084459424 0 0.00082028357 0 0)
(-0.0012533138 0.0013453499 0 0.0011678259 0 0)
(-0.0018574053 0.0020661635 0 0.001637699 0 0)
(-0.0026484083 0.0033753544 0 0.0022238931 0 0)
(-0.0041294757 0.0048931035 0 0.0029636725 0 0)
(-0.0050028604 0.0075331337 0 0.0032629047 0 0)
(-0.0095112198 0.010629386 0 0.0044577296 0 0)
(-0.0070288448 0.008236066 0 0.0045232838 0 0)
(-0.00039433979 0.000400682 0 0.00037666313 0 0)
(-0.00048941695 3.2328179e-005 0 0.00050000121 0 0)
(-0.00049862925 -0.00010572234 0 0.00048292063 0 0)
(-0.00040053793 -0.00015518158 0 0.00039845479 0 0)
(-0.0003106709 -0.00015031937 0 0.00030695438 0 0)
(-0.0002399202 -0.00013079274 0 0.00023786381 0 0)
(-0.00018045908 -0.00010047983 0 0.00017935602 0 0)
(-0.00014063103 -6.9202888e-005 0 0.00013998341 0 0)
(-0.00011634862 -3.9158306e-005 0 0.00011578626 0 0)
(-0.00010540852 -9.3818686e-006 0 0.00010515414 0 0)
(-0.00010669511 2.2056832e-005 0 0.00010629378 0 0)
(-0.00012046654 5.872046e-005 0 0.00011985952 0 0)
(-0.00015219384 0.00010989178 0 0.00015137283 0 0)
(-0.00019793243 0.00017096331 0 0.00019580806 0 0)
(-0.00027121759 0.00026074907 0 0.00026696336 0 0)
(-0.00038127709 0.00039932306 0 0.00037343218 0 0)
(-0.00053356255 0.00059538632 0 0.00051508802 0 0)
(-0.00076084446 0.00091420215 0 0.00072216163 0 0)
(-0.0010864981 0.0014511932 0 0.0010043164 0 0)
(-0.0015948514 0.002186461 0 0.0013780215 0 0)
(-0.0021051272 0.0036049087 0 0.0017209386 0 0)
(-0.0032962723 0.0050887104 0 0.0021697639 0 0)
(-0.0031669411 0.0080244821 0 0.0016600798 0 0)
(-0.0071978901 0.011083689 0 0.0024202203 0 0)
(-0.0007535911 0.011105036 0 -0.0020455355 0 0)
(-0.0004121787 0.00044873889 0 0.00038622779 0 0)
(-0.00050183463 3.126887e-005 0 0.00052089439 0 0)
(-0.00051013069 -0.00012595108 0 0.00048987804 0 0)
(-0.00040330378 -0.00018262795 0 0.00040082008 0 0)
(-0.00030586837 -0.00017482605 0 0.00030245289 0 0)
(-0.00023302963 -0.00015134381 0 0.00023121377 0 0)
(-0.00017267223 -0.00011635481 0 0.0001717598 0 0)
(-0.00013249963 -8.0507952e-005 0 0.00013216558 0 0)
(-0.00010837123 -4.6721234e-005 0 0.00010802137 0 0)
(-9.7281883e-005 -1.4804888e-005 0 9.7345695e-005 0 0)
(-9.7536009e-005 2.0698902e-005 0 9.7468863e-005 0 0)
(-0.00010899786 5.9744319e-005 0 0.00010860888 0 0)
(-0.00013755909 0.00011626473 0 0.00013701154 0 0)
(-0.00017751402 0.00018156489 0 0.00017577093 0 0)
(-0.0002412096 0.00027831967 0 0.00023762225 0 0)
(-0.00033750925 0.00042664771 0 0.00033063486 0 0)
(-0.00046614526 0.00063385765 0 0.00044789167 0 0)
(-0.00065300501 0.00097012394 0 0.00061519725 0 0)
(-0.00090707659 0.001535951 0 0.00082935725 0 0)
(-0.001297755 0.0022643684 0 0.0010790287 0 0)
(-0.0015235731 0.0037246892 0 0.001181244 0 0)
(-0.002226826 0.005145718 0 0.0011567001 0 0)
(-0.0010100359 0.0078066928 0 -0.00012375548 0 0)
(-0.0030316345 0.010058242 0 -0.00094941991 0 0)
(0.0032268797 0.011701321 0 -0.0076524709 0 0)
(-0.014084977 0.00052233732 0 0.0092979776 0 0)
(-0.0077793438 0.0009289702 0 0.0056576264 0 0)
(-0.0027547027 0.0013147086 0 0.0019692125 0 0)
(-0.00062550324 0.0015277449 0 0.0004143902 0 0)
(-0.00012519408 0.0016287812 0 -1.0211178e-005 0 0)
(-6.8396906e-007 0.0016439376 0 -9.1724494e-005 0 0)
(-5.0768883e-005 0.001634075 0 -4.0443879e-005 0 0)
(-8.0677228e-005 0.0016280263 0 -7.8054524e-006 0 0)
(-9.2791305e-005 0.0016266212 0 4.2499432e-006 0 0)
(-9.1490072e-005 0.0016269299 0 3.1289718e-006 0 0)
(-8.8455145e-005 0.0016273662 0 1.2973965e-007 0 0)
(-8.7691494e-005 0.0016274399 0 -6.065526e-007 0 0)
(-8.8012214e-005 0.0016273665 0 -2.8941616e-007 0 0)
(-8.8249832e-005 0.0016273221 0 -4.9879965e-008 0 0)
(-8.8333599e-005 0.0016273064 0 3.4939913e-008 0 0)
(-8.8318828e-005 0.0016273081 0 2.0063018e-008 0 0)
(-8.8300358e-005 0.0016273103 0 1.417411e-009 0 0)
(-8.8296794e-005 0.0016273108 0 -2.2358472e-009 0 0)
(-8.8297626e-005 0.0016273107 0 -1.3821905e-009 0 0)
(-8.8298576e-005 0.0016273102 0 -4.1979617e-010 0 0)
(-8.829894e-005 0.0016273101 0 -1.2037681e-010 0 0)
(-8.8299695e-005 0.0016273105 0 5.1933595e-010 0 0)
(-8.8300031e-005 0.0016273107 0 1.4915232e-009 0 0)
(-8.8306237e-005 0.0016273105 0 6.4138642e-009 0 0)
(-8.8307172e-005 0.001627311 0 7.3868305e-009 0 0)
(-0.013609555 0.0016493789 0 0.0089462433 0 0)
(-0.0075268442 0.0028327548 0 0.0053792079 0 0)
(-0.0030186338 0.0039296336 0 0.0018799993 0 0)
(-0.0011272324 0.0046999221 0 0.00037043664 0 0)
(-0.00079577721 0.004920677 0 -3.0772484e-007 0 0)
(-0.0007320466 0.0049447669 0 -5.8732e-005 0 0)
(-0.00076358472 0.0049283906 0 -3.308849e-005 0 0)
(-0.00079475772 0.004913169 0 -2.2036936e-006 0 0)
(-0.0008018377 0.0049113958 0 4.0248824e-006 0 0)
(-0.00079978871 0.0049127837 0 1.9675585e-006 0 0)
(-0.00079775827 0.0049136949 0 2.8169309e-008 0 0)
(-0.00079704772 0.0049138576 0 -4.946222e-007 0 0)
(-0.00079725455 0.0049137097 0 -2.1809305e-007 0 0)
(-0.00079744164 0.0049136058 0 -6.3975701e-009 0 0)
(-0.00079748477 0.0049135852 0 3.7809347e-008 0 0)
(-0.00079746399 0.0049135936 0 1.6508989e-008 0 0)
(-0.00079744927 0.0049135998 0 8.5502954e-010 0 0)
(-0.00079744644 0.004913601 0 -1.9272001e-009 0 0)
(-0.0007974472 0.0049136001 0 -9.0354868e-010 0 0)
(-0.0007974483 0.0049136002 0 -1.9856379e-010 0 0)
(-0.00079744832 0.0049135999 0 -7.0408628e-011 0 0)
(-0.00079744855 0.0049135994 0 2.3301353e-010 0 0)
(-0.00079744923 0.0049136012 0 9.4255839e-010 0 0)
(-0.00079745606 0.004913601 0 6.3680654e-009 0 0)
(-0.00079745692 0.0049136048 0 6.8522278e-009 0 0)
(-0.012765799 0.0028841128 0 0.0084159182 0 0)
(-0.006925022 0.0048351202 0 0.0048274118 0 0)
(-0.0035034693 0.006936976 0 0.0015481116 0 0)
(-0.0024276745 0.0078962199 0 0.00043367093 0 0)
(-0.0022229871 0.008217612 0 8.8011268e-005 0 0)
(-0.0021848652 0.0083201232 0 -2.3501058e-005 0 0)
(-0.0022207361 0.008301931 0 -1.2840813e-005 0 0)
(-0.0022330448 0.0082866531 0 8.1438239e-007 0 0)
(-0.0022355571 0.0082849032 0 2.7939154e-006 0 0)
(-0.0022337274 0.0082867837 0 9.7380129e-007 0 0)
(-0.0022322151 0.0082878304 0 -2.5423879e-007 0 0)
(-0.002231698 0.0082878971 0 -3.9183504e-007 0 0)
(-0.00223182 0.008287666 0 -1.329598e-007 0 0)
(-0.0022319219 0.008287542 0 1.1678651e-008 0 0)
(-0.0022319363 0.0082875236 0 2.9273387e-008 0 0)
(-0.0022319225 0.0082875353 0 1.2091754e-008 0 0)
(-0.002231913 0.008287545 0 2.4386974e-011 0 0)
(-0.0022319117 0.0082875459 0 -1.2764626e-009 0 0)
(-0.0022319132 0.0082875458 0 -5.7627344e-010 0 0)
(-0.0022319134 0.0082875451 0 -3.3156409e-012 0 0)
(-0.0022319134 0.0082875453 0 -1.9681775e-011 0 0)
(-0.0022319136 0.0082875457 0 6.1019102e-011 0 0)
(-0.0022319142 0.0082875463 0 9.0560047e-010 0 0)
(-0.0022319189 0.0082875461 0 4.7622993e-009 0 0)
(-0.0022319213 0.0082875536 0 5.1225154e-009 0 0)
(-0.011532501 0.0041531727 0 0.0075116613 0 0)
(-0.0060673148 0.0077865235 0 0.0035062652 0 0)
(-0.0047672561 0.0098413577 0 0.0015064855 0 0)
(-0.0041672519 0.011344262 0 0.00034713065 0 0)
(-0.0043244155 0.011768667 0 4.424952e-005 0 0)
(-0.0044034668 0.011822209 0 4.9892835e-006 0 0)
(-0.0044292783 0.011799274 0 1.6180364e-006 0 0)
(-0.0044290624 0.011785994 0 2.4833919e-006 0 0)
(-0.0044282273 0.011785054 0 1.0866639e-006 0 0)
(-0.0044268112 0.011786711 0 -1.4002395e-007 0 0)
(-0.0044258591 0.011787501 0 -4.3780183e-007 0 0)
(-0.0044255637 0.011787399 0 -2.1055852e-007 0 0)
(-0.0044255838 0.011787166 0 -3.0839061e-008 0 0)
(-0.0044255971 0.011787069 0 2.2790315e-008 0 0)
(-0.004425593 0.011787061 0 1.7743089e-008 0 0)
(-0.0044255872 0.011787077 0 4.1733166e-009 0 0)
(-0.0044255859 0.011787085 0 -5.7700413e-010 0 0)
(-0.0044255874 0.011787087 0 -4.9005159e-010 0 0)
(-0.0044255874 0.011787086 0 -9.7341233e-011 0 0)
(-0.0044255869 0.011787085 0 1.0309088e-010 0 0)
(-0.0044255865 0.011787085 0 1.2824772e-010 0 0)
(-0.0044255861 0.011787085 0 -2.253885e-010 0 0)
(-0.0044255878 0.011787088 0 -2.3122979e-011 0 0)
(-0.0044255918 0.011787089 0 2.9415269e-009 0 0)
(-0.0044255953 0.011787097 0 2.8862931e-009 0 0)
(-0.0095504992 0.0057061878 0 0.0059981517 0 0)
(-0.0063290002 0.010713749 0 0.0025076281 0 0)
(-0.0063791997 0.013263086 0 0.00104249 0 0)
(-0.0068694118 0.014953806 0 0.00028596055 0 0)
(-0.0073404715 0.015386947 0 8.4608819e-005 0 0)
(-0.0074336209 0.015447116 0 3.6633804e-005 0 0)
(-0.0074391905 0.015434203 0 1.1699765e-005 0 0)
(-0.007427584 0.015426489 0 2.2957951e-006 0 0)
(-0.0074241483 0.015426201 0 -9.5306194e-007 0 0)
(-0.0074230457 0.015427069 0 -1.0456033e-006 0 0)
(-0.0074227163 0.015427197 0 -3.5663817e-007 0 0)
(-0.0074226105 0.015427008 0 -6.5053001e-009 0 0)
(-0.0074225307 0.015426849 0 4.6194924e-008 0 0)
(-0.0074224741 0.015426802 0 1.7614944e-008 0 0)
(-0.0074224629 0.015426804 0 9.1901599e-010 0 0)
(-0.0074224694 0.015426817 0 -2.2011712e-009 0 0)
(-0.0074224749 0.015426822 0 -5.3864298e-010 0 0)
(-0.007422476 0.015426823 0 3.6688185e-010 0 0)
(-0.0074224758 0.015426823 0 2.5861945e-010 0 0)
(-0.0074224764 0.015426823 0 5.8072021e-011 0 0)
(-0.007422476 0.015426823 0 4.7363601e-011 0 0)
(-0.0074224752 0.015426823 0 -3.431081e-010 0 0)
(-0.0074224763 0.015426824 0 -5.0375174e-010 0 0)
(-0.0074224774 0.015426826 0 9.2311295e-011 0 0)
(-0.0074224818 0.015426835 0 1.789591e-010 0 0)
(-0.0074945622 0.0087281538 0 0.0036473645 0 0)
(-0.0069033989 0.014065225 0 0.0012859338 0 0)
(-0.009118153 0.017290441 0 0.00044846101 0 0)
(-0.010667769 0.018818079 0 0.0002157789 0 0)
(-0.011251262 0.019151366 0 0.00010964544 0 0)
(-0.01130529 0.019204078 0 5.317823e-005 0 0)
(-0.011284747 0.019199419 0 1.5347828e-005 0 0)
(-0.011265176 0.019197439 0 6.211937e-007 0 0)
(-0.011259434 0.01919667 0 -2.6464418e-006 0 0)
(-0.011258736 0.019196324 0 -1.2343596e-006 0 0)
(-0.011259257 0.019196065 0 -7.3723657e-008 0 0)
(-0.011259266 0.019195962 0 1.8344678e-007 0 0)
(-0.011259116 0.01919593 0 8.5598177e-008 0 0)
(-0.011259017 0.019195931 0 -7.9658694e-010 0 0)
(-0.011259008 0.019195933 0 -1.5406875e-008 0 0)
(-0.011259026 0.019195938 0 -5.7304417e-009 0 0)
(-0.011259035 0.01919594 0 1.6191715e-010 0 0)
(-0.011259036 0.019195941 0 1.0266939e-009 0 0)
(-0.011259035 0.019195941 0 4.2191661e-010 0 0)
(-0.011259035 0.019195941 0 6.3816681e-011 0 0)
(-0.011259035 0.019195941 0 -8.8377308e-011 0 0)
(-0.011259034 0.019195941 0 -2.9269084e-010 0 0)
(-0.011259035 0.019195942 0 -1.0685313e-009 0 0)
(-0.011259033 0.019195944 0 -3.0025142e-009 0 0)
(-0.011259038 0.019195953 0 -2.6294758e-009 0 0)
(-0.0065001219 0.011361064 0 0.0014847295 0 0)
(-0.0089495784 0.018711603 0 -0.00023960968 0 0)
(-0.013708282 0.021634742 0 5.707721e-005 0 0)
(-0.01552437 0.022786629 0 0.00018168505 0 0)
(-0.016019186 0.022999685 0 0.0001300595 0 0)
(-0.016011305 0.023052333 0 6.0401425e-005 0 0)
(-0.015973115 0.023059792 0 1.4475191e-005 0 0)
(-0.01595245 0.023062446 0 -1.0094834e-006 0 0)
(-0.015945762 0.023060781 0 -3.5046934e-006 0 0)
(-0.015946348 0.02305961 0 -1.0771691e-006 0 0)
(-0.015947528 0.023059272 0 2.1200911e-007 0 0)
(-0.015947623 0.023059368 0 2.8718586e-007 0 0)
(-0.015947448 0.023059455 0 8.6711651e-008 0 0)
(-0.015947333 0.023059478 0 -1.7509919e-008 0 0)
(-0.015947323 0.02305947 0 -2.3885538e-008 0 0)
(-0.015947342 0.023059465 0 -7.2840429e-009 0 0)
(-0.015947353 0.023059464 0 1.0355692e-009 0 0)
(-0.015947354 0.023059465 0 1.2594037e-009 0 0)
(-0.015947353 0.023059466 0 4.687605e-010 0 0)
(-0.015947353 0.023059466 0 1.2920936e-010 0 0)
(-0.015947352 0.023059465 0 -9.9913089e-011 0 0)
(-0.015947352 0.023059465 0 -3.0478573e-010 0 0)
(-0.015947351 0.023059467 0 -1.7286074e-009 0 0)
(-0.015947347 0.023059469 0 -5.6376392e-009 0 0)
(-0.015947351 0.023059474 0 -5.0851439e-009 0 0)
(-0.0064638319 0.016033579 0 -0.0017061756 0 0)
(-0.013509878 0.024072912 0 -0.0016004892 0 0)
(-0.019901025 0.026084744 0 -0.00013453373 0 0)
(-0.021198059 0.026747737 0 0.00014867386 0 0)
(-0.02157854 0.026881696 0 0.00013109067 0 0)
(-0.021531806 0.026948281 0 5.5999201e-005 0 0)
(-0.02150167 0.026970563 0 1.0448141e-005 0 0)
(-0.021482438 0.026974954 0 -3.2695168e-006 0 0)
(-0.02147938 0.02697209 0 -3.4707924e-006 0 0)
(-0.021481393 0.02697054 0 -6.9620673e-007 0 0)
(-0.02148293 0.026970388 0 3.649517e-007 0 0)
(-0.021483206 0.026970744 0 3.0302259e-007 0 0)
(-0.02148302 0.026970909 0 5.3314565e-008 0 0)
(-0.021482899 0.02697092 0 -3.2276283e-008 0 0)
(-0.021482886 0.026970893 0 -2.3237567e-008 0 0)
(-0.021482903 0.026970882 0 -4.3918134e-009 0 0)
(-0.021482912 0.026970882 0 1.5421059e-009 0 0)
(-0.021482913 0.026970883 0 1.1705507e-009 0 0)
(-0.021482912 0.026970883 0 3.5995599e-010 0 0)
(-0.021482911 0.026970884 0 8.6220765e-011 0 0)
(-0.021482911 0.026970884 0 2.3174115e-011 0 0)
(-0.021482911 0.026970883 0 -1.4300914e-010 0 0)
(-0.021482909 0.026970884 0 -1.9550636e-009 0 0)
(-0.021482901 0.026970885 0 -7.1378748e-009 0 0)
(-0.021482902 0.026970885 0 -6.465956e-009 0 0)
(-0.011576221 0.024899451 0 -0.005236435 0 0)
(-0.021632327 0.030173917 0 -0.0026412603 0 0)
(-0.027206718 0.03047958 0 -0.00016688191 0 0)
(-0.027587662 0.030663722 0 9.4104546e-005 0 0)
(-0.027882322 0.03077098 0 0.0001201963 0 0)
(-0.027870712 0.030871481 0 3.9456728e-005 0 0)
(-0.027875542 0.030902128 0 6.8760099e-006 0 0)
(-0.027862461 0.030905638 0 -4.0480105e-006 0 0)
(-0.027862709 0.03090148 0 -2.5442644e-006 0 0)
(-0.02786462 0.030899821 0 -4.2993699e-007 0 0)
(-0.027866425 0.030899963 0 3.5504951e-007 0 0)
(-0.027866729 0.030900449 0 2.0478744e-007 0 0)
(-0.027866585 0.030900605 0 1.9197567e-008 0 0)
(-0.027866451 0.030900582 0 -3.2011529e-008 0 0)
(-0.027866427 0.030900542 0 -1.623923e-008 0 0)
(-0.027866437 0.03090053 0 -1.8008545e-009 0 0)
(-0.027866443 0.03090053 0 1.6144017e-009 0 0)
(-0.027866444 0.030900532 0 8.2435588e-010 0 0)
(-0.027866443 0.030900533 0 1.7760848e-010 0 0)
(-0.027866443 0.030900533 0 1.9126988e-011 0 0)
(-0.027866443 0.030900533 0 1.2343133e-010 0 0)
(-0.027866443 0.030900533 0 4.4674783e-011 0 0)
(-0.027866441 0.030900533 0 -1.2437073e-009 0 0)
(-0.027866432 0.030900532 0 -5.8839132e-009 0 0)
(-0.027866428 0.030900524 0 -5.5840017e-009 0 0)
(-0.034415408 0.042073244 0 -0.0097984149 0 0)
(-0.03274044 0.035529099 0 -0.001773049 0 0)
(-0.039165185 0.036673235 0 -0.00011875223 0 0)
(-0.037845416 0.03609129 0 5.075704e-005 0 0)
(-0.038790414 0.036517302 0 5.6417406e-005 0 0)
(-0.038740878 0.036564565 0 1.3498315e-005 0 0)
(-0.038829858 0.036613036 0 1.0596802e-006 0 0)
(-0.038804683 0.036601897 0 -2.5209644e-006 0 0)
(-0.038807778 0.036598265 0 -1.1149315e-006 0 0)
(-0.038806076 0.036595752 0 -1.4605882e-007 0 0)
(-0.038808142 0.036596454 0 1.6543095e-007 0 0)
(-0.038808432 0.036596913 0 7.735897e-008 0 0)
(-0.038808428 0.03659705 0 1.5991503e-009 0 0)
(-0.038808272 0.036596987 0 -1.3866812e-008 0 0)
(-0.038808236 0.036596948 0 -5.5915227e-009 0 0)
(-0.038808235 0.036596939 0 -1.4101917e-010 0 0)
(-0.038808242 0.036596942 0 8.1991117e-010 0 0)
(-0.038808243 0.036596944 0 3.0998273e-010 0 0)
(-0.038808243 0.036596945 0 5.4603195e-011 0 0)
(-0.038808243 0.036596945 0 -3.0421083e-012 0 0)
(-0.038808244 0.036596945 0 8.4844093e-011 0 0)
(-0.038808245 0.036596945 0 1.2235951e-010 0 0)
(-0.038808245 0.036596945 0 -3.335222e-010 0 0)
(-0.038808239 0.036596943 0 -2.9082202e-009 0 0)
(-0.038808226 0.036596928 0 -3.1339962e-009 0 0)
(-0.00045634612 0.00055074512 0 0.00041632179 0 0)
(-0.00053097211 2.3975918e-005 0 0.00057339603 0 0)
(-0.00053618369 -0.0001778613 0 0.0005089284 0 0)
(-0.00040828984 -0.00024218191 0 0.00040292243 0 0)
(-0.00029784582 -0.00022899562 0 0.00029369214 0 0)
(-0.00021288511 -0.00019123349 0 0.00020958893 0 0)
(-0.00015645318 -0.00014960081 0 0.00015423123 0 0)
(-0.0001149335 -0.00010441537 0 0.00011387061 0 0)
(-9.111353e-005 -6.3543773e-005 0 8.998519e-005 0 0)
(-7.9494462e-005 -2.5829443e-005 0 7.8911196e-005 0 0)
(-7.7851651e-005 1.6010418e-005 0 7.710242e-005 0 0)
(-8.6171849e-005 6.2104614e-005 0 8.4872147e-005 0 0)
(-0.00010500521 0.00012222037 0 0.00010420406 0 0)
(-0.00013415142 0.00019551008 0 0.0001315046 0 0)
(-0.00017928961 0.00030033737 0 0.00017397386 0 0)
(-0.00024635764 0.00046965316 0 0.00023885907 0 0)
(-0.00032757085 0.00068811301 0 0.00030777156 0 0)
(-0.00044368021 0.0010335372 0 0.00040393952 0 0)
(-0.00055769972 0.0016282613 0 0.00048940981 0 0)
(-0.00071156851 0.0023355682 0 0.00051684421 0 0)
(-0.00065990948 0.0036879656 0 0.00037529344 0 0)
(-0.0005881724 0.0049042898 0 -0.00028854912 0 0)
(0.0012401839 0.0069451269 0 -0.0018937486 0 0)
(0.001861884 0.0075307762 0 -0.0042613167 0 0)
(0.0097805956 0.0069785988 0 -0.012733557 0 0)
(-0.00056234842 0.00072542393 0 0.00050132039 0 0)
(-0.00060926686 -2.8397529e-006 0 0.00066552301 0 0)
(-0.00058542968 -0.00027804796 0 0.00054890697 0 0)
(-0.00040986926 -0.00034046282 0 0.00040025424 0 0)
(-0.00026971794 -0.00030990941 0 0.00026594037 0 0)
(-0.0001757941 -0.00024972854 0 0.00017259036 0 0)
(-0.0001197146 -0.00019210028 0 0.00011808705 0 0)
(-7.9205382e-005 -0.00013132227 0 7.9028821e-005 0 0)
(-5.8157798e-005 -8.1059853e-005 0 5.7504411e-005 0 0)
(-4.6645381e-005 -3.5539979e-005 0 4.6384429e-005 0 0)
(-4.1754355e-005 1.3127347e-005 0 4.2104141e-005 0 0)
(-4.3224628e-005 6.2784284e-005 0 4.2828505e-005 0 0)
(-4.9959228e-005 0.00013112293 0 5.0018298e-005 0 0)
(-6.0889513e-005 0.00021496358 0 6.0281318e-005 0 0)
(-7.6194069e-005 0.00032181156 0 7.1073566e-005 0 0)
(-9.6262821e-005 0.00049991703 0 9.103977e-005 0 0)
(-0.00010904246 0.00072664755 0 9.6330403e-005 0 0)
(-0.00011980701 0.0010522083 0 8.3609625e-005 0 0)
(-6.0562018e-005 0.0016143204 0 2.7707192e-006 0 0)
(4.3116904e-005 0.0022395853 0 -0.00020615233 0 0)
(0.00051043917 0.0031855179 0 -0.00076776038 0 0)
(0.0011188292 0.0037984072 0 -0.0018179638 0 0)
(0.0031118689 0.00423849 0 -0.003826388 0 0)
(0.0051796244 0.0018639456 0 -0.0073395314 0 0)
(0.0063391801 -0.0014683793 0 -0.0093128766 0 0)
(-0.00073416559 0.000929433 0 0.00065457911 0 0)
(-0.00071560743 -4.9232904e-005 0 0.00077958498 0 0)
(-0.00063220445 -0.00038555052 0 0.00058728819 0 0)
(-0.00039101652 -0.0004248144 0 0.00037802718 0 0)
(-0.00022126933 -0.00035825392 0 0.00021745181 0 0)
(-0.0001220965 -0.00026578499 0 0.00011853565 0 0)
(-6.9591578e-005 -0.00018862164 0 6.7946723e-005 0 0)
(-3.5422988e-005 -0.0001132577 0 3.5130399e-005 0 0)
(-1.8266449e-005 -5.2484858e-005 0 1.8036881e-005 0 0)
(-8.9893019e-006 -3.5810476e-006 0 8.8592611e-006 0 0)
(-2.1025851e-006 4.9088475e-005 0 2.6204356e-006 0 0)
(2.2416543e-006 0.00010094497 0 -2.550193e-006 0 0)
(6.944966e-006 0.00017169751 0 -8.812375e-006 0 0)
(1.6428221e-005 0.00025540693 0 -1.6200501e-005 0 0)
(2.708168e-005 0.00036106687 0 -3.118515e-005 0 0)
(4.9073857e-005 0.00051808588 0 -5.7064367e-005 0 0)
(9.8772508e-005 0.00075457371 0 -0.00011030472 0 0)
(0.00016456737 0.0010349782 0 -0.00019931382 0 0)
(0.00034426658 0.0015145969 0 -0.00040064674 0 0)
(0.00062124241 0.0020189994 0 -0.00075381776 0 0)
(0.0012078198 0.0026730675 0 -0.0014168591 0 0)
(0.0020415575 0.0029470551 0 -0.002469942 0 0)
(0.0034699248 0.0027542723 0 -0.0038451475 0 0)
(0.0046721173 0.00059415901 0 -0.0054232751 0 0)
(0.0036185695 -0.0030429081 0 -0.0038652148 0 0)
(-0.00098166616 0.0011964515 0 0.00087141234 0 0)
(-0.00081057414 -9.6497158e-005 0 0.0008830816 0 0)
(-0.00063296984 -0.00044830849 0 0.00057763253 0 0)