/*--------------------------------*- C++ -*----------------------------------*\
| =========                 |                                                 |
| \\      /  F ield         | OpenFOAM: The Open Source CFD Toolbox           |
|  \\    /   O peration     | Version:  5.x                                   |
|   \\  /    A nd           | Web:      www.OpenFOAM.org                      |
|    \\/     M anipulation  |                                                 |
\*---------------------------------------------------------------------------*/
/*   Windows 32 and 64 bit porting by blueCAPE: http://www.bluecape.com.pt   *\
|  Based on Windows porting (2.0.x v4) by Symscape: http://www.symscape.com   |
\*---------------------------------------------------------------------------*/
FoamFile
{
    version     2.0;
    format      ascii;
    class       volSymmTensorField;
    location    "0.18";
    object      sigma;
}
// * * * * * * * * * * * * * * * * * * * * * * * * * * * * * * * * * * * * * //

dimensions      [0 2 -2 0 0 0 0];

internalField   nonuniform List<symmTensor> 
750
(
(-0.00034157213 2.2884942e-005 0 0.00033313194 0 0)
(-0.00044403374 2.5697341e-006 0 0.00044877202 0 0)
(-0.00045801131 -4.8443832e-006 0 0.00044655558 0 0)
(-0.00038963816 -7.8789209e-006 0 0.00038831541 0 0)
(-0.0003246365 -7.7192256e-006 0 0.00032101772 0 0)
(-0.00026302856 -6.9807246e-006 0 0.000261467 0 0)
(-0.00020950709 -5.4022139e-006 0 0.00020829902 0 0)
(-0.00017196814 -3.7221441e-006 0 0.00017120612 0 0)
(-0.00014843034 -1.9672424e-006 0 0.00014781705 0 0)
(-0.00013974668 -1.6743353e-008 0 0.00013929172 0 0)
(-0.00014525433 1.8448521e-006 0 0.00014462101 0 0)
(-0.00016902478 4.3214969e-006 0 0.00016821578 0 0)
(-0.00021643833 7.65202e-006 0 0.00021530264 0 0)
(-0.00028725587 1.1835926e-005 0 0.00028485789 0 0)
(-0.00040280827 1.8057305e-005 0 0.00039826426 0 0)
(-0.00057918418 2.7680508e-005 0 0.00057042889 0 0)
(-0.00083819933 4.2043712e-005 0 0.00081870164 0 0)
(-0.0012525823 6.5672602e-005 0 0.0012106899 0 0)
(-0.0019176965 0.00010722853 0 0.0018260317 0 0)
(-0.0029995127 0.00016865861 0 0.0027626104 0 0)
(-0.0047357045 0.00027327474 0 0.0042326009 0 0)
(-0.0073820392 0.0004143069 0 0.0060810905 0 0)
(-0.010892754 0.00056843994 0 0.0085069882 0 0)
(-0.014895303 0.0008202934 0 0.010363625 0 0)
(-0.018252151 0.00058340636 0 0.012072318 0 0)
(-0.00034337311 6.9020122e-005 0 0.00033262002 0 0)
(-0.00044472322 7.8967524e-006 0 0.00045341578 0 0)
(-0.00045922656 -1.4845123e-005 0 0.00044542357 0 0)
(-0.00038968504 -2.3368696e-005 0 0.00038928944 0 0)
(-0.00032487222 -2.3204469e-005 0 0.00032075356 0 0)
(-0.00026198651 -2.0783171e-005 0 0.00026055308 0 0)
(-0.00020851073 -1.5990746e-005 0 0.00020724299 0 0)
(-0.00017146134 -1.1016671e-005 0 0.00017058636 0 0)
(-0.00014751591 -5.6970475e-006 0 0.00014682495 0 0)
(-0.00013879373 1.0278834e-007 0 0.00013827832 0 0)
(-0.00014407566 5.6773415e-006 0 0.0001433528 0 0)
(-0.00016760496 1.3127376e-005 0 0.00016669264 0 0)
(-0.00021464876 2.3047635e-005 0 0.00021339227 0 0)
(-0.00028444853 3.5474488e-005 0 0.00028182481 0 0)
(-0.00039888929 5.4095683e-005 0 0.00039403823 0 0)
(-0.00057340075 8.2617898e-005 0 0.00056421701 0 0)
(-0.00082857969 0.00012507883 0 0.00080822031 0 0)
(-0.0012373716 0.00019527838 0 0.0011942439 0 0)
(-0.00189318 0.00031699271 0 0.0017999805 0 0)
(-0.002951304 0.0004881526 0 0.00270989 0 0)
(-0.0046677534 0.00082132717 0 0.0041651744 0 0)
(-0.0072304291 0.0011788897 0 0.0059174444 0 0)
(-0.010725848 0.0017011681 0 0.0083840233 0 0)
(-0.014660269 0.0025099503 0 0.010035397 0 0)
(-0.017847471 0.0017893401 0 0.011941533 0 0)
(-0.00034599278 0.00011568952 0 0.00033403999 0 0)
(-0.00044704423 1.3042758e-005 0 0.00045714556 0 0)
(-0.00046136716 -2.5161722e-005 0 0.00044656302 0 0)
(-0.00039026072 -3.8763406e-005 0 0.0003901125 0 0)
(-0.00032433242 -3.8868235e-005 0 0.00032012812 0 0)
(-0.00026079767 -3.4677952e-005 0 0.00025939024 0 0)
(-0.00020699154 -2.6569367e-005 0 0.00020575965 0 0)
(-0.00016973996 -1.8249485e-005 0 0.00016892508 0 0)
(-0.00014569675 -9.3913371e-006 0 0.00014505726 0 0)
(-0.00013684054 1.8867139e-007 0 0.00013639822 0 0)
(-0.00014180555 9.4715597e-006 0 0.00014114748 0 0)
(-0.00016483369 2.1893813e-005 0 0.00016400412 0 0)
(-0.00021097262 3.8249203e-005 0 0.00020983394 0 0)
(-0.00027906536 5.8745903e-005 0 0.00027658033 0 0)
(-0.00039105269 8.9602995e-005 0 0.00038642195 0 0)
(-0.00056170757 0.00013652322 0 0.00055288636 0 0)
(-0.00080996149 0.00020629436 0 0.00079011134 0 0)
(-0.0012077401 0.00032171199 0 0.0011656167 0 0)
(-0.0018433193 0.00051917251 0 0.0017518443 0 0)
(-0.002859493 0.00081595287 0 0.0026206502 0 0)
(-0.004519207 0.0013340707 0 0.0040275759 0 0)
(-0.006971233 0.0019635457 0 0.0056736198 0 0)
(-0.010335735 0.0028076126 0 0.0080590973 0 0)
(-0.014393145 0.0041658602 0 0.0095706494 0 0)
(-0.016937373 0.0029511311 0 0.011541116 0 0)
(-0.00034976249 0.00016283217 0 0.00033740103 0 0)
(-0.00045083077 1.801793e-005 0 0.00046085848 0 0)
(-0.00046459689 -3.6002827e-005 0 0.00044979091 0 0)
(-0.00039121952 -5.4759269e-005 0 0.00039088259 0 0)
(-0.00032336003 -5.4987858e-005 0 0.00031924504 0 0)
(-0.00025912986 -4.8907089e-005 0 0.00025764244 0 0)
(-0.00020480321 -3.7417473e-005 0 0.0002035754 0 0)
(-0.00016701785 -2.5603898e-005 0 0.00016623674 0 0)
(-0.00014298475 -1.324999e-005 0 0.00014235063 0 0)
(-0.00013391158 3.1306544e-008 0 0.00013349211 0 0)
(-0.00013851146 1.3022821e-005 0 0.00013787173 0 0)
(-0.00016058431 3.0253392e-005 0 0.0001597716 0 0)
(-0.00020536447 5.2965774e-005 0 0.00020425247 0 0)
(-0.0002712043 8.1267948e-005 0 0.00026875295 0 0)
(-0.00037940168 0.00012400542 0 0.00037480663 0 0)
(-0.00054401209 0.0001888777 0 0.00053529373 0 0)
(-0.00078232294 0.00028531028 0 0.00076258216 0 0)
(-0.0011627322 0.00044530853 0 0.0011207594 0 0)
(-0.0017657232 0.00071818661 0 0.0016747841 0 0)
(-0.0027332705 0.0011164124 0 0.0024964903 0 0)
(-0.0042851004 0.0018352908 0 0.003800941 0 0)
(-0.006599291 0.0027103553 0 0.0053198009 0 0)
(-0.0097009959 0.0039194728 0 0.0075088463 0 0)
(-0.013989352 0.005535783 0 0.0090290608 0 0)
(-0.016050529 0.004098998 0 0.011039231 0 0)
(-0.00035488186 0.00021015489 0 0.00034194448 0 0)
(-0.00045589985 2.2639137e-005 0 0.00046576391 0 0)
(-0.00046887712 -4.7267627e-005 0 0.00045410584 0 0)
(-0.00039249553 -7.1470476e-005 0 0.0003919053 0 0)
(-0.00032200135 -7.1601588e-005 0 0.00031796032 0 0)
(-0.00025684419 -6.3479701e-005 0 0.00025529113 0 0)
(-0.00020175319 -4.8522299e-005 0 0.00020054854 0 0)
(-0.00016350542 -3.3109202e-005 0 0.00016274739 0 0)
(-0.00013939691 -1.726332e-005 0 0.00013878004 0 0)
(-0.00013000955 -3.331695e-007 0 0.00012961781 0 0)
(-0.00013417062 1.6319517e-005 0 0.00013355995 0 0)
(-0.0001549887 3.8116034e-005 0 0.00015420262 0 0)
(-0.00019801538 6.7024495e-005 0 0.00019696462 0 0)
(-0.00026081923 0.00010278011 0 0.00025840335 0 0)
(-0.000364133 0.0001569693 0 0.000359566 0 0)
(-0.00052089214 0.00023872013 0 0.00051229216 0 0)
(-0.00074643563 0.00035969611 0 0.00072688723 0 0)
(-0.0011049549 0.0005595338 0 0.0010634092 0 0)
(-0.0016679624 0.00089887655 0 0.001578383 0 0)
(-0.0025633763 0.0014039574 0 0.0023287091 0 0)
(-0.0039794921 0.0022961179 0 0.0035050029 0 0)
(-0.0061278547 0.0033806471 0 0.0048739081 0 0)
(-0.0088706134 0.0049379625 0 0.0067790617 0 0)
(-0.01314652 0.0072208932 0 0.0081175533 0 0)
(-0.015057589 0.0052203745 0 0.010490222 0 0)
(-0.00036154962 0.00025771979 0 0.00034779904 0 0)
(-0.00046233197 2.6754444e-005 0 0.00047206262 0 0)
(-0.0004743294 -5.9459711e-005 0 0.00045949391 0 0)
(-0.00039410772 -8.9403098e-005 0 0.00039324109 0 0)
(-0.00032020523 -8.9090457e-005 0 0.00031623802 0 0)
(-0.00025388535 -7.8687365e-005 0 0.00025226293 0 0)
(-0.00019782958 -6.015229e-005 0 0.00019666047 0 0)
(-0.00015916242 -4.1007212e-005 0 0.00015842628 0 0)
(-0.00013491831 -2.1642695e-005 0 0.00013432811 0 0)
(-0.00012516383 -1.2063102e-006 0 0.00012480636 0 0)
(-0.00012881835 1.9124003e-005 0 0.00012824862 0 0)
(-0.00014816941 4.5197244e-005 0 0.00014741756 0 0)
(-0.00018880712 8.0070995e-005 0 0.00018779039 0 0)
(-0.0002482867 0.00012306327 0 0.00024591811 0 0)
(-0.00034547983 0.00018751381 0 0.00034098352 0 0)
(-0.00049281617 0.00028506372 0 0.00048433036 0 0)
(-0.00070299786 0.00042905351 0 0.0006836355 0 0)
(-0.0010340415 0.00066622965 0 0.00099289825 0 0)
(-0.0015456567 0.0010696713 0 0.0014572067 0 0)
(-0.0023603662 0.0016595889 0 0.0021291002 0 0)
(-0.0036044922 0.0027097137 0 0.003142704 0 0)
(-0.0055523646 0.0039938785 0 0.0043243087 0 0)
(-0.0077837806 0.005930956 0 0.0057980866 0 0)
(-0.012321813 0.0084725007 0 0.0071974858 0 0)
(-0.01289084 0.0060180946 0 0.0092911285 0 0)
(-0.00036999955 0.00030532345 0 0.0003554566 0 0)
(-0.00047017741 2.9991784e-005 0 0.00047954075 0 0)
(-0.00048115112 -7.3157426e-005 0 0.00046632848 0 0)
(-0.00039609194 -0.00010903737 0 0.00039487072 0 0)
(-0.0003178734 -0.00010783126 0 0.00031396829 0 0)
(-0.00025019189 -9.4882528e-005 0 0.00024848774 0 0)
(-0.00019302139 -7.2502008e-005 0 0.00019187075 0 0)
(-0.00015397124 -4.9509685e-005 0 0.00015325141 0 0)
(-0.00012965314 -2.6689145e-005 0 0.00012908492 0 0)
(-0.00011942946 -2.751236e-006 0 0.00011910918 0 0)
(-0.00012239808 2.1071997e-005 0 0.00012186355 0 0)
(-0.00014003253 5.1138173e-005 0 0.00013930075 0 0)
(-0.00017821716 9.1899947e-005 0 0.00017722327 0 0)
(-0.00023356566 0.00014127679 0 0.00023125591 0 0)
(-0.00032366877 0.0002153542 0 0.00031921769 0 0)
(-0.0004598168 0.00032791475 0 0.00045141345 0 0)
(-0.00065253191 0.00049209864 0 0.00063340441 0 0)
(-0.00095305222 0.00076079486 0 0.00091237979 0 0)
(-0.0014098816 0.0012161049 0 0.0013229883 0 0)
(-0.0021225836 0.0018828167 0 0.0018969751 0 0)
(-0.0031609844 0.0030735965 0 0.002715857 0 0)
(-0.0048940116 0.0044972965 0 0.0036967178 0 0)
(-0.0065313315 0.0067807134 0 0.0046690368 0 0)
(-0.011312157 0.0094930882 0 0.0061322993 0 0)
(-0.0095471087 0.0073735504 0 0.0066370884 0 0)
(-0.00038078581 0.00035324119 0 0.00036550363 0 0)
(-0.00047930121 3.1904656e-005 0 0.00048820564 0 0)
(-0.00048926816 -8.8345464e-005 0 0.00047455866 0 0)
(-0.00039840619 -0.00013086591 0 0.00039675287 0 0)
(-0.00031492056 -0.0001281564 0 0.00031107819 0 0)
(-0.00024566227 -0.00011226479 0 0.0002437921 0 0)
(-0.00018729934 -8.5942846e-005 0 0.00018614058 0 0)
(-0.00014785442 -5.8927193e-005 0 0.00014714077 0 0)
(-0.00012348433 -3.2556595e-005 0 0.00012291198 0 0)
(-0.00011283516 -5.3803738e-006 0 0.00011253907 0 0)
(-0.00011505104 2.2105208e-005 0 0.00011455721 0 0)
(-0.00013074866 5.562896e-005 0 0.00013003738 0 0)
(-0.00016599402 0.00010196288 0 0.00016507711 0 0)
(-0.00021668069 0.00015734942 0 0.00021441825 0 0)
(-0.000298887 0.00023980835 0 0.00029441348 0 0)
(-0.00042290799 0.00036591197 0 0.00041461719 0 0)
(-0.0005955111 0.00054829722 0 0.00057667537 0 0)
(-0.00086040887 0.0008448275 0 0.00082042131 0 0)
(-0.0012535898 0.0013456908 0 0.0011680528 0 0)
(-0.0018577601 0.0020665409 0 0.0016379603 0 0)
(-0.0026486517 0.0033755673 0 0.0022240295 0 0)
(-0.0041294432 0.0048930176 0 0.0029635902 0 0)
(-0.0050023641 0.0075330173 0 0.0032624699 0 0)
(-0.0095105504 0.010629735 0 0.0044571417 0 0)
(-0.0070292584 0.0082373126 0 0.0045230645 0 0)
(-0.00039474352 0.0004010229 0 0.00037703216 0 0)
(-0.00048991157 3.2341614e-005 0 0.00050051009 0 0)
(-0.00049918285 -0.00010586863 0 0.00048344275 0 0)
(-0.000401 -0.0001554097 0 0.000398911 0 0)
(-0.0003110323 -0.00015057324 0 0.00030730539 0 0)
(-0.00024018811 -0.00013103961 0 0.00023812591 0 0)
(-0.00018062838 -0.00010068479 0 0.00017952252 0 0)
(-0.00014074355 -6.9371637e-005 0 0.00014009487 0 0)
(-0.0001164166 -3.9287279e-005 0 0.00011585314 0 0)
(-0.00010545078 -9.4960378e-006 0 0.00010519608 0 0)
(-0.00010671728 2.1966543e-005 0 0.00010631576 0 0)
(-0.00012048113 5.8652596e-005 0 0.00011987449 0 0)
(-0.00015219827 0.00010983746 0 0.00015137782 0 0)
(-0.00019793117 0.00017091951 0 0.00019580634 0 0)
(-0.00027123071 0.00026074281 0 0.00026697686 0 0)
(-0.00038129617 0.00039935282 0 0.00037344922 0 0)
(-0.00053361186 0.00059549324 0 0.00051513102 0 0)
(-0.00076096402 0.00091444795 0 0.00072226344 0 0)
(-0.0010867082 0.0014515508 0 0.00100448 0 0)
(-0.0015952005 0.002186815 0 0.001378272 0 0)
(-0.0021053123 0.0036050789 0 0.0017210188 0 0)
(-0.0032961057 0.0050886387 0 0.0021695729 0 0)
(-0.0031665478 0.0080243564 0 0.0016597019 0 0)
(-0.0071980028 0.011084169 0 0.0024199234 0 0)
(-0.00075477148 0.011106861 0 -0.0020455964 0 0)
(-0.00041262281 0.00044912045 0 0.00038662395 0 0)
(-0.00050235782 3.1271513e-005 0 0.00052144241 0 0)
(-0.00051070624 -0.00012612766 0 0.00049041533 0 0)
(-0.00040377185 -0.00018289642 0 0.00040128212 0 0)
(-0.00030621616 -0.00017511649 0 0.00030279152 0 0)
(-0.00023329503 -0.00015162804 0 0.00023147225 0 0)
(-0.00017282933 -0.0001165886 0 0.00017191441 0 0)
(-0.00013260163 -8.0697835e-005 0 0.0001322673 0 0)
(-0.0001084318 -4.686826e-005 0 0.00010808131 0 0)
(-9.7318684e-005 -1.493605e-005 0 9.7382149e-005 0 0)
(-9.7553941e-005 2.0600914e-005 0 9.7487279e-005 0 0)
(-0.00010900484 5.9658017e-005 0 0.00010861636 0 0)
(-0.00013756143 0.00011620325 0 0.00013701396 0 0)
(-0.00017750785 0.0001815118 0 0.00017576422 0 0)
(-0.00024121591 0.00027830956 0 0.00023762982 0 0)
(-0.00033751723 0.00042666972 0 0.0003306413 0 0)
(-0.00046616905 0.00063396636 0 0.00044791029 0 0)
(-0.00065308429 0.00097038139 0 0.00061525899 0 0)
(-0.0009072206 0.001536323 0 0.00082945597 0 0)
(-0.0012978909 0.0022647806 0 0.0010790881 0 0)
(-0.0015235785 0.0037248284 0 0.0011811544 0 0)
(-0.0022265406 0.0051455911 0 0.0011564244 0 0)
(-0.0010095129 0.0078065986 0 -0.00012425997 0 0)
(-0.0030316564 0.010058888 0 -0.00094976307 0 0)
(0.0032249627 0.011704035 0 -0.0076522425 0 0)
(-0.014082929 0.0005222664 0 0.0092972081 0 0)
(-0.0077795118 0.00092888459 0 0.0056580987 0 0)
(-0.0027560346 0.0013149402 0 0.0019704387 0 0)
(-0.00062683311 0.0015282171 0 0.00041565636 0 0)
(-0.00012568874 0.0016293674 0 -9.7233658e-006 0 0)
(-5.6304221e-007 0.0016446659 0 -9.1844576e-005 0 0)
(-5.0449802e-005 0.0016348048 0 -4.0752069e-005 0 0)
(-8.0454598e-005 0.0016287206 0 -8.0030318e-006 0 0)
(-9.2727312e-005 0.0016272815 0 4.2134611e-006 0 0)
(-9.1491442e-005 0.0016275788 0 3.156892e-006 0 0)
(-8.8451059e-005 0.0016280169 0 1.5295109e-007 0 0)
(-8.7670914e-005 0.0016280937 0 -6.0011506e-007 0 0)
(-8.7983835e-005 0.0016280218 0 -2.9081105e-007 0 0)
(-8.8220924e-005 0.0016279775 0 -5.1804755e-008 0 0)
(-8.8306241e-005 0.0016279616 0 3.4541886e-008 0 0)
(-8.8291951e-005 0.0016279632 0 2.0155369e-008 0 0)
(-8.8273498e-005 0.0016279654 0 1.5268521e-009 0 0)
(-8.8269833e-005 0.0016279658 0 -2.2274683e-009 0 0)
(-8.8270647e-005 0.0016279657 0 -1.3927799e-009 0 0)
(-8.8271606e-005 0.0016279653 0 -4.225736e-010 0 0)
(-8.8271972e-005 0.0016279652 0 -1.2013454e-010 0 0)
(-8.8272735e-005 0.0016279656 0 5.2596054e-010 0 0)
(-8.8273076e-005 0.0016279658 0 1.5086355e-009 0 0)
(-8.8279251e-005 0.0016279656 0 6.3986196e-009 0 0)
(-8.8280202e-005 0.001627966 0 7.3698826e-009 0 0)
(-0.013607569 0.0016492285 0 0.0089454697 0 0)
(-0.0075269442 0.0028326695 0 0.0053795467 0 0)
(-0.003019477 0.0039301149 0 0.0018808605 0 0)
(-0.001128232 0.004700885 0 0.0003714671 0 0)
(-0.00079593013 0.0049223318 0 -5.0638164e-008 0 0)
(-0.00073175083 0.0049466154 0 -5.8864994e-005 0 0)
(-0.0007630584 0.0049302499 0 -3.3387797e-005 0 0)
(-0.00079436906 0.0049148756 0 -2.34606e-006 0 0)
(-0.00080156215 0.004913024 0 4.0045266e-006 0 0)
(-0.00079956015 0.0049143911 0 1.9928953e-006 0 0)
(-0.0007975316 0.0049153044 0 5.0740455e-008 0 0)
(-0.00079680483 0.0049154772 0 -4.9011593e-007 0 0)
(-0.00079700515 0.0049153325 0 -2.1997054e-007 0 0)
(-0.00079719256 0.0049152284 0 -7.8312685e-009 0 0)
(-0.0007972367 0.0049152073 0 3.748268e-008 0 0)
(-0.00079721637 0.0049152155 0 1.6650885e-008 0 0)
(-0.0007972016 0.0049152217 0 9.4705686e-010 0 0)
(-0.00079719869 0.0049152229 0 -1.9205655e-009 0 0)
(-0.00079719944 0.004915222 0 -9.1479042e-010 0 0)
(-0.00079720054 0.0049152221 0 -2.0419594e-010 0 0)
(-0.00079720057 0.0049152218 0 -7.0639199e-011 0 0)
(-0.00079720081 0.0049152213 0 2.3793757e-010 0 0)
(-0.0007972015 0.0049152231 0 9.6320969e-010 0 0)
(-0.0007972083 0.0049152229 0 6.3626964e-009 0 0)
(-0.00079720918 0.0049152267 0 6.8508307e-009 0 0)
(-0.012764149 0.0028838568 0 0.0084152527 0 0)
(-0.0069251182 0.0048348608 0 0.0048276482 0 0)
(-0.0035036555 0.006937105 0 0.0015487657 0 0)
(-0.0024273554 0.0078977128 0 0.00043370149 0 0)
(-0.0022226425 0.008219459 0 8.8059124e-005 0 0)
(-0.0021841233 0.0083221801 0 -2.3660355e-005 0 0)
(-0.0022199034 0.0083039161 0 -1.3020908e-005 0 0)
(-0.0022322668 0.0082884887 0 7.3762597e-007 0 0)
(-0.0022348438 0.0082866404 0 2.8011573e-006 0 0)
(-0.002233033 0.008288503 0 9.9833276e-007 0 0)
(-0.0022315206 0.0082895582 0 -2.3866456e-007 0 0)
(-0.0022309929 0.0082896381 0 -3.9044811e-007 0 0)
(-0.0022311115 0.0082894103 0 -1.3483051e-007 0 0)
(-0.002231214 0.0082892857 0 1.0666711e-008 0 0)
(-0.0022312291 0.0082892667 0 2.9110569e-008 0 0)
(-0.0022312155 0.0082892781 0 1.2235164e-008 0 0)
(-0.002231206 0.0082892879 0 7.9307407e-011 0 0)
(-0.0022312046 0.0082892888 0 -1.2765132e-009 0 0)
(-0.0022312061 0.0082892888 0 -5.8637784e-010 0 0)
(-0.0022312063 0.008289288 0 -8.3782144e-012 0 0)
(-0.0022312063 0.0082892882 0 -1.9388435e-011 0 0)
(-0.0022312065 0.0082892886 0 6.5789948e-011 0 0)
(-0.0022312071 0.0082892892 0 9.1832698e-010 0 0)
(-0.0022312118 0.008289289 0 4.7795916e-009 0 0)
(-0.0022312143 0.0082892964 0 5.1405062e-009 0 0)
(-0.011531365 0.004153355 0 0.0075109936 0 0)
(-0.0060666437 0.0077857132 0 0.0035063276 0 0)
(-0.0047667412 0.0098412149 0 0.0015064745 0 0)
(-0.0041663461 0.011345187 0 0.00034694598 0 0)
(-0.0043231766 0.011769932 0 4.4078621e-005 0 0)
(-0.0044020984 0.011823547 0 4.8258894e-006 0 0)
(-0.0044278968 0.011800476 0 1.5359295e-006 0 0)
(-0.0044276903 0.011787043 0 2.4780623e-006 0 0)
(-0.0044268688 0.011786026 0 1.1129756e-006 0 0)
(-0.0044254537 0.011787678 0 -1.2067077e-007 0 0)
(-0.0044245018 0.011788484 0 -4.3202899e-007 0 0)
(-0.0044242027 0.011788393 0 -2.1180191e-007 0 0)
(-0.0044242224 0.011788162 0 -3.2269042e-008 0 0)
(-0.0044242363 0.011788064 0 2.2374158e-008 0 0)
(-0.0044242325 0.011788056 0 1.7749272e-008 0 0)
(-0.0044242267 0.011788071 0 4.2764415e-009 0 0)
(-0.0044242253 0.01178808 0 -5.5794432e-010 0 0)
(-0.0044242268 0.011788081 0 -4.9543288e-010 0 0)
(-0.0044242268 0.01178808 0 -1.0320748e-010 0 0)
(-0.0044242263 0.01178808 0 9.9678836e-011 0 0)
(-0.0044242258 0.011788079 0 1.2751538e-010 0 0)
(-0.0044242255 0.01178808 0 -2.223388e-010 0 0)
(-0.0044242272 0.011788082 0 -1.7355732e-011 0 0)
(-0.0044242312 0.011788083 0 2.9781478e-009 0 0)
(-0.0044242347 0.011788092 0 2.9202548e-009 0 0)
(-0.0095505252 0.0057052032 0 0.0059983698 0 0)
(-0.0063276659 0.010713931 0 0.0025068145 0 0)
(-0.0063777953 0.013262732 0 0.0010420688 0 0)
(-0.0068675258 0.014953812 0 0.0002855032 0 0)
(-0.007338472 0.015387081 0 8.4362771e-005 0 0)
(-0.0074317107 0.015447192 0 3.657688e-005 0 0)
(-0.0074372948 0.015434141 0 1.1737807e-005 0 0)
(-0.0074256577 0.01542633 0 2.3477076e-006 0 0)
(-0.007422193 0.015426013 0 -9.2686937e-007 0 0)
(-0.0074210877 0.015426891 0 -1.039601e-006 0 0)
(-0.0074207612 0.015427038 0 -3.5963275e-007 0 0)
(-0.0074206586 0.015426855 0 -8.7905602e-009 0 0)
(-0.0074205802 0.015426696 0 4.5725882e-008 0 0)
(-0.0074205238 0.015426648 0 1.777472e-008 0 0)
(-0.0074205124 0.015426649 0 1.036063e-009 0 0)
(-0.0074205187 0.015426662 0 -2.1832418e-009 0 0)
(-0.0074205242 0.015426668 0 -5.5018866e-010 0 0)
(-0.0074205254 0.015426668 0 3.6160306e-010 0 0)
(-0.0074205252 0.015426668 0 2.5826047e-010 0 0)
(-0.0074205257 0.015426669 0 5.7662693e-011 0 0)
(-0.0074205253 0.015426668 0 4.5765473e-011 0 0)
(-0.0074205246 0.015426668 0 -3.4415818e-010 0 0)
(-0.0074205257 0.01542667 0 -4.9966455e-010 0 0)
(-0.0074205268 0.015426672 0 1.2679379e-010 0 0)
(-0.0074205312 0.015426681 0 2.1226805e-010 0 0)
(-0.0074947141 0.0087281394 0 0.0036473256 0 0)
(-0.0069027178 0.014064522 0 0.0012857039 0 0)
(-0.0091164097 0.017289762 0 0.0004479778 0 0)
(-0.01066553 0.018817455 0 0.00021520768 0 0)
(-0.011249209 0.019150585 0 0.00010941524 0 0)
(-0.011303438 0.019203131 0 5.3240789e-005 0 0)
(-0.011282902 0.019198379 0 1.5469118e-005 0 0)
(-0.011263272 0.019196375 0 6.9880989e-007 0 0)
(-0.011257479 0.019195626 0 -2.6356894e-006 0 0)
(-0.011256775 0.019195299 0 -1.2451848e-006 0 0)
(-0.011257305 0.019195047 0 -8.1795609e-008 0 0)
(-0.011257322 0.019194945 0 1.8168905e-007 0 0)
(-0.011257174 0.019194913 0 8.6331943e-008 0 0)
(-0.011257075 0.019194913 0 -2.2353482e-010 0 0)
(-0.011257065 0.019194916 0 -1.5286925e-008 0 0)
(-0.011257083 0.01919492 0 -5.7920363e-009 0 0)
(-0.011257092 0.019194922 0 1.3125502e-010 0 0)
(-0.011257093 0.019194923 0 1.0268275e-009 0 0)
(-0.011257093 0.019194923 0 4.267137e-010 0 0)
(-0.011257093 0.019194923 0 6.5035392e-011 0 0)
(-0.011257092 0.019194923 0 -9.0185946e-011 0 0)
(-0.011257092 0.019194923 0 -2.9852128e-010 0 0)
(-0.011257092 0.019194924 0 -1.0679133e-009 0 0)
(-0.01125709 0.019194927 0 -2.9871817e-009 0 0)
(-0.011257095 0.019194935 0 -2.6134192e-009 0 0)
(-0.0065006995 0.011361291 0 0.0014849859 0 0)
(-0.0089492384 0.018711163 0 -0.00023977744 0 0)
(-0.013706815 0.021634123 0 5.6442714e-005 0 0)
(-0.015523016 0.022785799 0 0.00018116939 0 0)
(-0.016018271 0.0229986 0 0.00012997332 0 0)
(-0.016010686 0.023051135 0 6.0580824e-005 0 0)
(-0.015972515 0.02305862 0 1.4635742e-005 0 0)
(-0.015951782 0.02306132 0 -9.3884387e-007 0 0)
(-0.015945035 0.0230597 0 -3.5143779e-006 0 0)
(-0.015945613 0.023058536 0 -1.0987582e-006 0 0)
(-0.015946806 0.023058196 0 2.0231623e-007 0 0)
(-0.015946911 0.023058289 0 2.8684702e-007 0 0)
(-0.015946737 0.023058375 0 8.8340669e-008 0 0)
(-0.015946623 0.023058399 0 -1.6720093e-008 0 0)
(-0.015946611 0.023058391 0 -2.3851734e-008 0 0)
(-0.01594663 0.023058386 0 -7.3954123e-009 0 0)
(-0.015946641 0.023058385 0 9.9949657e-010 0 0)
(-0.015946642 0.023058386 0 1.2666398e-009 0 0)
(-0.015946641 0.023058387 0 4.7623479e-010 0 0)
(-0.015946641 0.023058387 0 1.3135182e-010 0 0)
(-0.01594664 0.023058386 0 -1.0121795e-010 0 0)
(-0.01594664 0.023058386 0 -3.1302125e-010 0 0)
(-0.01594664 0.023058388 0 -1.739419e-009 0 0)
(-0.015946635 0.02305839 0 -5.6458384e-009 0 0)
(-0.015946639 0.023058395 0 -5.0922841e-009 0 0)
(-0.006464856 0.016034196 0 -0.0017058908 0 0)
(-0.013510572 0.024072928 0 -0.0016005408 0 0)
(-0.019901468 0.026084661 0 -0.00013518769 0 0)
(-0.021199074 0.026747333 0 0.00014827003 0 0)
(-0.021580159 0.026881065 0 0.00013111097 0 0)
(-0.021533824 0.026947681 0 5.6218868e-005 0 0)
(-0.02150378 0.026970117 0 1.0602228e-005 0 0)
(-0.021484479 0.026974604 0 -3.2293036e-006 0 0)
(-0.021481352 0.02697177 0 -3.4955432e-006 0 0)
(-0.021483351 0.026970208 0 -7.1993453e-007 0 0)
(-0.021484897 0.026970043 0 3.563828e-007 0 0)
(-0.021485185 0.026970395 0 3.0416292e-007 0 0)
(-0.021485001 0.026970562 0 5.5245457e-008 0 0)
(-0.02148488 0.026970573 0 -3.1599826e-008 0 0)
(-0.021484865 0.026970546 0 -2.3318303e-008 0 0)
(-0.021484882 0.026970536 0 -4.4998459e-009 0 0)
(-0.021484891 0.026970535 0 1.5121848e-009 0 0)
(-0.021484892 0.026970536 0 1.1822278e-009 0 0)
(-0.021484891 0.026970537 0 3.6782923e-010 0 0)
(-0.021484891 0.026970537 0 8.8375152e-011 0 0)
(-0.021484891 0.026970537 0 2.1665178e-011 0 0)
(-0.02148489 0.026970537 0 -1.5250311e-010 0 0)
(-0.021484889 0.026970537 0 -1.9764651e-009 0 0)
(-0.02148488 0.026970538 0 -7.1704988e-009 0 0)
(-0.021484882 0.026970539 0 -6.4904642e-009 0 0)
(-0.011578653 0.024900821 0 -0.0052361986 0 0)
(-0.021635767 0.030174872 0 -0.0026412592 0 0)
(-0.027210597 0.030480271 0 -0.00016729102 0 0)
(-0.027592122 0.030663994 0 9.3895992e-005 0 0)
(-0.027887534 0.030771138 0 0.0001202802 0 0)
(-0.027876471 0.030871868 0 3.9626001e-005 0 0)
(-0.027881495 0.030902754 0 6.9736227e-006 0 0)
(-0.027868353 0.030906362 0 -4.0374499e-006 0 0)
(-0.02786852 0.030902199 0 -2.569998e-006 0 0)
(-0.027870402 0.030900507 0 -4.4775531e-007 0 0)
(-0.027872209 0.030900632 0 3.5027607e-007 0 0)
(-0.027872523 0.030901117 0 2.0654552e-007 0 0)
(-0.027872382 0.030901276 0 2.075257e-008 0 0)
(-0.027872247 0.030901254 0 -3.1601377e-008 0 0)
(-0.027872222 0.030901213 0 -1.6351252e-008 0 0)
(-0.027872232 0.030901201 0 -1.8893437e-009 0 0)
(-0.027872239 0.030901202 0 1.6028473e-009 0 0)
(-0.027872239 0.030901204 0 8.3572927e-010 0 0)
(-0.027872239 0.030901204 0 1.8361269e-010 0 0)
(-0.027872238 0.030901204 0 2.0852672e-011 0 0)
(-0.027872238 0.030901204 0 1.223761e-010 0 0)
(-0.027872238 0.030901204 0 3.5950698e-011 0 0)
(-0.027872237 0.030901204 0 -1.273021e-009 0 0)
(-0.027872227 0.030901203 0 -5.9315088e-009 0 0)
(-0.027872224 0.030901196 0 -5.6147268e-009 0 0)
(-0.034422566 0.042076404 0 -0.0097982948 0 0)
(-0.032749595 0.035532082 0 -0.0017730358 0 0)
(-0.039174627 0.036675449 0 -0.00011895558 0 0)
(-0.037855469 0.036092967 0 5.0637054e-005 0 0)
(-0.038801058 0.036518835 0 5.6430599e-005 0 0)
(-0.03875216 0.036566378 0 1.3553619e-005 0 0)
(-0.038841369 0.036615074 0 1.0927417e-006 0 0)
(-0.038816152 0.036604002 0 -2.5208487e-006 0 0)
(-0.038819149 0.036600335 0 -1.126343e-006 0 0)
(-0.038817394 0.036597781 0 -1.5320592e-007 0 0)
(-0.038819454 0.036598468 0 1.6439596e-007 0 0)
(-0.038819753 0.036598928 0 7.8346161e-008 0 0)
(-0.038819754 0.036599069 0 2.2494216e-009 0 0)
(-0.038819598 0.036599007 0 -1.3754929e-008 0 0)
(-0.038819562 0.036598969 0 -5.6531358e-009 0 0)
(-0.038819561 0.036598959 0 -1.7622016e-010 0 0)
(-0.038819567 0.036598962 0 8.1839542e-010 0 0)
(-0.038819569 0.036598964 0 3.1523525e-010 0 0)
(-0.038819568 0.036598965 0 5.6674177e-011 0 0)
(-0.038819568 0.036598965 0 -2.2980108e-012 0 0)
(-0.038819569 0.036598965 0 8.4424742e-011 0 0)
(-0.03881957 0.036598965 0 1.160616e-010 0 0)
(-0.03881957 0.036598965 0 -3.5828166e-010 0 0)
(-0.038819564 0.036598963 0 -2.9381471e-009 0 0)
(-0.038819551 0.036598948 0 -3.1450744e-009 0 0)
(-0.00045689093 0.00055122517 0 0.00041679755 0 0)
(-0.00053155466 2.397081e-005 0 0.0005740299 0 0)
(-0.000536806 -0.0001780778 0 0.00050949682 0 0)
(-0.00040876512 -0.00024249417 0 0.00040338991 0 0)
(-0.00029819797 -0.00022932864 0 0.00029403125 0 0)
(-0.0002131137 -0.00019154185 0 0.00020981152 0 0)
(-0.00015657968 -0.00014983873 0 0.00015435266 0 0)
(-0.00011501547 -0.00010460967 0 0.0001139519 0 0)
(-9.1157591e-005 -6.3681352e-005 0 9.002724e-005 0 0)
(-7.9518886e-005 -2.5953058e-005 0 7.8935974e-005 0 0)
(-7.7857357e-005 1.592411e-005 0 7.7108597e-005 0 0)
(-8.6173377e-005 6.2048181e-005 0 8.4873282e-005 0 0)
(-0.0001049946 0.00012217103 0 0.00010419378 0 0)
(-0.00013413328 0.00019547265 0 0.00013148491 0 0)
(-0.00017927235 0.00030034884 0 0.00017396003 0 0)
(-0.00024633544 0.00046971247 0 0.00023883587 0 0)
(-0.00032755164 0.0006882456 0 0.00030774151 0 0)
(-0.00044367639 0.0010338468 0 0.00040392026 0 0)
(-0.00055767247 0.0016286723 0 0.00048934152 0 0)
(-0.00071155141 0.0023359762 0 0.00051676133 0 0)
(-0.00065974439 0.0036880734 0 0.0003750731 0 0)
(-0.00058776207 0.0049041097 0 -0.00028893736 0 0)
(0.0012408201 0.0069449306 0 -0.0018943464 0 0)
(0.0018621855 0.0075313088 0 -0.0042619311 0 0)
(0.0097806755 0.0069809411 0 -0.012734563 0 0)
(-0.00056310004 0.00072612156 0 0.00050195794 0 0)
(-0.00060994156 -2.8242525e-006 0 0.00066626719 0 0)
(-0.00058609821 -0.00027826365 0 0.00054950558 0 0)
(-0.00041033473 -0.00034074656 0 0.00040071086 0 0)
(-0.00027002637 -0.00031018809 0 0.00026623496 0 0)
(-0.00017596673 -0.00024995317 0 0.00017275872 0 0)
(-0.00011979561 -0.00019223837 0 0.00011816555 0 0)
(-7.9241737e-005 -0.00013139151 0 7.9065889e-005 0 0)
(-5.8171461e-005 -8.1075135e-005 0 5.7517153e-005 0 0)
(-4.6644475e-005 -3.5528599e-005 0 4.6384514e-005 0 0)
(-4.1742423e-005 1.319002e-005 0 4.209094e-005 0 0)
(-4.3206537e-005 6.2870385e-005 0 4.2811199e-005 0 0)
(-4.9931892e-005 0.00013122263 0 4.9993715e-005 0 0)
(-6.0852473e-005 0.00021506774 0 6.0241142e-005 0 0)
(-7.6148995e-005 0.00032196677 0 7.1023572e-005 0 0)
(-9.6195774e-005 0.00050012989 0 9.0974742e-005 0 0)
(-0.00010896209 0.00072691113 0 9.6240108e-005 0 0)
(-0.00011969491 0.001052621 0 8.347354e-005 0 0)
(-6.0424701e-005 0.0016148674 0 2.5906044e-006 0 0)
(4.3384843e-005 0.0022400606 0 -0.00020649123 0 0)
(0.00051086292 0.0031856289 0 -0.00076824452 0 0)
(0.0011193303 0.0037981622 0 -0.0018184865 0 0)
(0.0031123203 0.0042383687 0 -0.0038269322 0 0)
(0.00517984 0.0018643841 0 -0.0073399691 0 0)
(0.0063390227 -0.001466455 0 -0.0093123066 0 0)
(-0.00073510089 0.00093046216 0 0.0006553556 0 0)
(-0.00071627696 -4.910253e-005 0 0.00078033222 0 0)
(-0.00063281394 -0.00038558982 0 0.00058782607 0 0)
(-0.0003914033 -0.00042483673 0 0.00037840982 0 0)
(-0.00022148976 -0.00035822523 0 0.00021766563 0 0)
(-0.00012218822 -0.00026565986 0 0.00011862511 0 0)
(-6.961006e-005 -0.00018839304 0 6.7966098e-005 0 0)
(-3.5409339e-005 -0.00011294667 0 3.5118786e-005 0 0)
(-1.8243857e-005 -5.211843e-005 0 1.8016911e-005 0 0)
(-8.9597215e-006 -3.1439077e-006 0 8.829269e-006 0 0)
(-2.07285e-006 4.9535106e-005 0 2.5885859e-006 0 0)
(2.276089e-006 0.00010141079 0 -2.586466e-006 0 0)
(6.9861983e-006 0.00017218941 0 -8.8570352e-006 0 0)
(1.6482223e-005 0.00025590848 0 -1.625678e-005 0 0)
(2.7140292e-005 0.00036157235 0 -3.1258325e-005 0 0)
(4.9165553e-005 0.00051866485 0 -5.7169177e-005 0 0)
(9.8915949e-005 0.000755209 0 -0.00011046779 0 0)
(0.00016475531 0.001035705 0 -0.00019954838 0 0)
(0.000344607 0.0015153885 0 -0.00040106101 0 0)
(0.00062168819 0.0020197052 0 -0.00075436078 0 0)
(0.0012082975 0.0026733656 0 -0.001417446 0 0)
(0.0020420038 0.0029469866 0 -0.0024704633 0 0)
(0.0034701754 0.0027541681 0 -0.0038454385 0 0)
(0.0046721378 0.00059453542 0 -0.0054232869 0 0)
(0.0036183203 -0.0030407796 0 -0.0038643761 0 0)
(-0.00098257764 0.0011979253 0 0.00087210865 0 0)
(-0.00081099095 -9.6144543e-005 0 0.000883571 0 0)
(-0.00063331345 -0.00044797644 0 0.00057792072 0 0)