/*--------------------------------*- C++ -*----------------------------------*\
| =========                 |                                                 |
| \\      /  F ield         | OpenFOAM: The Open Source CFD Toolbox           |
|  \\    /   O peration     | Version:  5.x                                   |
|   \\  /    A nd           | Web:      www.OpenFOAM.org                      |
|    \\/     M anipulation  |                                                 |
\*---------------------------------------------------------------------------*/
/*   Windows 32 and 64 bit porting by blueCAPE: http://www.bluecape.com.pt   *\
|  Based on Windows porting (2.0.x v4) by Symscape: http://www.symscape.com   |
\*---------------------------------------------------------------------------*/
FoamFile
{
    version     2.0;
    format      ascii;
    class       volVectorField;
    location    "0.18";
    object      U;
}
// * * * * * * * * * * * * * * * * * * * * * * * * * * * * * * * * * * * * * //

dimensions      [0 1 -1 0 0 0 0];

internalField   nonuniform List<vector> 
750
(
(0.039284485 -0.00013294806 0)
(0.040394021 -0.00016615421 0)
(0.041890884 -0.00016468221 0)
(0.043068805 -0.00014143148 0)
(0.04413777 -0.00011859597 0)
(0.044970819 -9.379375e-005 0)
(0.045635769 -7.4597815e-005 0)
(0.046163863 -6.0353436e-005 0)
(0.046598261 -5.1154923e-005 0)
(0.046980313 -4.7289391e-005 0)
(0.047352457 -4.8913021e-005 0)
(0.047760909 -5.6733632e-005 0)
(0.048257023 -7.182824e-005 0)
(0.048905191 -9.6865518e-005 0)
(0.04980213 -0.00013619876 0)
(0.051075449 -0.0001953929 0)
(0.052913365 -0.00028644338 0)
(0.055640647 -0.00043092161 0)
(0.059774539 -0.00066150769 0)
(0.066143661 -0.0010382989 0)
(0.076352979 -0.0015763896 0)
(0.090999598 -0.0023837069 0)
(0.11466437 -0.0032890475 0)
(0.1424182 -0.004208016 0)
(0.18292546 -0.0047039648 0)
(0.039287969 -0.00039731219 0)
(0.040399307 -0.00050325033 0)
(0.041900432 -0.00049187853 0)
(0.043080764 -0.00042561765 0)
(0.044148638 -0.00035486502 0)
(0.044980224 -0.00028138106 0)
(0.045643127 -0.00022341163 0)
(0.046168674 -0.0001803957 0)
(0.046600396 -0.00015296604 0)
(0.046979882 -0.0001413528 0)
(0.047349187 -0.00014613637 0)
(0.047754318 -0.00016947144 0)
(0.048245858 -0.00021449906 0)
(0.048888081 -0.00028917958 0)
(0.049776437 -0.00040648979 0)
(0.051036517 -0.00058305859 0)
(0.052854644 -0.00085428959 0)
(0.055550334 -0.0012844564 0)
(0.059629202 -0.0019699767 0)
(0.065905957 -0.0030865946 0)
(0.075947105 -0.0046957478 0)
(0.090343863 -0.0070603859 0)
(0.1135679 -0.0098183192 0)
(0.14070892 -0.012463446 0)
(0.18084654 -0.01410962 0)
(0.039293694 -0.00066175806 0)
(0.040410344 -0.00084405759 0)
(0.04192017 -0.00081855701 0)
(0.043104689 -0.00071071319 0)
(0.044171018 -0.00059041336 0)
(0.044999675 -0.00046845355 0)
(0.045658037 -0.0003714138 0)
(0.04617859 -0.0002995076 0)
(0.04660523 -0.00025387303 0)
(0.046979454 -0.00023447152 0)
(0.047343043 -0.0002422873 0)
(0.047741585 -0.00028082879 0)
(0.048224098 -0.00035534361 0)
(0.048854326 -0.00047893208 0)
(0.049725469 -0.00067298175 0)
(0.050959315 -0.00096495357 0)
(0.05273743 -0.0014129474 0)
(0.055369059 -0.0021226212 0)
(0.059338723 -0.0032533957 0)
(0.065430282 -0.0050882296 0)
(0.075143081 -0.0077463964 0)
(0.08901063 -0.011604271 0)
(0.1114219 -0.016193864 0)
(0.13735975 -0.020503102 0)
(0.1766321 -0.023433624 0)
(0.039301768 -0.00092871902 0)
(0.040427449 -0.0011873419 0)
(0.041950561 -0.0011471654 0)
(0.043141061 -0.00099616997 0)
(0.044205465 -0.00082540542 0)
(0.045029675 -0.000654239 0)
(0.045680797 -0.00051786735 0)
(0.04619398 -0.00041713641 0)
(0.046613137 -0.00035315511 0)
(0.046979409 -0.00032586761 0)
(0.047334404 -0.00033651262 0)
(0.047723156 -0.00038974412 0)
(0.048192378 -0.00049291411 0)
(0.048804628 -0.00066407429 0)
(0.049650169 -0.0009327122 0)
(0.050845432 -0.0013365494 0)
(0.052564067 -0.0019553952 0)
(0.055101025 -0.0029341627 0)
(0.058912325 -0.004490783 0)
(0.064726951 -0.0070096447 0)
(0.0739611 -0.010664329 0)
(0.08704387 -0.015941733 0)
(0.10826721 -0.022246383 0)
(0.1322759 -0.028152494 0)
(0.17021432 -0.032446165 0)
(0.039312909 -0.0011994067 0)
(0.040451156 -0.0015338569 0)
(0.041992438 -0.0014787505 0)
(0.043190863 -0.0012820627 0)
(0.04425279 -0.0010595719 0)
(0.045070902 -0.00083823861 0)
(0.045712066 -0.00066217886 0)
(0.046215452 -0.00053262254 0)
(0.046624583 -0.00045016947 0)
(0.046980352 -0.00041485825 0)
(0.047323927 -0.0004280589 0)
(0.047699705 -0.00049532949 0)
(0.048151538 -0.00062592839 0)
(0.048740089 -0.00084292744 0)
(0.049552147 -0.0011831586 0)
(0.050697015 -0.0016939687 0)
(0.052337851 -0.0024754983 0)
(0.054751427 -0.0037089629 0)
(0.058357419 -0.0056651775 0)
(0.063809601 -0.0088223062 0)
(0.072436876 -0.013398246 0)
(0.084464575 -0.019990493 0)
(0.10411987 -0.027860513 0)
(0.12554009 -0.035324972 0)
(0.16163266 -0.04078418 0)
(0.039327956 -0.001475018 0)
(0.04048244 -0.0018848427 0)
(0.042047239 -0.0018141378 0)
(0.043255706 -0.0015685879 0)
(0.044314377 -0.0012926167 0)
(0.045124543 -0.0010198982 0)
(0.045752992 -0.00080373129 0)
(0.046244002 -0.0006453045 0)
(0.046640479 -0.00054429692 0)
(0.046983363 -0.00050079043 0)
(0.047312723 -0.00051617751 0)
(0.047672402 -0.00059663715 0)
(0.048102903 -0.00075325984 0)
(0.048662472 -0.0010138111 0)
(0.049433337 -0.0014218752 0)
(0.050516397 -0.0020335037 0)
(0.052062493 -0.0029676403 0)
(0.054325724 -0.0044384203 0)
(0.0576841 -0.0067610509 0)
(0.062702061 -0.010500309 0)
(0.070593551 -0.015900114 0)
(0.081308538 -0.023674075 0)
(0.099063093 -0.032887749 0)
(0.11712708 -0.041872849 0)
(0.15097017 -0.048331782 0)
(0.0393481 -0.0017571268 0)
(0.040522717 -0.0022414181 0)
(0.04211669 -0.0021542672 0)
(0.043337696 -0.0018559059 0)
(0.044392077 -0.0015242131 0)
(0.045192139 -0.0011986083 0)
(0.04580514 -0.00094184005 0)
(0.046280976 -0.00075451763 0)
(0.046662074 -0.00063491142 0)
(0.046989965 -0.00058301846 0)
(0.047302174 -0.00060013881 0)
(0.047642789 -0.00069283751 0)
(0.048048318 -0.00087373766 0)
(0.048573832 -0.0011750626 0)
(0.049296241 -0.0016465746 0)
(0.050306975 -0.0023518507 0)
(0.051743323 -0.0034264156 0)
(0.053832202 -0.0051136564 0)
(0.056904768 -0.0077650957 0)
(0.061426621 -0.01201921 0)
(0.0684649 -0.018122112 0)
(0.077636375 -0.026914831 0)
(0.093160086 -0.037185826 0)
(0.10699164 -0.047549055 0)
(0.13880521 -0.055093646 0)
(0.0393754 -0.0020479437 0)
(0.040573781 -0.0026045498 0)
(0.042203088 -0.0025004361 0)
(0.043439501 -0.0021441301 0)
(0.044488071 -0.0017538716 0)
(0.045275464 -0.0013737703 0)
(0.045870349 -0.0010757699 0)
(0.046327916 -0.00085954276 0)
(0.046690953 -0.00072140512 0)
(0.047001854 -0.00066092837 0)
(0.047294034 -0.00067919681 0)
(0.047612587 -0.00078312943 0)
(0.047989893 -0.0009862525 0)
(0.04847669 -0.0013252614 0)
(0.049144184 -0.0018550469 0)
(0.050072956 -0.0026458663 0)
(0.051386436 -0.0038475152 0)
(0.053280102 -0.0057278536 0)
(0.056034139 -0.0086657933 0)
(0.060011048 -0.013362202 0)
(0.066094075 -0.020026592 0)
(0.073518924 -0.02965117 0)
(0.086514509 -0.040639578 0)
(0.09575273 -0.052314978 0)
(0.12534308 -0.059884381 0)
(0.039412418 -0.0023500251 0)
(0.040638161 -0.0029756554 0)
(0.042308839 -0.002853839 0)
(0.043564042 -0.0024333868 0)
(0.044604315 -0.0019810367 0)
(0.045376108 -0.0015446258 0)
(0.045950404 -0.0012047805 0)
(0.046386328 -0.00095964828 0)
(0.046728887 -0.00080317546 0)
(0.04702021 -0.0007339094 0)
(0.04729015 -0.00075264814 0)
(0.047583636 -0.0008666734 0)
(0.047929709 -0.001090041 0)
(0.04837385 -0.0014631384 0)
(0.048980853 -0.0020453879 0)
(0.049818899 -0.0029129668 0)
(0.050997608 -0.0042266932 0)
(0.052680305 -0.006274672 0)
(0.055089661 -0.0094532132 0)
(0.058472262 -0.014505383 0)
(0.063535804 -0.021572901 0)
(0.069070039 -0.031797372 0)
(0.07930426 -0.043169659 0)
(0.083490123 -0.05623521 0)
(0.11051508 -0.063082973 0)
(0.039460818 -0.0026641078 0)
(0.040719109 -0.0033594932 0)
(0.042436184 -0.003213682 0)
(0.043713823 -0.0027239681 0)
(0.044742058 -0.0022052764 0)
(0.045494799 -0.0017101675 0)
(0.046046484 -0.0013283486 0)
(0.046457167 -0.0010542319 0)
(0.046776993 -0.00087959858 0)
(0.047045515 -0.0008013462 0)
(0.047291709 -0.00081992943 0)
(0.047557104 -0.00094297637 0)
(0.047869686 -0.0011841663 0)
(0.048267121 -0.0015875984 0)
(0.04880959 -0.0022161171 0)
(0.049548649 -0.0031509206 0)
(0.05058137 -0.0045612763 0)
(0.052041619 -0.0067507086 0)
(0.054084005 -0.010120797 0)
(0.056838315 -0.015436586 0)
(0.0608525 -0.022779416 0)
(0.064524812 -0.033325864 0)
(0.071548862 -0.044798872 0)
(0.069999949 -0.058839798 0)
(0.090952583 -0.063385523 0)
(0.21543616 -0.0026171496 0)
(0.22545083 -0.00092885025 0)
(0.2287549 -0.00019542579 0)
(0.22873816 2.0390027e-006 0)
(0.22870418 3.2125392e-005 0)
(0.22830831 3.6554442e-005 0)
(0.22809401 2.2629906e-005 0)
(0.22800144 6.0338233e-006 0)
(0.22800084 -8.4488146e-007 0)
(0.22801765 -1.6630945e-006 0)
(0.22802806 -8.6450917e-007 0)
(0.22803013 -1.064963e-007 0)
(0.22802914 1.0877121e-007 0)
(0.22802834 5.673292e-008 0)
(0.22802823 2.8754943e-009 0)
(0.22802831 -7.3543647e-009 0)
(0.22802835 -2.8980924e-009 0)
(0.22802835 5.1121783e-010 0)
(0.22802834 7.3318806e-010 0)
(0.22802834 2.4272727e-010 0)
(0.22802834 -7.8218363e-011 0)
(0.22802834 -3.8955489e-010 0)
(0.22802835 -6.3321642e-010 0)
(0.22802835 -2.8074292e-011 0)
(0.22802835 4.1460014e-010 0)
(0.21253847 -0.0075391792 0)
(0.22131914 -0.00270482 0)
(0.22448721 -0.00049587422 0)
(0.22434855 -3.9964011e-005 0)
(0.22424041 8.9377851e-005 0)
(0.22385728 0.00010773833 0)
(0.22368206 5.8525208e-005 0)
(0.2236121 1.5951806e-005 0)
(0.22361597 -2.9117193e-006 0)
(0.22363231 -5.1116462e-006 0)
(0.22364126 -2.2946132e-006 0)
(0.22364246 -1.8880821e-007 0)
(0.22364137 3.3402527e-007 0)
(0.2236407 1.6351074e-007 0)
(0.22364064 5.2294653e-009 0)
(0.22364071 -2.2897323e-008 0)
(0.22364075 -7.8901358e-009 0)
(0.22364075 1.7064306e-009 0)
(0.22364074 2.1331515e-009 0)
(0.22364074 6.05957e-010 0)
(0.22364074 -4.048866e-012 0)
(0.22364074 -1.0600089e-009 0)
(0.22364074 -2.3254164e-009 0)
(0.22364075 -7.2229493e-010 0)
(0.22364075 4.4533664e-010 0)
(0.20662149 -0.012012064 0)
(0.21298647 -0.0042352404 0)
(0.21607302 -0.00080233688 0)
(0.21552292 -1.4149972e-005 0)
(0.21529803 0.0001792214 0)
(0.21501818 0.00016406817 0)
(0.21492263 8.439625e-005 0)
(0.21488855 2.1564491e-005 0)
(0.21490149 -5.6754608e-006 0)
(0.2149156 -8.1903384e-006 0)
(0.21492137 -3.3123727e-006 0)
(0.21492126 -1.2437833e-007 0)
(0.21492016 5.5142344e-007 0)
(0.21491972 2.437089e-007 0)
(0.21491974 -1.0931883e-010 0)
(0.21491981 -3.6770995e-008 0)
(0.21491983 -1.1397522e-008 0)
(0.21491983 3.0082009e-009 0)
(0.21491982 3.3236002e-009 0)
(0.21491982 9.2655003e-010 0)
(0.21491982 3.3029206e-012 0)
(0.21491982 -1.4783161e-009 0)
(0.21491982 -3.6880154e-009 0)
(0.21491983 -2.8541277e-009 0)
(0.21491985 -9.5701329e-010 0)
(0.19737457 -0.01579333 0)
(0.20079181 -0.0055085916 0)
(0.20317251 -0.00094226146 0)
(0.20219886 7.2732526e-005 0)
(0.20203271 0.00026094658 0)
(0.20189487 0.00019566384 0)
(0.20188284 9.6186638e-005 0)
(0.20188681 2.0675521e-005 0)
(0.20190638 -9.2072515e-006 0)
(0.20191507 -1.0195822e-005 0)
(0.20191648 -3.685721e-006 0)
(0.20191513 9.9431688e-008 0)
(0.20191426 7.1891849e-007 0)
(0.20191414 2.7136158e-007 0)
(0.20191424 -1.6052685e-008 0)
(0.20191428 -4.6527382e-008 0)
(0.20191429 -1.2403491e-008 0)
(0.20191428 4.3169055e-009 0)
(0.20191428 4.0949682e-009 0)
(0.20191428 1.1474871e-009 0)
(0.20191428 -1.5585626e-012 0)
(0.20191428 -1.7321338e-009 0)
(0.20191428 -4.9657145e-009 0)
(0.20191429 -6.9006967e-009 0)
(0.20191432 -4.2507936e-009 0)
(0.18467989 -0.018610234 0)
(0.184415 -0.0063362685 0)
(0.18535392 -0.00083264369 0)
(0.18446021 0.00015357808 0)
(0.18449581 0.00028315631 0)
(0.18447393 0.00019527444 0)
(0.1845414 9.1133443e-005 0)
(0.18457436 1.4695477e-005 0)
(0.18459294 -1.2284887e-005 0)
(0.18459333 -1.0780952e-005 0)
(0.18459031 -3.3185481e-006 0)
(0.1845883 4.1468991e-007 0)
(0.184588 7.9322752e-007 0)
(0.18458822 2.4762081e-007 0)
(0.18458834 -3.5008979e-008 0)
(0.18458835 -5.0002372e-008 0)
(0.18458834 -1.069957e-008 0)
(0.18458833 5.2727928e-009 0)
(0.18458833 4.1834045e-009 0)
(0.18458833 1.1732111e-009 0)
(0.18458833 2.2375294e-011 0)
(0.18458833 -1.715542e-009 0)
(0.18458833 -6.0256041e-009 0)
(0.18458834 -1.166535e-008 0)
(0.18458837 -8.3959546e-009 0)
(0.16875771 -0.020423161 0)
(0.1627742 -0.0062662264 0)
(0.16290136 -0.00066596838 0)
(0.16225993 0.00018241235 0)
(0.16250928 0.00027844129 0)
(0.16260078 0.0001730164 0)
(0.16273713 7.3968252e-005 0)
(0.1627831 6.6043227e-006 0)
(0.16279223 -1.3443059e-005 0)
(0.1627835 -9.6851731e-006 0)
(0.16277736 -2.4021401e-006 0)
(0.16277562 6.648446e-007 0)
(0.16277607 7.3780418e-007 0)
(0.16277653 1.8348347e-007 0)
(0.16277663 -4.9031327e-008 0)
(0.16277659 -4.5065221e-008 0)
(0.16277657 -7.1044742e-009 0)
(0.16277656 5.4622294e-009 0)
(0.16277657 3.6420933e-009 0)
(0.16277657 1.0466939e-009 0)
(0.16277657 1.7649905e-010 0)
(0.16277657 -1.4801465e-009 0)
(0.16277657 -6.5506091e-009 0)
(0.16277657 -1.526821e-008 0)
(0.16277659 -1.1455534e-008 0)
(0.14818514 -0.020493438 0)
(0.13572275 -0.0054693961 0)
(0.13597779 -0.0004733287 0)
(0.13540446 0.00015322186 0)
(0.13584303 0.00023275032 0)
(0.13602056 0.00012926145 0)
(0.13619479 4.9595388e-005 0)
(0.13623506 -6.6701715e-008 0)
(0.13623081 -1.1846872e-005 0)
(0.13621514 -7.1825136e-006 0)
(0.13620819 -1.3154044e-006 0)
(0.13620747 7.1905506e-007 0)
(0.13620856 5.6631071e-007 0)
(0.13620909 1.059797e-007 0)
(0.13620913 -5.0557063e-008 0)
(0.13620905 -3.3734426e-008 0)
(0.13620902 -3.1063666e-009 0)
(0.13620902 4.7047633e-009 0)
(0.13620903 2.5865806e-009 0)
(0.13620903 7.882164e-010 0)
(0.13620903 2.9830634e-010 0)
(0.13620903 -1.1133299e-009 0)
(0.13620903 -6.2976164e-009 0)
(0.13620903 -1.5800289e-008 0)
(0.13620902 -1.1916427e-008 0)
(0.12086236 -0.017925666 0)
(0.10364902 -0.0040895421 0)
(0.10434756 -0.00027800918 0)
(0.10366376 0.00010235173 0)
(0.10426016 0.00015825639 0)
(0.10445612 7.5349361e-005 0)
(0.1046264 2.5014452e-005 0)
(0.10464697 -3.2952319e-006 0)
(0.10463306 -7.9715233e-006 0)
(0.10461519 -4.1220849e-006 0)
(0.10460966 -4.5224133e-007 0)
(0.10461009 5.5292337e-007 0)
(0.10461143 3.3508271e-007 0)
(0.10461188 4.1932728e-008 0)
(0.10461184 -3.7665762e-008 0)
(0.10461175 -1.9607251e-008 0)
(0.10461173 -3.4408873e-010 0)
(0.10461173 3.1570452e-009 0)
(0.10461174 1.426007e-009 0)
(0.10461174 4.6552729e-010 0)
(0.10461174 3.0540418e-010 0)
(0.10461174 -6.8338702e-010 0)
(0.10461174 -5.0372829e-009 0)
(0.10461173 -1.2788017e-008 0)
(0.10461171 -9.5744019e-009 0)
(0.086287345 -0.012904792 0)
(0.066668242 -0.002337882 0)
(0.067741733 -7.8463793e-005 0)
(0.066976289 4.440665e-005 0)
(0.067608686 7.8590301e-005 0)
(0.067739846 2.7160116e-005 0)
(0.067866837 7.5259002e-006 0)
(0.0678653 -3.14857e-006 0)
(0.067850683 -3.4482204e-006 0)
(0.06783632 -1.4940799e-006 0)
(0.067833461 -4.3943822e-009 0)
(0.06783445 2.6699636e-007 0)
(0.067835563 1.2424106e-007 0)
(0.067835815 4.8077432e-009 0)
(0.06783574 -1.7600864e-008 0)
(0.06783567 -6.9031102e-009 0)
(0.06783566 6.2226344e-010 0)
(0.067835668 1.3727682e-009 0)
(0.067835672 5.0146913e-010 0)
(0.067835674 1.998146e-010 0)
(0.067835675 2.1525812e-010 0)
(0.067835675 -2.7799152e-010 0)
(0.067835673 -2.7720813e-009 0)
(0.067835657 -7.001414e-009 0)
(0.067835625 -5.1690506e-009 0)
(0.04013659 -0.0068128439 0)
(0.024455157 -0.00012186183 0)
(0.026100789 2.2409623e-006 0)
(0.02538949 8.6135326e-006 0)
(0.025847532 -4.7970188e-006 0)
(0.025841429 -1.969718e-006 0)
(0.025900286 -1.3875047e-006 0)
(0.025886757 -3.0737082e-007 0)
(0.025881089 -1.1643567e-007 0)
(0.025874809 1.9900222e-008 0)
(0.025874474 3.3448965e-008 0)
(0.025875054 1.5395736e-008 0)
(0.025875521 2.1187343e-009 0)
(0.025875577 -1.3122355e-009 0)
(0.025875534 -8.065571e-010 0)
(0.025875506 6.6485301e-011 0)
(0.025875505 1.7198696e-010 0)
(0.025875509 6.2349881e-011 0)
(0.025875511 -7.4361103e-012 0)
(0.025875511 1.7730039e-011 0)
(0.025875512 3.4259371e-011 0)
(0.025875512 -3.7970097e-011 0)
(0.025875511 -5.1439699e-010 0)
(0.0258755 -8.1712868e-010 0)
(0.025875481 -4.0455464e-010 0)
(0.039579781 -0.0033095122 0)
(0.040919875 -0.0041713726 0)
(0.042738682 -0.0039387473 0)
(0.044065033 -0.003308576 0)
(0.045060405 -0.0026458923 0)
(0.04576892 -0.002031541 0)
(0.046268686 -0.0015631843 0)
(0.046621768 -0.0012315424 0)
(0.046891195 -0.001020997 0)
(0.047109136 -0.00092478962 0)
(0.047304568 -0.00094189471 0)
(0.047509464 -0.0010796664 0)
(0.047748796 -0.0013519632 0)
(0.048045643 -0.0018084527 0)
(0.048450343 -0.0025168856 0)
(0.048982344 -0.0035648317 0)
(0.049704615 -0.0051346371 0)
(0.050698006 -0.0075498061 0)
(0.051984873 -0.011203776 0)
(0.053497928 -0.016851068 0)
(0.055426872 -0.024468504 0)
(0.055867575 -0.034931739 0)
(0.056375242 -0.045623831 0)
(0.043203072 -0.058057096 0)
(0.036171881 -0.047152952 0)
(0.039838253 -0.0044384037 0)
(0.041409526 -0.0055902085 0)
(0.043435786 -0.0050885053 0)
(0.044800631 -0.0041852645 0)
(0.045717937 -0.0032585744 0)
(0.046319353 -0.0024509069 0)
(0.046699696 -0.0018457981 0)
(0.046941017 -0.0014314149 0)
(0.047110808 -0.001170505 0)
(0.04723648 -0.0010487491 0)
(0.047338842 -0.0010571927 0)
(0.047437615 -0.0012036431 0)
(0.04754645 -0.0015028348 0)
(0.047674064 -0.0019973603 0)
(0.047835146 -0.002763292 0)
(0.048043915 -0.0038874443 0)
(0.048263875 -0.0055404486 0)
(0.048519147 -0.0080442082 0)
(0.04872891 -0.011733223 0)
(0.048553956 -0.017170336 0)
(0.047918671 -0.024176682 0)
(0.045162529 -0.032430563 0)
(0.040353058 -0.038801093 0)
(0.026075722 -0.041519461 0)
(0.010827992 -0.021404028 0)
(0.040237229 -0.0059000481 0)
(0.042095889 -0.0072284522 0)
(0.044306283 -0.0063190362 0)
(0.04562233 -0.00502532 0)
(0.046391603 -0.0037854199 0)
(0.04682589 -0.002765321 0)
(0.047045406 -0.0020289561 0)
(0.047148505 -0.0015426905 0)
(0.047199434 -0.0012405222 0)
(0.047216869 -0.0010960545 0)
(0.047218172 -0.0010937921 0)
(0.047200337 -0.0012347412 0)
(0.047174916 -0.0015339447 0)
(0.047128062 -0.0020266294 0)
(0.047037351 -0.002783901 0)
(0.046915579 -0.0038996823 0)
(0.046673481 -0.0054984436 0)
(0.046242931 -0.0078747779 0)
(0.045503263 -0.011294998 0)
(0.043987739 -0.016129124 0)
(0.041399354 -0.02209823 0)
(0.036507076 -0.02822637 0)
(0.028984061 -0.031971993 0)
(0.016102264 -0.031143171 0)
(0.0025933105 -0.014944895 0)
(0.040794338 -0.0078198138 0)
(0.042860366 -0.0090639305 0)
(0.045058277 -0.0075441547 0)
(0.046142146 -0.0057499334 0)
(0.046638352 -0.0041648788 0)
(0.046831965 -0.0029355595 0)
(0.046842141 -0.0020868127 0)
(0.046788203 -0.0015481914 0)
(0.046705621 -0.0012224172 0)
(0.046613528 -0.0010621088 0)
(0.046507653 -0.0010465743 0)
(0.046382322 -0.0011703464 0)
(0.04622196 -0.001443877 0)
(0.046007966 -0.0019051892 0)
(0.045700322 -0.0025956172 0)
(0.045262299 -0.0036126605 0)
(0.044626421 -0.0050553451 0)
(0.043625081 -0.0071388468 0)
(0.042126583 -0.010082172 0)
(0.039651804 -0.014057065 0)
(0.03584146 -0.018733575 0)
(0.029925232 -0.022974164 0)
(0.021771518 -0.024585772 0)
(0.011227116 -0.0217304 0)
(0.00046276551 -0.00947466 0)
(0.041412273 -0.010250013 0)
(0.043414866 -0.010908614 0)
(0.045148929 -0.0085527316 0)
(0.045710946 -0.0062089786 0)
(0.045760825 -0.0043071939 0)
(0.04562753 -0.002915733 0)
(0.04539304 -0.0019979905 0)
(0.045169586 -0.0014380086 0)
(0.044956157 -0.0011103767 0)
(0.044760452 -0.00094867684 0)
(0.044561322 -0.00092172758 0)
(0.044341818 -0.0010205189 0)
(0.044071712 -0.0012507536 0)
(0.043719158 -0.0016401202 0)
(0.043245316 -0.0022311612 0)
(0.042561803 -0.0030818126 0)
(0.041616205 -0.0042872549 0)
(0.040214584 -0.0059833219 0)
(0.038195605 -0.0083373135 0)
(0.035156787 -0.011397708 0)
(0.030716078 -0.01482254 0)
(0.024513003 -0.017553024 0)
(0.016678039 -0.017981091 0)
(0.0081297959 -0.014699605 0)
(-4.7096786e-005 -0.0060927258 0)
(0.041807576 -0.013056976 0)
(0.043322135 -0.01235664 0)
(0.043897429 -0.0090163922 0)
(0.043596434 -0.0061986238 0)
(0.043025862 -0.0041054503 0)
(0.042485903 -0.0026568686 0)
(0.042006842 -0.0017506725 0)
(0.041617971 -0.001216453 0)
(0.041299126 -0.00091618316 0)
(0.041019106 -0.00076684578 0)
(0.040757521 -0.0007343114 0)
(0.040472122 -0.00080313324 0)
(0.040136368 -0.00098083661 0)
(0.039698777 -0.0012794587 0)
(0.039118724 -0.0017353962 0)
(0.038301949 -0.0023873386 0)
(0.037177102 -0.0033033437 0)
(0.035576897 -0.0045721672 0)
(0.033317684 -0.0062967673 0)
(0.030095026 -0.0084658085 0)
(0.025588678 -0.010778292 0)
(0.019686943 -0.012420032 0)
(0.012667645 -0.012211721 0)
(0.0059368012 -0.0092778455 0)
(-0.00017883961 -0.003547703 0)
(0.041594075 -0.015909782 0)
(0.041991892 -0.012741163 0)
(0.040643169 -0.0085690281 0)
(0.039208449 -0.0055182882 0)
(0.037935277 -0.0034752807 0)
(0.036980715 -0.0021457309 0)
(0.036300626 -0.0013545525 0)
(0.035796277 -0.00090631621 0)
(0.035414483 -0.00066277331 0)
(0.035097141 -0.00054346476 0)
(0.034808543 -0.00051188125 0)
(0.034506453 -0.00055484669 0)
(0.03415297 -0.00067338187 0)
(0.03370199 -0.00087777498 0)
(0.033100921 -0.00118618 0)
(0.032273901 -0.0016289988 0)
(0.03113407 -0.0022469768 0)
(0.029547512 -0.003093556 0)
(0.027342248 -0.0042244018 0)
(0.024295884 -0.0056126995 0)
(0.020187748 -0.0070170374 0)
(0.015034913 -0.007897546 0)
(0.0092002127 -0.007466999 0)
(0.0041191983 -0.0052357811 0)
(-0.00021767931 -0.0017450475 0)
(0.039955343 -0.017960927 0)
(0.038610976 -0.011417384 0)
(0.034628356 -0.0069424837 0)
(0.03214296 -0.0041190997 0)
(0.030318411 -0.0024398938 0)
(0.029106036 -0.0014336757 0)
(0.028335325 -0.0008623009 0)
(0.027810511 -0.00055177404 0)
(0.02743448 -0.00039055417 0)
(0.027136618 -0.00031271746 0)
(0.026872032 -0.00028985814 0)
(0.026602688 -0.00031130937 0)
(0.026289725 -0.00037595924 0)
(0.025894882 -0.00049031482 0)
(0.025368832 -0.00066275867 0)
(0.024650641 -0.00091037693 0)
(0.023662353 -0.0012553462 0)
(0.022297955 -0.0017256026 0)
(0.020421352 -0.0023478094 0)
(0.01786956 -0.0030946707 0)
(0.014524899 -0.0038177724 0)
(0.010460691 -0.0042064068 0)
(0.006047212 -0.0038182204 0)
(0.0025187 -0.0023889629 0)
(-0.00021814065 -0.00056449517 0)
(0.034698935 -0.016326368 0)
(0.031859772 -0.0076916592 0)
(0.024970453 -0.0043047157 0)
(0.022175793 -0.0023026891 0)
(0.02022392 -0.0012909965 0)
(0.019080284 -0.00072020917 0)
(0.018403188 -0.0004128268 0)
(0.017981099 -0.00025205363 0)
(0.017693763 -0.00017153251 0)
(0.017475048 -0.00013338806 0)
(0.017285787 -0.00012153377 0)
(0.017096169 -0.0001289305 0)
(0.016878361 -0.00015520173 0)
(0.016603581 -0.00020269136 0)
(0.016237324 -0.00027415266 0)
(0.015736905 -0.00037708414 0)
(0.01504735 -0.00051937674 0)
(0.014096326 -0.00071309251 0)
(0.012790391 -0.0009684036 0)
(0.011023604 -0.0012704645 0)
(0.0087328303 -0.0015515044 0)
(0.006023333 -0.0016689399 0)
(0.0031685055 -0.0014429088 0)
(0.0010942168 -0.00073196701 0)
(-0.00022626183 -8.6729057e-007 0)
(0.020571932 -0.012049177 0)
(0.017454609 -0.0023133249 0)
(0.010708714 -0.00039274568 0)
(0.0093039748 -0.00016676755 0)
(0.0079510015 -5.7300116e-005 0)
(0.0073112067 -2.2279761e-005 0)
(0.0069386134 -6.9849826e-006 0)
(0.0067257521 7.8454257e-007 0)
(0.0065903946 4.0509159e-006 0)
(0.0064936287 5.1603991e-006 0)
(0.0064130202 5.6401471e-006 0)
(0.0063339468 6.2331674e-006 0)
(0.0062441074 7.2728081e-006 0)
(0.0061303466 8.7230286e-006 0)
(0.0059780987 1.1077623e-005 0)
(0.0057693467 1.4310723e-005 0)
(0.0054811675 1.8719245e-005 0)
(0.0050840726 2.4640372e-005 0)
(0.004539019 3.2069105e-005 0)
(0.0038058218 4.2005968e-005 0)
(0.0028621581 5.3104854e-005 0)
(0.0017807542 7.3100821e-005 0)
(0.00067149779 8.0498493e-005 0)
(4.7697517e-006 0.00012710743 0)
(-0.00018939238 0.00013639063 0)
)
;

boundaryField
{
    inlet
    {
        type            fixedValue;
        value           uniform (0.03876 0 0);
    }
    walls
    {
        type            fixedValue;
        value           uniform (0 0 0);
    }
    outlet
    {
        type            zeroGradient;
    }
    centreline
    {
        type            symmetryPlane;
    }
    frontAndBack
    {
        type            empty;
    }
}


// ************************************************************************* //
