/*--------------------------------*- C++ -*----------------------------------*\
| =========                 |                                                 |
| \\      /  F ield         | OpenFOAM: The Open Source CFD Toolbox           |
|  \\    /   O peration     | Version:  5.x                                   |
|   \\  /    A nd           | Web:      www.OpenFOAM.org                      |
|    \\/     M anipulation  |                                                 |
\*---------------------------------------------------------------------------*/
/*   Windows 32 and 64 bit porting by blueCAPE: http://www.bluecape.com.pt   *\
|  Based on Windows porting (2.0.x v4) by Symscape: http://www.symscape.com   |
\*---------------------------------------------------------------------------*/
FoamFile
{
    version     2.0;
    format      ascii;
    class       volVectorField;
    location    "0.18";
    object      U_0;
}
// * * * * * * * * * * * * * * * * * * * * * * * * * * * * * * * * * * * * * //

dimensions      [0 1 -1 0 0 0 0];

internalField   nonuniform List<vector> 
750
(
(0.039284087 -0.00013285438 0)
(0.040392893 -0.00016603439 0)
(0.041888619 -0.00016455495 0)
(0.043065599 -0.00014131208 0)
(0.044133608 -0.00011849032 0)
(0.044965914 -9.3711424e-005 0)
(0.045630295 -7.4537924e-005 0)
(0.046157991 -6.0311871e-005 0)
(0.046592135 -5.1129151e-005 0)
(0.046974033 -4.7273146e-005 0)
(0.04734607 -4.8901841e-005 0)
(0.047754452 -5.6726496e-005 0)
(0.048250523 -7.1822469e-005 0)
(0.048898641 -9.6858296e-005 0)
(0.049795515 -0.0001361866 0)
(0.051068709 -0.00019537018 0)
(0.052906386 -0.00028639488 0)
(0.055633141 -0.00043082036 0)
(0.059765954 -0.00066134635 0)
(0.066133597 -0.0010381352 0)
(0.076341789 -0.0015763672 0)
(0.09098914 -0.0023839814 0)
(0.11465758 -0.0032896171 0)
(0.14241678 -0.0042086183 0)
(0.18292811 -0.0047041303 0)
(0.039287569 -0.00039703279 0)
(0.040398177 -0.00050288689 0)
(0.041898158 -0.00049149824 0)
(0.043077546 -0.00042525756 0)
(0.044144464 -0.00035454877 0)
(0.044975307 -0.00028113381 0)
(0.045637643 -0.00022323134 0)
(0.046162796 -0.00018027333 0)
(0.046594268 -0.00015288916 0)
(0.046973599 -0.0001413041 0)
(0.047342799 -0.00014610315 0)
(0.047747862 -0.0001694501 0)
(0.04823936 -0.00021448209 0)
(0.048881534 -0.00028915815 0)
(0.049769827 -0.00040645357 0)
(0.051029786 -0.00058299144 0)
(0.052847677 -0.00085414558 0)
(0.055542852 -0.0012841563 0)
(0.059620668 -0.0019694973 0)
(0.065895975 -0.0030861059 0)
(0.075936018 -0.004695679 0)
(0.090333461 -0.0070612028 0)
(0.11356105 -0.0098200083 0)
(0.14070721 -0.012465167 0)
(0.18084895 -0.014110112 0)
(0.03929329 -0.00066129347 0)
(0.040409207 -0.00084344707 0)
(0.041917877 -0.00081792331 0)
(0.043101443 -0.00071011078 0)
(0.044166813 -0.00058988701 0)
(0.044994732 -0.0004680419 0)
(0.045652532 -0.00037111382 0)
(0.046172698 -0.00029930595 0)
(0.046599093 -0.0002537456 0)
(0.046973163 -0.00023439073 0)
(0.04733665 -0.0002422325 0)
(0.047735127 -0.00028079379 0)
(0.048217601 -0.00035531595 0)
(0.048847783 -0.00047889679 0)
(0.049718866 -0.00067292243 0)
(0.050952597 -0.00096484309 0)
(0.052730485 -0.0014127109 0)
(0.055361625 -0.0021221294 0)
(0.059330286 -0.0032526106 0)
(0.065420477 -0.0050874267 0)
(0.075132181 -0.0077462661 0)
(0.089000307 -0.011605593 0)
(0.11141494 -0.016196659 0)
(0.13735772 -0.020506009 0)
(0.17663407 -0.023434442 0)
(0.039301358 -0.00092806771 0)
(0.040426298 -0.0011864811 0)
(0.041948229 -0.0011462749 0)
(0.043137764 -0.00099532371 0)
(0.044201207 -0.00082466918 0)
(0.045024684 -0.00065366466 0)
(0.045675256 -0.0005174502 0)
(0.04618806 -0.00041685648 0)
(0.046606978 -0.00035297792 0)
(0.046973099 -0.00032575569 0)
(0.047327997 -0.00033643707 0)
(0.047716686 -0.0003896967 0)
(0.048185877 -0.00049287635 0)
(0.048798085 -0.00066402634 0)
(0.04964357 -0.00093263133 0)
(0.050838727 -0.0013363976 0)
(0.052557147 -0.0019550713 0)
(0.055093652 -0.0029334908 0)
(0.058904021 -0.0044897095 0)
(0.064717374 -0.007008539 0)
(0.073950469 -0.010664133 0)
(0.08703371 -0.015943517 0)
(0.10826017 -0.022250171 0)
(0.13227331 -0.028156498 0)
(0.1702154 -0.032447404 0)
(0.039312486 -0.001198565 0)
(0.040449973 -0.0015327406 0)
(0.041990042 -0.0014775981 0)
(0.043187486 -0.0012809706 0)
(0.044248449 -0.0010586262 0)
(0.045065836 -0.00083750419 0)
(0.045706466 -0.00066164777 0)
(0.046209485 -0.00053226607 0)
(0.046618383 -0.00044994383 0)
(0.046974007 -0.00041471648 0)
(0.047317492 -0.00042796382 0)
(0.047693211 -0.00049527054 0)
(0.048145019 -0.00062588236 0)
(0.048733534 -0.00084286846 0)
(0.049545544 -0.0011830578 0)
(0.050690317 -0.0016937793 0)
(0.052330955 -0.0024750941 0)
(0.05474412 -0.0037081244 0)
(0.058349264 -0.0056638401 0)
(0.063800283 -0.0088209196 0)
(0.072426627 -0.013397984 0)
(0.084454733 -0.019992705 0)
(0.10411276 -0.027865192 0)
(0.12553648 -0.035329835 0)
(0.16163231 -0.040785847 0)
(0.039327512 -0.001473979 0)
(0.040481203 -0.0018834626 0)
(0.042044744 -0.0018127165 0)
(0.043252211 -0.0015672475 0)
(0.044309917 -0.0012914621 0)
(0.045119367 -0.0010190072 0)
(0.045747304 -0.00080309021 0)
(0.046237961 -0.00064487399 0)
(0.046634215 -0.0005440248 0)
(0.04697696 -0.00050062034 0)
(0.047306239 -0.00051606435 0)
(0.047665864 -0.00059656811 0)
(0.048096348 -0.00075320806 0)
(0.048655889 -0.0010137422 0)
(0.049426712 -0.0014217566 0)
(0.050509693 -0.0020332805 0)
(0.052055611 -0.0029671639 0)
(0.054318482 -0.0044374346 0)
(0.057676106 -0.0067594753 0)
(0.062693044 -0.010498679 0)
(0.070583756 -0.015899788 0)
(0.081299123 -0.023676641 0)
(0.099055932 -0.03289313 0)
(0.11712268 -0.041878497 0)
(0.15096868 -0.048333945 0)
(0.03934762 -0.0017558789 0)
(0.040521399 -0.0022397626 0)
(0.042114057 -0.0021525681 0)
(0.043334043 -0.0018543146 0)
(0.044387458 -0.0015228507 0)
(0.045186817 -0.0011975651 0)
(0.04579933 -0.00094109379 0)
(0.04627483 -0.00075401657 0)
(0.046655719 -0.00063459526 0)
(0.046983477 -0.00058282212 0)
(0.047295619 -0.00060000955 0)
(0.047636183 -0.00069276074 0)
(0.048041706 -0.00087368099 0)
(0.0485672 -0.0011749863 0)
(0.049289575 -0.0016464423 0)
(0.05030025 -0.0023515981 0)
(0.051736444 -0.0034258757 0)
(0.053825019 -0.0051125415 0)
(0.056896936 -0.007763314 0)
(0.061417926 -0.012017375 0)
(0.068455616 -0.018121748 0)
(0.077627485 -0.026917678 0)
(0.093153078 -0.037191776 0)
(0.10698695 -0.047555382 0)
(0.13880315 -0.05509652 0)
(0.039374866 -0.0020464694 0)
(0.040572351 -0.0026026046 0)
(0.042200279 -0.002498449 0)
(0.043435649 -0.0021422854 0)
(0.044483255 -0.001752303 0)
(0.045269959 -0.00137258 0)
(0.045864384 -0.0010749237 0)
(0.046321635 -0.00085897552 0)
(0.04668448 -0.00072104791 0)
(0.046995258 -0.00066070865 0)
(0.047287388 -0.00067905378 0)
(0.047605892 -0.00078304582 0)
(0.047983201 -0.00098619391 0)
(0.048469989 -0.0013251802 0)
(0.049137461 -0.0018549045 0)
(0.050066195 -0.0026455907 0)
(0.051379551 -0.0038469234 0)
(0.053272974 -0.0057266284 0)
(0.056026471 -0.0086638407 0)
(0.060002711 -0.013360191 0)
(0.066085353 -0.02002622 0)
(0.073510699 -0.029654289 0)
(0.086507891 -0.040646017 0)
(0.095748026 -0.052321868 0)
(0.12534094 -0.059887822 0)
(0.039411806 -0.0023483011 0)
(0.04063659 -0.002973404 0)
(0.04230582 -0.0028515527 0)
(0.043559958 -0.0024312867 0)
(0.044599272 -0.0019792652 0)
(0.045370395 -0.0015432933 0)
(0.04594426 -0.001203841 0)
(0.046379892 -0.00095901962 0)
(0.046722276 -0.00080278077 0)
(0.04701349 -0.00073366981 0)
(0.047283397 -0.00075249376 0)
(0.047576842 -0.00086658492 0)
(0.047922924 -0.0010899833 0)
(0.048367067 -0.0014630552 0)
(0.048974065 -0.0020452384 0)
(0.049812094 -0.0029126748 0)
(0.050990715 -0.0042260622 0)
(0.052673237 -0.0062733605 0)
(0.05508217 -0.0094511321 0)
(0.058464331 -0.014503283 0)
(0.06352768 -0.021572566 0)
(0.069062555 -0.031800751 0)
(0.079298163 -0.043176513 0)
(0.083485668 -0.056242621 0)
(0.11051292 -0.063086832 0)
(0.039460105 -0.0026621051 0)
(0.040717372 -0.0033569145 0)
(0.042432932 -0.0032110866 0)
(0.043709486 -0.0027216107 0)
(0.044736775 -0.0022033024 0)
(0.045488873 -0.0017087021 0)
(0.04604015 -0.0013273223 0)
(0.046450568 -0.0010535469 0)
(0.04677024 -0.00087917088 0)
(0.047038671 -0.00080109064 0)
(0.047284845 -0.00081976796 0)
(0.047550216 -0.00094288452 0)
(0.047862809 -0.0011841105 0)
(0.048260258 -0.001587517 0)
(0.048802738 -0.0022159674 0)
(0.049541812 -0.0031506205 0)
(0.050574481 -0.0045606179 0)
(0.052034628 -0.0067493364 0)
(0.054076738 -0.010118628 0)
(0.056830794 -0.015434441 0)
(0.060844993 -0.022779164 0)
(0.064518089 -0.033329486 0)
(0.071543505 -0.044806096 0)
(0.069996086 -0.058847678 0)
(0.090949998 -0.063389846 0)
(0.21543725 -0.0026166648 0)
(0.22544606 -0.00092805544 0)
(0.22874351 -0.00019457018 0)
(0.22871976 3.0293561e-006 0)
(0.22867921 3.284682e-005 0)
(0.22827882 3.6977568e-005 0)
(0.22806312 2.271564e-005 0)
(0.22797077 5.9952931e-006 0)
(0.22797067 -8.9205212e-007 0)
(0.2279877 -1.6797657e-006 0)
(0.2279981 -8.6097944e-007 0)
(0.22800012 -1.0181859e-007 0)
(0.22799911 1.0986903e-007 0)
(0.22799832 5.635093e-008 0)
(0.22799821 2.4832778e-009 0)
(0.22799829 -7.4152067e-009 0)
(0.22799833 -2.8579243e-009 0)
(0.22799833 5.3557681e-010 0)
(0.22799833 7.354841e-010 0)
(0.22799832 2.4079706e-010 0)
(0.22799832 -7.8922309e-011 0)
(0.22799832 -3.9128245e-010 0)
(0.22799833 -6.3534197e-010 0)
(0.22799834 -3.5378912e-011 0)
(0.22799833 4.0625812e-010 0)
(0.21253945 -0.0075377855 0)
(0.22131495 -0.0027024753 0)
(0.22447693 -0.00049331629 0)
(0.22433188 -3.7403429e-005 0)
(0.22421761 9.1438771e-005 0)
(0.22383094 0.00010882139 0)
(0.22365484 5.8735225e-005 0)
(0.22358527 1.5810671e-005 0)
(0.22358961 -3.0448339e-006 0)
(0.2236061 -5.149472e-006 0)
(0.22361502 -2.283416e-006 0)
(0.22361618 -1.7620495e-007 0)
(0.22361508 3.3682308e-007 0)
(0.2236144 1.6208671e-007 0)
(0.22361435 4.1338545e-009 0)
(0.22361443 -2.3052365e-008 0)
(0.22361446 -7.7696466e-009 0)
(0.22361446 1.7713553e-009 0)
(0.22361445 2.1349153e-009 0)
(0.22361445 5.9943956e-010 0)
(0.22361445 -3.8384381e-012 0)
(0.22361445 -1.0634846e-009 0)
(0.22361445 -2.3372806e-009 0)
(0.22361446 -7.53255e-010 0)
(0.22361447 4.1140613e-010 0)
(0.20662225 -0.012009914 0)
(0.21298352 -0.0042316293 0)
(0.2160652 -0.00079827344 0)
(0.21550945 -1.0087306e-005 0)
(0.21527979 0.0001823408 0)
(0.21499815 0.00016555495 0)
(0.21490258 8.4612348e-005 0)
(0.21486906 2.1306175e-005 0)
(0.21488236 -5.8770053e-006 0)
(0.21489652 -8.2360638e-006 0)
(0.21490224 -3.2912997e-006 0)
(0.21490209 -1.0469615e-007 0)
(0.21490098 5.5504856e-007 0)
(0.21490055 2.4112187e-007 0)
(0.21490057 -1.772834e-009 0)
(0.21490064 -3.6958995e-008 0)
(0.21490066 -1.1198898e-008 0)
(0.21490066 3.1014042e-009 0)
(0.21490065 3.321917e-009 0)
(0.21490065 9.1477407e-010 0)
(0.21490065 3.6545593e-012 0)
(0.21490065 -1.4801714e-009 0)
(0.21490066 -3.7079783e-009 0)
(0.21490066 -2.9241093e-009 0)
(0.21490068 -1.0310795e-009 0)
(0.19737482 -0.015790601 0)
(0.20079082 -0.0055043191 0)
(0.20316802 -0.00093705816 0)
(0.20219017 7.7936604e-005 0)
(0.20202184 0.00026463732 0)
(0.20188408 0.00019721458 0)
(0.20187281 9.6262164e-005 0)
(0.20187735 2.0304312e-005 0)
(0.20189709 -9.4443682e-006 0)
(0.20190573 -1.0234332e-005 0)
(0.20190708 -3.6525595e-006 0)
(0.2019057 1.2357618e-007 0)
(0.20190484 7.2193459e-007 0)
(0.20190473 2.6770985e-007 0)
(0.20190482 -1.8003592e-008 0)
(0.20190487 -4.6651907e-008 0)
(0.20190487 -1.2140293e-008 0)
(0.20190487 4.4206036e-009 0)
(0.20190486 4.086847e-009 0)
(0.20190486 1.1313063e-009 0)
(0.20190486 -1.5899452e-012 0)
(0.20190486 -1.7307233e-009 0)
(0.20190487 -4.989456e-009 0)
(0.20190487 -7.0274099e-009 0)
(0.2019049 -4.3793928e-009 0)
(0.1846802 -0.018607434 0)
(0.18441535 -0.0063314627 0)
(0.18535312 -0.00082678353 0)
(0.18445826 0.00015912468 0)
(0.18449462 0.00028680476 0)
(0.18447432 0.00019657684 0)
(0.18454292 9.1009197e-005 0)
(0.18457622 1.4254257e-005 0)
(0.18459474 -1.2516434e-005 0)
(0.184595 -1.0799837e-005 0)
(0.18459193 -3.2755772e-006 0)
(0.18458993 4.3878203e-007 0)
(0.18458964 7.9447953e-007 0)
(0.18458986 2.4327724e-007 0)
(0.18458998 -3.6904653e-008 0)
(0.18458999 -5.0001099e-008 0)
(0.18458998 -1.0405122e-008 0)
(0.18458997 5.3657471e-009 0)
(0.18458997 4.1670496e-009 0)
(0.18458997 1.1559506e-009 0)
(0.18458997 2.1999935e-011 0)
(0.18458997 -1.7089504e-009 0)
(0.18458997 -6.0495917e-009 0)
(0.18458998 -1.1850049e-008 0)
(0.18459001 -8.5803202e-009 0)
(0.16875826 -0.020420697 0)
(0.16277531 -0.0062614314 0)
(0.16290464 -0.00066020256 0)
(0.1622658 0.00018760384 0)
(0.16251847 0.00028153193 0)
(0.1626124 0.00017389086 0)
(0.1627497 7.3675315e-005 0)
(0.1627956 6.1668553e-006 0)
(0.16280446 -1.3631439e-005 0)
(0.16279558 -9.6809283e-006 0)
(0.16278944 -2.3569088e-006 0)
(0.16278773 6.8505984e-007 0)
(0.16278819 7.3702171e-007 0)
(0.16278865 1.7917065e-007 0)
(0.16278875 -5.0558032e-008 0)
(0.16278871 -4.4938285e-008 0)
(0.16278868 -6.8264607e-009 0)
(0.16278868 5.5289151e-009 0)
(0.16278868 3.6206919e-009 0)
(0.16278869 1.0314642e-009 0)
(0.16278869 1.7801701e-010 0)
(0.16278868 -1.4687882e-009 0)
(0.16278868 -6.5747648e-009 0)
(0.16278869 -1.5485757e-008 0)
(0.1627887 -1.1672424e-008 0)
(0.14818521 -0.020491324 0)
(0.13572511 -0.0054653635 0)
(0.13598507 -0.00046856877 0)
(0.13541734 0.00015731908 0)
(0.13586083 0.00023496365 0)
(0.13604087 0.0001297118 0)
(0.13621552 4.924874e-005 0)
(0.13625532 -4.2241248e-007 0)
(0.13625067 -1.1971693e-005 0)
(0.13623489 -7.1630684e-006 0)
(0.13622798 -1.2773727e-006 0)
(0.1362273 7.3267968e-007 0)
(0.1362284 5.6420736e-007 0)
(0.13622893 1.0247528e-007 0)
(0.13622896 -5.1547162e-008 0)
(0.13622889 -3.3536254e-008 0)
(0.13622886 -2.8905572e-009 0)
(0.13622886 4.7404974e-009 0)
(0.13622887 2.5650888e-009 0)
(0.13622887 7.7697131e-010 0)
(0.13622887 3.0224826e-010 0)
(0.13622887 -1.0991419e-009 0)
(0.13622887 -6.3175992e-009 0)
(0.13622886 -1.6008243e-008 0)
(0.13622886 -1.212372e-008 0)
(0.12086194 -0.017924179 0)
(0.10365242 -0.0040866922 0)
(0.10435752 -0.00027485256 0)
(0.10368066 0.00010492084 0)
(0.10428217 0.0001595063 0)
(0.10448009 7.5490998e-005 0)
(0.10465021 2.4738133e-005 0)
(0.10467009 -3.5183559e-006 0)
(0.10465579 -8.0333031e-006 0)
(0.10463787 -4.1011446e-006 0)
(0.10463242 -4.280951e-007 0)
(0.10463289 5.5964885e-007 0)
(0.10463424 3.3290321e-007 0)
(0.10463468 3.9745159e-008 0)
(0.10463463 -3.8133449e-008 0)
(0.10463454 -1.9428268e-008 0)
(0.10463452 -2.1293202e-010 0)
(0.10463453 3.1685521e-009 0)
(0.10463454 1.409933e-009 0)
(0.10463454 4.5918767e-010 0)
(0.10463454 3.1066918e-010 0)
(0.10463454 -6.6949947e-010 0)
(0.10463454 -5.0469813e-009 0)
(0.10463453 -1.2937898e-008 0)
(0.1046345 -9.7254579e-009 0)
(0.086286548 -0.012904014 0)
(0.066671774 -0.0023365177 0)
(0.067751467 -7.709685e-005 0)
(0.066992105 4.5506905e-005 0)
(0.067628387 7.9040642e-005 0)
(0.06776063 2.7158794e-005 0)
(0.067887159 7.393246e-006 0)
(0.067885011 -3.2356881e-006 0)
(0.067870125 -3.4651834e-006 0)
(0.067855773 -1.4820972e-006 0)
(0.067852982 5.2424037e-009 0)
(0.067854001 2.6878197e-007 0)
(0.067855113 1.2297898e-007 0)
(0.067855358 3.9437674e-009 0)
(0.067855281 -1.7711697e-008 0)
(0.067855211 -6.8099175e-009 0)
(0.067855201 6.7273988e-010 0)
(0.067855209 1.3723581e-009 0)
(0.067855214 4.9401918e-010 0)
(0.067855215 1.9814099e-010 0)
(0.067855216 2.1973792e-010 0)
(0.067855217 -2.6817277e-010 0)
(0.067855214 -2.7710488e-009 0)
(0.067855198 -7.0678926e-009 0)
(0.067855166 -5.2403148e-009 0)
(0.040135521 -0.0068126482 0)
(0.024456799 -0.00012167592 0)
(0.026105647 2.3282328e-006 0)
(0.025397175 8.7264252e-006 0)
(0.025856813 -4.7895422e-006 0)
(0.025850987 -1.9782541e-006 0)
(0.025909549 -1.3941222e-006 0)
(0.025895753 -3.1101154e-007 0)
(0.025889994 -1.1733927e-007 0)
(0.025883734 2.0266117e-008 0)
(0.025883429 3.3734875e-008 0)
(0.025884018 1.5344211e-008 0)
(0.025884482 2.0473099e-009 0)
(0.025884535 -1.3342505e-009 0)
(0.025884492 -7.9668481e-010 0)
(0.025884464 7.2568025e-011 0)
(0.025884463 1.7312389e-010 0)
(0.025884467 6.1481468e-011 0)
(0.025884469 -7.6457637e-012 0)
(0.025884469 1.8530094e-011 0)
(0.02588447 3.6084895e-011 0)
(0.025884471 -3.5651442e-011 0)
(0.02588447 -5.1419716e-010 0)
(0.025884458 -8.3147656e-010 0)
(0.025884439 -4.1995008e-010 0)
(0.039578827 -0.0033068947 0)
(0.040917785 -0.0041680805 0)
(0.042734964 -0.0039355229 0)
(0.044060195 -0.0033056994 0)
(0.045054678 -0.0026435229 0)
(0.04576261 -0.0020298217 0)
(0.046261996 -0.0015619931 0)
(0.046614885 -0.0012307579 0)
(0.046884203 -0.0010205133 0)
(0.047102098 -0.00092451165 0)
(0.047297533 -0.00094172497 0)
(0.047502445 -0.0010795727 0)
(0.0477418 -0.0013519166 0)
(0.048038681 -0.0018083817 0)
(0.048443423 -0.0025167467 0)
(0.048975507 -0.0035645346 0)
(0.049697808 -0.005133949 0)
(0.050691246 -0.0075483674 0)
(0.051978136 -0.011201504 0)
(0.053491234 -0.016848866 0)
(0.055420638 -0.024468488 0)
(0.055862397 -0.034935953 0)
(0.056371614 -0.045631753 0)
(0.043201196 -0.058065692 0)
(0.03617022 -0.047158432 0)
(0.039836876 -0.0044345607 0)
(0.04140702 -0.0055856575 0)
(0.043431683 -0.0050843186 0)
(0.044795531 -0.0041816367 0)
(0.045712089 -0.0032556917 0)
(0.046313014 -0.0024488484 0)
(0.046693095 -0.0018444283 0)
(0.046934351 -0.0014305545 0)
(0.047104119 -0.0011699946 0)
(0.047229829 -0.0010484701 0)
(0.047332218 -0.0010570423 0)
(0.04743104 -0.0012035815 0)
(0.047539952 -0.0015028241 0)
(0.047667647 -0.0019973393 0)
(0.047828815 -0.0027632101 0)
(0.048037733 -0.003887237 0)
(0.048257892 -0.0055398809 0)
(0.048513402 -0.0080428956 0)
(0.048723592 -0.011731155 0)
(0.048549213 -0.017168556 0)
(0.04791474 -0.024177379 0)
(0.045159655 -0.03243583 0)
(0.040351525 -0.038810191 0)
(0.02607527 -0.041528813 0)
(0.010827772 -0.021410068 0)
(0.040235599 -0.0058947261 0)
(0.042093579 -0.0072227562 0)
(0.044302875 -0.0063140532 0)
(0.045618329 -0.005021097 0)
(0.046387124 -0.0037821255 0)
(0.046821093 -0.0027630339 0)
(0.047040515 -0.0020275195 0)
(0.047143667 -0.0015418381 0)
(0.047194673 -0.0012400392 0)
(0.047212199 -0.0010958176 0)
(0.047213567 -0.0010936991 0)
(0.047195824 -0.0012347366 0)
(0.047170493 -0.0015340016 0)
(0.047123768 -0.0020267059 0)
(0.047033184 -0.0027839354 0)
(0.046911601 -0.0038996205 0)
(0.046669787 -0.0054981131 0)
(0.046239656 -0.0078738493 0)
(0.045500654 -0.011293469 0)
(0.043986011 -0.016127982 0)
(0.041398659 -0.022099655 0)
(0.036507215 -0.028232431 0)
(0.028984644 -0.03198181 0)
(0.016103046 -0.031152715 0)
(0.0025938558 -0.014950677 0)
(0.040792963 -0.0078132188 0)
(0.042859309 -0.0090576829 0)
(0.045057175 -0.0075388764 0)
(0.046141161 -0.0057454612 0)
(0.046637369 -0.0041613947 0)
(0.046830942 -0.0029331994 0)
(0.046841239 -0.0020854123 0)
(0.046787432 -0.001547425 0)
(0.046705024 -0.0012220278 0)
(0.04661305 -0.0010619501 0)
(0.046507284 -0.0010465527 0)
(0.046382057 -0.0011704178 0)
(0.046221778 -0.001444012 0)
(0.046007892 -0.0019053643 0)
(0.045700398 -0.0025958037 0)
(0.045262547 -0.0036127867 0)
(0.044626939 -0.0050552944 0)
(0.043626037 -0.0071383867 0)
(0.042128228 -0.010081263 0)
(0.039654367 -0.014056678 0)
(0.035844959 -0.018735662 0)
(0.029928988 -0.022980458 0)
(0.021774459 -0.024595396 0)
(0.011229019 -0.021739537 0)
(0.00046309869 -0.0094797957 0)
(0.041411827 -0.010243003 0)
(0.0434159 -0.010902872 0)
(0.045151223 -0.0085479459 0)
(0.045714203 -0.0062048087 0)
(0.045764709 -0.0043038699 0)
(0.045631753 -0.0029134984 0)
(0.045397574 -0.0019967397 0)
(0.045174356 -0.0014373966 0)
(0.044961133 -0.0011101065 0)
(0.044765572 -0.00094861639 0)
(0.04456655 -0.0009217833 0)
(0.044347112 -0.0010206547 0)
(0.04407706 -0.0012509612 0)
(0.043724555 -0.0016403665 0)
(0.0432508 -0.0022314452 0)
(0.042567382 -0.0030820951 0)
(0.041621942 -0.0042874313 0)
(0.040220611 -0.0059832396 0)
(0.038202161 -0.0083369797 0)
(0.035164013 -0.01139792 0)
(0.030723778 -0.014824842 0)
(0.024520192 -0.017558736 0)
(0.016683245 -0.017989404 0)
(0.0081325628 -0.014707321 0)
(-4.7150815e-005 -0.0060968259 0)
(0.041808492 -0.013050861 0)
(0.043325084 -0.012352444 0)
(0.043902583 -0.0090128265 0)
(0.043603143 -0.0061953229 0)
(0.043033751 -0.0041027139 0)
(0.042494575 -0.0026550218 0)
(0.04201596 -0.0017496618 0)
(0.041627415 -0.001216021 0)
(0.041308752 -0.00091605348 0)
(0.041028859 -0.00076687083 0)
(0.040767339 -0.00073442292 0)
(0.04048196 -0.00080329736 0)
(0.040146205 -0.00098105783 0)
(0.039708596 -0.001279728 0)
(0.039128512 -0.0017356977 0)
(0.038311716 -0.0023876667 0)
(0.037186867 -0.0033036215 0)
(0.035586728 -0.0045722919 0)
(0.033327748 -0.0062967709 0)
(0.030105402 -0.0084662616 0)
(0.025598991 -0.010780318 0)
(0.019696055 -0.012424465 0)
(0.012673971 -0.012217868 0)
(0.0059399787 -0.0092833375 0)
(-0.00017908716 -0.0035506197 0)
(0.041596066 -0.015905514 0)
(0.041995515 -0.012738819 0)
(0.040649066 -0.0085669301 0)
(0.03921605 -0.0055162014 0)
(0.037944283 -0.0034734107 0)
(0.036990758 -0.002144439 0)
(0.036311225 -0.0013538781 0)
(0.035807183 -0.00090607067 0)
(0.03542554 -0.00066275047 0)
(0.035108266 -0.00054354201 0)
(0.034819679 -0.00051200421 0)
(0.034517565 -0.00055499903 0)
(0.034164026 -0.00067356718 0)
(0.033712964 -0.00087799463 0)
(0.033111788 -0.0011864251 0)
(0.032284653 -0.0016292643 0)
(0.031144698 -0.0022472167 0)
(0.029558042 -0.003093697 0)
(0.027352785 -0.0042244786 0)
(0.024306429 -0.0056130839 0)
(0.020197857 -0.0070184379 0)
(0.015043604 -0.0079003713 0)
(0.0092060375 -0.0074707047 0)
(0.0041221593 -0.0052388911 0)
(-0.00021796692 -0.0017468127 0)
(0.039957526 -0.017958811 0)
(0.038613874 -0.011416529 0)
(0.034632909 -0.0069417169 0)
(0.032148828 -0.0041182082 0)
(0.030325488 -0.0024389988 0)
(0.029114043 -0.0014330159 0)
(0.028343877 -0.00086195717 0)
(0.027819306 -0.00055168117 0)
(0.027443357 -0.00039058914 0)
(0.027145499 -0.00031280081 0)
(0.026880877 -0.00028995509 0)
(0.026611477 -0.00031141385 0)
(0.026298434 -0.00037607389 0)
(0.025903488 -0.00049044034 0)
(0.025377317 -0.0006628967 0)
(0.024658988 -0.00091051866 0)
(0.023670548 -0.0012554606 0)
(0.022306017 -0.0017256508 0)
(0.020429354 -0.0023478171 0)
(0.017877491 -0.0030948233 0)
(0.014532365 -0.0038184019 0)
(0.010466943 -0.0042076952 0)
(0.0060512347 -0.0038198359 0)
(0.0025208589 -0.0023901466 0)
(-0.00021829995 -0.00056528244 0)
(0.03470026 -0.016325664 0)
(0.031861398 -0.0076914197 0)
(0.024972765 -0.0043045003 0)
(0.022178684 -0.0023024502 0)
(0.020227507 -0.0012907072 0)
(0.019084421 -0.00071998378 0)
(0.01840768 -0.00041271964 0)
(0.017985724 -0.00025204815 0)
(0.017698397 -0.00017157753 0)
(0.017479641 -0.00013344781 0)
(0.017290325 -0.00012159395 0)
(0.017100645 -0.0001289898 0)
(0.016882769 -0.0001552606 0)
(0.016607913 -0.00020275331 0)
(0.016241572 -0.00027421899 0)
(0.015741061 -0.00037715044 0)
(0.015051415 -0.00051942649 0)
(0.014100329 -0.00071311282 0)
(0.012794385 -0.00096840101 0)
(0.01102758 -0.0012704918 0)
(0.0087365823 -0.0015516627 0)
(0.0060264304 -0.0016693248 0)
(0.0031703741 -0.001443383 0)
(0.0010952859 -0.00073219461 0)
(-0.00022630543 -1.0831252e-006 0)
(0.020572269 -0.012049382 0)
(0.017455109 -0.0023133885 0)
(0.010709281 -0.00039291809 0)
(0.0093045442 -0.0001669308 0)
(0.0079516995 -5.7397946e-005 0)
(0.0073120447 -2.2329454e-005 0)
(0.0069395553 -7.0106338e-006 0)
(0.0067267118 7.729041e-007 0)
(0.0065913266 4.0448738e-006 0)
(0.0064945164 5.1564529e-006 0)
(0.0064138629 5.6386427e-006 0)
(0.006334747 6.2343146e-006 0)
(0.0062448676 7.2767244e-006 0)
(0.0061310672 8.7294953e-006 0)
(0.005978778 1.1087336e-005 0)
(0.0057699834 1.4325604e-005 0)
(0.0054817694 1.8741701e-005 0)
(0.0050846612 2.4671072e-005 0)
(0.0045396243 3.2109965e-005 0)
(0.0038064571 4.2061544e-005 0)
(0.002862777 5.3187159e-005 0)
(0.0017812684 7.3234703e-005 0)
(0.00067168874 8.0622385e-005 0)
(4.9071851e-006 0.000127264 0)
(-0.0001893786 0.00013646245 0)
)
;

boundaryField
{
    inlet
    {
        type            fixedValue;
        value           uniform (0.03876 0 0);
    }
    walls
    {
        type            fixedValue;
        value           uniform (0 0 0);
    }
    outlet
    {
        type            zeroGradient;
    }
    centreline
    {
        type            symmetryPlane;
    }
    frontAndBack
    {
        type            empty;
    }
}


// ************************************************************************* //
