# vtk DataFile Version 2.0
track0
ASCII
DATASET POLYDATA
POINTS 11980 float
-0.0205 0.001 1e-005
-0.0202034 0.00100022 1e-005
-0.0199069 0.00100067 1e-005
-0.0196103 0.00100132 1e-005
-0.0193137 0.00100219 1e-005
-0.0190172 0.00100326 1e-005
-0.0187132 0.00100466 1e-005
-0.0184093 0.00100588 1e-005
-0.0181054 0.0010071 1e-005
-0.0178015 0.00100832 1e-005
-0.0174976 0.00100953 1e-005
-0.0172058 0.00101083 1e-005
-0.016914 0.00101193 1e-005
-0.0166222 0.00101303 1e-005
-0.0163305 0.00101413 1e-005
-0.0160387 0.00101522 1e-005
-0.0157586 0.00101636 1e-005
-0.0154784 0.00101744 1e-005
-0.0151983 0.00101856 1e-005
-0.0149182 0.00101971 1e-005
-0.0146381 0.0010209 1e-005
-0.0143744 0.00102208 1e-005
-0.0141107 0.00102327 1e-005
-0.0138469 0.00102449 1e-005
-0.0135832 0.00102574 1e-005
-0.0133605 0.00102682 1e-005
-0.0133471 0.00102688 1e-005
-0.0133337 0.00102695 1e-005
-0.0133203 0.00102702 1e-005
-0.0133069 0.00102708 1e-005
-0.0132934 0.00102715 1e-005
-0.0130353 0.00102844 1e-005
-0.0127771 0.00102974 1e-005
-0.0125189 0.00103106 1e-005
-0.0122607 0.00103239 1e-005
-0.0120025 0.00103374 1e-005
-0.0117547 0.00103505 1e-005
-0.0115068 0.00103637 1e-005
-0.0112589 0.00103768 1e-005
-0.0110111 0.00103901 1e-005
-0.0107632 0.00104034 1e-005
-0.0105252 0.00104161 1e-005
-0.0102873 0.00104289 1e-005
-0.0100493 0.00104417 1e-005
-0.00981133 0.00104545 1e-005
-0.00957337 0.00104672 1e-005
-0.00934491 0.00104794 1e-005
-0.00911645 0.00104916 1e-005
-0.00888799 0.00105038 1e-005
-0.00865954 0.0010516 1e-005
-0.00843108 0.00105281 1e-005
-0.00821175 0.00105396 1e-005
-0.00799242 0.00105512 1e-005
-0.00777309 0.00105627 1e-005
-0.00755376 0.00105742 1e-005
-0.00733443 0.00105856 1e-005
-0.00712387 0.00105965 1e-005
-0.0069133 0.00106074 1e-005
-0.00670273 0.00106182 1e-005
-0.00649216 0.0010629 1e-005
-0.0062816 0.00106398 1e-005
-0.00607944 0.001065 1e-005
-0.00587729 0.00106603 1e-005
-0.00567514 0.00106705 1e-005
-0.00547298 0.00106806 1e-005
-0.00527083 0.00106907 1e-005
-0.00507675 0.00107003 1e-005
-0.00488267 0.00107099 1e-005
-0.0046886 0.00107195 1e-005
-0.00449452 0.0010729 1e-005
-0.00430044 0.00107385 1e-005
-0.00411412 0.00107475 1e-005
-0.0039278 0.00107566 1e-005
-0.00374147 0.00107656 1e-005
-0.00355515 0.00107745 1e-005
-0.00336883 0.00107835 1e-005
-0.00318995 0.00107919 1e-005
-0.00301107 0.00108004 1e-005
-0.00283219 0.00108089 1e-005
-0.00265331 0.00108173 1e-005
-0.00247443 0.00108258 1e-005
-0.0023027 0.00108338 1e-005
-0.00213097 0.00108418 1e-005
-0.00195924 0.00108498 1e-005
-0.0017875 0.00108577 1e-005
-0.00161577 0.00108657 1e-005
-0.0014509 0.00108732 1e-005
-0.00128603 0.00108808 1e-005
-0.00112116 0.00108884 1e-005
-0.000956289 0.00108959 1e-005
-0.000791418 0.00109035 1e-005
-0.000633135 0.00109106 1e-005
-0.000474851 0.00109179 1e-005
-0.000316567 0.00109251 1e-005
-0.000158284 0.00109322 1e-005
0 0.00109393 1e-005
0.000105677 0.0010944 1e-005
0.000211355 0.00109487 1e-005
0.000317032 0.00109534 1e-005
0.00042271 0.0010958 1e-005
0.000528387 0.00109626 1e-005
0.000634886 0.00109672 1e-005
0.000741385 0.00109718 1e-005
0.000847885 0.00109763 1e-005
0.000954384 0.00109808 1e-005
0.00106088 0.00109853 1e-005
0.00116821 0.00109897 1e-005
0.00127554 0.00109941 1e-005
0.00138286 0.00109985 1e-005
0.00149019 0.00110028 1e-005
0.00159752 0.0011007 1e-005
0.00170568 0.00110112 1e-005
0.00181384 0.00110154 1e-005
0.001922 0.00110195 1e-005
0.00203016 0.00110235 1e-005
0.00213833 0.00110274 1e-005
0.00224733 0.00110312 1e-005
0.00235633 0.0011035 1e-005
0.00246533 0.00110387 1e-005
0.00257434 0.00110423 1e-005
0.00268334 0.00110458 1e-005
0.00279319 0.00110493 1e-005
0.00290304 0.00110527 1e-005
0.00301289 0.0011056 1e-005
0.00312274 0.00110592 1e-005
0.00323259 0.00110624 1e-005
0.00334329 0.00110654 1e-005
0.003454 0.00110685 1e-005
0.0035647 0.00110715 1e-005
0.0036754 0.00110743 1e-005
0.00378611 0.00110772 1e-005
0.00389767 0.00110799 1e-005
0.00400924 0.00110825 1e-005
0.0041208 0.00110851 1e-005
0.00423237 0.00110877 1e-005
0.00434393 0.00110901 1e-005
0.00445636 0.00110925 1e-005
0.00456879 0.00110948 1e-005
0.00468123 0.0011097 1e-005
0.00479366 0.00110992 1e-005
0.00490609 0.00111013 1e-005
0.0050194 0.00111033 1e-005
0.0051327 0.00111052 1e-005
0.00524601 0.00111071 1e-005
0.00535932 0.00111089 1e-005
0.00547262 0.00111106 1e-005
0.00558681 0.00111122 1e-005
0.005701 0.00111138 1e-005
0.00581518 0.00111153 1e-005
0.00592937 0.00111167 1e-005
0.00604356 0.00111181 1e-005
0.00615863 0.00111193 1e-005
0.00627371 0.00111205 1e-005
0.00638878 0.00111217 1e-005
0.00650386 0.00111228 1e-005
0.00661893 0.00111237 1e-005
0.0067349 0.00111246 1e-005
0.00685087 0.00111255 1e-005
0.00696684 0.00111263 1e-005
0.00708281 0.0011127 1e-005
0.00719878 0.00111276 1e-005
0.00726201 0.00111279 1e-005
0.00732524 0.00111281 1e-005
0.00738846 0.00111284 1e-005
0.00745169 0.00111286 1e-005
0.00751308 0.00111288 1e-005
0.00756709 0.0011129 1e-005
0.0076211 0.00111291 1e-005
0.00767511 0.00111293 1e-005
0.00772912 0.00111294 1e-005
0.00778313 0.00111295 1e-005
0.00790091 0.00111296 1e-005
0.00801869 0.00111297 1e-005
0.00813647 0.00111297 1e-005
0.00825425 0.00111297 1e-005
0.00837203 0.00111296 1e-005
0.00849073 0.00111293 1e-005
0.00860942 0.0011129 1e-005
0.00872812 0.00111286 1e-005
0.00884682 0.00111282 1e-005
0.00896551 0.00111277 1e-005
0.00908513 0.0011127 1e-005
0.00920475 0.00111263 1e-005
0.00932437 0.00111255 1e-005
0.00944398 0.00111247 1e-005
0.0095636 0.00111237 1e-005
0.00968415 0.00111226 1e-005
0.0098047 0.00111215 1e-005
0.00992525 0.00111203 1e-005
0.0100458 0.00111191 1e-005
0.0101663 0.00111178 1e-005
0.0102878 0.00111162 1e-005
0.0104093 0.00111147 1e-005
0.0105308 0.00111131 1e-005
0.0106523 0.00111114 1e-005
0.0107738 0.00111097 1e-005
0.0108962 0.00111077 1e-005
0.0110186 0.00111057 1e-005
0.0111411 0.00111037 1e-005
0.0112635 0.00111016 1e-005
0.0113859 0.00110994 1e-005
0.0115093 0.0011097 1e-005
0.0116327 0.00110946 1e-005
0.0117561 0.00110922 1e-005
0.0118795 0.00110896 1e-005
0.0120028 0.0011087 1e-005
0.0121272 0.00110841 1e-005
0.0122515 0.00110813 1e-005
0.0123759 0.00110784 1e-005
0.0125002 0.00110754 1e-005
0.0126245 0.00110724 1e-005
0.0127498 0.0011069 1e-005
0.0128752 0.00110658 1e-005
0.0130005 0.00110624 1e-005
0.0131258 0.0011059 1e-005
0.0132511 0.00110554 1e-005
0.0133774 0.00110517 1e-005
0.0135036 0.00110479 1e-005
0.0136299 0.00110441 1e-005
0.0137562 0.00110402 1e-005
0.0138825 0.00110362 1e-005
0.0140098 0.00110319 1e-005
0.014137 0.00110277 1e-005
0.0142643 0.00110234 1e-005
0.0143915 0.0011019 1e-005
0.0145188 0.00110146 1e-005
0.0146471 0.00110099 1e-005
0.0147753 0.00110052 1e-005
0.0149036 0.00110004 1e-005
0.0150318 0.00109955 1e-005
0.0151601 0.00109905 1e-005
0.0152893 0.00109854 1e-005
0.0154186 0.00109802 1e-005
0.0155478 0.00109749 1e-005
0.0156771 0.00109695 1e-005
0.0158063 0.00109641 1e-005
0.0159366 0.00109585 1e-005
0.0160668 0.00109528 1e-005
0.0161971 0.0010947 1e-005
0.0163274 0.00109411 1e-005
0.0164576 0.00109352 1e-005
0.0165889 0.00109291 1e-005
0.0167201 0.00109229 1e-005
0.0168514 0.00109166 1e-005
0.0169827 0.00109103 1e-005
0.0171139 0.00109038 1e-005
0.0172462 0.00108973 1e-005
0.0173785 0.00108906 1e-005
0.0175108 0.00108838 1e-005
0.0176431 0.0010877 1e-005
0.0177754 0.001087 1e-005
0.0179087 0.0010863 1e-005
0.018042 0.00108559 1e-005
0.0181753 0.00108486 1e-005
0.0183087 0.00108412 1e-005
0.018442 0.00108338 1e-005
0.0185763 0.00108263 1e-005
0.0187107 0.00108187 1e-005
0.018845 0.00108109 1e-005
0.0189794 0.0010803 1e-005
0.0191137 0.00107951 1e-005
0.0192491 0.00107871 1e-005
0.0193845 0.0010779 1e-005
0.0195199 0.00107707 1e-005
0.0196553 0.00107623 1e-005
0.0197907 0.00107539 1e-005
0.0199272 0.00107455 1e-005
0.0200636 0.00107369 1e-005
0.0202001 0.0010728 1e-005
0.0203365 0.00107191 1e-005
0.020473 0.00107102 1e-005
0.0206105 0.00107014 1e-005
0.020748 0.00106922 1e-005
0.0208855 0.00106829 1e-005
0.021023 0.00106735 1e-005
0.0211606 0.00106642 1e-005
0.0212991 0.00106548 1e-005
0.0214377 0.00106452 1e-005
0.0215763 0.00106354 1e-005
0.0217149 0.00106255 1e-005
0.0218535 0.00106156 1e-005
0.0219931 0.00106058 1e-005
0.0221328 0.00105957 1e-005
0.0222724 0.00105854 1e-005
0.0224121 0.00105749 1e-005
0.0225517 0.00105646 1e-005
0.0226925 0.00105543 1e-005
0.0228332 0.00105437 1e-005
0.022974 0.00105329 1e-005
0.0231147 0.0010522 1e-005
0.0232555 0.00105111 1e-005
0.0233973 0.00105003 1e-005
0.0235391 0.00104893 1e-005
0.023681 0.00104779 1e-005
0.0238228 0.00104665 1e-005
0.0239647 0.00104552 1e-005
0.0241076 0.00104439 1e-005
0.0242505 0.00104323 1e-005
0.0243935 0.00104205 1e-005
0.0245364 0.00104085 1e-005
0.0246794 0.00103967 1e-005
0.0248234 0.00103849 1e-005
0.0249675 0.00103729 1e-005
0.0251115 0.00103605 1e-005
0.0252556 0.00103481 1e-005
0.0253996 0.00103358 1e-005
0.0255448 0.00103234 1e-005
0.02569 0.00103109 1e-005
0.0258351 0.0010298 1e-005
0.0259803 0.00102851 1e-005
0.0261255 0.00102723 1e-005
0.0262718 0.00102595 1e-005
0.0264181 0.00102463 1e-005
0.0265644 0.0010233 1e-005
0.0267107 0.00102196 1e-005
0.026857 0.00102062 1e-005
0.0270044 0.00101929 1e-005
0.0271519 0.00101793 1e-005
0.0272993 0.00101654 1e-005
0.0274468 0.00101515 1e-005
0.0275942 0.00101376 1e-005
0.0277428 0.00101237 1e-005
0.0278914 0.00101095 1e-005
0.0280399 0.00100952 1e-005
0.0281885 0.00100807 1e-005
0.0283371 0.00100663 1e-005
0.0284869 0.00100519 1e-005
0.0286366 0.00100371 1e-005
0.0287863 0.00100222 1e-005
0.0289361 0.00100073 1e-005
0.0290858 0.000999227 1e-005
0.0292367 0.000997725 1e-005
0.0293876 0.000996193 1e-005
0.0295385 0.00099465 1e-005
0.0296894 0.000993099 1e-005
0.0298403 0.000991541 1e-005
0.0299924 0.000989979 1e-005
0.0301445 0.000988388 1e-005
0.0302966 0.000986789 1e-005
0.0304486 0.000985181 1e-005
0.0306007 0.000983564 1e-005
0.030754 0.000981942 1e-005
0.0309072 0.000980293 1e-005
0.0310605 0.000978635 1e-005
0.0312138 0.000976967 1e-005
0.031367 0.000975291 1e-005
0.0315215 0.000973606 1e-005
[...]
POINT_DATA 11980
 FIELD attributes 2
p 1 11980 float
-4.83432 -4.83361 -4.83 -4.82631 -4.82254 -4.81417 -4.82803 -4.84302 -4.85801 -4.873 -4.89744 -4.91923 -4.94919 -4.97915 -5.00912 -5.04189 -5.05758 -5.07932 -5.10106 -5.1228 -5.14616 -5.1651 -5.18606 -5.20703 -5.22799 -5.2457 -5.24677 -5.24783 -5.24889 -5.24996 -5.25101 -5.27273 -5.29445 -5.31616 -5.33788 -5.35932 -5.37815 -5.39679 -5.41542 -5.43406 -5.45213 -5.46783 -5.48326 -5.49868 -5.51411 -5.52898 -5.54285 -5.55647 -5.57009 -5.58372 -5.5969 -5.60971 -5.62228 -5.63484 -5.6474 -5.65954 -5.67147 -5.6831 -5.69474 -5.70637 -5.71758 -5.72871 -5.73956 -5.75041 -5.76127 -5.77177 -5.78229 -5.79255 -5.80281 -5.81307 -5.82301 -5.83306 -5.84292 -5.85279 -5.86265 -5.8723 -5.88206 -5.89156 -5.90107 -5.91057 -5.91986 -5.92942 -5.93911 -5.94881 -5.9585 -5.96831 -5.97832 -5.98809 -5.99786 -6.00763 -6.0172 -6.02719 -6.03795 -6.04871 -6.05947 -6.07034 -6.08009 -6.09046 -6.10083 -6.1112 -6.1211 -6.13009 -6.13859 -6.14708 -6.15558 -6.16331 -6.17029 -6.17837 -6.18645 -6.19452 -6.20337 -6.21148 -6.22008 -6.22868 -6.23727 -6.246 -6.25406 -6.26115 -6.26825 -6.27534 -6.28161 -6.28823 -6.29359 -6.29895 -6.30431 -6.30865 -6.31423 -6.31878 -6.32334 -6.32789 -6.33151 -6.33636 -6.34032 -6.34429 -6.34825 -6.3514 -6.35529 -6.35843 -6.36157 -6.36472 -6.36725 -6.37011 -6.37242 -6.37474 -6.37705 -6.37899 -6.3811 -6.38286 -6.38462 -6.38638 -6.38795 -6.38969 -6.39122 -6.39274 -6.39427 -6.39572 -6.39726 -6.39869 -6.40012 -6.40155 -6.40295 -6.40371 -6.40443 -6.40515 -6.40587 -6.40657 -6.40719 -6.40781 -6.40842 -6.40904 -6.4097 -6.41091 -6.41218 -6.41345 -6.41471 -6.41618 -6.41721 -6.41847 -6.41972 -6.42098 -6.42266 -6.42349 -6.42479 -6.42608 -6.42738 -6.42939 -6.43 -6.43139 -6.43278 -6.43418 -6.43664 -6.43706 -6.43858 -6.44009 -6.44161 -6.44455 -6.44475 -6.44636 -6.44797 -6.44958 -6.45296 -6.45295 -6.45467 -6.45638 -6.4581 -6.46195 -6.46179 -6.46365 -6.46551 -6.46737 -6.47166 -6.47141 -6.47341 -6.47542 -6.47742 -6.48209 -6.48178 -6.48393 -6.48607 -6.48821 -6.49321 -6.4929 -6.49517 -6.49746 -6.49994 -6.50503 -6.50503 -6.50719 -6.50962 -6.51252 -6.51757 -6.51792 -6.52 -6.52258 -6.52586 -6.53086 -6.53156 -6.5336 -6.53634 -6.53995 -6.54489 -6.54594 -6.54799 -6.55088 -6.55478 -6.55965 -6.56106 -6.56315 -6.56619 -6.57033 -6.57514 -6.57689 -6.57907 -6.58226 -6.5866 -6.59135 -6.59343 -6.59573 -6.59906 -6.60357 -6.60826 -6.61065 -6.61309 -6.61657 -6.6212 -6.62586 -6.62854 -6.63122 -6.63487 -6.6395 -6.64413 -6.64708 -6.65003 -6.65381 -6.65843 -6.66306 -6.66626 -6.66946 -6.67337 -6.67801 -6.68264 -6.68609 -6.68955 -6.69359 -6.69822 -6.70286 -6.70655 -6.71024 -6.7144 -6.71903 -6.72365 -6.72756 -6.73146 -6.73571 -6.74033 -6.74494 -6.74901 -6.75308 -6.75743 -6.76205 -6.76667 -6.77087 -6.77507 -6.77951 -6.78416 -6.78881 -6.79312 -6.79746 -6.80198 -6.80664 -6.81134 -6.81574 -6.8202 -6.82479 -6.82948 -6.83422 -6.8387 -6.84325 -6.84791 -6.85263 -6.85741 -6.86196 -6.8666 -6.87131 -6.87606 -6.88089 -6.8855 -6.89021 -6.89496 -6.89974 -6.90461 -6.90926 -6.91403 -6.91882 -6.92362 -6.92852 -6.93319 -6.938 -6.94282 -6.94763 -6.95254 -6.95725 -6.96208 -6.96691 -6.97173 -6.97664 -6.98137 -6.9862 -6.99103 -6.99586 -7.00075 -7.00549 -7.01031 -7.01513 -7.01995 -7.02481 -7.02955 -7.03434 -7.03914 -7.04394 -7.04875 -7.05348 -7.05824 -7.06299 -7.06775 -7.07252 -7.07574 -7.07897 -7.08221 -7.08544 -7.08859 -7.09008 -7.09157 -7.09305 -7.09454 -7.09603 -7.10067 -7.10531 -7.10995 -7.11459 -7.11925 -7.1238 -7.12836 -7.13291 -7.13747 -7.14205 -7.14651 -7.15097 -7.15543 -7.15989 -7.16437 -7.16873 -7.17307 -7.17742 -7.18176 -7.18613 -7.19037 -7.19458 -7.19879 -7.203 -7.20721 -7.21133 -7.21537 -7.21942 -7.22347 -7.22752 -7.23147 -7.23536 -7.23923 -7.2431 -7.24696 -7.25074 -7.25445 -7.25813 -7.26178 -7.26542 -7.269 -7.27252 -7.27597 -7.27938 -7.28277 -7.28612 -7.28943 -7.29263 -7.29577 -7.29889 -7.30199 -7.30508 -7.30801 -7.31083 -7.31366 -7.31648 -7.3193 -7.32194 -7.32445 -7.32696 -7.32947 -7.33199 -7.33432 -7.33648 -7.33864 -7.34082 -7.34301 -7.34501 -7.34679 -7.34858 -7.3504 -7.35222 -7.35386 -7.35525 -7.35663 -7.35806 -7.35949 -7.36072 -7.3617 -7.36265 -7.36366 -7.36462 -7.36541 -7.366 -7.36649 -7.36705 -7.3675 -7.36782 -7.368 -7.368 -7.36808 -7.36797 -7.36779 -7.36755 -7.36703 -7.36659 -7.36589 -7.36518 -7.36446 -7.36341 -7.36238 -7.36109 -7.35981 -7.35853 -7.357 -7.35531 -7.35342 -7.35154 -7.34966 -7.34762 -7.34523 -7.34271 -7.34019 -7.33768 -7.33513 -7.33399 -7.33283 -7.33166 -7.3305 -7.32936 -7.32737 -7.32539 -7.3234 -7.32141 -7.31936 -7.31562 -7.3118 -7.30797 -7.30416 -7.30014 -7.29584 -7.29129 -7.28674 -7.2822 -7.27731 -7.27242 -7.26712 -7.26182 -7.25652 -7.25071 -7.24515 -7.23913 -7.23304 -7.2268 -7.22018 -7.21381 -7.20716 -7.20025 -7.19302 -7.18556 -7.17836 -7.17106 -7.1633 -7.15503 -7.14669 -7.13863 -7.13056 -7.1219 -7.11266 -7.10343 -7.09447 -7.08551 -7.07595 -7.06578 -7.05561 -7.04573 -7.03584 -7.02536 -7.01423 -7.0031 -6.99226 -6.9813 -6.96979 -6.95786 -6.94575 -6.93393 -6.92174 -6.90923 -6.89654 -6.88342 -6.87059 -6.85712 -6.84359 -6.83005 -6.81597 -6.80192 -6.78733 -6.77274 -6.75815 -6.74328 -6.72789 -6.71222 -6.69655 -6.68089 -6.66523 -6.66519 -6.66515 -6.66511 -6.66507 -6.66503 -6.64844 -6.63186 -6.61528 -6.5987 -6.58186 -6.56439 -6.54665 -6.52893 -6.5112 -6.49292 -6.4746 -6.45574 -6.43688 -6.41785 -6.3983 -6.37884 -6.35913 -6.33913 -6.31862 -6.29791 -6.27729 -6.25669 -6.23546 -6.21357 -6.19168 -6.16989 -6.14812 -6.12568 -6.1026 -6.07952 -6.05656 -6.03352 -6.00979 -5.98566 -5.96139 -5.93723 -5.91261 -5.88768 -5.86269 -5.83721 -5.81178 -5.78563 -5.75949 -5.73336 -5.70696 -5.68742 -5.66757 -5.64773 -5.6279 -5.60903 -5.60135 -5.59367 -5.58599 -5.57831 -5.57055 -5.54212 -5.51363 -5.48516 -5.45669 -5.42784 -5.39842 -5.36872 -5.33903 -5.30924 -5.27897 -5.24839 -5.21766 -5.18677 -5.15544 -5.12397 -5.09217 -5.06039 -5.02819 -4.99551 -4.96283 -4.92983 -4.89684 -4.86334 -4.82945 -4.79557 -4.76137 -4.72691 -4.69214 -4.65731 -4.62224 -4.58683 -4.55087 -4.51492 -4.47898 -4.4429 -4.42329 -4.40349 -4.38369 -4.36389 -4.34475 -4.32735 -4.30995 -4.29255 -4.27516 -4.25757 -4.21951 -4.18134 -4.14318 -4.10504 -4.0663 -4.0273 -3.98807 -3.94878 -3.90917 -3.86926 -3.82913 -3.78901 -3.74854 -3.70754 -3.66653 -3.62531 -3.5841 -3.54238 -3.50032 -3.45825 -3.41597 -3.37339 -3.33053 -3.28766 -3.24456 -3.20113 -3.15724 -3.11336 -3.06949 -3.02558 -3.0192 -3.01275 -3.00631 -2.99987 -2.99348 -2.9551 -2.91674 -2.87838 -2.84003 -2.8013 -2.75574 -2.71 -2.66427 -2.61838 -2.57205 -2.52558 -2.4791 -2.43245 -2.38524 -2.33802 -2.29067 -2.24332 -2.19554 -2.1475 -2.09943 -2.05122 -2.00276 -1.95405 -1.90534 -1.85647 -1.81019 -1.76357 -1.71695 -1.67034 -1.62612 -1.62276 -1.61941 -1.61606 -1.61271 -1.60933 -1.55914 -1.50895 -1.45877 -1.4086 -1.35799 -1.30721 -1.25635 -1.20548 -1.15432 -1.10295 -1.0515 -1.00006 -0.948397 -0.896448 -0.844472 -0.792403 -0.740253 -0.687799 -0.635328 -0.582795 -0.530143 -0.477141 -0.424148 -0.371165 -0.318146 -0.311926 -0.305671 -0.299416 -0.293162 -0.286945 -0.239694 -0.19245 -0.145214 -0.097986 -0.0504479 0.00347898 0.0574157 0.111345 0.165464 0.219753 0.274101 0.328438 0.382877 0.437449 0.492055 0.546732 0.601482 0.656382 0.711265 0.766148 0.812659 0.859321 0.905977 0.952626 0.997402 1.00628 1.01517 1.02405 1.03293 1.04185 1.09728 1.15269 1.2081 1.2635 1.31915 1.3748 1.43042 1.48599 1.5417 1.59747 1.65325 1.70903 1.7649 1.8207 1.87652 1.93238 1.98829 2.04421 2.10012 2.15603 2.16704 2.17807 2.18909 2.20012 2.21105 2.25603 2.30101 2.34598 2.39095 2.436 2.49208 2.54805 2.60398 2.65992 2.71592 2.77191 2.82788 2.88382 2.93961 2.99545 3.05128 3.10707 3.16284 3.2186 3.27431 3.2889 3.30346 3.31802 3.33258 3.34699 3.38811 3.42923 3.47034 3.51146 3.55255 3.60816 3.66361 3.71902 3.77434 3.82968 3.88498 3.94028 3.99545 4.05038 4.10535 4.1603 4.21509 4.26984 4.32459 4.37934 4.38424 4.38913 4.39402 4.3989 4.40377 4.45341 4.50304 4.55266 4.60228 4.65176 4.70606 4.76028 4.81434 4.86816 4.92203 4.97584 5.02962 5.08316 5.13658 5.18991 5.22877 5.26743 5.30607 5.34471 5.38254 5.39711 5.41167 5.42624 5.4408 5.4553 5.50806 5.56069 5.61331 5.66582 5.71819 5.77045 5.82271 5.87467 5.92635 5.97806 6.02967 6.08106 6.13232 6.18357 6.23473 6.2456 6.2564 6.26719 6.27798 6.28872 6.32872 6.36871 6.40871 6.44867 6.48842 6.53879 6.58906 6.63915 6.68889 6.73866 6.78828 6.83784 6.88706 6.93621 6.98519 7.014 7.0426 7.07116 7.09972 7.12808 7.14813 7.16817 7.18821 7.20822 7.22809 7.27629 7.32423 7.37217 7.41981 7.46731 7.5147 7.56208 7.60906 7.65575 7.7024 7.73742 7.77215 7.8068 7.84145 7.87604 7.88754 7.89903 7.91053 7.922 7.93338 7.97906 8.02458 8.0701 8.11537 8.16039 8.20529 8.2502 8.29472 8.33883 8.38293 8.41954 8.4558 8.49197 8.52814 8.56464 8.57193 8.57923 8.58652 8.59379 8.601 8.64401 8.68692 8.72982 8.7725 8.81486 8.85709 8.89932 8.94115 8.98257 9.02397 9.06087 9.09741 9.13384 9.17027 9.20754 9.2117 9.21586 9.22003 9.22418 9.22829 9.26848 9.3086 9.34872 9.38867 9.42824 9.46764 9.50704 9.54604 9.58464 9.6232 9.66159 9.69958 9.73744 9.77531 9.81313 9.81384 9.81454 9.81523 9.81593 9.81663 9.85315 9.88966 9.92618 9.9626 9.99858 10.035 10.0715 10.1076 10.1432 10.1789 10.2143 10.2495 10.2844 10.3193 10.354 10.3637 10.3732 10.3828 10.3923 10.402 10.4266 10.4511 10.4757 10.5002 10.5244 10.5578 10.5911 10.6243 10.657 10.6897 10.722 10.7544 10.7863 10.8181 10.8497 10.8751 10.9002 10.9253 10.9504 10.9773 10.9828 10.9882 10.9937 10.9992 11.0046 11.0348 11.0649 11.0951 11.1251 11.1548 11.1841 11.2134 11.2424 11.2712 11.2999 11.3283 11.3565 11.3842 11.4116 11.4384 11.4632 11.4889 11.5146 11.5403 11.5704 11.5715 11.5725 11.5735 11.5745 11.5756 11.5991 11.6224 11.6456 11.6688 11.6866 11.7031 11.7252 11.7495 11.7813 11.8173 11.8527 11.888 11.9086 11.9145 11.9204 11.9249 11.9334 11.9432 11.953 11.9642 11.965 11.9659 11.9668 11.9678 11.9692 11.9824 11.9955 12.0085 12.0212 12.0332 12.0444 12.0555 12.0649 12.0726 12.0802 12.0868 12.0925 12.0975 12.1025 12.1069 12.1076 12.1079 12.1081 12.1083 12.1085 12.1101 12.1115 12.113 12.1143 12.1145 12.1133 12.1111 12.1082 12.1038 12.099 12.0924 12.0858 12.0771 12.0667 12.056 12.0433 12.0284 12.0131 11.9977 11.9816 11.9773 11.9725 11.9677 11.9629 11.9578 11.9413 11.9247 11.9081 11.8914 11.8729 11.846 11.817 11.7877 11.7564 11.7239 11.6881 11.6523 11.6131 11.5709 11.5286 11.4827 11.4358 11.3857 11.3343 11.281 11.2236 11.1617 11.0998 11.0378 10.9745 10.9509 10.926 10.9011 10.8762 10.8489 10.8002 10.7514 10.7025 10.6537 10.6025 10.517 10.4286 10.3402 10.251 10.157 10.0573 9.95475 9.8492 9.73836 9.62564 9.50675 9.38778 9.26309 9.133 9.00278 8.86588 8.72891 8.58112 8.42245 8.26361 8.09712 7.92969 7.761 7.5916 7.42086 7.24216 7.03541 6.82592 6.61648 6.38767 6.15329 5.93716 5.72097 5.50474 5.29385 5.18396 5.05064 4.91741 4.78427 4.62817 4.45275 4.27718 4.10145 3.92557 3.72232 3.41137 3.15004 2.888 2.62529 2.49435 2.36311 1.92798 1.49788 0.941045 0