# vtk DataFile Version 2.0
track0
ASCII
DATASET POLYDATA
POINTS 11980 float
-0.0205 0.001 1e-005
-0.0202034 0.00100022 1e-005
-0.0199069 0.00100067 1e-005
-0.0196103 0.00100132 1e-005
-0.0193137 0.00100219 1e-005
-0.0190172 0.00100326 1e-005
-0.0187132 0.00100466 1e-005
-0.0184093 0.00100588 1e-005
-0.0181054 0.0010071 1e-005
-0.0178015 0.00100832 1e-005
-0.0174976 0.00100953 1e-005
-0.0172058 0.00101083 1e-005
-0.016914 0.00101193 1e-005
-0.0166222 0.00101303 1e-005
-0.0163305 0.00101413 1e-005
-0.0160387 0.00101522 1e-005
-0.0157586 0.00101636 1e-005
-0.0154784 0.00101744 1e-005
-0.0151983 0.00101856 1e-005
-0.0149182 0.00101971 1e-005
-0.0146381 0.0010209 1e-005
-0.0143744 0.00102208 1e-005
-0.0141107 0.00102327 1e-005
-0.0138469 0.00102449 1e-005
-0.0135832 0.00102574 1e-005
-0.0133605 0.00102682 1e-005
-0.0133471 0.00102688 1e-005
-0.0133337 0.00102695 1e-005
-0.0133203 0.00102702 1e-005
-0.0133069 0.00102708 1e-005
-0.0132934 0.00102715 1e-005
-0.0130353 0.00102844 1e-005
-0.0127771 0.00102974 1e-005
-0.0125189 0.00103106 1e-005
-0.0122607 0.00103239 1e-005
-0.0120025 0.00103374 1e-005
-0.0117547 0.00103505 1e-005
-0.0115068 0.00103637 1e-005
-0.0112589 0.00103768 1e-005
-0.0110111 0.00103901 1e-005
-0.0107632 0.00104034 1e-005
-0.0105252 0.00104161 1e-005
-0.0102873 0.00104289 1e-005
-0.0100493 0.00104417 1e-005
-0.00981133 0.00104545 1e-005
-0.00957337 0.00104672 1e-005
-0.00934491 0.00104794 1e-005
-0.00911645 0.00104916 1e-005
-0.00888799 0.00105038 1e-005
-0.00865954 0.0010516 1e-005
-0.00843108 0.00105281 1e-005
-0.00821175 0.00105396 1e-005
-0.00799242 0.00105512 1e-005
-0.00777309 0.00105627 1e-005
-0.00755376 0.00105742 1e-005
-0.00733443 0.00105856 1e-005
-0.00712387 0.00105965 1e-005
-0.0069133 0.00106074 1e-005
-0.00670273 0.00106182 1e-005
-0.00649216 0.0010629 1e-005
-0.0062816 0.00106398 1e-005
-0.00607944 0.001065 1e-005
-0.00587729 0.00106603 1e-005
-0.00567514 0.00106705 1e-005
-0.00547298 0.00106806 1e-005
-0.00527083 0.00106907 1e-005
-0.00507675 0.00107003 1e-005
-0.00488267 0.00107099 1e-005
-0.0046886 0.00107195 1e-005
-0.00449452 0.0010729 1e-005
-0.00430044 0.00107385 1e-005
-0.00411412 0.00107475 1e-005
-0.0039278 0.00107566 1e-005
-0.00374147 0.00107656 1e-005
-0.00355515 0.00107745 1e-005
-0.00336883 0.00107835 1e-005
-0.00318995 0.00107919 1e-005
-0.00301107 0.00108004 1e-005
-0.00283219 0.00108089 1e-005
-0.00265331 0.00108173 1e-005
-0.00247443 0.00108258 1e-005
-0.0023027 0.00108338 1e-005
-0.00213097 0.00108418 1e-005
-0.00195924 0.00108498 1e-005
-0.0017875 0.00108577 1e-005
-0.00161577 0.00108657 1e-005
-0.0014509 0.00108732 1e-005
-0.00128603 0.00108808 1e-005
-0.00112116 0.00108884 1e-005
-0.000956289 0.00108959 1e-005
-0.000791418 0.00109035 1e-005
-0.000633135 0.00109106 1e-005
-0.000474851 0.00109179 1e-005
-0.000316567 0.00109251 1e-005
-0.000158284 0.00109322 1e-005
0 0.00109393 1e-005
0.000105677 0.0010944 1e-005
0.000211355 0.00109487 1e-005
0.000317032 0.00109534 1e-005
0.00042271 0.0010958 1e-005
0.000528387 0.00109626 1e-005
0.000634886 0.00109672 1e-005
0.000741385 0.00109718 1e-005
0.000847885 0.00109763 1e-005
0.000954384 0.00109808 1e-005
0.00106088 0.00109853 1e-005
0.00116821 0.00109897 1e-005
0.00127554 0.00109941 1e-005
0.00138286 0.00109985 1e-005
0.00149019 0.00110028 1e-005
0.00159752 0.0011007 1e-005
0.00170568 0.00110112 1e-005
0.00181384 0.00110154 1e-005
0.001922 0.00110195 1e-005
0.00203016 0.00110235 1e-005
0.00213833 0.00110274 1e-005
0.00224733 0.00110312 1e-005
0.00235633 0.0011035 1e-005
0.00246533 0.00110387 1e-005
0.00257434 0.00110423 1e-005
0.00268334 0.00110458 1e-005
0.00279319 0.00110493 1e-005
0.00290304 0.00110527 1e-005
0.00301289 0.0011056 1e-005
0.00312274 0.00110592 1e-005
0.00323259 0.00110624 1e-005
0.00334329 0.00110654 1e-005
0.003454 0.00110685 1e-005
0.0035647 0.00110715 1e-005
0.0036754 0.00110743 1e-005
0.00378611 0.00110772 1e-005
0.00389767 0.00110799 1e-005
0.00400924 0.00110825 1e-005
0.0041208 0.00110851 1e-005
0.00423237 0.00110877 1e-005
0.00434393 0.00110901 1e-005
0.00445636 0.00110925 1e-005
0.00456879 0.00110948 1e-005
0.00468123 0.0011097 1e-005
0.00479366 0.00110992 1e-005
0.00490609 0.00111013 1e-005
0.0050194 0.00111033 1e-005
0.0051327 0.00111052 1e-005
0.00524601 0.00111071 1e-005
0.00535932 0.00111089 1e-005
0.00547262 0.00111106 1e-005
0.00558681 0.00111122 1e-005
0.005701 0.00111138 1e-005
0.00581518 0.00111153 1e-005
0.00592937 0.00111167 1e-005
0.00604356 0.00111181 1e-005
0.00615863 0.00111193 1e-005
0.00627371 0.00111205 1e-005
0.00638878 0.00111217 1e-005
0.00650386 0.00111228 1e-005
0.00661893 0.00111237 1e-005
0.0067349 0.00111246 1e-005
0.00685087 0.00111255 1e-005
0.00696684 0.00111263 1e-005
0.00708281 0.0011127 1e-005
0.00719878 0.00111276 1e-005
0.00726201 0.00111279 1e-005
0.00732524 0.00111281 1e-005
0.00738846 0.00111284 1e-005
0.00745169 0.00111286 1e-005
0.00751308 0.00111288 1e-005
0.00756709 0.0011129 1e-005
0.0076211 0.00111291 1e-005
0.00767511 0.00111293 1e-005
0.00772912 0.00111294 1e-005
0.00778313 0.00111295 1e-005
0.00790091 0.00111296 1e-005
0.00801869 0.00111297 1e-005
0.00813647 0.00111297 1e-005
0.00825425 0.00111297 1e-005
0.00837203 0.00111296 1e-005
0.00849073 0.00111293 1e-005
0.00860942 0.0011129 1e-005
0.00872812 0.00111286 1e-005
0.00884682 0.00111282 1e-005
0.00896551 0.00111277 1e-005
0.00908513 0.0011127 1e-005
0.00920475 0.00111263 1e-005
0.00932437 0.00111255 1e-005
0.00944398 0.00111247 1e-005
0.0095636 0.00111237 1e-005
0.00968415 0.00111226 1e-005
0.0098047 0.00111215 1e-005
0.00992525 0.00111203 1e-005
0.0100458 0.00111191 1e-005
0.0101663 0.00111178 1e-005
0.0102878 0.00111162 1e-005
0.0104093 0.00111147 1e-005
0.0105308 0.00111131 1e-005
0.0106523 0.00111114 1e-005
0.0107738 0.00111097 1e-005
0.0108962 0.00111077 1e-005
0.0110186 0.00111057 1e-005
0.0111411 0.00111037 1e-005
0.0112635 0.00111016 1e-005
0.0113859 0.00110994 1e-005
0.0115093 0.0011097 1e-005
0.0116327 0.00110946 1e-005
0.0117561 0.00110922 1e-005
0.0118795 0.00110896 1e-005
0.0120028 0.0011087 1e-005
0.0121272 0.00110841 1e-005
0.0122515 0.00110813 1e-005
0.0123759 0.00110784 1e-005
0.0125002 0.00110754 1e-005
0.0126245 0.00110724 1e-005
0.0127498 0.0011069 1e-005
0.0128752 0.00110658 1e-005
0.0130005 0.00110624 1e-005
0.0131258 0.0011059 1e-005
0.0132511 0.00110554 1e-005
0.0133774 0.00110517 1e-005
0.0135036 0.00110479 1e-005
0.0136299 0.00110441 1e-005
0.0137562 0.00110402 1e-005
0.0138825 0.00110362 1e-005
0.0140098 0.00110319 1e-005
0.014137 0.00110277 1e-005
0.0142643 0.00110234 1e-005
0.0143915 0.0011019 1e-005
0.0145188 0.00110146 1e-005
0.0146471 0.00110099 1e-005
0.0147753 0.00110052 1e-005
0.0149036 0.00110004 1e-005
0.0150318 0.00109955 1e-005
0.0151601 0.00109905 1e-005
0.0152893 0.00109854 1e-005
0.0154186 0.00109802 1e-005
0.0155478 0.00109749 1e-005
0.0156771 0.00109695 1e-005
0.0158063 0.00109641 1e-005
0.0159366 0.00109585 1e-005
0.0160668 0.00109528 1e-005
0.0161971 0.0010947 1e-005
0.0163274 0.00109411 1e-005
0.0164576 0.00109352 1e-005
0.0165889 0.00109291 1e-005
0.0167201 0.00109229 1e-005
0.0168514 0.00109166 1e-005
0.0169827 0.00109103 1e-005
0.0171139 0.00109038 1e-005
0.0172462 0.00108973 1e-005
0.0173785 0.00108906 1e-005
0.0175108 0.00108838 1e-005
0.0176431 0.0010877 1e-005
0.0177754 0.001087 1e-005
0.0179087 0.0010863 1e-005
0.018042 0.00108559 1e-005
0.0181753 0.00108486 1e-005
0.0183087 0.00108412 1e-005
0.018442 0.00108338 1e-005
0.0185763 0.00108263 1e-005
0.0187107 0.00108187 1e-005
0.018845 0.00108109 1e-005
0.0189794 0.0010803 1e-005
0.0191137 0.00107951 1e-005
0.0192491 0.00107871 1e-005
0.0193845 0.0010779 1e-005
0.0195199 0.00107707 1e-005
0.0196553 0.00107623 1e-005
0.0197907 0.00107539 1e-005
0.0199272 0.00107455 1e-005
0.0200636 0.00107369 1e-005
0.0202001 0.0010728 1e-005
0.0203365 0.00107191 1e-005
0.020473 0.00107102 1e-005
0.0206105 0.00107014 1e-005
0.020748 0.00106922 1e-005
0.0208855 0.00106829 1e-005
0.021023 0.00106735 1e-005
0.0211606 0.00106642 1e-005
0.0212991 0.00106548 1e-005
0.0214377 0.00106452 1e-005
0.0215763 0.00106354 1e-005
0.0217149 0.00106255 1e-005
0.0218535 0.00106156 1e-005
0.0219931 0.00106058 1e-005
0.0221328 0.00105957 1e-005
0.0222724 0.00105854 1e-005
0.0224121 0.00105749 1e-005
0.0225517 0.00105646 1e-005
0.0226925 0.00105543 1e-005
0.0228332 0.00105437 1e-005
0.022974 0.00105329 1e-005
0.0231147 0.0010522 1e-005
0.0232555 0.00105111 1e-005
0.0233973 0.00105003 1e-005
0.0235391 0.00104893 1e-005
0.023681 0.00104779 1e-005
0.0238228 0.00104665 1e-005
0.0239647 0.00104552 1e-005
0.0241076 0.00104439 1e-005
0.0242505 0.00104323 1e-005
0.0243935 0.00104205 1e-005
0.0245364 0.00104085 1e-005
0.0246794 0.00103967 1e-005
0.0248234 0.00103849 1e-005
0.0249675 0.00103729 1e-005
0.0251115 0.00103605 1e-005
0.0252556 0.00103481 1e-005
0.0253996 0.00103358 1e-005
0.0255448 0.00103234 1e-005
0.02569 0.00103109 1e-005
0.0258351 0.0010298 1e-005
0.0259803 0.00102851 1e-005
0.0261255 0.00102723 1e-005
0.0262718 0.00102595 1e-005
0.0264181 0.00102463 1e-005
0.0265644 0.0010233 1e-005
0.0267107 0.00102196 1e-005
0.026857 0.00102062 1e-005
0.0270044 0.00101929 1e-005
0.0271519 0.00101793 1e-005
0.0272993 0.00101654 1e-005
0.0274468 0.00101515 1e-005
0.0275942 0.00101376 1e-005
0.0277428 0.00101237 1e-005
0.0278914 0.00101095 1e-005
0.0280399 0.00100952 1e-005
0.0281885 0.00100807 1e-005
0.0283371 0.00100663 1e-005
0.0284869 0.00100519 1e-005
0.0286366 0.00100371 1e-005
0.0287863 0.00100222 1e-005
0.0289361 0.00100073 1e-005
0.0290858 0.000999227 1e-005
0.0292367 0.000997725 1e-005
0.0293876 0.000996193 1e-005
0.0295385 0.00099465 1e-005
0.0296894 0.000993099 1e-005
0.0298403 0.000991541 1e-005
0.0299924 0.000989979 1e-005
0.0301445 0.000988388 1e-005
0.0302966 0.000986789 1e-005
0.0304486 0.000985181 1e-005
0.0306007 0.000983564 1e-005
0.030754 0.000981942 1e-005
0.0309072 0.000980293 1e-005
0.0310605 0.000978635 1e-005
0.0312138 0.000976967 1e-005
0.031367 0.000975291 1e-005
0.0315215 0.000973606 1e-005
[...]
POINT_DATA 11980
 FIELD attributes 1
U 3 11980 float
10.0004 	0.00731842 	0 10.0024 	0.0151689 	0 10.0045 	0.0221878 	0 10.0065 	0.0291625 	0 10.0085 	0.0360933 	0 10.0135 	0.0463086 	0 10.0163 	0.0402073 	0 10.0207 	0.0401649 	0 10.0252 	0.0401227 	0 10.0296 	0.0400807 	0 10.0356 	0.0445403 	0 10.0385 	0.0378985 	0 10.0424 	0.0378533 	0 10.0464 	0.0378081 	0 10.0504 	0.0377628 	0 10.0545 	0.0408632 	0 10.0567 	0.0387841 	0 10.0592 	0.0400923 	0 10.0616 	0.0414021 	0 10.0641 	0.0427135 	0 10.0662 	0.0451712 	0 10.0677 	0.0452814 	0 10.0691 	0.0464833 	0 10.0704 	0.0476864 	0 10.0718 	0.0488905 	0 10.0729 	0.0499086 	0 10.073 	0.0499703 	0 10.073 	0.050032 	0 10.0731 	0.0500938 	0 10.0732 	0.0501555 	0 10.0732 	0.0502079 	0 10.0738 	0.0508332 	0 10.0743 	0.0514526 	0 10.0748 	0.0520726 	0 10.0753 	0.052693 	0 10.0758 	0.0531495 	0 10.0757 	0.0534437 	0 10.0754 	0.0536325 	0 10.075 	0.0538214 	0 10.0747 	0.0540104 	0 10.0742 	0.053961 	0 10.0737 	0.0541041 	0 10.0727 	0.0540789 	0 10.0716 	0.0540537 	0 10.0705 	0.0540285 	0 10.069 	0.053734 	0 10.0686 	0.053812 	0 10.067 	0.0536763 	0 10.0653 	0.0535406 	0 10.0637 	0.0534048 	0 10.0612 	0.0529825 	0 10.0612 	0.0530336 	0 10.0592 	0.052836 	0 10.0572 	0.0526384 	0 10.0552 	0.0524408 	0 10.0516 	0.0519439 	0 10.0522 	0.0519927 	0 10.0499 	0.0517677 	0 10.0476 	0.0515427 	0 10.0453 	0.0513176 	0 10.0407 	0.0507852 	0 10.0422 	0.0508524 	0 10.0397 	0.050621 	0 10.0372 	0.0503895 	0 10.0347 	0.050158 	0 10.029 	0.0496054 	0 10.0314 	0.0496961 	0 10.0288 	0.0494734 	0 10.0262 	0.0492505 	0 10.0235 	0.0490276 	0 10.0167 	0.0484759 	0 10.0203 	0.0485981 	0 10.0176 	0.0483841 	0 10.0149 	0.04817 	0 10.0122 	0.0479558 	0 10.0041 	0.0473945 	0 10.009 	0.0475445 	0 10.0063 	0.0473711 	0 10.0035 	0.0471976 	0 10.0008 	0.0470242 	0 9.99161 	0.0465114 	0 9.9978 	0.0467161 	0 9.99513 	0.0465456 	0 9.99246 	0.0463751 	0 9.98978 	0.0462046 	0 9.97938 	0.0456448 	0 9.98693 	0.0458492 	0 9.98434 	0.0457869 	0 9.98175 	0.0457246 	0 9.97916 	0.0456622 	0 9.96758 	0.045257 	0 9.97658 	0.0455072 	9.22587e-022 9.97457 	0.0453115 	5.9548e-021 9.97255 	0.0451158 	1.09872e-020 9.97054 	0.0449201 	1.60198e-020 9.95846 	0.0442731 	1.36145e-020 9.96866 	0.0443532 	9.34177e-020 9.96683 	0.0440214 	8.66902e-020 9.96499 	0.0436896 	7.99588e-020 9.96316 	0.0433578 	7.32236e-020 9.95087 	0.0426655 	-1.48571e-020 9.9609 	0.0426265 	-4.02531e-020 9.95911 	0.0423393 	-4.47864e-020 9.95732 	0.0420522 	-4.93182e-020 9.95553 	0.041765 	-5.38485e-020 9.94346 	0.0412005 	-2.12761e-020 9.95303 	0.0410057 	-1.8712e-020 9.95111 	0.0404572 	-1.30306e-020 9.94918 	0.0399086 	-7.34963e-021 9.94726 	0.0393599 	-1.66907e-021 9.93542 	0.038586 	6.95454e-021 9.94458 	0.0382707 	-5.72916e-021 9.94248 	0.0374698 	-2.4192e-020 9.94036 	0.0366688 	-4.26569e-020 9.93824 	0.0358676 	-6.11237e-020 9.92653 	0.0348058 	-8.7116e-020 9.93511 	0.034551 	-1.22692e-019 9.93266 	0.0337343 	-1.10418e-019 9.9302 	0.0329174 	-9.81376e-020 9.92773 	0.0321003 	-8.58493e-020 9.91603 	0.0309055 	-2.9711e-020 9.92387 	0.0307738 	3.35972e-020 9.92103 	0.0300344 	4.69654e-020 9.91817 	0.0292947 	6.03243e-020 9.91532 	0.0285548 	7.3674e-020 9.90369 	0.027335 	3.65234e-020 9.9107 	0.0272479 	-4.51799e-020 9.90748 	0.026546 	-5.11873e-020 9.90425 	0.0258438 	-5.71805e-020 9.90101 	0.0251414 	-6.31596e-020 9.88957 	0.0239308 	-3.39078e-022 9.89563 	0.0238067 	5.88143e-020 9.892 	0.0231114 	4.94796e-020 9.88836 	0.0224159 	4.01307e-020 9.88473 	0.0217202 	3.07677e-020 9.87354 	0.0205555 	-2.85622e-020 9.87845 	0.0203663 	-8.22273e-020 9.87437 	0.0196779 	-1.04205e-019 9.87029 	0.0189892 	-1.26178e-019 9.8662 	0.0183003 	-1.48145e-019 9.85537 	0.0172153 	-1.35802e-019 9.8589 	0.0169561 	-1.5415e-019 9.85435 	0.0162792 	-1.41825e-019 9.8498 	0.0156021 	-1.29496e-019 9.84523 	0.0149247 	-1.17163e-019 9.83492 	0.0139365 	-8.31088e-020 9.83683 	0.0136141 	-6.97068e-020 9.8318 	0.0129544 	-5.13928e-020 9.82677 	0.0122943 	-3.30804e-020 9.82173 	0.011634 	-1.47698e-020 9.81217 	0.0107468 	1.94441e-021 9.81215 	0.0103564 	0 9.80666 	0.00970958 	0 9.80117 	0.00906244 	0 9.79567 	0.00841502 	0 9.78715 	0.0076244 	0 9.78484 	0.00715184 	-1.6611e-020 9.7789 	0.00651173 	-3.53823e-020 9.77295 	0.00587132 	-5.41552e-020 9.767 	0.0052306 	-7.29298e-020 9.75988 	0.00453635 	-9.2203e-020 9.75781 	0.00425747 	-9.52109e-020 9.75436 	0.00391472 	-9.56095e-020 9.7509 	0.00357188 	-9.60066e-020 9.74744 	0.00322894 	-9.64023e-020 9.74408 	0.00289589 	-9.67849e-020 9.74108 	0.00260117 	-9.76389e-020 9.73809 	0.00230638 	-9.84931e-020 9.73509 	0.00201151 	-9.93477e-020 9.73209 	0.00171657 	-1.00203e-019 9.72616 	0.00129009 	-1.00191e-019 9.72197 	0.000781291 	-7.53679e-020 9.71506 	0.000151755 	-4.65645e-020 9.70815 	-0.000478161 	-1.77703e-020 9.70122 	-0.00110846 	1.10145e-020 9.68496 	-0.00214714 	4.92473e-020 9.68622 	-0.00239977 	5.01083e-020 9.67888 	-0.00302248 	5.12428e-020 9.67154 	-0.00364561 	5.23752e-020 9.66418 	-0.00426916 	5.35054e-020 9.64125 	-0.00555082 	5.68219e-020 9.64781 	-0.00557718 	4.47509e-020 9.64007 	-0.00619317 	3.26774e-020 9.63231 	-0.00680961 	2.06027e-020 9.62455 	-0.00742649 	8.52694e-021 9.59527 	-0.0089079 	-1.10074e-021 9.60685 	-0.00875042 	-8.02164e-021 9.59872 	-0.00936006 	-1.95447e-020 9.59058 	-0.00997018 	-3.10667e-020 9.58242 	-0.0105808 	-4.25875e-020 9.54727 	-0.0122106 	-5.41241e-020 9.56347 	-0.011919 	-5.38014e-020 9.55498 	-0.0125243 	-6.11122e-020 9.54647 	-0.0131301 	-6.84199e-020 9.53795 	-0.0137365 	-7.57245e-020 9.49753 	-0.0154607 	-9.46666e-020 9.51785 	-0.0150857 	-1.5081e-019 9.50902 	-0.015687 	-1.41414e-019 9.50018 	-0.0162889 	-1.32031e-019 9.49133 	-0.0168913 	-1.2266e-019 9.4463 	-0.0186505 	-4.13451e-020 9.47018 	-0.0182433 	-2.63209e-020 9.46103 	-0.0188402 	-1.84301e-020 9.45188 	-0.0194376 	-1.05385e-020 9.44271 	-0.0200357 	-2.6461e-021 9.39381 	-0.0217719 	0 9.42065 	-0.0213807 	0 9.41122 	-0.021974 	0 9.40178 	-0.0225679 	0 9.39232 	-0.0231624 	0 9.3403 	-0.0248258 	0 9.36949 	-0.0244966 	1.5219e-021 9.3598 	-0.0250884 	8.86643e-021 9.3501 	-0.0256808 	1.62102e-020 9.34038 	-0.0262739 	2.35533e-020 9.28599 	-0.0278174 	4.1528e-020 9.31695 	-0.0275991 	1.60964e-019 9.30703 	-0.02819 	1.63871e-019 9.29709 	-0.0287816 	1.66791e-019 9.28713 	-0.0293738 	1.69726e-019 9.23109 	-0.0307462 	4.17186e-020 9.26305 	-0.0306853 	2.22617e-020 9.25313 	-0.0312708 	1.5633e-020 9.24298 	-0.0318603 	9.07065e-021 9.22978 	-0.032487 	3.91086e-021 9.17577 	-0.0336053 	1.76307e-020 9.2042 	-0.0337792 	1.0444e-019 9.19834 	-0.0343177 	1.1549e-019 9.188 	-0.0349042 	1.16697e-019 9.17062 	-0.035538 	1.00721e-019 9.12022 	-0.0363908 	4.02021e-021 9.14529 	-0.0367814 	-9.87487e-020 9.14289 	-0.0373204 	-1.29986e-019 9.13239 	-0.0379037 	-1.40175e-019 9.11154 	-0.038494 	-1.28473e-019 9.0646 	-0.0391013 	-6.15729e-020 9.0865 	-0.0396891 	-1.779e-019 9.087 	-0.0402713 	-2.1917e-019 9.07637 	-0.040851 	-2.21408e-019 9.0527 	-0.0413535 	-1.73052e-019 9.00906 	-0.0417372 	-4.70458e-020 9.028 	-0.0425019 	-2.49114e-020 9.03089 	-0.0431646 	-1.08248e-020 9.02013 	-0.0437406 	-3.57414e-021 8.99427 	-0.0441173 	0 8.95374 	-0.0442999 	0 8.96993 	-0.0452214 	0 8.97473 	-0.0459961 	0 8.96388 	-0.0465685 	0 8.93638 	-0.0467877 	2.05125e-021 8.89875 	-0.0467919 	5.35131e-021 8.91242 	-0.0478503 	2.20453e-021 8.91872 	-0.0487627 	0 8.90779 	-0.0493315 	0 8.87915 	-0.0493683 	2.43856e-021 8.84421 	-0.0492162 	5.74273e-021 8.85558 	-0.0503928 	2.59541e-021 8.86301 	-0.0514632 	1.15364e-021 8.85203 	-0.0520286 	7.73734e-021 8.82266 	-0.0518639 	2.44479e-020 8.79022 	-0.0515766 	4.2857e-020 8.7995 	-0.0528532 	1.67885e-019 8.80774 	-0.0540962 	2.86973e-019 8.79672 	-0.0546584 	2.90405e-019 8.76702 	-0.0542792 	1.68391e-019 8.73687 	-0.0538772 	4.33649e-020 8.74425 	-0.0552374 	2.52193e-020 8.75158 	-0.0565992 	7.07486e-021 8.74033 	-0.0571182 	3.13263e-022 8.71228 	-0.0566203 	3.49274e-021 8.68424 	-0.0561221 	6.67207e-021 8.68992 	-0.0575499 	3.65317e-021 8.69554 	-0.0589791 	6.35041e-022 8.68465 	-0.0594679 	2.01163e-021 8.65852 	-0.0588923 	-1.9084e-021 8.6324 	-0.0583164 	-5.82747e-021 8.63654 	-0.059798 	-4.90958e-020 8.64063 	-0.0612812 	-9.23678e-020 8.63015 	-0.0617403 	-9.37338e-020 8.60578 	-0.0611028 	-5.41433e-020 8.58142 	-0.0604649 	-1.45509e-020 8.58419 	-0.0619899 	8.43811e-020 8.58691 	-0.0635164 	1.83308e-019 8.57687 	-0.0639468 	1.91856e-019 8.55409 	-0.0632601 	1.09466e-019 8.53134 	-0.0625729 	2.70773e-020 8.5329 	-0.0641331 	1.57345e-020 8.53441 	-0.065695 	4.3883e-021 8.52483 	-0.0660982 	4.42603e-022 8.50351 	-0.0653732 	5.04535e-021 8.4822 	-0.0646476 	9.64988e-021 8.4827 	-0.0662342 	4.13948e-021 8.48315 	-0.0678224 	-1.37588e-021 8.47406 	-0.0681995 	-2.07693e-020 8.45405 	-0.0674471 	-7.07139e-020 8.43405 	-0.0666942 	-1.20661e-019 8.43362 	-0.0682925 	-2.51403e-019 8.43313 	-0.0698924 	-3.82139e-019 8.42455 	-0.0702445 	-3.67015e-019 8.40572 	-0.0694808 	-2.17157e-019 8.3869 	-0.0687166 	-6.73024e-020 8.38564 	-0.0703142 	5.64358e-020 8.38431 	-0.0719097 	1.79825e-019 8.37596 	-0.0722081 	1.77446e-019 8.35851 	-0.0714848 	9.03548e-020 8.34077 	-0.0707258 	3.49794e-022 8.33878 	-0.0723186 	-8.89856e-020 8.33589 	-0.0737335 	-1.67209e-019 8.3277 	-0.074038 	-1.76496e-019 8.31243 	-0.0734786 	-1.14292e-019 8.29566 	-0.0727334 	-3.67398e-020 8.29303 	-0.0743172 	-2.55104e-020 8.28888 	-0.0755503 	-1.43801e-020 8.28083 	-0.0758622 	-3.50307e-021 8.26746 	-0.0754713 	1.39376e-020 8.25158 	-0.0747461 	3.44986e-020 8.24838 	-0.0763181 	1.2731e-020 8.24321 	-0.077371 	-2.40567e-021 8.2353 	-0.077692 	-8.19927e-021 8.22358 	-0.0774713 	-3.00809e-021 8.2085 	-0.0767714 	1.18976e-020 8.2048 	-0.0783306 	-4.59641e-021 8.19883 	-0.0792077 	-1.54779e-020 8.19105 	-0.0795392 	-2.18701e-020 8.18076 	-0.0794884 	-3.40787e-020 8.16642 	-0.0788177 	-5.57101e-020 8.16228 	-0.0803635 	5.2707e-020 8.15569 	-0.0810705 	8.72041e-020 8.14804 	-0.0814142 	8.96687e-020 8.13898 	-0.0815315 	7.01507e-020 8.12532 	-0.0808933 	-2.26771e-020 8.12078 	-0.082426 	6.88812e-020 8.11373 	-0.0829696 	8.61728e-020 8.10619 	-0.0833267 	8.94445e-020 8.09821 	-0.0836094 	8.65395e-020 8.08516 	-0.0830061 	1.03545e-020 8.08027 	-0.0845262 	-5.66672e-022 8.07289 	-0.0849135 	-4.84867e-022 8.06547 	-0.0852854 	-2.51449e-022 8.05803 	-0.0856576 	-1.80533e-023 8.04593 	-0.0851637 	1.83594e-020 8.04045 	-0.0865228 	0 8.03315 	-0.0869106 	0 8.02582 	-0.0872986 	0 8.01849 	-0.0876869 	0 8.00759 	-0.0873737 	1.53573e-020 8.00164 	-0.0885639 	0 7.99443 	-0.0889691 	0 7.9872 	-0.0893745 	0 7.97996 	-0.0897802 	0 7.97012 	-0.0896438 	0 7.96382 	-0.090673 	0 7.95669 	-0.0910969 	0 7.94955 	-0.0915209 	0 7.9424 	-0.0919452 	0 7.93349 	-0.0919817 	-8.67121e-021 7.92692 	-0.0928577 	0 7.91988 	-0.0933014 	0 7.91282 	-0.0937453 	0 7.90575 	-0.0941895 	0 7.89764 	-0.0943947 	-1.09698e-020 7.89091 	-0.0951253 	0 7.88394 	-0.0955899 	0 7.87696 	-0.0960547 	0 7.86995 	-0.0965199 	0 7.86255 	-0.0968896 	-4.46224e-021 7.85788 	-0.0973304 	-6.00261e-021 7.85313 	-0.0976651 	-1.31196e-020 7.84837 	-0.0979999 	-2.02372e-020 7.84361 	-0.0983349 	-2.73553e-020 7.83897 	-0.0986608 	-3.42794e-020 7.83671 	-0.0988152 	-3.73344e-020 7.83445 	-0.0989697 	-4.03892e-020 7.83219 	-0.0991242 	-4.34438e-020 7.82993 	-0.0992787 	-4.64984e-020 7.82792 	-0.0993843 	-4.95551e-020 7.8208 	-0.0999396 	-4.83995e-020 7.81375 	-0.100451 	-4.77804e-020 7.80669 	-0.100963 	-4.71588e-020 7.7996 	-0.101475 	-4.65345e-020 7.79353 	-0.101787 	-4.81855e-020 7.78616 	-0.102503 	-3.77493e-020 7.77916 	-0.103039 	-2.73017e-020 7.77214 	-0.103575 	-1.68526e-020 7.7651 	-0.104111 	-6.40228e-021 7.75985 	-0.104302 	0 7.75222 	-0.105175 	-2.81979e-021 7.74526 	-0.105736 	-7.63317e-021 7.73828 	-0.106298 	-1.24458e-020 7.73128 	-0.106859 	-1.72578e-020 7.72682 	-0.106936 	-2.20345e-020 7.71892 	-0.107963 	-5.07474e-020 7.71199 	-0.108551 	-7.04995e-020 7.70504 	-0.109139 	-9.02532e-020 7.69807 	-0.109728 	-1.10008e-019 7.69438 	-0.109696 	-1.03315e-019 7.6862 	-0.110874 	-8.12341e-020 7.6793 	-0.11149 	-7.01328e-020 7.67237 	-0.112106 	-5.90254e-020 7.66542 	-0.112722 	-4.79119e-020 7.66248 	-0.11259 	-6.89286e-020 7.65403 	-0.113915 	-8.2162e-020 7.64714 	-0.11456 	-6.36867e-020 7.64023 	-0.115206 	-4.52162e-020 7.63367 	-0.115784 	-2.54884e-020 7.63107 	-0.115625 	7.82785e-021 7.62261 	-0.11698 	1.22236e-020 7.61547 	-0.117771 	8.75673e-021 7.60856 	-0.118447 	3.70806e-021 7.60277 	-0.118916 	0 7.60011 	-0.118808 	0 7.59168 	-0.120177 	0 7.58423 	-0.121125 	0 7.57733 	-0.121834 	0 7.57229 	-0.122199 	0 7.56956 	-0.122143 	0 7.56115 	-0.123527 	0 7.55338 	-0.124631 	-7.71653e-021 7.54647 	-0.125372 	-2.54429e-020 7.54216 	-0.12564 	-4.32184e-020 7.53935 	-0.125637 	-6.10232e-020 7.53095 	-0.127038 	-4.1846e-020 7.52286 	-0.128294 	-2.16911e-020 7.51594 	-0.129069 	1.70844e-021 7.51233 	-0.129246 	9.21224e-021 7.50944 	-0.129296 	1.33355e-020 7.50104 	-0.130715 	4.59241e-020 7.49263 	-0.13212 	7.82183e-020 7.48575 	-0.132918 	9.68352e-020 7.48276 	-0.133021 	8.19025e-020 7.47977 	-0.133125 	6.69685e-020 7.47137 	-0.134564 	4.297e-020 7.46292 	-0.136003 	1.89631e-020 7.45648 	-0.136815 	2.00894e-021 7.45339 	-0.136972 	1.13794e-020 7.4503 	-0.137128 	2.07505e-020 7.44189 	-0.138589 	8.42121e-020 7.43342 	-0.14005 	1.47677e-019 7.42738 	-0.140892 	1.48323e-019 7.42418 	-0.141102 	8.5473e-020 7.42097 	-0.141312 	2.26215e-020 7.41254 	-0.142796 	1.40298e-020 7.40406 	-0.14428 	5.44149e-021 7.39839 	-0.145153 	5.62972e-021 7.39507 	-0.145416 	1.47807e-020 7.39173 	-0.145679 	2.39327e-020 7.38327 	-0.147187 	8.59481e-020 7.37476 	-0.148696 	1.47967e-019 7.36945 	-0.149602 	1.48647e-019 7.366 	-0.149918 	8.72714e-020 7.36253 	-0.150234 	2.58946e-020 7.35404 	-0.151769 	1.75474e-020 7.34563 	-0.15328 	9.19984e-021 7.34064 	-0.154194 	7.56796e-022 7.33692 	-0.154612 	0 7.33332 	-0.154981 	0 7.32478 	-0.156542 	0 7.31709 	-0.157949 	0 7.31199 	-0.158904 	0 7.3078 	-0.159501 	0 7.30404 	-0.159923 	0 7.29544 	-0.161512 	0 7.28845 	-0.162819 	0 7.28323 	-0.163815 	0 7.27856 	-0.164587 	6.83547e-021 7.27464 	-0.165062 	2.27763e-020 7.26598 	-0.166679 	5.23547e-021 7.25966 	-0.16789 	6.04521e-021 7.25431 	-0.168927 	1.46636e-020 7.24917 	-0.169873 	2.4048e-020 7.24507 	-0.1704 	3.69529e-020 7.23634 	-0.172047 	1.23555e-019 7.23067 	-0.173164 	1.33749e-019 7.22518 	-0.174242 	1.38371e-019 7.21966 	-0.175321 	1.42972e-019 7.21528 	-0.175939 	4.60303e-020 7.20701 	-0.177522 	1.3415e-019 7.20142 	-0.178642 	1.22316e-019 7.19578 	-0.179762 	1.10459e-019 7.19011 	-0.180882 	9.85806e-020 7.18522 	-0.181681 	3.81293e-020 7.17762 	-0.183164 	3.14828e-020 7.17187 	-0.184325 	3.19548e-020 7.16607 	-0.185487 	3.24318e-020 7.16024 	-0.186648 	3.29139e-020 7.15483 	-0.187624 	4.80516e-020 7.14788 	-0.189011 	5.40076e-020 7.14196 	-0.190213 	5.15249e-020 7.136 	-0.191416 	4.90266e-020 7.12999 	-0.192618 	4.65127e-020 7.12407 	-0.193771 	3.96854e-020 7.12157 	-0.194275 	3.33053e-020 7.11935 	-0.19473 	3.11769e-020 7.11712 	-0.195185 	2.90504e-020 7.11489 	-0.195641 	2.69256e-020 7.1127 	-0.196085 	2.48537e-020 7.10869 	-0.196874 	2.0636e-020 7.10467 	-0.197663 	1.64216e-020 7.10062 	-0.198452 	1.22105e-020 7.09656 	-0.199241 	8.00278e-021 7.09321 	-0.199954 	3.77528e-022 7.08636 	-0.201312 	-2.41964e-022 7.0799 	-0.202594 	-1.7399e-022 7.0734 	-0.203876 	-1.05992e-022 7.06685 	-0.205157 	-3.79714e-023 7.06214 	-0.206244 	0 7.05442 	-0.207763 	-6.98454e-021 7.04776 	-0.209084 	-2.08102e-020 7.04105 	-0.210406 	-3.46301e-020 7.0343 	-0.211727 	-4.84443e-020 7.03058 	-0.212735 	-5.95168e-020 7.02194 	-0.214414 	-4.68254e-020 7.01507 	-0.215775 	-3.15625e-020 7.00815 	-0.217135 	-1.62938e-020 7.00121 	-0.218493 	-1.0562e-021 6.99845 	-0.219425 	6.3038e-021 6.98917 	-0.221212 	-1.33702e-022 6.98179 	-0.222662 	1.11274e-020 6.97465 	-0.224061 	2.51281e-020 6.96872 	-0.225334 	4.12665e-020 6.96573 	-0.22631 	6.25071e-020 6.95623 	-0.228128 	4.04066e-020 6.94787 	-0.229743 	2.18838e-020 6.9405 	-0.231179 	6.5191e-021 6.93559 	-0.232367 	-1.71466e-021 6.93235 	-0.233386 	-5.06209e-021 6.92263 	-0.235235 	-5.69027e-020 6.91326 	-0.237014 	-9.9792e-020 6.90565 	-0.238486 	-1.03387e-019 6.90177 	-0.239588 	-6.7136e-020 6.89828 	-0.240649 	-2.63613e-020 6.88832 	-0.242528 	-6.77129e-020 6.8783 	-0.244406 	-1.09072e-019 6.87094 	-0.245891 	-1.0941e-019 6.86723 	-0.246992 	-6.59716e-020 6.86348 	-0.248092 	-2.2532e-020 6.85327 	-0.25 	-6.61067e-020 6.843 	-0.251908 	-1.09687e-019 6.83589 	-0.253434 	-1.06887e-019 6.83191 	-0.254572 	-5.76209e-020 6.82789 	-0.255711 	-8.35113e-021 6.81743 	-0.257646 	-5.54342e-021 6.8069 	-0.259582 	-2.73786e-021 6.80004 	-0.261149 	0 6.79578 	-0.262323 	0 6.79149 	-0.263498 	0 6.78076 	-0.26546 	0 6.77077 	-0.267347 	0 6.76403 	-0.268919 	0 6.75881 	-0.270238 	0 6.75422 	-0.271448 	0 6.74322 	-0.273435 	0 6.73437 	-0.275214 	-1.69973e-021 6.72736 	-0.276814 	-4.85139e-021 6.72094 	-0.27831 	-4.66245e-021 6.71607 	-0.279552 	3.61579e-021 6.70478 	-0.281563 	-5.47225e-020 6.69709 	-0.283232 	-5.82142e-020 6.68979 	-0.284859 	-5.50515e-020 6.68243 	-0.286487 	-5.18671e-020 6.67698 	-0.287803 	-2.2873e-021 6.66644 	-0.28974 	-8.13595e-021 6.6589 	-0.291393 	6.48976e-022 6.6513 	-0.293045 	9.43522e-021 6.64365 	-0.294697 	1.82228e-020 6.63693 	-0.296193 	2.09786e-020 6.6276 	-0.298012 	4.11511e-020 6.61976 	-0.299687 	4.14116e-020 6.61186 	-0.301363 	4.16549e-020 6.6039 	-0.303038 	4.18809e-020 6.59588 	-0.304713 	4.2038e-020 6.59586 	-0.304717 	4.20402e-020 6.59584 	-0.304721 	4.20359e-020 6.59582 	-0.304725 	4.20316e-020 6.5958 	-0.304729 	4.20273e-020 6.59578 	-0.304733 	4.20229e-020 6.5872 	-0.306423 	3.97925e-020 6.57856 	-0.308112 	3.7567e-020 6.56986 	-0.309802 	3.53466e-020 6.56109 	-0.311491 	3.31311e-020 6.55335 	-0.313052 	2.26397e-020 6.54384 	-0.314908 	2.92544e-020 6.53483 	-0.31662 	2.30461e-020 6.52576 	-0.318332 	1.68496e-020 6.51662 	-0.320044 	1.06649e-020 6.50965 	-0.321498 	-1.46537e-020 6.49918 	-0.323516 	-7.40582e-021 6.48981 	-0.325247 	-9.34842e-021 6.48038 	-0.326975 	-1.13301e-020 6.4716 	-0.328622 	-1.26282e-020 6.46474 	-0.330043 	-1.20516e-020 6.4539 	-0.332072 	-1.07156e-020 6.44354 	-0.333969 	-7.35819e-021 6.43374 	-0.335712 	-1.65344e-021 6.42581 	-0.337237 	3.78075e-021 6.4186 	-0.338674 	9.10697e-021 6.40738 	-0.340712 	4.75128e-021 6.39608 	-0.34275 	3.99554e-022 6.38625 	-0.344481 	0 6.37875 	-0.345931 	0 6.3712 	-0.347381 	0 6.35959 	-0.349426 	0 6.3479 	-0.35147 	0 6.33827 	-0.35323 	0 6.33042 	-0.354691 	0 6.32251 	-0.356152 	0 6.3105 	-0.358201 	0 6.29872 	-0.360216 	5.19044e-022 6.28932 	-0.361964 	5.14671e-021 6.28078 	-0.363505 	9.78733e-021 6.27249 	-0.364974 	1.44351e-020 6.26008 	-0.367025 	1.07198e-020 6.24927 	-0.368895 	9.742e-021 6.23949 	-0.370645 	1.05624e-020 6.2298 	-0.372361 	1.16131e-020 6.22114 	-0.373835 	1.43013e-020 6.20862 	-0.375853 	-2.54581e-021 6.19853 	-0.377604 	-8.70443e-021 6.18836 	-0.379354 	-1.48502e-020 6.17813 	-0.381103 	-2.09832e-020 6.16843 	-0.382721 	-1.91256e-020 6.15981 	-0.384102 	-1.57515e-020 6.15222 	-0.38537 	-1.33491e-020 6.14459 	-0.386637 	-1.09483e-020 6.13693 	-0.387904 	-8.54932e-021 6.1296 	-0.389109 	-6.26854e-021 6.12671 	-0.389602 	-6.06592e-021 6.12381 	-0.390095 	-5.86487e-021 6.12091 	-0.390588 	-5.66541e-021 6.118 	-0.391082 	-5.46754e-021 6.11513 	-0.39153 	-2.05256e-021 6.10486 	-0.393328 	5.12484e-021 6.09439 	-0.395074 	5.82017e-021 6.08385 	-0.396819 	6.54054e-021 6.07324 	-0.398564 	7.28607e-021 6.06278 	-0.400106 	-1.99252e-020 6.05255 	-0.40208 	-6.08966e-020 6.04169 	-0.403817 	-7.0306e-020 6.03075 	-0.405554 	-7.9751e-020 6.01981 	-0.40723 	-7.57777e-020 6.00905 	-0.408662 	-1.75932e-020 5.99852 	-0.410666 	-1.51831e-020 5.98761 	-0.41254 	-1.02026e-020 5.97627 	-0.414265 	-2.3155e-021 5.96509 	-0.415765 	7.89028e-021 5.95393 	-0.417186 	1.89007e-020 5.943 	-0.419174 	3.62819e-020 5.93198 	-0.42116 	5.36715e-020 5.92049 	-0.422848 	5.48094e-020 5.90899 	-0.424256 	3.92387e-020 5.89741 	-0.425664 	2.36703e-020 5.88607 	-0.427632