# vtk DataFile Version 2.0
track0
ASCII
DATASET POLYDATA
POINTS 11980 float
-0.0205 0.001 1e-005
-0.0202034 0.00100022 1e-005
-0.0199069 0.00100067 1e-005
-0.0196103 0.00100132 1e-005
-0.0193137 0.00100219 1e-005
-0.0190172 0.00100326 1e-005
-0.0187132 0.00100466 1e-005
-0.0184093 0.00100588 1e-005
-0.0181054 0.0010071 1e-005
-0.0178015 0.00100832 1e-005
-0.0174976 0.00100953 1e-005
-0.0172058 0.00101083 1e-005
-0.016914 0.00101193 1e-005
-0.0166222 0.00101303 1e-005
-0.0163305 0.00101413 1e-005
-0.0160387 0.00101522 1e-005
-0.0157586 0.00101636 1e-005
-0.0154784 0.00101744 1e-005
-0.0151983 0.00101856 1e-005
-0.0149182 0.00101971 1e-005
-0.0146381 0.0010209 1e-005
-0.0143744 0.00102208 1e-005
-0.0141107 0.00102327 1e-005
-0.013847 0.00102449 1e-005
-0.0135833 0.00102574 1e-005
-0.0133606 0.00102682 1e-005
-0.0133472 0.00102688 1e-005
-0.0133337 0.00102695 1e-005
-0.0133203 0.00102702 1e-005
-0.0133069 0.00102708 1e-005
-0.0132934 0.00102715 1e-005
-0.0130353 0.00102844 1e-005
-0.0127771 0.00102974 1e-005
-0.0125189 0.00103106 1e-005
-0.0122607 0.00103239 1e-005
-0.0120025 0.00103374 1e-005
-0.0117547 0.00103505 1e-005
-0.0115068 0.00103637 1e-005
-0.0112589 0.00103769 1e-005
-0.0110111 0.00103901 1e-005
-0.0107632 0.00104034 1e-005
-0.0105252 0.00104161 1e-005
-0.0102873 0.00104289 1e-005
-0.0100493 0.00104417 1e-005
-0.00981133 0.00104545 1e-005
-0.00957337 0.00104672 1e-005
-0.00934491 0.00104794 1e-005
-0.00911645 0.00104916 1e-005
-0.00888799 0.00105038 1e-005
-0.00865954 0.0010516 1e-005
-0.00843108 0.00105281 1e-005
-0.00821175 0.00105396 1e-005
-0.00799242 0.00105512 1e-005
-0.00777309 0.00105627 1e-005
-0.00755376 0.00105742 1e-005
-0.00733443 0.00105856 1e-005
-0.00712387 0.00105965 1e-005
-0.0069133 0.00106074 1e-005
-0.00670273 0.00106183 1e-005
-0.00649216 0.00106291 1e-005
-0.0062816 0.00106398 1e-005
-0.00607944 0.001065 1e-005
-0.00587729 0.00106603 1e-005
-0.00567514 0.00106705 1e-005
-0.00547298 0.00106806 1e-005
-0.00527083 0.00106907 1e-005
-0.00507675 0.00107003 1e-005
-0.00488267 0.00107099 1e-005
-0.0046886 0.00107195 1e-005
-0.00449452 0.0010729 1e-005
-0.00430044 0.00107385 1e-005
-0.00411412 0.00107475 1e-005
-0.0039278 0.00107566 1e-005
-0.00374147 0.00107656 1e-005
-0.00355515 0.00107745 1e-005
-0.00336883 0.00107835 1e-005
-0.00318995 0.00107919 1e-005
-0.00301107 0.00108004 1e-005
-0.00283219 0.00108089 1e-005
-0.00265331 0.00108174 1e-005
-0.00247443 0.00108258 1e-005
-0.0023027 0.00108338 1e-005
-0.00213097 0.00108418 1e-005
-0.00195924 0.00108498 1e-005
-0.0017875 0.00108578 1e-005
-0.00161577 0.00108657 1e-005
-0.0014509 0.00108732 1e-005
-0.00128603 0.00108808 1e-005
-0.00112116 0.00108884 1e-005
-0.000956289 0.00108959 1e-005
-0.000791418 0.00109035 1e-005
-0.000633135 0.00109106 1e-005
-0.000474851 0.00109179 1e-005
-0.000316567 0.00109251 1e-005
-0.000158284 0.00109322 1e-005
0 0.00109394 1e-005
0.000105677 0.00109441 1e-005
0.000211355 0.00109488 1e-005
0.000317032 0.00109534 1e-005
0.00042271 0.00109581 1e-005
0.000528387 0.00109627 1e-005
0.000634886 0.00109672 1e-005
0.000741385 0.00109718 1e-005
0.000847885 0.00109763 1e-005
0.000954384 0.00109808 1e-005
0.00106088 0.00109853 1e-005
0.00116821 0.00109897 1e-005
0.00127554 0.00109942 1e-005
0.00138286 0.00109985 1e-005
0.00149019 0.00110028 1e-005
0.00159752 0.00110071 1e-005
0.00170568 0.00110113 1e-005
0.00181384 0.00110154 1e-005
0.001922 0.00110195 1e-005
0.00203016 0.00110235 1e-005
0.00213833 0.00110274 1e-005
0.00224733 0.00110312 1e-005
0.00235633 0.0011035 1e-005
0.00246533 0.00110387 1e-005
0.00257434 0.00110423 1e-005
0.00268334 0.00110458 1e-005
0.00279319 0.00110492 1e-005
0.00290304 0.00110526 1e-005
0.00301289 0.0011056 1e-005
0.00312274 0.00110592 1e-005
0.00323259 0.00110624 1e-005
0.00334329 0.00110654 1e-005
0.003454 0.00110684 1e-005
0.0035647 0.00110714 1e-005
0.0036754 0.00110743 1e-005
0.00378611 0.00110771 1e-005
0.00389767 0.00110798 1e-005
0.00400924 0.00110825 1e-005
0.0041208 0.00110851 1e-005
0.00423237 0.00110876 1e-005
0.00434393 0.00110901 1e-005
0.00445636 0.00110924 1e-005
0.00456879 0.00110947 1e-005
0.00468123 0.0011097 1e-005
0.00479366 0.00110991 1e-005
0.00490609 0.00111012 1e-005
0.0050194 0.00111032 1e-005
0.0051327 0.00111051 1e-005
0.00524601 0.0011107 1e-005
0.00535932 0.00111088 1e-005
0.00547262 0.00111105 1e-005
0.00558681 0.00111121 1e-005
0.005701 0.00111137 1e-005
0.00581518 0.00111152 1e-005
0.00592937 0.00111167 1e-005
0.00604356 0.0011118 1e-005
0.00615863 0.00111193 1e-005
0.00627371 0.00111205 1e-005
0.00638878 0.00111216 1e-005
0.00650386 0.00111227 1e-005
0.00661893 0.00111237 1e-005
0.0067349 0.00111246 1e-005
0.00685087 0.00111254 1e-005
0.00696684 0.00111262 1e-005
0.00708281 0.00111269 1e-005
0.00719878 0.00111275 1e-005
0.0072619 0.00111278 1e-005
0.00732502 0.00111281 1e-005
0.00738814 0.00111283 1e-005
0.00745126 0.00111286 1e-005
0.00751254 0.00111288 1e-005
0.00756666 0.00111289 1e-005
0.00762078 0.00111291 1e-005
0.0076749 0.00111292 1e-005
0.00772902 0.00111293 1e-005
0.00778313 0.00111294 1e-005
0.00790091 0.00111296 1e-005
0.00801869 0.00111297 1e-005
0.00813647 0.00111297 1e-005
0.00825425 0.00111296 1e-005
0.00837203 0.00111295 1e-005
0.00849073 0.00111292 1e-005
0.00860942 0.0011129 1e-005
0.00872812 0.00111286 1e-005
0.00884682 0.00111281 1e-005
0.00896551 0.00111276 1e-005
0.00908513 0.00111269 1e-005
0.00920475 0.00111262 1e-005
0.00932437 0.00111255 1e-005
0.00944398 0.00111246 1e-005
0.0095636 0.00111237 1e-005
0.00968415 0.00111226 1e-005
0.0098047 0.00111215 1e-005
0.00992525 0.00111203 1e-005
0.0100458 0.00111191 1e-005
0.0101663 0.00111177 1e-005
0.0102878 0.00111162 1e-005
0.0104093 0.00111147 1e-005
0.0105308 0.00111131 1e-005
0.0106523 0.00111114 1e-005
0.0107738 0.00111097 1e-005
0.0108962 0.00111077 1e-005
0.0110186 0.00111057 1e-005
0.0111411 0.00111037 1e-005
0.0112635 0.00111016 1e-005
0.0113859 0.00110994 1e-005
0.0115093 0.0011097 1e-005
0.0116327 0.00110946 1e-005
0.0117561 0.00110922 1e-005
0.0118795 0.00110896 1e-005
0.0120028 0.0011087 1e-005
0.0121272 0.00110842 1e-005
0.0122515 0.00110813 1e-005
0.0123759 0.00110784 1e-005
0.0125002 0.00110755 1e-005
0.0126245 0.00110724 1e-005
0.0127498 0.00110691 1e-005
0.0128752 0.00110658 1e-005
0.0130005 0.00110624 1e-005
0.0131258 0.0011059 1e-005
0.0132511 0.00110555 1e-005
0.0133774 0.00110517 1e-005
0.0135036 0.00110479 1e-005
0.0136299 0.00110441 1e-005
0.0137562 0.00110402 1e-005
0.0138825 0.00110362 1e-005
0.0140098 0.0011032 1e-005
0.014137 0.00110278 1e-005
0.0142643 0.00110235 1e-005
0.0143915 0.00110191 1e-005
0.0145188 0.00110146 1e-005
0.0146471 0.00110099 1e-005
0.0147753 0.00110052 1e-005
0.0149036 0.00110004 1e-005
0.0150318 0.00109956 1e-005
0.0151601 0.00109906 1e-005
0.0152893 0.00109854 1e-005
0.0154186 0.00109802 1e-005
0.0155478 0.0010975 1e-005
0.0156771 0.00109696 1e-005
0.0158063 0.00109641 1e-005
0.0159366 0.00109585 1e-005
0.0160668 0.00109528 1e-005
0.0161971 0.00109471 1e-005
0.0163274 0.00109412 1e-005
0.0164576 0.00109352 1e-005
0.0165889 0.00109292 1e-005
0.0167201 0.0010923 1e-005
0.0168514 0.00109167 1e-005
0.0169827 0.00109103 1e-005
0.0171139 0.00109039 1e-005
0.0172462 0.00108974 1e-005
0.0173785 0.00108907 1e-005
0.0175108 0.00108839 1e-005
0.0176431 0.0010877 1e-005
0.0177754 0.00108701 1e-005
0.0179087 0.00108631 1e-005
0.018042 0.00108559 1e-005
0.0181753 0.00108486 1e-005
0.0183087 0.00108413 1e-005
0.018442 0.00108339 1e-005
0.0185763 0.00108264 1e-005
0.0187107 0.00108187 1e-005
0.018845 0.00108109 1e-005
0.0189794 0.0010803 1e-005
0.0191137 0.00107951 1e-005
0.0192491 0.00107872 1e-005
0.0193845 0.0010779 1e-005
0.0195199 0.00107707 1e-005
0.0196553 0.00107623 1e-005
0.0197907 0.00107539 1e-005
0.0199272 0.00107455 1e-005
0.0200636 0.00107369 1e-005
0.0202001 0.00107281 1e-005
0.0203365 0.00107191 1e-005
0.020473 0.00107103 1e-005
0.0206105 0.00107014 1e-005
0.020748 0.00106923 1e-005
0.0208855 0.0010683 1e-005
0.021023 0.00106735 1e-005
0.0211606 0.00106642 1e-005
0.0212991 0.00106548 1e-005
0.0214377 0.00106452 1e-005
0.0215763 0.00106354 1e-005
0.0217149 0.00106255 1e-005
0.0218535 0.00106156 1e-005
0.0219931 0.00106058 1e-005
0.0221328 0.00105957 1e-005
0.0222724 0.00105854 1e-005
0.0224121 0.0010575 1e-005
0.0225517 0.00105646 1e-005
0.0226925 0.00105543 1e-005
0.0228332 0.00105437 1e-005
0.022974 0.00105329 1e-005
0.0231147 0.0010522 1e-005
0.0232555 0.00105111 1e-005
0.0233973 0.00105003 1e-005
0.0235391 0.00104893 1e-005
0.023681 0.00104779 1e-005
0.0238228 0.00104665 1e-005
0.0239647 0.00104552 1e-005
0.0241076 0.00104439 1e-005
0.0242505 0.00104323 1e-005
0.0243935 0.00104205 1e-005
0.0245364 0.00104085 1e-005
0.0246794 0.00103967 1e-005
0.0248234 0.00103849 1e-005
0.0249675 0.00103728 1e-005
0.0251115 0.00103605 1e-005
0.0252556 0.00103481 1e-005
0.0253996 0.00103357 1e-005
0.0255448 0.00103234 1e-005
0.02569 0.00103108 1e-005
0.0258351 0.0010298 1e-005
0.0259803 0.00102851 1e-005
0.0261255 0.00102723 1e-005
0.0262718 0.00102594 1e-005
0.0264181 0.00102463 1e-005
0.0265644 0.0010233 1e-005
0.0267107 0.00102196 1e-005
0.026857 0.00102062 1e-005
0.0270044 0.00101929 1e-005
0.0271519 0.00101792 1e-005
0.0272993 0.00101654 1e-005
0.0274468 0.00101515 1e-005
0.0275942 0.00101376 1e-005
0.0277428 0.00101237 1e-005
0.0278914 0.00101095 1e-005
0.0280399 0.00100952 1e-005
0.0281885 0.00100807 1e-005
0.0283371 0.00100663 1e-005
0.0284869 0.00100518 1e-005
0.0286366 0.00100371 1e-005
0.0287863 0.00100222 1e-005
0.0289361 0.00100073 1e-005
0.0290858 0.000999226 1e-005
0.0292367 0.000997724 1e-005
0.0293876 0.000996192 1e-005
0.0295385 0.000994649 1e-005
0.0296894 0.000993098 1e-005
0.0298403 0.00099154 1e-005
0.0299924 0.000989979 1e-005
0.0301445 0.000988388 1e-005
0.0302966 0.000986789 1e-005
0.0304486 0.000985181 1e-005
0.0306007 0.000983564 1e-005
0.030754 0.000981942 1e-005
0.0309072 0.000980293 1e-005
0.0310605 0.000978635 1e-005
0.0312138 0.000976968 1e-005
0.031367 0.000975292 1e-005
0.0315215 0.000973607 1e-005
[...]
POINT_DATA 11980
 FIELD attributes 2
p 1 11980 float
-4.83441 -4.8337 -4.83009 -4.8264 -4.82263 -4.81426 -4.82812 -4.84311 -4.8581 -4.87309 -4.89753 -4.91932 -4.94928 -4.97925 -5.00921 -5.04198 -5.05767 -5.07941 -5.10115 -5.12289 -5.14625 -5.1652 -5.18615 -5.20711 -5.22808 -5.24579 -5.24686 -5.24792 -5.24898 -5.25005 -5.25111 -5.27283 -5.29454 -5.31626 -5.33797 -5.35942 -5.37825 -5.39688 -5.41552 -5.43416 -5.45223 -5.46793 -5.48336 -5.49878 -5.51421 -5.52908 -5.54295 -5.55657 -5.5702 -5.58382 -5.597 -5.60982 -5.62238 -5.63494 -5.64751 -5.65965 -5.67158 -5.68321 -5.69485 -5.70648 -5.71769 -5.72882 -5.73967 -5.75053 -5.76138 -5.77188 -5.7824 -5.79266 -5.80293 -5.81319 -5.82313 -5.83318 -5.84304 -5.85291 -5.86277 -5.87242 -5.88218 -5.89168 -5.90118 -5.91068 -5.91996 -5.92952 -5.93921 -5.9489 -5.9586 -5.96841 -5.97842 -5.9882 -5.99797 -6.00775 -6.01733 -6.02732 -6.03809 -6.04885 -6.05961 -6.07049 -6.08024 -6.09062 -6.10099 -6.11137 -6.12127 -6.13026 -6.13876 -6.14726 -6.15575 -6.16349 -6.17047 -6.17854 -6.18662 -6.19469 -6.20353 -6.21164 -6.22023 -6.22882 -6.23742 -6.24613 -6.25419 -6.26127 -6.26836 -6.27545 -6.28171 -6.28833 -6.29368 -6.29904 -6.30439 -6.30872 -6.3143 -6.31884 -6.32339 -6.32794 -6.33155 -6.3364 -6.34036 -6.34432 -6.34828 -6.35142 -6.35531 -6.35845 -6.36159 -6.36473 -6.36726 -6.37012 -6.37243 -6.37474 -6.37705 -6.37899 -6.38109 -6.38285 -6.38461 -6.38637 -6.38794 -6.38967 -6.3912 -6.39273 -6.39426 -6.3957 -6.39724 -6.39867 -6.4001 -6.40153 -6.40293 -6.40369 -6.40441 -6.40513 -6.40585 -6.40655 -6.40717 -6.40779 -6.40841 -6.40903 -6.40969 -6.4109 -6.41217 -6.41344 -6.41471 -6.41617 -6.4172 -6.41846 -6.41972 -6.42098 -6.42267 -6.42349 -6.42479 -6.42609 -6.42739 -6.4294 -6.43001 -6.43141 -6.4328 -6.4342 -6.43666 -6.43709 -6.4386 -6.44012 -6.44164 -6.44458 -6.44478 -6.44639 -6.44801 -6.44962 -6.453 -6.45298 -6.45471 -6.45643 -6.45815 -6.462 -6.46184 -6.4637 -6.46556 -6.46742 -6.47171 -6.47146 -6.47347 -6.47547 -6.47747 -6.48214 -6.48184 -6.48398 -6.48613 -6.48827 -6.49327 -6.49296 -6.49524 -6.49752 -6.5 -6.50509 -6.5051 -6.50725 -6.50969 -6.51258 -6.51764 -6.51798 -6.52006 -6.52265 -6.52592 -6.53092 -6.53162 -6.53366 -6.5364 -6.54001 -6.54495 -6.546 -6.54805 -6.55094 -6.55483 -6.5597 -6.56111 -6.5632 -6.56624 -6.57038 -6.57519 -6.57693 -6.57911 -6.5823 -6.58664 -6.59138 -6.59346 -6.59575 -6.59909 -6.60359 -6.60828 -6.61067 -6.61311 -6.61658 -6.62121 -6.62587 -6.62855 -6.63122 -6.63486 -6.6395 -6.64413 -6.64707 -6.65001 -6.65379 -6.65841 -6.66304 -6.66624 -6.66943 -6.67334 -6.67798 -6.68261 -6.68606 -6.68951 -6.69355 -6.69818 -6.70282 -6.70651 -6.7102 -6.71435 -6.71898 -6.7236 -6.7275 -6.73141 -6.73566 -6.74027 -6.74489 -6.74895 -6.75302 -6.75737 -6.76199 -6.76661 -6.77081 -6.77501 -6.77946 -6.7841 -6.78875 -6.79306 -6.79741 -6.80192 -6.80659 -6.81128 -6.81569 -6.82015 -6.82474 -6.82943 -6.83417 -6.83865 -6.84321 -6.84786 -6.85259 -6.85737 -6.86193 -6.86656 -6.87127 -6.87603 -6.88086 -6.88547 -6.89018 -6.89494 -6.89972 -6.90459 -6.90924 -6.91401 -6.9188 -6.92361 -6.92851 -6.93318 -6.938 -6.94281 -6.94763 -6.95254 -6.95725 -6.96208 -6.96691 -6.97174 -6.97665 -6.98138 -6.98621 -6.99104 -6.99588 -7.00076 -7.00551 -7.01033 -7.01515 -7.01997 -7.02483 -7.02957 -7.03437 -7.03917 -7.04396 -7.04878 -7.05351 -7.05827 -7.06302 -7.06778 -7.07255 -7.07577 -7.07901 -7.08224 -7.08548 -7.08863 -7.09011 -7.0916 -7.09309 -7.09457 -7.09607 -7.1007 -7.10534 -7.10998 -7.11462 -7.11928 -7.12384 -7.12839 -7.13295 -7.1375 -7.14208 -7.14654 -7.151 -7.15546 -7.15991 -7.16439 -7.16875 -7.1731 -7.17744 -7.18179 -7.18615 -7.19039 -7.1946 -7.19881 -7.20302 -7.20723 -7.21134 -7.21539 -7.21944 -7.22349 -7.22753 -7.23148 -7.23537 -7.23924 -7.24311 -7.24696 -7.25074 -7.25445 -7.25813 -7.26179 -7.26542 -7.26899 -7.27252 -7.27596 -7.27938 -7.28276 -7.28611 -7.28943 -7.29263 -7.29576 -7.29888 -7.30198 -7.30507 -7.30799 -7.31082 -7.31365 -7.31647 -7.31929 -7.32192 -7.32443 -7.32694 -7.32945 -7.33197 -7.3343 -7.33646 -7.33862 -7.3408 -7.34298 -7.34498 -7.34677 -7.34855 -7.35037 -7.3522 -7.35384 -7.35522 -7.3566 -7.35803 -7.35946 -7.36069 -7.36167 -7.36262 -7.36363 -7.36459 -7.36538 -7.36597 -7.36646 -7.36702 -7.36746 -7.36778 -7.36797 -7.36797 -7.36805 -7.36794 -7.36776 -7.36751 -7.36699 -7.36656 -7.36586 -7.36514 -7.36442 -7.36338 -7.36234 -7.36106 -7.35977 -7.35849 -7.35696 -7.35527 -7.35338 -7.35149 -7.34961 -7.34758 -7.34518 -7.34266 -7.34015 -7.33763 -7.33508 -7.33395 -7.33278 -7.33162 -7.33046 -7.32932 -7.32733 -7.32534 -7.32335 -7.32137 -7.31931 -7.31557 -7.31175 -7.30793 -7.30411 -7.30009 -7.29578 -7.29123 -7.28669 -7.28215 -7.27726 -7.27237 -7.26706 -7.26176 -7.25646 -7.25066 -7.24509 -7.23907 -7.23298 -7.22674 -7.22013 -7.21376 -7.2071 -7.2002 -7.19296 -7.1855 -7.1783 -7.171 -7.16324 -7.15497 -7.14664 -7.13857 -7.13051 -7.12184 -7.11261 -7.10337 -7.09441 -7.08545 -7.07589 -7.06572 -7.05556 -7.04567 -7.03579 -7.0253 -7.01417 -7.00305 -6.99221 -6.98124 -6.96973 -6.95781 -6.94569 -6.93387 -6.92168 -6.90917 -6.89649 -6.88336 -6.87054 -6.85707 -6.84354 -6.83 -6.81592 -6.80187 -6.78728 -6.77269 -6.7581 -6.74324 -6.72785 -6.71218 -6.69651 -6.68085 -6.66519 -6.66515 -6.66511 -6.66508 -6.66504 -6.665 -6.6484 -6.63182 -6.61524 -6.59867 -6.58183 -6.56435 -6.54662 -6.52889 -6.51117 -6.49288 -6.47456 -6.45571 -6.43685 -6.41782 -6.39827 -6.37881 -6.3591 -6.33911 -6.3186 -6.29789 -6.27727 -6.25667 -6.23544 -6.21355 -6.19166 -6.16988 -6.1481 -6.12567 -6.10259 -6.07951 -6.05655 -6.03351 -6.00979 -5.98566 -5.96138 -5.93723 -5.91261 -5.88768 -5.86269 -5.83722 -5.81178 -5.78563 -5.7595 -5.73337 -5.70697 -5.68743 -5.66758 -5.64773 -5.62789 -5.60902 -5.60135 -5.59367 -5.586 -5.57832 -5.57056 -5.54214 -5.51365 -5.48518 -5.45671 -5.42786 -5.39844 -5.36875 -5.33906 -5.30927 -5.279 -5.24842 -5.2177 -5.1868 -5.15548 -5.124 -5.09221 -5.06043 -5.02823 -4.99555 -4.96287 -4.92987 -4.89688 -4.86338 -4.8295 -4.79562 -4.76142 -4.72696 -4.6922 -4.65736 -4.6223 -4.58688 -4.55092 -4.51497 -4.47903 -4.44296 -4.42334 -4.40353 -4.38372 -4.36392 -4.34477 -4.32737 -4.30998 -4.2926 -4.27521 -4.25764 -4.21958 -4.18141 -4.14325 -4.1051 -4.06637 -4.02737 -3.98814 -3.94886 -3.90924 -3.86933 -3.8292 -3.78909 -3.74861 -3.70761 -3.66661 -3.62539 -3.58418 -3.54246 -3.5004 -3.45833 -3.41605 -3.37347 -3.33062 -3.28774 -3.24464 -3.20121 -3.15732 -3.11345 -3.06958 -3.02567 -3.01927 -3.01281 -3.00635 -2.99989 -2.99349 -2.95513 -2.91678 -2.87844 -2.8401 -2.80139 -2.75582 -2.71009 -2.66436 -2.61846 -2.57213 -2.52567 -2.47919 -2.43254 -2.38533 -2.33811 -2.29075 -2.24341 -2.19563 -2.14759 -2.09952 -2.05131 -2.00285 -1.95414 -1.90543 -1.85656 -1.81027 -1.76362 -1.71699 -1.67036 -1.62612 -1.62279 -1.61945 -1.61612 -1.61278 -1.60942 -1.55923 -1.50904 -1.45886 -1.40869 -1.35808 -1.3073 -1.25644 -1.20557 -1.15441 -1.10304 -1.05159 -1.00015 -0.948484 -0.896534 -0.844558 -0.792488 -0.740338 -0.687883 -0.635413 -0.582879 -0.530227 -0.477224 -0.42423 -0.371247 -0.318228 -0.31199 -0.305718 -0.299446 -0.293175 -0.286941 -0.239706 -0.192479 -0.14526 -0.0980483 -0.0505269 0.00340058 0.0573379 0.111268 0.165388 0.219677 0.274025 0.328363 0.382803 0.437375 0.491982 0.54666 0.60141 0.656311 0.711195 0.766079 0.812606 0.859285 0.905958 0.952624 0.997416 1.00628 1.01515 1.02401 1.03288 1.04178 1.09722 1.15263 1.20803 1.26344 1.31909 1.37474 1.43036 1.48593 1.54164 1.59741 1.65319 1.70897 1.76485 1.82064 1.87646 1.93232 1.98824 2.04416 2.10006 2.15598 2.16701 2.17805 2.18909 2.20013 2.21107 2.25604 2.301 2.34596 2.39091 2.43595 2.49204 2.54801 2.60394 2.65988 2.71588 2.77186 2.82784 2.88378 2.93957 2.99541 3.05125 3.10704 3.1628 3.21856 3.27428 3.28888 3.30345 3.31802 3.3326 3.34701 3.38813 3.42923 3.47034 3.51144 3.55252 3.60813 3.66359 3.71899 3.77431 3.82965 3.88496 3.94025 3.99543 4.05036 4.10533 4.16028 4.21507 4.26982 4.32457 4.37932 4.38424 4.38913 4.39403 4.39893 4.40381 4.45343 4.50305 4.55267 4.60227 4.65174 4.70605 4.76027 4.81433 4.86815 4.92202 4.97583 5.02961 5.08315 5.13658 5.1899 5.22877 5.26745 5.30609 5.34474 5.38258 5.39713 5.41169 5.42625 5.4408 5.4553 5.50806 5.56069 5.61331 5.66582 5.71819 5.77046 5.82271 5.87468 5.92635 5.97807 6.02968 6.08107 6.13233 6.18358 6.23474 6.24562 6.25642 6.26722 6.27801 6.28876 6.32875 6.36874 6.40873 6.44869 6.48843 6.53881 6.58907 6.63917 6.68891 6.73868 6.7883 6.83786 6.88708 6.93623 6.98521 7.01402 7.04263 7.07119 7.09976 7.12812 7.14816 7.1682 7.18824 7.20825 7.22812 7.27632 7.32426 7.3722 7.41983 7.46733 7.51472 7.56211 7.60908 7.65578 7.70243 7.73745 7.77218 7.80683 7.84148 7.87608 7.88758 7.89907 7.91056 7.92203 7.93341 7.97909 8.02462 8.07014 8.1154 8.16042 8.20533 8.25023 8.29475 8.33886 8.38297 8.41957 8.45584 8.49201 8.52818 8.56468 8.57197 8.57927 8.58656 8.59383 8.60104 8.64405 8.68695 8.72986 8.77254 8.8149 8.85713 8.89936 8.94119 8.98261 9.02401 9.06091 9.09745 9.13388 9.17031 9.20758 9.21174 9.21591 9.22007 9.22422 9.22833 9.26852 9.30864 9.34877 9.38871 9.42828 9.46768 9.50708 9.54608 9.58468 9.62325 9.66164 9.69962 9.73749 9.77536 9.81317 9.81388 9.81458 9.81528 9.81598 9.81667 9.85319 9.88971 9.92622 9.96264 9.99863 10.0351 10.0715 10.1076 10.1433 10.1789 10.2144 10.2495 10.2844 10.3193 10.3541 10.3637 10.3733 10.3828 10.3924 10.4021 10.4266 10.4512 10.4757 10.5002 10.5244 10.5579 10.5911 10.6243 10.657 10.6897 10.7221 10.7544 10.7864 10.8181 10.8497 10.8752 10.9003 10.9253 10.9504 10.9773 10.9828 10.9883 10.9938 10.9992 11.0047 11.0349 11.065 11.0951 11.1251 11.1548 11.1842 11.2135 11.2425 11.2712 11.3 11.3283 11.3566 11.3842 11.4116 11.4385 11.4633 11.489 11.5147 11.5404 11.5705 11.5715 11.5725 11.5735 11.5746 11.5756 11.5992 11.6225 11.6457 11.6688 11.6867 11.7031 11.7252 11.7495 11.7813 11.8173 11.8527 11.8881 11.9086 11.9146 11.9205 11.9249 11.9334 11.9432 11.953 11.9642 11.9651 11.966 11.9668 11.9678 11.9692 11.9825 11.9955 12.0085 12.0212 12.0332 12.0444 12.0556 12.065 12.0726 12.0803 12.0869 12.0925 12.0976 12.1026 12.107 12.1076 12.1079 12.1081 12.1084 12.1086 12.1101 12.1116 12.113 12.1144 12.1146 12.1133 12.1111 12.1083 12.1038 12.099 12.0924 12.0858 12.0772 12.0667 12.056 12.0434 12.0285 12.0131 11.9977 11.9816 11.9774 11.9726 11.9677 11.9629 11.9578 11.9413 11.9247 11.9081 11.8915 11.8729 11.8461 11.8171 11.7877 11.7565 11.7239 11.6881 11.6523 11.6132 11.571 11.5286 11.4828 11.4358 11.3858 11.3344 11.281 11.2236 11.1617 11.0998 11.0378 10.9745 10.9509 10.9261 10.9012 10.8763 10.849 10.8002 10.7514 10.7026 10.6537 10.6025 10.517 10.4286 10.3402 10.251 10.157 10.0573 9.95478 9.84922 9.73838 9.62566 9.50677 9.3878 9.26311 9.13302 9.0028 8.8659 8.72893 8.58113 8.42247 8.26363 8.09714 7.92971 7.76101 7.59162 7.42087 7.24217 7.03542 6.82593 6.61649 6.38769 6.1533 5.93717 5.72098 5.50475 5.29386 5.18397 5.05065 4.91742 4.78428 4.62817 4.45276 4.27719 4.10146 3.92557 3.72233 3.41138 3.15005 2.88801 2.6253 2.49435 2.36311 1.92798 1.49788 0.941047 0