# vtk DataFile Version 2.0
track0
ASCII
DATASET POLYDATA
POINTS 11980 float
-0.0205 0.001 1e-005
-0.0202034 0.00100022 1e-005
-0.0199069 0.00100067 1e-005
-0.0196103 0.00100132 1e-005
-0.0193137 0.00100219 1e-005
-0.0190172 0.00100326 1e-005
-0.0187132 0.00100466 1e-005
-0.0184093 0.00100588 1e-005
-0.0181054 0.0010071 1e-005
-0.0178015 0.00100832 1e-005
-0.0174976 0.00100953 1e-005
-0.0172058 0.00101083 1e-005
-0.016914 0.00101193 1e-005
-0.0166222 0.00101303 1e-005
-0.0163305 0.00101413 1e-005
-0.0160387 0.00101522 1e-005
-0.0157586 0.00101636 1e-005
-0.0154784 0.00101744 1e-005
-0.0151983 0.00101856 1e-005
-0.0149182 0.00101971 1e-005
-0.0146381 0.0010209 1e-005
-0.0143744 0.00102208 1e-005
-0.0141107 0.00102327 1e-005
-0.013847 0.00102449 1e-005
-0.0135833 0.00102574 1e-005
-0.0133606 0.00102682 1e-005
-0.0133472 0.00102688 1e-005
-0.0133337 0.00102695 1e-005
-0.0133203 0.00102702 1e-005
-0.0133069 0.00102708 1e-005
-0.0132934 0.00102715 1e-005
-0.0130353 0.00102844 1e-005
-0.0127771 0.00102974 1e-005
-0.0125189 0.00103106 1e-005
-0.0122607 0.00103239 1e-005
-0.0120025 0.00103374 1e-005
-0.0117547 0.00103505 1e-005
-0.0115068 0.00103637 1e-005
-0.0112589 0.00103769 1e-005
-0.0110111 0.00103901 1e-005
-0.0107632 0.00104034 1e-005
-0.0105252 0.00104161 1e-005
-0.0102873 0.00104289 1e-005
-0.0100493 0.00104417 1e-005
-0.00981133 0.00104545 1e-005
-0.00957337 0.00104672 1e-005
-0.00934491 0.00104794 1e-005
-0.00911645 0.00104916 1e-005
-0.00888799 0.00105038 1e-005
-0.00865954 0.0010516 1e-005
-0.00843108 0.00105281 1e-005
-0.00821175 0.00105396 1e-005
-0.00799242 0.00105512 1e-005
-0.00777309 0.00105627 1e-005
-0.00755376 0.00105742 1e-005
-0.00733443 0.00105856 1e-005
-0.00712387 0.00105965 1e-005
-0.0069133 0.00106074 1e-005
-0.00670273 0.00106183 1e-005
-0.00649216 0.00106291 1e-005
-0.0062816 0.00106398 1e-005
-0.00607944 0.001065 1e-005
-0.00587729 0.00106603 1e-005
-0.00567514 0.00106705 1e-005
-0.00547298 0.00106806 1e-005
-0.00527083 0.00106907 1e-005
-0.00507675 0.00107003 1e-005
-0.00488267 0.00107099 1e-005
-0.0046886 0.00107195 1e-005
-0.00449452 0.0010729 1e-005
-0.00430044 0.00107385 1e-005
-0.00411412 0.00107475 1e-005
-0.0039278 0.00107566 1e-005
-0.00374147 0.00107656 1e-005
-0.00355515 0.00107745 1e-005
-0.00336883 0.00107835 1e-005
-0.00318995 0.00107919 1e-005
-0.00301107 0.00108004 1e-005
-0.00283219 0.00108089 1e-005
-0.00265331 0.00108174 1e-005
-0.00247443 0.00108258 1e-005
-0.0023027 0.00108338 1e-005
-0.00213097 0.00108418 1e-005
-0.00195924 0.00108498 1e-005
-0.0017875 0.00108578 1e-005
-0.00161577 0.00108657 1e-005
-0.0014509 0.00108732 1e-005
-0.00128603 0.00108808 1e-005
-0.00112116 0.00108884 1e-005
-0.000956289 0.00108959 1e-005
-0.000791418 0.00109035 1e-005
-0.000633135 0.00109106 1e-005
-0.000474851 0.00109179 1e-005
-0.000316567 0.00109251 1e-005
-0.000158284 0.00109322 1e-005
0 0.00109394 1e-005
0.000105677 0.00109441 1e-005
0.000211355 0.00109488 1e-005
0.000317032 0.00109534 1e-005
0.00042271 0.00109581 1e-005
0.000528387 0.00109627 1e-005
0.000634886 0.00109672 1e-005
0.000741385 0.00109718 1e-005
0.000847885 0.00109763 1e-005
0.000954384 0.00109808 1e-005
0.00106088 0.00109853 1e-005
0.00116821 0.00109897 1e-005
0.00127554 0.00109942 1e-005
0.00138286 0.00109985 1e-005
0.00149019 0.00110028 1e-005
0.00159752 0.00110071 1e-005
0.00170568 0.00110113 1e-005
0.00181384 0.00110154 1e-005
0.001922 0.00110195 1e-005
0.00203016 0.00110235 1e-005
0.00213833 0.00110274 1e-005
0.00224733 0.00110312 1e-005
0.00235633 0.0011035 1e-005
0.00246533 0.00110387 1e-005
0.00257434 0.00110423 1e-005
0.00268334 0.00110458 1e-005
0.00279319 0.00110492 1e-005
0.00290304 0.00110526 1e-005
0.00301289 0.0011056 1e-005
0.00312274 0.00110592 1e-005
0.00323259 0.00110624 1e-005
0.00334329 0.00110654 1e-005
0.003454 0.00110684 1e-005
0.0035647 0.00110714 1e-005
0.0036754 0.00110743 1e-005
0.00378611 0.00110771 1e-005
0.00389767 0.00110798 1e-005
0.00400924 0.00110825 1e-005
0.0041208 0.00110851 1e-005
0.00423237 0.00110876 1e-005
0.00434393 0.00110901 1e-005
0.00445636 0.00110924 1e-005
0.00456879 0.00110947 1e-005
0.00468123 0.0011097 1e-005
0.00479366 0.00110991 1e-005
0.00490609 0.00111012 1e-005
0.0050194 0.00111032 1e-005
0.0051327 0.00111051 1e-005
0.00524601 0.0011107 1e-005
0.00535932 0.00111088 1e-005
0.00547262 0.00111105 1e-005
0.00558681 0.00111121 1e-005
0.005701 0.00111137 1e-005
0.00581518 0.00111152 1e-005
0.00592937 0.00111167 1e-005
0.00604356 0.0011118 1e-005
0.00615863 0.00111193 1e-005
0.00627371 0.00111205 1e-005
0.00638878 0.00111216 1e-005
0.00650386 0.00111227 1e-005
0.00661893 0.00111237 1e-005
0.0067349 0.00111246 1e-005
0.00685087 0.00111254 1e-005
0.00696684 0.00111262 1e-005
0.00708281 0.00111269 1e-005
0.00719878 0.00111275 1e-005
0.0072619 0.00111278 1e-005
0.00732502 0.00111281 1e-005
0.00738814 0.00111283 1e-005
0.00745126 0.00111286 1e-005
0.00751254 0.00111288 1e-005
0.00756666 0.00111289 1e-005
0.00762078 0.00111291 1e-005
0.0076749 0.00111292 1e-005
0.00772902 0.00111293 1e-005
0.00778313 0.00111294 1e-005
0.00790091 0.00111296 1e-005
0.00801869 0.00111297 1e-005
0.00813647 0.00111297 1e-005
0.00825425 0.00111296 1e-005
0.00837203 0.00111295 1e-005
0.00849073 0.00111292 1e-005
0.00860942 0.0011129 1e-005
0.00872812 0.00111286 1e-005
0.00884682 0.00111281 1e-005
0.00896551 0.00111276 1e-005
0.00908513 0.00111269 1e-005
0.00920475 0.00111262 1e-005
0.00932437 0.00111255 1e-005
0.00944398 0.00111246 1e-005
0.0095636 0.00111237 1e-005
0.00968415 0.00111226 1e-005
0.0098047 0.00111215 1e-005
0.00992525 0.00111203 1e-005
0.0100458 0.00111191 1e-005
0.0101663 0.00111177 1e-005
0.0102878 0.00111162 1e-005
0.0104093 0.00111147 1e-005
0.0105308 0.00111131 1e-005
0.0106523 0.00111114 1e-005
0.0107738 0.00111097 1e-005
0.0108962 0.00111077 1e-005
0.0110186 0.00111057 1e-005
0.0111411 0.00111037 1e-005
0.0112635 0.00111016 1e-005
0.0113859 0.00110994 1e-005
0.0115093 0.0011097 1e-005
0.0116327 0.00110946 1e-005
0.0117561 0.00110922 1e-005
0.0118795 0.00110896 1e-005
0.0120028 0.0011087 1e-005
0.0121272 0.00110842 1e-005
0.0122515 0.00110813 1e-005
0.0123759 0.00110784 1e-005
0.0125002 0.00110755 1e-005
0.0126245 0.00110724 1e-005
0.0127498 0.00110691 1e-005
0.0128752 0.00110658 1e-005
0.0130005 0.00110624 1e-005
0.0131258 0.0011059 1e-005
0.0132511 0.00110555 1e-005
0.0133774 0.00110517 1e-005
0.0135036 0.00110479 1e-005
0.0136299 0.00110441 1e-005
0.0137562 0.00110402 1e-005
0.0138825 0.00110362 1e-005
0.0140098 0.0011032 1e-005
0.014137 0.00110278 1e-005
0.0142643 0.00110235 1e-005
0.0143915 0.00110191 1e-005
0.0145188 0.00110146 1e-005
0.0146471 0.00110099 1e-005
0.0147753 0.00110052 1e-005
0.0149036 0.00110004 1e-005
0.0150318 0.00109956 1e-005
0.0151601 0.00109906 1e-005
0.0152893 0.00109854 1e-005
0.0154186 0.00109802 1e-005
0.0155478 0.0010975 1e-005
0.0156771 0.00109696 1e-005
0.0158063 0.00109641 1e-005
0.0159366 0.00109585 1e-005
0.0160668 0.00109528 1e-005
0.0161971 0.00109471 1e-005
0.0163274 0.00109412 1e-005
0.0164576 0.00109352 1e-005
0.0165889 0.00109292 1e-005
0.0167201 0.0010923 1e-005
0.0168514 0.00109167 1e-005
0.0169827 0.00109103 1e-005
0.0171139 0.00109039 1e-005
0.0172462 0.00108974 1e-005
0.0173785 0.00108907 1e-005
0.0175108 0.00108839 1e-005
0.0176431 0.0010877 1e-005
0.0177754 0.00108701 1e-005
0.0179087 0.00108631 1e-005
0.018042 0.00108559 1e-005
0.0181753 0.00108486 1e-005
0.0183087 0.00108413 1e-005
0.018442 0.00108339 1e-005
0.0185763 0.00108264 1e-005
0.0187107 0.00108187 1e-005
0.018845 0.00108109 1e-005
0.0189794 0.0010803 1e-005
0.0191137 0.00107951 1e-005
0.0192491 0.00107872 1e-005
0.0193845 0.0010779 1e-005
0.0195199 0.00107707 1e-005
0.0196553 0.00107623 1e-005
0.0197907 0.00107539 1e-005
0.0199272 0.00107455 1e-005
0.0200636 0.00107369 1e-005
0.0202001 0.00107281 1e-005
0.0203365 0.00107191 1e-005
0.020473 0.00107103 1e-005
0.0206105 0.00107014 1e-005
0.020748 0.00106923 1e-005
0.0208855 0.0010683 1e-005
0.021023 0.00106735 1e-005
0.0211606 0.00106642 1e-005
0.0212991 0.00106548 1e-005
0.0214377 0.00106452 1e-005
0.0215763 0.00106354 1e-005
0.0217149 0.00106255 1e-005
0.0218535 0.00106156 1e-005
0.0219931 0.00106058 1e-005
0.0221328 0.00105957 1e-005
0.0222724 0.00105854 1e-005
0.0224121 0.0010575 1e-005
0.0225517 0.00105646 1e-005
0.0226925 0.00105543 1e-005
0.0228332 0.00105437 1e-005
0.022974 0.00105329 1e-005
0.0231147 0.0010522 1e-005
0.0232555 0.00105111 1e-005
0.0233973 0.00105003 1e-005
0.0235391 0.00104893 1e-005
0.023681 0.00104779 1e-005
0.0238228 0.00104665 1e-005
0.0239647 0.00104552 1e-005
0.0241076 0.00104439 1e-005
0.0242505 0.00104323 1e-005
0.0243935 0.00104205 1e-005
0.0245364 0.00104085 1e-005
0.0246794 0.00103967 1e-005
0.0248234 0.00103849 1e-005
0.0249675 0.00103728 1e-005
0.0251115 0.00103605 1e-005
0.0252556 0.00103481 1e-005
0.0253996 0.00103357 1e-005
0.0255448 0.00103234 1e-005
0.02569 0.00103108 1e-005
0.0258351 0.0010298 1e-005
0.0259803 0.00102851 1e-005
0.0261255 0.00102723 1e-005
0.0262718 0.00102594 1e-005
0.0264181 0.00102463 1e-005
0.0265644 0.0010233 1e-005
0.0267107 0.00102196 1e-005
0.026857 0.00102062 1e-005
0.0270044 0.00101929 1e-005
0.0271519 0.00101792 1e-005
0.0272993 0.00101654 1e-005
0.0274468 0.00101515 1e-005
0.0275942 0.00101376 1e-005
0.0277428 0.00101237 1e-005
0.0278914 0.00101095 1e-005
0.0280399 0.00100952 1e-005
0.0281885 0.00100807 1e-005
0.0283371 0.00100663 1e-005
0.0284869 0.00100518 1e-005
0.0286366 0.00100371 1e-005
0.0287863 0.00100222 1e-005
0.0289361 0.00100073 1e-005
0.0290858 0.000999226 1e-005
0.0292367 0.000997724 1e-005
0.0293876 0.000996192 1e-005
0.0295385 0.000994649 1e-005
0.0296894 0.000993098 1e-005
0.0298403 0.00099154 1e-005
0.0299924 0.000989979 1e-005
0.0301445 0.000988388 1e-005
0.0302966 0.000986789 1e-005
0.0304486 0.000985181 1e-005
0.0306007 0.000983564 1e-005
0.030754 0.000981942 1e-005
0.0309072 0.000980293 1e-005
0.0310605 0.000978635 1e-005
0.0312138 0.000976968 1e-005
0.031367 0.000975292 1e-005
0.0315215 0.000973607 1e-005
[...]
POINT_DATA 11980
 FIELD attributes 1
U 3 11980 float
10.0004 	0.00731848 	0 10.0024 	0.0151691 	0 10.0045 	0.0221881 	0 10.0065 	0.029163 	0 10.0085 	0.0360939 	0 10.0135 	0.0463093 	0 10.0163 	0.0402081 	0 10.0207 	0.0401658 	0 10.0252 	0.0401236 	0 10.0296 	0.0400817 	0 10.0356 	0.0445413 	0 10.0385 	0.0378996 	0 10.0424 	0.0378544 	0 10.0464 	0.0378091 	0 10.0504 	0.0377638 	0 10.0545 	0.0408641 	0 10.0567 	0.0387849 	0 10.0592 	0.040093 	0 10.0616 	0.0414028 	0 10.0641 	0.0427141 	0 10.0662 	0.0451716 	0 10.0677 	0.0452818 	0 10.0691 	0.0464836 	0 10.0704 	0.0476865 	0 10.0718 	0.0488905 	0 10.0729 	0.0499085 	0 10.073 	0.0499703 	0 10.073 	0.0500321 	0 10.0731 	0.0500939 	0 10.0732 	0.0501557 	0 10.0732 	0.0502082 	0 10.0738 	0.0508335 	0 10.0743 	0.0514529 	0 10.0748 	0.0520727 	0 10.0753 	0.0526932 	0 10.0758 	0.0531496 	0 10.0757 	0.0534438 	0 10.0754 	0.0536325 	0 10.075 	0.0538214 	0 10.0747 	0.0540104 	0 10.0742 	0.053961 	0 10.0737 	0.0541042 	0 10.0727 	0.054079 	0 10.0716 	0.0540538 	0 10.0705 	0.0540285 	0 10.069 	0.0537341 	0 10.0686 	0.0538121 	0 10.067 	0.0536764 	0 10.0653 	0.0535406 	0 10.0637 	0.0534048 	0 10.0612 	0.0529825 	0 10.0612 	0.0530336 	0 10.0592 	0.0528361 	0 10.0572 	0.0526385 	0 10.0552 	0.0524409 	0 10.0516 	0.051944 	0 10.0522 	0.0519928 	0 10.0499 	0.0517677 	0 10.0476 	0.0515426 	0 10.0453 	0.0513174 	0 10.0407 	0.0507848 	0 10.0422 	0.0508518 	0 10.0397 	0.0506205 	0 10.0372 	0.050389 	0 10.0347 	0.0501575 	0 10.029 	0.0496052 	0 10.0314 	0.0496961 	0 10.0288 	0.0494734 	0 10.0262 	0.0492507 	0 10.0235 	0.0490279 	0 10.0167 	0.048476 	0 10.0203 	0.0485981 	0 10.0176 	0.0483842 	0 10.0149 	0.0481703 	0 10.0122 	0.0479563 	0 10.0041 	0.0473955 	0 10.009 	0.0475462 	0 10.0063 	0.0473737 	0 10.0036 	0.0472012 	0 10.0008 	0.0470287 	0 9.99163 	0.0465172 	0 9.99781 	0.0467232 	0 9.99514 	0.0465497 	0 9.99247 	0.0463762 	0 9.9898 	0.0462026 	0 9.97939 	0.0456354 	0 9.98694 	0.0458338 	0 9.98435 	0.0457773 	0 9.98176 	0.0457207 	0 9.97916 	0.0456641 	0 9.96759 	0.0452723 	0 9.97659 	0.0455253 	9.2301e-022 9.97458 	0.045336 	5.95775e-021 9.97257 	0.0451466 	1.09927e-020 9.97056 	0.0449571 	1.60278e-020 9.95849 	0.0443174 	1.36229e-020 9.96869 	0.0443922 	9.34459e-020 9.96686 	0.0440509 	8.67181e-020 9.96502 	0.0437095 	7.99863e-020 9.96319 	0.0433682 	7.32506e-020 9.9509 	0.0426689 	-1.48521e-020 9.96093 	0.042626 	-4.02555e-020 9.95914 	0.042331 	-4.47911e-020 9.95735 	0.0420359 	-4.93253e-020 9.95555 	0.0417407 	-5.38578e-020 9.94347 	0.0411685 	-2.12771e-020 9.95304 	0.0409761 	-1.87135e-020 9.95111 	0.0404262 	-1.30316e-020 9.94918 	0.0398763 	-7.35014e-021 9.94725 	0.0393263 	-1.66908e-021 9.93541 	0.0385478 	6.95633e-021 9.94457 	0.0382356 	-5.72985e-021 9.94246 	0.0374349 	-2.4196e-020 9.94034 	0.0366341 	-4.26641e-020 9.93822 	0.0358332 	-6.11342e-020 9.92649 	0.0347687 	-8.71313e-020 9.93508 	0.0345169 	-1.22714e-019 9.93262 	0.0337012 	-1.10438e-019 9.93016 	0.0328853 	-9.81543e-020 9.92769 	0.0320692 	-8.58633e-020 9.91599 	0.030873 	-2.97153e-020 9.92383 	0.030744 	3.3602e-020 9.92098 	0.0300059 	4.69719e-020 9.91813 	0.0292675 	6.03324e-020 9.91527 	0.028529 	7.36837e-020 9.90364 	0.0273088 	3.65298e-020 9.91065 	0.0272239 	-4.51813e-020 9.90743 	0.0265235 	-5.11892e-020 9.9042 	0.0258228 	-5.7183e-020 9.90097 	0.0251219 	-6.31626e-020 9.88952 	0.0239117 	-3.39218e-022 9.89558 	0.0237894 	5.88157e-020 9.89195 	0.0230955 	4.94791e-020 9.88832 	0.0224015 	4.01283e-020 9.88468 	0.0217071 	3.07633e-020 9.87349 	0.0205432 	-2.85686e-020 9.8784 	0.0203552 	-8.22385e-020 9.87432 	0.0196679 	-1.04221e-019 9.87024 	0.0189804 	-1.26198e-019 9.86615 	0.0182926 	-1.48169e-019 9.85532 	0.0172083 	-1.35831e-019 9.85886 	0.0169501 	-1.54176e-019 9.85431 	0.0162741 	-1.41849e-019 9.84975 	0.0155978 	-1.29517e-019 9.84519 	0.0149213 	-1.17182e-019 9.83488 	0.0139339 	-8.31271e-020 9.83679 	0.0136123 	-6.97212e-020 9.83176 	0.0129533 	-5.14038e-020 9.82673 	0.012294 	-3.30881e-020 9.8217 	0.0116344 	-1.47741e-020 9.81214 	0.010748 	1.94401e-021 9.81211 	0.0103582 	0 9.80663 	0.009712 	0 9.80113 	0.00906552 	0 9.79563 	0.00841875 	0 9.78712 	0.00762887 	0 9.78481 	0.00715675 	-1.66156e-020 9.77887 	0.00651722 	-3.53903e-020 9.77292 	0.00587739 	-5.41668e-020 9.76697 	0.00523725 	-7.29449e-020 9.75985 	0.00454367 	-9.22209e-020 9.75779 	0.00426554 	-9.5224e-020 9.75434 	0.00392367 	-9.5622e-020 9.75089 	0.0035817 	-9.60185e-020 9.74743 	0.00323964 	-9.64136e-020 9.74408 	0.00290742 	-9.67957e-020 9.74108 	0.00261237 	-9.76515e-020 9.73808 	0.00231724 	-9.85076e-020 9.73508 	0.00202203 	-9.9364e-020 9.73207 	0.00172675 	-1.00221e-019 9.72612 	0.00129971 	-1.0021e-019 9.72194 	0.00079161 	-7.53888e-020 9.71503 	0.000162567 	-4.65798e-020 9.70812 	-0.000466856 	-1.778e-020 9.70119 	-0.00109666 	1.10105e-020 9.68493 	-0.00213501 	4.92555e-020 9.68619 	-0.00238706 	5.01165e-020 9.67886 	-0.00300936 	5.12513e-020 9.67151 	-0.00363207 	5.23839e-020 9.66415 	-0.0042552 	5.35143e-020 9.64122 	-0.0055366 	5.6832e-020 9.64779 	-0.00556252 	4.47588e-020 9.64004 	-0.00617821 	3.2683e-020 9.63229 	-0.00679435 	2.06061e-020 9.62453 	-0.00741094 	8.52803e-021 9.59524 	-0.00889223 	-1.1011e-021 9.60683 	-0.00873441 	-8.02262e-021 9.5987 	-0.00934388 	-1.95478e-020 9.59055 	-0.00995383 	-3.10718e-020 9.5824 	-0.0105643 	-4.25948e-020 9.54724 	-0.0121941 	-5.41334e-020 9.56345 	-0.0119023 	-5.38102e-020 9.55496 	-0.0125075 	-6.11222e-020 9.54645 	-0.0131132 	-6.84312e-020 9.53794 	-0.0137195 	-7.57372e-020 9.49751 	-0.0154438 	-9.4683e-020 9.51783 	-0.0150686 	-1.50837e-019 9.50901 	-0.0156699 	-1.4144e-019 9.50016 	-0.0162718 	-1.32055e-019 9.49131 	-0.0168742 	-1.22682e-019 9.44629 	-0.0186335 	-4.13521e-020 9.47016 	-0.0182263 	-2.63254e-020 9.46102 	-0.0188232 	-1.84332e-020 9.45187 	-0.0194207 	-1.05403e-020 9.4427 	-0.0200188 	-2.64662e-021 9.3938 	-0.0217553 	0 9.42064 	-0.0213641 	0 9.41121 	-0.0219575 	0 9.40177 	-0.0225516 	0 9.39231 	-0.0231463 	0 9.3403 	-0.02481 	0 9.36949 	-0.0244809 	1.5223e-021 9.3598 	-0.025073 	8.86782e-021 9.35009 	-0.0256657 	1.62126e-020 9.34038 	-0.026259 	2.35566e-020 9.28599 	-0.0278029 	4.15333e-020 9.31695 	-0.0275848 	1.6098e-019 9.30703 	-0.0281761 	1.63887e-019 9.29709 	-0.028768 	1.66807e-019 9.28713 	-0.0293606 	1.69742e-019 9.23109 	-0.0307334 	4.17238e-020 9.26305 	-0.0306729 	2.22644e-020 9.25313 	-0.0312589 	1.56355e-020 9.24298 	-0.0318488 	9.07226e-021 9.22979 	-0.0324759 	3.91066e-021 9.17578 	-0.0335947 	1.7632e-020 9.20421 	-0.0337692 	1.04451e-019 9.19835 	-0.0343082 	1.15497e-019 9.18801 	-0.0348953 	1.16703e-019 9.17064 	-0.0355296 	1.00732e-019 9.12024 	-0.0363828 	4.02058e-021 9.14531 	-0.0367742 	-9.87588e-020 9.1429 	-0.0373138 	-1.29993e-019 9.13241 	-0.0378976 	-1.40183e-019 9.11156 	-0.0384885 	-1.28484e-019 9.06462 	-0.0390963 	-6.15774e-020 9.08652 	-0.0396849 	-1.77915e-019 9.08702 	-0.0402678 	-2.1918e-019 9.07638 	-0.0408481 	-2.21418e-019 9.05272 	-0.0413512 	-1.73066e-019 9.00908 	-0.0417353 	-4.70493e-020 9.02803 	-0.0425009 	-2.4913e-020 9.03091 	-0.0431642 	-1.08263e-020 9.02015 	-0.0437408 	-3.57497e-021 8.9943 	-0.044118 	0 8.95376 	-0.0443011 	0 8.96996 	-0.0452234 	0 8.97476 	-0.0459987 	0 8.96391 	-0.0465717 	0 8.93641 	-0.0467914 	2.05113e-021 8.89878 	-0.046796 	5.35137e-021 8.91245 	-0.0478552 	2.20442e-021 8.91875 	-0.0487682 	0 8.90782 	-0.0493376 	0 8.87918 	-0.0493748 	2.43848e-021 8.84424 	-0.049223 	5.74282e-021 8.85561 	-0.0504002 	2.59534e-021 8.86304 	-0.0514712 	1.1541e-021 8.85205 	-0.052037 	7.73797e-021 8.82269 	-0.0518726 	2.44483e-020 8.79025 	-0.0515855 	4.2858e-020 8.79953 	-0.0528627 	1.6789e-019 8.80777 	-0.0541061 	2.86975e-019 8.79675 	-0.0546687 	2.90406e-019 8.76705 	-0.0542897 	1.68396e-019 8.7369 	-0.0538878 	4.33659e-020 8.74428 	-0.0552484 	2.52198e-020 8.75161 	-0.0566105 	7.07483e-021 8.74036 	-0.0571297 	3.13127e-022 8.71231 	-0.0566319 	3.49261e-021 8.68427 	-0.0561337 	6.67194e-021 8.68994 	-0.0575617 	3.65305e-021 8.69557 	-0.0589911 	6.3493e-022 8.68468 	-0.05948 	2.0121e-021 8.65855 	-0.0589044 	-1.90787e-021 8.63243 	-0.0583284 	-5.82688e-021 8.63657 	-0.05981 	-4.9095e-020 8.64066 	-0.0612932 	-9.23667e-020 8.63017 	-0.0617522 	-9.37326e-020 8.6058 	-0.0611146 	-5.41425e-020 8.58144 	-0.0604766 	-1.45505e-020 8.58421 	-0.0620014 	8.4379e-020 8.58693 	-0.0635278 	1.83303e-019 8.57689 	-0.063958 	1.91851e-019 8.55411 	-0.0632711 	1.09464e-019 8.53135 	-0.0625837 	2.70764e-020 8.53291 	-0.0641436 	1.5734e-020 8.53442 	-0.0657051 	4.38819e-021 8.52485 	-0.066108 	4.42723e-022 8.50352 	-0.0653828 	5.04546e-021 8.48222 	-0.064657 	9.64998e-021 8.48271 	-0.0662431 	4.13956e-021 8.48316 	-0.0678309 	-1.37581e-021 8.47407 	-0.0682077 	-2.07681e-020 8.45406 	-0.067455 	-7.07101e-020 8.43406 	-0.0667017 	-1.20655e-019 8.43362 	-0.0682995 	-2.51389e-019 8.43313 	-0.0698989 	-3.82118e-019 8.42455 	-0.0702505 	-3.66994e-019 8.40572 	-0.0694865 	-2.17145e-019 8.38691 	-0.068722 	-6.72988e-020 8.38564 	-0.070319 	5.64325e-020 8.38431 	-0.0719138 	1.79813e-019 8.37596 	-0.0722118 	1.77434e-019 8.35851 	-0.0714882 	9.03495e-020 8.34077 	-0.0707289 	3.49939e-022 8.33878 	-0.072321 	-8.89798e-020 8.33589 	-0.0737354 	-1.67196e-019 8.32769 	-0.0740393 	-1.76483e-019 8.31242 	-0.0734797 	-1.14285e-019 8.29565 	-0.0727341 	-3.67377e-020 8.29303 	-0.0743173 	-2.5509e-020 8.28887 	-0.0755499 	-1.43794e-020 8.28082 	-0.0758614 	-3.50308e-021 8.26745 	-0.0754701 	1.39364e-020 8.25157 	-0.0747446 	3.44961e-020 8.24837 	-0.0763161 	1.27298e-020 8.2432 	-0.0773686 	-2.40559e-021 8.23529 	-0.0776891 	-8.19872e-021 8.22356 	-0.0774682 	-3.00813e-021 8.20849 	-0.076768 	1.18968e-020 8.20479 	-0.0783267 	-4.59632e-021 8.19882 	-0.0792035 	-1.5477e-020 8.19104 	-0.0795347 	-2.18687e-020 8.18075 	-0.0794836 	-3.40762e-020 8.16641 	-0.0788128 	-5.57063e-020 8.16226 	-0.0803583 	5.27034e-020 8.15567 	-0.081065 	8.71968e-020 8.14802 	-0.0814084 	8.96614e-020 8.13897 	-0.0815255 	7.01458e-020 8.1253 	-0.0808872 	-2.26757e-020 8.12076 	-0.0824197 	6.88769e-020 8.11371 	-0.0829631 	8.61667e-020 8.10617 	-0.0833201 	8.94383e-020 8.0982 	-0.0836027 	8.65338e-020 8.08514 	-0.0829993 	1.03538e-020 8.08025 	-0.0845194 	-5.66636e-022 8.07288 	-0.0849067 	-4.84826e-022 8.06545 	-0.0852785 	-2.51428e-022 8.05801 	-0.0856507 	-1.80512e-023 8.04591 	-0.0851568 	1.83587e-020 8.04044 	-0.0865161 	0 8.03313 	-0.0869039 	0 8.02581 	-0.087292 	0 8.01847 	-0.0876803 	0 8.00758 	-0.0873672 	1.53569e-020 8.00163 	-0.0885576 	0 7.99442 	-0.0889629 	0 7.98719 	-0.0893684 	0 7.97995 	-0.0897743 	0 7.97011 	-0.0896381 	0 7.96381 	-0.0906675 	0 7.95668 	-0.0910915 	0 7.94955 	-0.0915158 	0 7.94239 	-0.0919404 	0 7.93348 	-0.091977 	-8.67144e-021 7.92692 	-0.0928534 	0 7.91988 	-0.0932973 	0 7.91282 	-0.0937415 	0 7.90574 	-0.094186 	0 7.89764 	-0.0943914 	-1.09706e-020 7.89091 	-0.0951223 	0 7.88394 	-0.0955872 	0 7.87695 	-0.0960524 	0 7.86995 	-0.0965178 	0 7.86255 	-0.0968878 	-4.46329e-021 7.85787 	-0.0973289 	-6.00415e-021 7.85313 	-0.0976639 	-1.3123e-020 7.84837 	-0.097999 	-2.02423e-020 7.8436 	-0.0983343 	-2.73623e-020 7.83896 	-0.0986605 	-3.4288e-020 7.83671 	-0.098815 	-3.73412e-020 7.83445 	-0.0989694 	-4.03943e-020 7.83219 	-0.099124 	-4.34472e-020 7.82993 	-0.0992785 	-4.65e-020 7.82792 	-0.0993841 	-4.9555e-020 7.8208 	-0.0999397 	-4.83997e-020 7.81375 	-0.100451 	-4.77806e-020 7.80669 	-0.100964 	-4.7159e-020 7.7996 	-0.101476 	-4.65347e-020 7.79354 	-0.101788 	-4.81853e-020 7.78616 	-0.102505 	-3.77493e-020 7.77916 	-0.103041 	-2.73017e-020 7.77215 	-0.103577 	-1.68528e-020 7.76511 	-0.104113 	-6.4025e-021 7.75986 	-0.104304 	0 7.75222 	-0.105178 	-2.81993e-021 7.74526 	-0.105739 	-7.63331e-021 7.73828 	-0.106301 	-1.2446e-020 7.73128 	-0.106863 	-1.72579e-020 7.72682 	-0.10694 	-2.20347e-020 7.71892 	-0.107967 	-5.07472e-020 7.712 	-0.108556 	-7.04993e-020 7.70505 	-0.109144 	-9.02529e-020 7.69807 	-0.109733 	-1.10008e-019 7.69438 	-0.109701 	-1.03315e-019 7.68621 	-0.110879 	-8.12346e-020 7.67931 	-0.111495 	-7.01333e-020 7.67238 	-0.112111 	-5.90258e-020 7.66543 	-0.112728 	-4.79122e-020 7.66248 	-0.112596 	-6.89283e-020 7.65403 	-0.113921 	-8.21612e-020 7.64715 	-0.114567 	-6.36861e-020 7.64023 	-0.115213 	-4.52157e-020 7.63367 	-0.115791 	-2.54881e-020 7.63107 	-0.115632 	7.82798e-021 7.62262 	-0.116987 	1.22237e-020 7.61547 	-0.117777 	8.75675e-021 7.60857 	-0.118454 	3.70807e-021 7.60278 	-0.118922 	0 7.60012 	-0.118815 	0 7.59169 	-0.120183 	0 7.58423 	-0.121132 	0 7.57733 	-0.12184 	0 7.57229 	-0.122206 	0 7.56956 	-0.12215 	0 7.56115 	-0.123533 	0 7.55338 	-0.124637 	-7.7162e-021 7.54647 	-0.125378 	-2.54422e-020 7.54216 	-0.125647 	-4.32174e-020 7.53935 	-0.125644 	-6.1022e-020 7.53095 	-0.127044 	-4.18451e-020 7.52286 	-0.1283 	-2.16905e-020 7.51593 	-0.129075 	1.70864e-021 7.51233 	-0.129252 	9.21188e-021 7.50943 	-0.129302 	1.3335e-020 7.50104 	-0.130721 	4.59232e-020 7.49263 	-0.132126 	7.82173e-020 7.48574 	-0.132924 	9.68331e-020 7.48275 	-0.133027 	8.19005e-020 7.47976 	-0.13313 	6.69667e-020 7.47136 	-0.134569 	4.29685e-020 7.46291 	-0.136008 	1.8962e-020 7.45647 	-0.13682 	2.00919e-021 7.45339 	-0.136977 	1.13794e-020 7.45029 	-0.137133 	2.07503e-020 7.44188 	-0.138594 	8.42104e-020 7.43342 	-0.140055 	1.47674e-019 7.42737 	-0.140896 	1.4832e-019 7.42417 	-0.141106 	8.54714e-020 7.42096 	-0.141316 	2.26214e-020 7.41253 	-0.142799 	1.40298e-020 7.40405 	-0.144284 	5.44175e-021 7.39838 	-0.145157 	5.62993e-021 7.39505 	-0.145419 	1.47807e-020 7.39172 	-0.145682 	2.39324e-020 7.38326 	-0.147191 	8.5946e-020 7.37475 	-0.148699 	1.47963e-019 7.36944 	-0.149605 	1.48643e-019 7.36599 	-0.149921 	8.72692e-020 7.36252 	-0.150237 	2.58943e-020 7.35403 	-0.151771 	1.75473e-020 7.34561 	-0.153282 	9.20001e-021 7.34063 	-0.154196 	7.57216e-022 7.33691 	-0.154614 	0 7.3333 	-0.154984 	0 7.32476 	-0.156544 	0 7.31707 	-0.157951 	0 7.31198 	-0.158906 	0 7.30778 	-0.159503 	0 7.30402 	-0.159925 	0 7.29543 	-0.161513 	0 7.28844 	-0.16282 	0 7.28322 	-0.163816 	0 7.27855 	-0.164588 	6.83429e-021 7.27463 	-0.165063 	2.27745e-020 7.26597 	-0.16668 	5.23434e-021 7.25965 	-0.167891 	6.04543e-021 7.2543 	-0.168928 	1.46634e-020 7.24915 	-0.169874 	2.40473e-020 7.24506 	-0.170401 	3.69517e-020 7.23633 	-0.172048 	1.2355e-019 7.23065 	-0.173165 	1.3374e-019 7.22517 	-0.174243 	1.38362e-019 7.21964 	-0.175322 	1.42962e-019 7.21527 	-0.17594 	4.60308e-020 7.207 	-0.177523 	1.34141e-019 7.2014 	-0.178643 	1.22307e-019 7.19577 	-0.179763 	1.1045e-019 7.1901 	-0.180883 	9.85723e-020 7.1852 	-0.181681 	3.81279e-020 7.17761 	-0.183165 	3.14824e-020 7.17185 	-0.184326 	3.19543e-020 7.16606 	-0.185487 	3.24313e-020 7.16023 	-0.186648 	3.29134e-020 7.15482 	-0.187625 	4.8048e-020 7.14786 	-0.189012 	5.40024e-020 7.14194 	-0.190214 	5.15198e-020 7.13598 	-0.191416 	4.90216e-020 7.12998 	-0.192618 	4.65078e-020 7.12406 	-0.193772 	3.96834e-020 7.12156 	-0.194275 	3.33074e-020 7.11934 	-0.19473 	3.11804e-020 7.11711 	-0.195185 	2.90552e-020 7.11488 	-0.19564 	2.69318e-020 7.1127 	-0.196084 	2.48612e-020 7.10868 	-0.196873 	2.06423e-020 7.10465 	-0.197662 	1.64266e-020 7.10061 	-0.198452 	1.22143e-020 7.09654 	-0.199241 	8.00527e-021 7.09319 	-0.199954 	3.77752e-022 7.08635 	-0.201313 	-2.41948e-022 7.07989 	-0.202594 	-1.73977e-022 7.07338 	-0.203876 	-1.05983e-022 7.06683 	-0.205158 	-3.79655e-023 7.06213 	-0.206244 	0 7.0544 	-0.207763 	-6.98327e-021 7.04774 	-0.209084 	-2.08082e-020 7.04104 	-0.210406 	-3.46274e-020 7.03428 	-0.211727 	-4.84409e-020 7.03056 	-0.212735 	-5.95126e-020 7.02192 	-0.214414 	-4.6822e-020 7.01505 	-0.215775 	-3.156e-020 7.00814 	-0.217135 	-1.6292e-020 7.00119 	-0.218493 	-1.05575e-021 6.99844 	-0.219425 	6.30387e-021 6.98916 	-0.221211 	-1.33292e-022 6.98177 	-0.222662 	1.11259e-020 6.97463 	-0.22406 	2.51259e-020 6.9687 	-0.225334 	4.12638e-020 6.96571 	-0.22631 	6.25034e-020 6.95621 	-0.228128 	4.0404e-020 6.94785 	-0.229743 	2.18817e-020 6.94048 	-0.231178 	6.51785e-021 6.93557 	-0.232366 	-1.71477e-021 6.93234 	-0.233385 	-5.062e-021 6.92261 	-0.235234 	-5.68997e-020 6.91324 	-0.237013 	-9.97898e-020 6.90563 	-0.238485 	-1.03385e-019 6.90175 	-0.239587 	-6.71331e-020 6.89826 	-0.240647 	-2.63607e-020 6.8883 	-0.242526 	-6.77099e-020 6.87828 	-0.244405 	-1.09067e-019 6.87092 	-0.24589 	-1.09405e-019 6.86721 	-0.24699 	-6.59684e-020 6.86346 	-0.24809 	-2.25313e-020 6.85325 	-0.249998 	-6.61034e-020 6.84298 	-0.251906 	-1.09681e-019 6.83587 	-0.253432 	-1.06881e-019 6.83189 	-0.25457 	-5.76177e-020 6.82787 	-0.255708 	-8.35082e-021 6.81741 	-0.257644 	-5.54328e-021 6.80688 	-0.25958 	-2.73789e-021 6.80002 	-0.261146 	0 6.79576 	-0.262321 	0 6.79147 	-0.263495 	0 6.78074 	-0.265458 	0 6.77075 	-0.267344 	0 6.76401 	-0.268915 	0 6.75879 	-0.270235 	0 6.7542 	-0.271444 	0 6.7432 	-0.273432 	0 6.73435 	-0.27521 	-1.69976e-021 6.72734 	-0.276811 	-4.85121e-021 6.72092 	-0.278306 	-4.66287e-021 6.71605 	-0.279548 	3.61485e-021 6.70476 	-0.281559 	-5.47197e-020 6.69707 	-0.283228 	-5.82085e-020 6.68977 	-0.284855 	-5.50461e-020 6.68241 	-0.286482 	-5.18619e-020 6.67696 	-0.287798 	-2.28779e-021 6.66642 	-0.289736 	-8.13531e-021 6.65888 	-0.291388 	6.49033e-022 6.65128 	-0.29304 	9.43469e-021 6.64363 	-0.294692 	1.82217e-020 6.63691 	-0.296188 	2.09778e-020 6.62758 	-0.298006 	4.11472e-020 6.61974 	-0.299682 	4.14078e-020 6.61184 	-0.301357 	4.16511e-020 6.60388 	-0.303032 	4.18771e-020 6.59586 	-0.304707 	4.20358e-020 6.59584 	-0.304711 	4.2038e-020 6.59582 	-0.304715 	4.20338e-020 6.5958 	-0.304719 	4.20296e-020 6.59578 	-0.304723 	4.20254e-020 6.59576 	-0.304727 	4.20212e-020 6.58719 	-0.306416 	3.97907e-020 6.57854 	-0.308106 	3.75652e-020 6.56984 	-0.309795 	3.53448e-020 6.56107 	-0.311484 	3.31293e-020 6.55333 	-0.313045 	2.26379e-020 6.54382 	-0.314901 	2.92528e-020 6.53481 	-0.316614 	2.3045e-020 6.52574 	-0.318326 	1.68489e-020 6.5166 	-0.320037 	1.06646e-020 6.50963 	-0.321491 	-1.46527e-020 6.49917 	-0.323509 	-7.40534e-021 6.4898 	-0.325239 	-9.34769e-021 6.48036 	-0.326968 	-1.13293e-020 6.47158 	-0.328614 	-1.26272e-020 6.46472 	-0.330035 	-1.20507e-020 6.45389 	-0.332064 	-1.07149e-020 6.44352 	-0.333961 	-7.35768e-021 6.43372 	-0.335704 	-1.65333e-021 6.42579 	-0.337229 	3.78048e-021 6.41859 	-0.338666 	9.10633e-021 6.40737 	-0.340704 	4.75093e-021 6.39606 	-0.342741 	3.99482e-022 6.38623 	-0.344472 	0 6.37874 	-0.345922 	0 6.37118 	-0.347373 	0 6.35957 	-0.349417 	0 6.34788 	-0.351462 	0 6.33826 	-0.353221 	0 6.3304 	-0.354682 	0 6.32249 	-0.356143 	0 6.31048 	-0.358192 	0 6.2987 	-0.360207 	5.18871e-022 6.2893 	-0.361955 	5.14621e-021 6.28076 	-0.363496 	9.7865e-021 6.27248 	-0.364965 	1.4434e-020 6.26007 	-0.367016 	1.07189e-020 6.24926 	-0.368885 	9.74095e-021 6.23948 	-0.370635 	1.05613e-020 6.22979 	-0.372352 	1.1612e-020 6.22113 	-0.373825 	1.43e-020 6.20861 	-0.375844 	-2.54658e-021 6.19851 	-0.377594 	-8.70482e-021 6.18835 	-0.379344 	-1.48503e-020 6.17812 	-0.381093 	-2.09828e-020 6.16842 	-0.382712 	-1.91242e-020 6.1598 	-0.384093 	-1.57497e-020 6.15221 	-0.38536 	-1.3347e-020 6.14458 	-0.386628 	-1.09459e-020 6.13691 	-0.387895 	-8.54665e-021 6.12958 	-0.3891 	-6.26563e-021 6.12669 	-0.389593 	-6.0631e-021 6.1238 	-0.390086 	-5.86214e-021 6.1209 	-0.390579 	-5.66276e-021 6.11799 	-0.391072 	-5.46497e-021 6.11512 	-0.391521 	-2.05187e-021 6.10485 	-0.393318 	5.12178e-021 6.09438 	-0.395064 	5.81697e-021 6.08385 	-0.39681 	6.53719e-021 6.07324 	-0.398554 	7.28257e-021 6.06277 	-0.400096 	-1.99235e-020 6.05254 	-0.40207 	-6.0888e-020 6.04168 	-0.403807 	-7.02965e-020 6.03074 	-0.405544 	-7.97408e-020 6.0198 	-0.40722 	-7.57739e-020 6.00904 	-0.408652 	-1.75934e-020 5.99852 	-0.410656 	-1.51835e-020 5.98761 	-0.41253 	-1.02027e-020 5.97627 	-0.414255 	-2.31618e-021 5.96509 	-0.415755 	7.88854e-021 5.95393 	-0.417176 	1.88982e-020 5.94299 	-0.419164 	3.62781e-020 5.93198 	-0.42115 	5.36665e-020 5.92049 	-0.422838 	5.48044e-020 5.90899 	-0.424246 	3.92347e-020 5.89741 	-0.425655 	2.36674e-020 5.88606 	-0.427