/*--------------------------------*- C++ -*----------------------------------*\
| =========                 |                                                 |
| \\      /  F ield         | OpenFOAM: The Open Source CFD Toolbox           |
|  \\    /   O peration     | Version:  5.x                                   |
|   \\  /    A nd           | Web:      www.OpenFOAM.org                      |
|    \\/     M anipulation  |                                                 |
\*---------------------------------------------------------------------------*/
/*   Windows 32 and 64 bit porting by blueCAPE: http://www.bluecape.com.pt   *\
|  Based on Windows porting (2.0.x v4) by Symscape: http://www.symscape.com   |
\*---------------------------------------------------------------------------*/
FoamFile
{
    version     2.0;
    format      ascii;
    class       volScalarField;
    location    "5000";
    object      p;
}
// * * * * * * * * * * * * * * * * * * * * * * * * * * * * * * * * * * * * * //

dimensions      [0 2 -2 0 0 0 0];

internalField   nonuniform List<scalar> 
4000
(
-5.05623e+007
-5.05209e+007
-5.04881e+007
-5.0486e+007
-5.0537e+007
-5.06397e+007
-5.07874e+007
-5.0965e+007
-5.11576e+007
-5.13529e+007
-5.15394e+007
-5.171e+007
-5.18589e+007
-5.1979e+007
-5.20614e+007
-5.2095e+007
-5.20746e+007
-5.19978e+007
-5.18615e+007
-5.16638e+007
-5.14042e+007
-5.1083e+007
-5.07018e+007
-5.0263e+007
-4.97702e+007
-4.92264e+007
-4.86372e+007
-4.80089e+007
-4.73471e+007
-4.66632e+007
-4.59678e+007
-4.52683e+007
-4.45738e+007
-4.38941e+007
-4.32401e+007
-4.26231e+007
-4.20545e+007
-4.15482e+007
-4.11201e+007
-4.07731e+007
-4.05068e+007
-4.03316e+007
-4.02601e+007
-4.03234e+007
-4.05365e+007
-4.08996e+007
-4.14233e+007
-4.21145e+007
-4.29786e+007
-4.40189e+007
-4.52365e+007
-4.66297e+007
-4.81938e+007
-4.9921e+007
-5.18015e+007
-5.3824e+007
-5.59681e+007
-5.82133e+007
-6.05358e+007
-6.28912e+007
-6.52409e+007
-6.75554e+007
-6.97978e+007
-7.19288e+007
-7.3906e+007
-7.56987e+007
-7.72302e+007
-7.84753e+007
-7.94661e+007
-8.01662e+007
-8.05488e+007
-8.05349e+007
-8.00577e+007
-7.9108e+007
-7.76666e+007
-7.57104e+007
-7.32209e+007
-7.01829e+007
-6.65842e+007
-6.24167e+007
-5.76767e+007
-5.23666e+007
-4.64881e+007
-4.00565e+007
-3.30978e+007
-2.56257e+007
-1.77095e+007
-9.46643e+006
-978633
7.67259e+006
1.63785e+007
2.50125e+007
3.34287e+007
4.14675e+007
4.89619e+007
5.56637e+007
6.14732e+007
6.6408e+007
7.0321e+007
7.30575e+007
7.41758e+007
7.34455e+007
7.08501e+007
6.6236e+007
5.95074e+007
5.05916e+007
3.94432e+007
2.60477e+007
1.04217e+007
-7.38581e+006
-2.72867e+007
-4.92066e+007
-7.30028e+007
-9.8458e+007
-1.25413e+008
-1.53474e+008
-1.82242e+008
-2.1146e+008
-2.40811e+008
-2.69945e+008
-2.98483e+008
-3.26025e+008
-3.52148e+008
-3.76418e+008
-3.98452e+008
-4.17445e+008
-4.33272e+008
-4.4629e+008
-4.56063e+008
-4.62367e+008
-4.63996e+008
-4.60286e+008
-4.51365e+008
-4.36885e+008
-4.16634e+008
-3.90454e+008
-3.58254e+008
-3.20009e+008
-2.75773e+008
-2.25686e+008
-1.69978e+008
-1.08958e+008
-4.30419e+007
2.73167e+007
1.01515e+008
1.78393e+008
2.56676e+008
3.35386e+008
4.13517e+008
4.89913e+008
5.63341e+008
6.32507e+008
6.96084e+008
7.52719e+008
8.01395e+008
8.39984e+008
8.6789e+008
8.86341e+008
8.94675e+008
8.92251e+008
8.7697e+008
8.47869e+008
8.05607e+008
7.50493e+008
6.83104e+008
6.04289e+008
5.15125e+008
4.169e+008
3.1109e+008
1.99318e+008
8.33263e+007
-3.52022e+007
-1.54358e+008
-2.71477e+008
-3.839e+008
-4.8983e+008
-5.87765e+008
-6.76179e+008
-7.53703e+008
-8.19144e+008
-8.71514e+008
-9.10001e+008
-9.34521e+008
-9.43325e+008
-9.37347e+008
-9.19393e+008
-8.89081e+008
-8.47356e+008
-7.93291e+008
-7.26689e+008
-6.49783e+008
-5.64545e+008
-4.73345e+008
-3.79285e+008
-2.86286e+008
-1.99067e+008
-1.23569e+008
-7.01686e+007
-5.67797e+007
-1.55499e+007
-5.06376e+007
-5.05934e+007
-5.06139e+007
-5.06218e+007
-5.06382e+007
-5.06693e+007
-5.07187e+007
-5.07912e+007
-5.0886e+007
-5.09995e+007
-5.11204e+007
-5.12262e+007
-5.13072e+007
-5.13566e+007
-5.13646e+007
-5.13427e+007
-5.12938e+007
-5.12059e+007
-5.10749e+007
-5.08991e+007
-5.06776e+007
-5.04105e+007
-5.00987e+007
-4.97441e+007
-4.93495e+007
-4.89175e+007
-4.84533e+007
-4.79718e+007
-4.74788e+007
-4.69635e+007
-4.64319e+007
-4.58995e+007
-4.53761e+007
-4.48706e+007
-4.43922e+007
-4.39502e+007
-4.35513e+007
-4.31807e+007
-4.28403e+007
-4.25896e+007
-4.2456e+007
-4.24295e+007
-4.25562e+007
-4.27902e+007
-4.30979e+007
-4.35228e+007
-4.40776e+007
-4.47661e+007
-4.55901e+007
-4.65493e+007
-4.7641e+007
-4.88603e+007
-5.01999e+007
-5.16498e+007
-5.31972e+007
-5.48289e+007
-5.65181e+007
-5.8211e+007
-5.98935e+007
-6.16001e+007
-6.33038e+007
-6.4949e+007
-6.65033e+007
-6.79389e+007
-6.9226e+007
-7.03661e+007
-7.1482e+007
-7.24082e+007
-7.29165e+007
-7.31037e+007
-7.2844e+007
-7.21909e+007
-7.13072e+007
-7.01443e+007
-6.86196e+007
-6.67103e+007
-6.44053e+007
-6.16975e+007
-5.85831e+007
-5.50618e+007
-5.11354e+007
-4.68139e+007
-4.21056e+007
-3.70314e+007
-3.16672e+007
-2.61216e+007
-2.03713e+007
-1.43203e+007
-8.05099e+006
-1.71479e+006
4.59633e+006
1.07868e+007
1.67541e+007
2.24036e+007
2.78462e+007
3.32712e+007
3.79341e+007
4.12312e+007
4.34233e+007
4.37102e+007
4.27205e+007
4.10427e+007
3.80338e+007
3.34814e+007
2.7312e+007
1.94729e+007
9.93992e+006
-1.28599e+006
-1.41771e+007
-2.86876e+007
-4.4722e+007
-6.22008e+007
-8.09641e+007
-1.00518e+008
-1.20564e+008
-1.41542e+008
-1.63364e+008
-1.85514e+008
-2.07624e+008
-2.294e+008
-2.50539e+008
-2.70734e+008
-2.89683e+008
-3.0711e+008
-3.23362e+008
-3.39445e+008
-3.53052e+008
-3.6196e+008
-3.67284e+008
-3.66859e+008
-3.62523e+008
-3.5633e+008
-3.46683e+008
-3.3285e+008
-3.14645e+008
-2.91958e+008
-2.64757e+008
-2.33072e+008
-1.96996e+008
-1.56689e+008
-1.12394e+008
-6.44133e+007
-1.3211e+007
4.00657e+007
9.43777e+007
1.50274e+008
2.08038e+008
2.6637e+008
3.23884e+008
3.7964e+008
4.32695e+008
4.82092e+008
5.26923e+008
5.66308e+008
6.00555e+008
6.33584e+008
6.59228e+008
6.70383e+008
6.71433e+008
6.57813e+008
6.33238e+008
6.03577e+008
5.66656e+008
5.20883e+008
4.66547e+008
4.0433e+008
3.35129e+008
2.60012e+008
1.80189e+008
9.69724e+007
1.18204e+007
-7.27098e+007
-1.54127e+008
-2.33011e+008
-3.10222e+008
-3.83649e+008
-4.50985e+008
-5.11052e+008
-5.62959e+008
-6.05975e+008
-6.39602e+008
-6.6348e+008
-6.78863e+008
-6.9093e+008
-6.9316e+008
-6.77808e+008
-6.50641e+008
-6.09156e+008
-5.58278e+008
-5.04941e+008
-4.48127e+008
-3.87009e+008
-3.23427e+008
-2.6008e+008
-2.00832e+008
-1.52065e+008
-1.15735e+008
-8.45024e+007
-7.4481e+007
-1.41907e+007
-5.07288e+007
-5.05935e+007
-5.06211e+007
-5.06383e+007
-5.06375e+007
-5.06243e+007
-5.06102e+007
-5.0603e+007
-5.06058e+007
-5.06182e+007
-5.06347e+007
-5.06438e+007
-5.06413e+007
-5.06235e+007
-5.05833e+007
-5.05239e+007
-5.0448e+007
-5.03507e+007
-5.02294e+007
-5.00828e+007
-4.99097e+007
-4.97099e+007
-4.94837e+007
-4.9232e+007
-4.89565e+007
-4.86592e+007
-4.83432e+007
-4.80166e+007
-4.7683e+007
-4.7341e+007
-4.6996e+007
-4.66565e+007
-4.63294e+007
-4.60217e+007
-4.57404e+007
-4.54917e+007
-4.52815e+007
-4.51079e+007
-4.49783e+007
-4.49246e+007
-4.49563e+007
-4.5071e+007
-4.52915e+007
-4.56071e+007
-4.59957e+007
-4.64706e+007
-4.70357e+007
-4.7691e+007
-4.84344e+007
-4.92622e+007
-5.01684e+007
-5.11451e+007
-5.21829e+007
-5.32703e+007
-5.43941e+007
-5.55409e+007
-5.66902e+007
-5.78113e+007
-5.88916e+007
-5.99343e+007
-6.09205e+007
-6.18225e+007
-6.26216e+007
-6.33028e+007
-6.38527e+007
-6.42694e+007
-6.45891e+007
-6.47136e+007
-6.45724e+007
-6.42058e+007
-6.35619e+007
-6.26364e+007
-6.15102e+007
-6.01876e+007
-5.86438e+007
-5.68721e+007
-5.4871e+007
-5.26417e+007
-5.01883e+007
-4.7517e+007
-4.46357e+007
-4.15574e+007
-3.82948e+007
-3.48674e+007
-3.132e+007
-2.76976e+007
-2.40108e+007
-2.02448e+007
-1.64454e+007
-1.26867e+007
-9.02353e+006
-5.51248e+006
-2.207e+006
839795
3.64412e+006
6.22304e+006
8.16626e+006
9.27546e+006
9.64554e+006
8.91302e+006
7.17316e+006
4.76774e+006
1.48111e+006
-2.77763e+006
-8.05365e+006
-1.43765e+007
-2.17539e+007
-3.01752e+007
-3.96096e+007
-5.00132e+007
-6.13094e+007
-7.34265e+007
-8.62596e+007
-9.95329e+007
-1.13096e+008
-1.2703e+008
-1.41217e+008
-1.55406e+008
-1.69377e+008
-1.8293e+008
-1.95867e+008
-2.08001e+008
-2.19167e+008
-2.29212e+008
-2.38197e+008
-2.46313e+008
-2.52258e+008
-2.55375e+008
-2.56125e+008
-2.53589e+008
-2.47986e+008
-2.40439e+008
-2.30541e+008
-2.18022e+008
-2.02788e+008
-1.84797e+008
-1.6407e+008
-1.40673e+008
-1.14721e+008
-8.63738e+007
-5.58505e+007
-2.34152e+007
1.0592e+007
4.55805e+007
8.10254e+007
1.16881e+008
1.52997e+008
1.88696e+008
2.23262e+008
2.56119e+008
2.86701e+008
3.14475e+008
3.38994e+008
3.5987e+008
3.77105e+008
3.91759e+008
4.0034e+008
4.00982e+008
3.95448e+008
3.81934e+008
3.61115e+008
3.36062e+008
3.06628e+008
2.72533e+008
2.34081e+008
1.91747e+008
1.46157e+008
9.80409e+007
4.82086e+007
-2.47507e+006
-5.31112e+007
-1.02488e+008
-1.49406e+008
-1.93745e+008
-2.35644e+008
-2.74215e+008
-3.08584e+008
-3.38275e+008
-3.62969e+008
-3.82481e+008
-3.96808e+008
-4.06028e+008
-4.10729e+008
-4.12444e+008
-4.07648e+008
-3.94951e+008
-3.76872e+008
-3.52323e+008
-3.22551e+008
-2.91231e+008
-2.58995e+008
-2.26177e+008
-1.94089e+008
-1.64419e+008
-1.39024e+008
-1.19784e+008
-1.05092e+008
-8.70337e+007
-7.51679e+007
-2.24074e+007
-5.07627e+007
-5.05604e+007
-5.05582e+007
-5.05653e+007
-5.05553e+007
-5.05232e+007
-5.04778e+007
-5.04269e+007
-5.0376e+007
-5.03275e+007
-5.02805e+007
-5.02304e+007
-5.01751e+007
-5.01131e+007
-5.00414e+007
-4.99617e+007
-4.98746e+007
-4.9778e+007
-4.96707e+007
-4.95513e+007
-4.94191e+007
-4.92734e+007
-4.91143e+007
-4.89421e+007
-4.8758e+007
-4.85634e+007
-4.83605e+007
-4.81536e+007
-4.79453e+007
-4.77366e+007
-4.75313e+007
-4.73351e+007
-4.71532e+007
-4.69911e+007
-4.68542e+007
-4.67474e+007
-4.66755e+007
-4.6641e+007
-4.66499e+007
-4.67183e+007
-4.68539e+007
-4.70572e+007
-4.7337e+007
-4.76867e+007
-4.8096e+007
-4.85677e+007
-4.91007e+007
-4.96921e+007
-5.0337e+007
-5.10296e+007
-5.17619e+007
-5.25248e+007
-5.33078e+007
-5.40989e+007
-5.4885e+007
-5.56525e+007
-5.63852e+007
-5.7064e+007
-5.76779e+007
-5.8223e+007
-5.8687e+007
-5.90549e+007
-5.93157e+007
-5.94614e+007
-5.94865e+007
-5.93878e+007
-5.91782e+007
-5.88179e+007
-5.82725e+007
-5.75577e+007
-5.66577e+007
-5.5585e+007
-5.43812e+007
-5.30578e+007
-5.16148e+007
-5.00567e+007
-4.83908e+007
-4.66242e+007
-4.47666e+007
-4.28285e+007
-4.08212e+007
-3.87588e+007
-3.66561e+007
-3.45311e+007
-3.24093e+007
-3.03159e+007
-2.82604e+007
-2.62416e+007
-2.42836e+007
-2.24235e+007
-2.06922e+007
-1.9121e+007
-1.77364e+007
-1.65663e+007
-1.56216e+007
-1.49164e+007
-1.46379e+007
-1.49064e+007
-1.57061e+007
-1.71789e+007
-1.92647e+007
-2.18226e+007
-2.49313e+007
-2.86171e+007
-3.28972e+007
-3.77803e+007
-4.32598e+007
-4.93169e+007
-5.59197e+007
-6.30257e+007
-7.05729e+007
-7.84919e+007
-8.66971e+007
-9.50439e+007
-1.03438e+008
-1.11878e+008
-1.20283e+008
-1.28513e+008
-1.36432e+008
-1.43906e+008
-1.50812e+008
-1.57034e+008
-1.62483e+008
-1.67071e+008
-1.70767e+008
-1.73581e+008
-1.74937e+008
-1.74445e+008
-1.72227e+008
-1.67946e+008
-1.61798e+008
-1.54275e+008
-1.45255e+008
-1.34698e+008
-1.22595e+008
-1.08963e+008
-9.38614e+007
-7.73786e+007
-5.96376e+007
-4.07919e+007
-2.10323e+007
-585041
2.02884e+007
4.12478e+007
6.1992e+007
8.24158e+007
1.02378e+008
1.21519e+008
1.39451e+008
1.55833e+008
1.70348e+008
1.82722e+008
1.92751e+008
2.00293e+008
2.0526e+008
2.0798e+008
2.07045e+008
2.01488e+008
1.9195e+008
1.77899e+008
1.6003e+008
1.39788e+008
1.1741e+008
9.30663e+007
6.70871e+007
3.98539e+007
1.18287e+007
-1.64793e+007
-4.45309e+007
-7.17689e+007
-9.76502e+007
-1.21577e+008
-1.43046e+008
-1.62058e+008
-1.78763e+008
-1.92938e+008
-2.04372e+008
-2.13012e+008
-2.18904e+008
-2.22194e+008
-2.23138e+008
-2.22047e+008
-2.19289e+008
-2.15548e+008
-2.09544e+008
-2.0057e+008
-1.89591e+008
-1.7644e+008
-1.62124e+008
-1.48359e+008
-1.35687e+008
-1.24526e+008
-1.15553e+008
-1.09427e+008
-1.06409e+008
-1.05926e+008
-1.04615e+008
-9.71124e+007
-7.99237e+007
-3.70233e+007
-5.07255e+007
-5.05161e+007
-5.04898e+007
-5.04812e+007
-5.04609e+007
-5.04171e+007
-5.03544e+007
-5.02792e+007
-5.01975e+007
-5.01135e+007
-5.0029e+007
-4.99436e+007
-4.98571e+007
-4.97697e+007
-4.96804e+007
-4.95907e+007
-4.95006e+007
-4.94095e+007
-4.9317e+007
-4.92217e+007
-4.91232e+007
-4.9021e+007
-4.89147e+007
-4.88043e+007
-4.86903e+007
-4.85736e+007
-4.84555e+007
-4.83383e+007
-4.82241e+007
-4.81141e+007
-4.80114e+007
-4.79197e+007
-4.78428e+007
-4.7785e+007
-4.77503e+007
-4.77425e+007
-4.77656e+007
-4.78226e+007
-4.79182e+007
-4.8061e+007
-4.82554e+007
-4.85023e+007
-4.88048e+007
-4.91584e+007
-4.9557e+007
-4.99979e+007
-5.04781e+007
-5.09927e+007
-5.15343e+007
-5.2097e+007
-5.26715e+007
-5.32485e+007
-5.38174e+007
-5.43671e+007
-5.48855e+007
-5.53608e+007
-5.57802e+007
-5.61306e+007
-5.64029e+007
-5.65918e+007
-5.66896e+007
-5.66883e+007
-5.65825e+007
-5.63691e+007
-5.60473e+007
-5.56166e+007
-5.50839e+007
-5.44344e+007
-5.36566e+007
-5.27625e+007
-5.17521e+007
-5.06412e+007
-4.94563e+007
-4.82164e+007
-4.69313e+007
-4.56112e+007
-4.42723e+007
-4.29234e+007
-4.15784e+007
-4.02493e+007
-3.89483e+007
-3.76883e+007
-3.64817e+007
-3.53413e+007
-3.42823e+007
-3.33183e+007
-3.24554e+007
-3.16941e+007
-3.10452e+007
-3.0524e+007
-3.01435e+007
-2.99165e+007
-2.98531e+007
-2.99653e+007
-3.02619e+007
-3.07568e+007
-3.15361e+007
-3.26558e+007
-3.41138e+007
-3.59622e+007
-3.81691e+007
-4.06512e+007
-4.34304e+007
-4.6505e+007
-4.98666e+007
-5.35084e+007
-5.74133e+007
-6.15583e+007
-6.59123e+007
-7.0438e+007
-7.50876e+007
-7.98086e+007
-8.45407e+007
-8.92024e+007
-9.37314e+007
-9.81058e+007
-1.02273e+008
-1.06155e+008
-1.09676e+008
-1.12762e+008
-1.15346e+008
-1.17366e+008
-1.18776e+008
-1.19533e+008
-1.19601e+008
-1.18954e+008
-1.17332e+008
-1.14554e+008
-1.10676e+008
-1.05579e+008
-9.93885e+007
-9.24088e+007
-8.46202e+007
-7.60789e+007
-6.68428e+007
-5.69701e+007
-4.65448e+007
-3.56642e+007
-2.44442e+007
-1.30163e+007
-1.52838e+006
9.85531e+006
2.09616e+007
3.15932e+007
4.15743e+007
5.08158e+007
5.92236e+007
6.66223e+007
7.28303e+007
7.7693e+007
8.10786e+007
8.28893e+007
8.30709e+007
8.16048e+007
7.84645e+007
7.37834e+007
6.69953e+007
5.77592e+007
4.63978e+007
3.28889e+007
1.77413e+007
1.73358e+006
-1.47296e+007
-3.13736e+007
-4.78497e+007
-6.38371e+007
-7.89921e+007
-9.29754e+007
-1.0546e+008
-1.16146e+008
-1.24779e+008
-1.3114e+008
-1.35111e+008
-1.3682e+008
-1.36501e+008
-1.34297e+008
-1.3038e+008
-1.2501e+008
-1.18507e+008
-1.11243e+008
-1.03632e+008
-9.60926e+007
-8.89824e+007
-8.27484e+007
-7.69703e+007
-7.15214e+007
-6.68605e+007
-6.30266e+007
-6.06656e+007
-6.05738e+007
-6.30984e+007
-6.84024e+007
-7.655e+007
-8.72561e+007
-9.9443e+007
-1.10846e+008
-1.16153e+008
-1.11417e+008
-8.179e+007
-4.54486e+007
-5.06243e+007
-5.04424e+007
-5.04025e+007
-5.03809e+007
-5.03531e+007
-5.03048e+007
-5.02369e+007
-5.01539e+007
-5.00613e+007
-4.99639e+007
-4.98647e+007
-4.97654e+007
-4.96674e+007
-4.95719e+007
-4.94786e+007
-4.93898e+007
-4.93047e+007
-4.92236e+007
-4.9147e+007
-4.90731e+007
-4.90019e+007
-4.89327e+007
-4.88652e+007
-4.87991e+007
-4.87346e+007
-4.86721e+007
-4.86122e+007
-4.85563e+007
-4.85058e+007
-4.84618e+007
-4.84265e+007
-4.84025e+007
-4.83926e+007
-4.83997e+007
-4.8427e+007
-4.84775e+007
-4.8554e+007
-4.86592e+007
-4.87964e+007
-4.89701e+007
-4.91828e+007
-4.94348e+007
-4.97267e+007
-5.00544e+007
-5.04149e+007
-5.0801e+007
-5.12117e+007
-5.16404e+007
-5.20773e+007
-5.25193e+007
-5.29559e+007
-5.33788e+007
-5.37781e+007
-5.41438e+007
-5.44658e+007
-5.47339e+007
-5.49384e+007
-5.50698e+007
-5.5121e+007
-5.50876e+007
-5.49648e+007
-5.47488e+007
-5.44376e+007
-5.40311e+007
-5.35312e+007
-5.29404e+007
-5.22648e+007
-5.1502e+007
-5.06521e+007
-4.97264e+007
-4.87325e+007
-4.76881e+007
-4.66102e+007
-4.55257e+007
-4.44447e+007
-4.3376e+007
-4.23465e+007
-4.13598e+007
-4.04329e+007
-3.95768e+007
-3.88032e+007
-3.81226e+007
-3.75447e+007
-3.70779e+007
-3.67303e+007
-3.65083e+007
-3.64138e+007
-3.64453e+007
-3.66047e+007
-3.68954e+007
-3.73196e+007
-3.78788e+007
-3.85735e+007
-3.94054e+007
-4.03765e+007
-4.14921e+007
-4.27891e+007
-4.42884e+007
-4.59893e+007
-4.78999e+007
-5.0005e+007
-5.2222e+007
-5.45635e+007
-5.70246e+007
-5.95756e+007
-6.22044e+007
-6.48868e+007
-6.7598e+007
-7.03091e+007
-7.29877e+007
-7.55972e+007
-7.80985e+007
-8.04504e+007
-8.26049e+007
-8.45229e+007
-8.61849e+007
-8.75608e+007
-8.86117e+007
-8.92997e+007
-8.95897e+007
-8.94519e+007
-8.88626e+007
-8.78064e+007
-8.62694e+007
-8.42386e+007
-8.17021e+007
-7.85511e+007
-7.47146e+007
-7.02404e+007
-6.51036e+007
-5.93972e+007
-5.34231e+007
-4.71186e+007
-4.05688e+007
-3.38771e+007
-2.71104e+007
-2.03617e+007
-1.37224e+007
-7.29154e+006
-1.17268e+006
4.52645e+006
9.69481e+006
1.42236e+007
1.80037e+007
2.09433e+007
2.29935e+007
2.41143e+007
2.42402e+007
2.33095e+007
2.12788e+007
1.81247e+007
1.38489e+007
8.48054e+006
2.07041e+006
-5.34183e+006
-1.36503e+007
-2.30418e+007
-3.3552e+007
-4.50338e+007
-5.72143e+007
-6.96675e+007
-8.20376e+007
-9.38093e+007
-1.04792e+008
-1.1463e+008
-1.23066e+008
-1.29836e+008
-1.34713e+008
-1.37503e+008
-1.38063e+008
-1.36313e+008
-1.32236e+008
-1.25916e+008
-1.17576e+008
-1.07529e+008
-9.60991e+007
-8.36507e+007
-7.06052e+007
-5.74222e+007
-4.45892e+007
-3.26021e+007
-2.19389e+007
-1.29973e+007
-6.19778e+006
-1.46732e+006
954100
905711
-1.6608e+006
-7.33169e+006
-1.6339e+007
-2.88326e+007
-4.46713e+007
-6.34318e+007
-8.41341e+007
-1.04735e+008
-1.21877e+008
-1.28578e+008
-1.21951e+008
-7.66515e+007
-4.78115e+007
-5.04712e+007
-5.03287e+007
-5.02853e+007
-5.02589e+007
-5.02289e+007
-5.01831e+007
-5.01199e+007
-5.00421e+007
-4.99543e+007
-4.98607e+007
-4.97649e+007
-4.96694e+007
-4.9576e+007
-4.94867e+007
-4.94011e+007
-4.9323e+007
-4.92493e+007
-4.91814e+007
-4.91217e+007
-4.90664e+007
-4.9017e+007
-4.89723e+007
-4.8932e+007
-4.88959e+007
-4.88637e+007
-4.88356e+007
-4.8812e+007
-4.87936e+007
-4.87812e+007
-4.87758e+007
-4.87787e+007
-4.87918e+007
-4.8817e+007
-4.88565e+007
-4.89125e+007
-4.89871e+007
-4.90824e+007
-4.92004e+007
-4.93432e+007
-4.95131e+007
-4.97115e+007
-4.99379e+007
-5.01921e+007
-5.04698e+007
-5.0772e+007
-5.10852e+007
-5.14161e+007
-5.17562e+007
-5.20899e+007
-5.24223e+007
-5.27404e+007
-5.3038e+007
-5.33069e+007
-5.35385e+007
-5.37249e+007
-5.38579e+007
-5.39301e+007
-5.39348e+007
-5.38669e+007
-5.37229e+007
-5.35002e+007
-5.31972e+007
-5.28139e+007
-5.23519e+007
-5.18143e+007
-5.12054e+007
-5.05311e+007
-4.97949e+007
-4.90019e+007
-4.81635e+007
-4.72891e+007
-4.63983e+007
-4.54942e+007
-4.46197e+007
-4.37717e+007
-4.29497e+007
-4.22047e+007
-4.15219e+007
-4.09229e+007
-4.04156e+007
-4.00094e+007
-3.97121e+007
-3.953e+007
-3.9468e+007
-3.95293e+007
-3.97157e+007
-4.00262e+007
-4.04574e+007
-4.10066e+007
-4.16715e+007
-4.24487e+007
-4.33346e+007
-4.43251e+007
-4.54169e+007
-4.66075e+007
-4.78959e+007
-4.92956e+007
-5.08072e+007
-5.24312e+007
-5.41576e+007
-5.60082e+007
-5.78434e+007
-5.97059e+007
-6.16043e+007
-6.34798e+007
-6.53258e+007
-6.71139e+007
-6.88207e+007
-7.04199e+007
-7.18845e+007
-7.31861e+007
-7.42961e+007
-7.51862e+007
-7.58277e+007
-7.61969e+007
-7.62807e+007
-7.60644e+007
-7.55321e+007
-7.467e+007
-7.34678e+007
-7.19198e+007
-7.00256e+007
-6.77903e+007
-6.5221e+007
-6.23245e+007
-5.91084e+007
-5.55421e+007
-5.16108e+007
-4.73801e+007
-4.2823e+007
-3.79732e+007
-3.33242e+007
-2.85914e+007
-2.38793e+007
-1.93523e+007
-1.50506e+007
-1.10643e+007
-7.46459e+006
-4.32608e+006
-1.7207e+006
282168
1.6169e+006
2.22458e+006
2.0541e+006
1.06695e+006
-752562
-3.40784e+006
-6.90553e+006
-1.12457e+007
-1.64153e+007
-2.23862e+007
-2.91136e+007
-3.65366e+007
-4.45806e+007
-5.31778e+007
-6.22257e+007
-7.17608e+007
-8.1631e+007
-9.19401e+007
-1.02129e+008
-1.11861e+008
-1.21278e+008
-1.29532e+008
-1.36684e+008
-1.42332e+008
-1.46294e+008
-1.48362e+008
-1.48375e+008
-1.46217e+008
-1.41825e+008
-1.35201e+008
-1.26418e+008
-1.15635e+008
-1.03105e+008
-8.91562e+007
-7.41697e+007
-5.85695e+007
-4.28262e+007
-2.74386e+007
-1.29215e+007
215173
1.1483e+007
2.04775e+007
2.67399e+007
3.03026e+007
3.04686e+007
2.74916e+007
2.14769e+007
1.14535e+007
-2.27625e+006
-1.97964e+007
-4.07657e+007
-6.45145e+007
-8.97351e+007
-1.13937e+008
-1.33322e+008
-1.39758e+008
-1.31994e+008
-7.20358e+007
-5.2012e+007
-5.02756e+007
-5.01736e+007
-5.01349e+007
-5.01119e+007
-5.00859e+007
-5.00488e+007
-4.99981e+007
-4.99355e+007
-4.98644e+007
-4.97881e+007
-4.97098e+007
-4.96318e+007
-4.95557e+007
-4.9484e+007
-4.94141e+007
-4.93534e+007
-4.9295e+007
-4.92449e+007
-4.92048e+007
-4.91664e+007
-4.91346e+007
-4.91076e+007
-4.90856e+007
-4.9068e+007
-4.90548e+007
-4.90459e+007
-4.90413e+007
-4.90416e+007
-4.90472e+007
-4.90586e+007
-4.90769e+007
-4.91031e+007
-4.91386e+007
-4.91848e+007
-4.92431e+007
-4.93151e+007
-4.94021e+007
-4.95054e+007
-4.96263e+007
-4.97659e+007
-4.99249e+007
-5.01026e+007
-5.02991e+007
-5.05097e+007
-5.07461e+007
-5.09793e+007
-5.12231e+007
-5.14678e+007
-5.16934e+007
-5.19256e+007
-5.21416e+007
-5.23383e+007
-5.25089e+007
-5.2647e+007
-5.27465e+007
-5.28017e+007
-5.28072e+007
-5.27584e+007
-5.26518e+007
-5.24852e+007
-5.2257e+007
-5.19669e+007
-5.16159e+007
-5.12059e+007
-5.07405e+007
-5.02238e+007
-4.96617e+007
-4.90591e+007
-4.84224e+007
-4.77617e+007
-4.70835e+007
-4.64092e+007
-4.57051e+007
-4.50591e+007
-4.4481e+007
-4.39084e+007
-4.34399e+007
-4.3012e+007
-4.26654e+007
-4.24032e+007
-4.22326e+007
-4.21584e+007
-4.21836e+007
-4.23099e+007
-4.25377e+007
-4.2866e+007
-4.32922e+007
-4.38122e+007
-4.4422e+007
-4.51177e+007
-4.58949e+007
-4.67492e+007
-4.76762e+007
-4.86721e+007
-4.97339e+007
-5.08587e+007
-5.20527e+007
-5.33082e+007
-5.46418e+007
-5.60664e+007
-5.76496e+007
-5.89241e+007
-6.02337e+007
-6.16207e+007
-6.2941e+007
-6.42032e+007
-6.53733e+007
-6.64302e+007
-6.73507e+007
-6.81121e+007
-6.86921e+007
-6.9069e+007
-6.92232e+007
-6.91365e+007
-6.87947e+007
-6.81904e+007
-6.73186e+007
-6.61759e+007
-6.47622e+007
-6.30814e+007
-6.11413e+007
-5.89545e+007
-5.65378e+007
-5.39105e+007
-5.10926e+007
-4.81059e+007
-4.49527e+007
-4.16271e+007
-3.82173e+007
-3.45e+007
-3.04148e+007
-2.7698e+007
-2.47487e+007
-2.17418e+007
-1.90586e+007
-1.66815e+007
-1.4701e+007
-1.31618e+007
-1.21086e+007
-1.15796e+007
-1.16082e+007
-1.22227e+007
-1.34442e+007
-1.52863e+007
-1.77548e+007
-2.08442e+007
-2.45394e+007
-2.88241e+007
-3.36781e+007
-3.9074e+007
-4.4976e+007
-5.13399e+007
-5.81132e+007
-6.52357e+007
-7.26525e+007
-8.02858e+007
-8.81806e+007
-9.60684e+007
-1.04811e+008
-1.13226e+008
-1.19663e+008
-1.26281e+008
-1.31672e+008
-1.36414e+008
-1.39801e+008
-1.41716e+008
-1.41966e+008
-1.40423e+008
-1.36995e+008
-1.31642e+008
-1.24376e+008
-1.15277e+008
-1.04495e+008
-9.22483e+007
-7.88228e+007
-6.45639e+007
-4.98633e+007
-3.51519e+007
-2.08877e+007
-7.5429e+006
4.41601e+006
1.45383e+007
2.24643e+007
2.76884e+007
3.06608e+007
2.96586e+007
2.53455e+007
1.8603e+007
7.3229e+006
-7.28796e+006
-2.55598e+007
-4.71306e+007
-7.13757e+007
-9.70899e+007
-1.21941e+008
-1.42385e+008
-1.49912e+008
-1.44422e+008
-7.58129e+007
-6.34502e+007
-5.00488e+007
-4.99846e+007
-4.99582e+007
-4.99437e+007
-4.99263e+007
-4.99023e+007
-4.98697e+007
-4.98293e+007
-4.97832e+007
-4.97336e+007
-4.96826e+007
-4.96318e+007
-4.95822e+007
-4.95365e+007
-4.94876e+007
-4.94653e+007
-4.94319e+007
-4.93819e+007
-4.93636e+007
-4.93398e+007
-4.93225e+007
-4.93086e+007
-4.92983e+007
-4.92913e+007
-4.92876e+007
-4.92868e+007
-4.92892e+007
-4.92948e+007
-4.93039e+007
-4.93168e+007
-4.9334e+007
-4.93563e+007
-4.93843e+007
-4.94188e+007
-4.94608e+007
-4.95111e+007
-4.95704e+007
-4.96397e+007
-4.97195e+007
-4.98103e+007
-4.99124e+007
-5.00252e+007
-5.01491e+007
-5.02755e+007
-5.0434e+007
-5.05006e+007
-5.06653e+007
-5.08921e+007
-5.10061e+007
-5.11484e+007
-5.12752e+007
-5.1389e+007
-5.14848e+007
-5.15587e+007
-5.16067e+007
-5.16253e+007
-5.16111e+007
-5.15613e+007
-5.14738e+007
-5.13472e+007
-5.11809e+007
-5.09749e+007
-5.07302e+007
-5.04486e+007
-5.01329e+007
-4.97865e+007
-4.94138e+007
-4.90192e+007
-4.86082e+007
-4.81884e+007
-4.77633e+007
-4.73664e+007
-4.6898e+007
-4.67405e+007
-4.63627e+007
-4.58497e+007
-4.5648e+007
-4.5433e+007
-4.52809e+007
-4.51871e+007
-4.51553e+007
-4.51868e+007
-4.52818e+007
-4.54394e+007
-4.5658e+007
-4.59353e+007
-4.62683e+007
-4.66538e+007
-4.70887e+007
-4.75703e+007
-4.80964e+007
-4.86653e+007
-4.92756e+007
-4.99268e+007
-5.06187e+007
-5.13498e+007
-5.21251e+007
-5.29258e+007
-5.37619e+007
-5.45487e+007
-5.5467e+007
-5.66354e+007
-5.74314e+007
-5.84258e+007
-5.93036e+007
-6.01378e+007
-6.08974e+007
-6.1566e+007
-6.21243e+007
-6.25534e+007
-6.28352e+007
-6.29526e+007
-6.28908e+007
-6.26374e+007
-6.21834e+007
-6.15249e+007
-6.06616e+007
-5.95964e+007
-5.83359e+007
-5.68906e+007
-5.52749e+007
-5.35068e+007
-5.16078e+007
-4.9602e+007
-4.75161e+007
-4.53822e+007
-4.32204e+007
-4.10411e+007
-3.91274e+007
-3.69331e+007
-3.51789e+007
-3.30767e+007
-3.16095e+007
-2.98984e+007
-2.87455e+007
-2.78747e+007
-2.73426e+007
-2.71526e+007
-2.73125e+007
-2.78254e+007
-2.86913e+007
-2.99063e+007
-3.14627e+007
-3.33494e+007
-3.55538e+007
-3.80606e+007
-4.08525e+007
-4.39145e+007
-4.72338e+007
-5.07978e+007
-5.45949e+007
-5.86125e+007
-6.2837e+007
-6.72521e+007
-7.18433e+007
-7.65714e+007
-8.15095e+007
-8.5961e+007
-9.22055e+007
-9.37007e+007
-9.91632e+007
-1.06653e+008
-1.09956e+008
-1.13465e+008
-1.16006e+008
-1.17602e+008
-1.18077e+008
-1.17311e+008
-1.15203e+008
-1.11689e+008
-1.06747e+008
-1.00402e+008
-9.27383e+007
-8.38901e+007
-7.40499e+007
-6.34675e+007
-5.24355e+007
-4.12846e+007
-3.03743e+007
-2.00814e+007
-1.07833e+007
-2.85302e+006
3.42139e+006
7.45175e+006
1.0723e+007
6.04222e+006
2.62764e+006
216363
-1.00981e+007
-2.26579e+007
-3.84036e+007
-5.71483e+007
-7.85207e+007
-1.01719e+008
-1.25015e+008
-1.45658e+008
-1.5593e+008
-1.55047e+008
-9.13774e+007
-8.14119e+007
-4.9801e+007
-4.97768e+007
-4.97672e+007
-4.97622e+007
-4.97559e+007
-4.97475e+007
-4.9736e+007
-4.97219e+007
-4.97058e+007
-4.96886e+007
-4.9671e+007
-4.96537e+007
-4.96373e+007
-4.96249e+007
-4.96078e+007
-4.95983e+007
-4.95823e+007
-4.95674e+007
-4.95716e+007
-4.95585e+007
-4.95524e+007
-4.95482e+007
-4.95457e+007
-4.95445e+007
-4.95444e+007
-4.95453e+007
-4.95472e+007
-4.95501e+007
-4.9554e+007
-4.95591e+007
-4.95655e+007
-4.95735e+007
-4.95833e+007
-4.95953e+007
-4.96096e+007
-4.96267e+007
-4.96469e+007
-4.96704e+007
-4.96974e+007
-4.97281e+007
-4.97622e+007
-4.97987e+007
-4.98357e+007
-4.98555e+007
-4.99335e+007
-4.99793e+007
-5.00362e+007
-5.00968e+007
-5.01174e+007
-5.0193e+007
-5.02454e+007
-5.02901e+007
-5.03268e+007
-5.03549e+007
-5.03731e+007
-5.03801e+007
-5.03745e+007
-5.03553e+007
-5.03215e+007
-5.02726e+007
-5.02084e+007
-5.01289e+007
-5.00349e+007
-4.99274e+007
-4.98078e+007
-4.96782e+007
-4.95412e+007
-4.94002e+007
-4.9259e+007
-4.91241e+007
-4.90034e+007
-4.89622e+007
-4.87043e+007
-4.8614e+007
-4.85936e+007
-4.85175e+007
-4.84962e+007
-4.84314e+007
-4.84232e+007
-4.84443e+007
-4.84891e+007
-4.85536e+007
-4.86342e+007
-4.87274e+007
-4.883e+007
-4.89392e+007
-4.90525e+007
-4.91683e+007
-4.9286e+007
-4.9406e+007
-4.953e+007
-4.96606e+007
-4.98015e+007
-4.99566e+007
-5.01281e+007
-5.03198e+007
-5.05331e+007
-5.07166e+007
-5.08104e+007
-5.14727e+007
-5.22828e+007
-5.2455e+007
-5.24397e+007
-5.32333e+007
-5.37932e+007
-5.43174e+007
-5.48059e+007
-5.52526e+007
-5.56451e+007
-5.59692e+007
-5.621e+007
-5.63539e+007
-5.6389e+007
-5.63058e+007
-5.6098e+007
-5.57633e+007
-5.53036e+007
-5.4724e+007
-5.40341e+007
-5.3247e+007
-5.23795e+007
-5.14516e+007
-5.04863e+007
-4.95098e+007
-4.85532e+007
-4.76588e+007
-4.68884e+007
-4.63292e+007
-4.67077e+007
-4.46281e+007
-4.27299e+007
-4.3985e+007
-4.54733e+007
-4.44216e+007
-4.44476e+007
-4.47714e+007
-4.53196e+007
-4.60339e+007
-4.68737e+007
-4.78024e+007
-4.87855e+007
-4.97894e+007
-5.07821e+007
-5.17349e+007
-5.26244e+007
-5.34337e+007
-5.41535e+007
-5.47845e+007
-5.53368e+007
-5.5831e+007
-5.62962e+007
-5.6768e+007
-5.72852e+007
-5.78816e+007
-5.85763e+007
-5.93351e+007
-6.00591e+007
-5.92431e+007
-6.47708e+007
-6.82623e+007
-6.81587e+007
-6.93298e+007
-7.25549e+007
-7.63304e+007
-7.92224e+007
-8.17028e+007
-8.3713e+007
-8.51637e+007
-8.5945e+007
-8.59523e+007
-8.50996e+007
-8.33302e+007
-8.06247e+007
-7.70047e+007
-7.25364e+007
-6.73362e+007
-6.1561e+007
-5.54068e+007
-4.9103e+007
-4.2907e+007
-3.70976e+007
-3.19786e+007
-2.78655e+007
-2.56446e+007
-2.26011e+007
-2.23252e+007
-2.44708e+007
-2.80018e+007
-3.39416e+007
-4.22563e+007
-5.32327e+007
-6.69886e+007
-8.35163e+007
-1.02652e+008
-1.23724e+008
-1.45556e+008
-1.63457e+008
-1.76077e+008
-1.47843e+008
-1.22712e+008
-4.95442e+007
-4.95635e+007
-4.95721e+007
-4.95761e+007
-4.95817e+007
-4.95896e+007
-4.96004e+007
-4.96139e+007
-4.96294e+007
-4.96462e+007
-4.96635e+007
-4.96807e+007
-4.96973e+007
-4.97105e+007
-4.97277e+007
-4.9738e+007
-4.97555e+007
-4.97713e+007
-4.97693e+007
-4.97845e+007
-4.97928e+007
-4.97992e+007
-4.98039e+007
-4.98071e+007
-4.98089e+007
-4.98093e+007
-4.98083e+007
-4.98058e+007
-4.98017e+007
-4.97959e+007
-4.97882e+007
-4.97784e+007
-4.97665e+007
-4.9752e+007
-4.97349e+007
-4.9715e+007
-4.96922e+007
-4.96663e+007
-4.96374e+007
-4.96056e+007
-4.95715e+007
-4.95362e+007
-4.95017e+007
-4.94869e+007
-4.94132e+007
-4.93773e+007
-4.93306e+007
-4.92796e+007
-4.92665e+007
-4.92115e+007
-4.9175e+007
-4.91471e+007
-4.91267e+007
-4.91137e+007
-4.91088e+007
-4.91124e+007
-4.9125e+007
-4.91469e+007
-4.91784e+007
-4.92197e+007
-4.92708e+007
-4.93318e+007
-4.94029e+007
-4.94841e+007
-4.95756e+007
-4.96772e+007
-4.97889e+007
-4.99109e+007
-5.00419e+007
-5.01785e+007
-5.03154e+007
-5.03892e+007
-5.06968e+007
-5.08633e+007
-5.09876e+007
-5.1174e+007
-5.13327e+007
-5.15412e+007
-5.1705e+007
-5.18423e+007
-5.19512e+007
-5.20277e+007
-5.20669e+007
-5.20638e+007
-5.20144e+007
-5.19155e+007
-5.17658e+007
-5.15656e+007
-5.13172e+007
-5.1025e+007
-5.06952e+007
-5.03363e+007
-4.99583e+007
-4.95732e+007
-4.91957e+007
-4.88422e+007
-4.85328e+007
-4.8322e+007
-4.83019e+007
-4.78044e+007