# vtk DataFile Version 2.0
track0
ASCII
DATASET POLYDATA
POINTS 11930 float
-0.0205 0.001 1e-005
-0.020385 0.00100536 1.5025e-005
-0.0202701 0.00101047 1.96653e-005
-0.020155 0.00101535 2.39737e-005
-0.02004 0.00102 2.79455e-005
-0.0198623 0.00102682 3.35529e-005
-0.0196933 0.00103276 3.80993e-005
-0.0195242 0.00103809 4.16143e-005
-0.0193551 0.00104281 4.41067e-005
-0.019186 0.00104693 4.55858e-005
-0.0190172 0.00105042 4.60601e-005
-0.0187132 0.00105594 4.60601e-005
-0.0184093 0.0010608 4.60601e-005
-0.0181054 0.00106515 4.60601e-005
-0.0178014 0.00106897 4.60601e-005
-0.0174976 0.00107226 4.60601e-005
-0.0172058 0.00107514 4.60601e-005
-0.016914 0.00107793 4.60601e-005
-0.0166222 0.00108066 4.60601e-005
-0.0163305 0.00108332 4.60601e-005
-0.0160387 0.00108591 4.60601e-005
-0.0157586 0.0010883 4.60601e-005
-0.0154784 0.00109063 4.60601e-005
-0.0151983 0.00109287 4.60601e-005
-0.0149182 0.00109503 4.60601e-005
-0.0146381 0.00109711 4.60601e-005
-0.0143692 0.00109899 4.60601e-005
-0.0141002 0.00110077 4.60601e-005
-0.0138313 0.00110247 4.60601e-005
-0.0135624 0.0011041 4.60601e-005
-0.0132934 0.00110565 4.60601e-005
-0.0130353 0.00110707 4.60601e-005
-0.0127771 0.00110842 4.60601e-005
-0.0125189 0.00110974 4.60601e-005
-0.0122607 0.00111102 4.60601e-005
-0.0120025 0.00111226 4.60601e-005
-0.0117547 0.00111342 4.60601e-005
-0.0115068 0.00111455 4.60601e-005
-0.0112589 0.00111567 4.60601e-005
-0.0110111 0.00111677 4.60601e-005
-0.0107632 0.00111785 4.60601e-005
-0.0105252 0.00111887 4.60601e-005
-0.0102873 0.00111988 4.60601e-005
-0.0100493 0.00112087 4.60601e-005
-0.00981133 0.00112185 4.60601e-005
-0.00957337 0.00112282 4.60601e-005
-0.00934491 0.00112374 4.60601e-005
-0.00911645 0.00112464 4.60601e-005
-0.00888799 0.00112554 4.60601e-005
-0.00865954 0.00112642 4.60601e-005
-0.00843108 0.0011273 4.60601e-005
-0.00821175 0.00112814 4.60601e-005
-0.00799242 0.00112896 4.60601e-005
-0.00777309 0.00112978 4.60601e-005
-0.00755376 0.00113059 4.60601e-005
-0.00733443 0.0011314 4.60601e-005
-0.00712387 0.00113217 4.60601e-005
-0.0069133 0.00113294 4.60601e-005
-0.00670273 0.0011337 4.60601e-005
-0.00649216 0.00113446 4.60601e-005
-0.0062816 0.00113521 4.60601e-005
-0.00607944 0.00113594 4.60601e-005
-0.00587729 0.00113666 4.60601e-005
-0.00567514 0.00113738 4.60601e-005
-0.00547298 0.00113809 4.60601e-005
-0.00527083 0.00113881 4.60601e-005
-0.00507675 0.0011395 4.60601e-005
-0.00488267 0.00114018 4.60601e-005
-0.0046886 0.00114086 4.60601e-005
-0.00449452 0.00114154 4.60601e-005
-0.00430044 0.00114223 4.60601e-005
-0.00411412 0.00114289 4.60601e-005
-0.0039278 0.00114354 4.60601e-005
-0.00374147 0.00114419 4.60601e-005
-0.00355515 0.00114484 4.60601e-005
-0.00336883 0.0011455 4.60601e-005
-0.00318995 0.00114613 4.60601e-005
-0.00301107 0.00114676 4.60601e-005
-0.00283219 0.00114739 4.60601e-005
-0.00265331 0.00114802 4.60601e-005
-0.00247443 0.00114865 4.60601e-005
-0.0023027 0.00114926 4.60601e-005
-0.00213097 0.00114987 4.60601e-005
-0.00195924 0.00115048 4.60601e-005
-0.0017875 0.00115109 4.60601e-005
-0.00161577 0.00115171 4.60601e-005
-0.0014509 0.00115231 4.60601e-005
-0.00128603 0.0011529 4.60601e-005
-0.00112116 0.0011535 4.60601e-005
-0.000956289 0.00115409 4.60601e-005
-0.000791418 0.0011547 4.60601e-005
-0.000633135 0.00115529 4.60601e-005
-0.000474851 0.00115588 4.60601e-005
-0.000316567 0.00115646 4.60601e-005
-0.000158284 0.00115705 4.60601e-005
0 0.00115765 4.60601e-005
0.000105677 0.00115806 4.60601e-005
0.000211355 0.00115846 4.60601e-005
0.000317032 0.00115886 4.60601e-005
0.00042271 0.00115927 4.60601e-005
0.000528387 0.00115968 4.60601e-005
0.000634886 0.00116011 4.60601e-005
0.000741385 0.00116053 4.60601e-005
0.000847885 0.00116095 4.60601e-005
0.000954384 0.00116138 4.60601e-005
0.00106088 0.00116182 4.60601e-005
0.00116821 0.00116227 4.60601e-005
0.00127554 0.00116272 4.60601e-005
0.00138286 0.00116317 4.60601e-005
0.00149019 0.00116363 4.60601e-005
0.00159752 0.00116409 4.60601e-005
0.00170568 0.00116457 4.60601e-005
0.00181384 0.00116504 4.60601e-005
0.001922 0.00116552 4.60601e-005
0.00203016 0.001166 4.60601e-005
0.00213833 0.00116648 4.60601e-005
0.00224733 0.00116697 4.60601e-005
0.00235633 0.00116746 4.60601e-005
0.00246533 0.00116796 4.60601e-005
0.00257434 0.00116845 4.60601e-005
0.00268334 0.00116895 4.60601e-005
0.00279319 0.00116945 4.60601e-005
0.00290304 0.00116995 4.60601e-005
0.00301289 0.00117046 4.60601e-005
0.00312274 0.00117097 4.60601e-005
0.00323259 0.00117148 4.60601e-005
0.00334329 0.00117199 4.60601e-005
0.003454 0.0011725 4.60601e-005
0.0035647 0.00117303 4.60601e-005
0.0036754 0.00117355 4.60601e-005
0.00378611 0.00117406 4.60601e-005
0.00389767 0.00117457 4.60601e-005
0.00400924 0.0011751 4.60601e-005
0.0041208 0.00117563 4.60601e-005
0.00423237 0.00117616 4.60601e-005
0.00434393 0.00117669 4.60601e-005
0.00445636 0.0011772 4.60601e-005
0.00456879 0.00117774 4.60601e-005
0.00468123 0.00117827 4.60601e-005
0.00479366 0.00117881 4.60601e-005
0.00490609 0.00117934 4.60601e-005
0.0050194 0.00117986 4.60601e-005
0.0051327 0.0011804 4.60601e-005
0.00524601 0.00118094 4.60601e-005
0.00535931 0.00118148 4.60601e-005
0.00547262 0.00118201 4.60601e-005
0.00558681 0.00118253 4.60601e-005
0.005701 0.00118307 4.60601e-005
0.00581518 0.00118361 4.60601e-005
0.00592937 0.00118415 4.60601e-005
0.00604356 0.00118469 4.60601e-005
0.00615863 0.00118521 4.60601e-005
0.00627371 0.00118575 4.60601e-005
0.00638878 0.00118629 4.60601e-005
0.00650386 0.00118683 4.60601e-005
0.00661893 0.00118737 4.60601e-005
0.0067349 0.0011879 4.60601e-005
0.00685087 0.00118843 4.60601e-005
0.00696684 0.00118897 4.60601e-005
0.00708281 0.00118951 4.60601e-005
0.00719878 0.00119005 4.60601e-005
0.00731565 0.00119057 4.60601e-005
0.00743252 0.00119111 4.60601e-005
0.00754939 0.00119164 4.60601e-005
0.00766626 0.00119217 4.60601e-005
0.00778313 0.00119271 4.60601e-005
0.00790091 0.00119323 4.60601e-005
0.00801869 0.00119376 4.60601e-005
0.00813647 0.00119429 4.60601e-005
0.00825425 0.00119482 4.60601e-005
0.00837203 0.00119534 4.60601e-005
0.00849073 0.00119586 4.60601e-005
0.00860942 0.00119638 4.60601e-005
0.00872812 0.00119691 4.60601e-005
0.00884682 0.00119743 4.60601e-005
0.00896551 0.00119795 4.60601e-005
0.00908513 0.00119847 4.60601e-005
0.00920475 0.00119898 4.60601e-005
0.00932437 0.0011995 4.60601e-005
0.00944398 0.00120002 4.60601e-005
0.0095636 0.00120053 4.60601e-005
0.00968415 0.00120104 4.60601e-005
0.0098047 0.00120155 4.60601e-005
0.00992525 0.00120206 4.60601e-005
0.0100458 0.00120257 4.60601e-005
0.0101663 0.00120307 4.60601e-005
0.0102878 0.00120358 4.60601e-005
0.0104093 0.00120408 4.60601e-005
0.0105308 0.00120458 4.60601e-005
0.0106523 0.00120508 4.60601e-005
0.0107738 0.00120558 4.60601e-005
0.0108962 0.00120607 4.60601e-005
0.0110186 0.00120657 4.60601e-005
0.0111411 0.00120706 4.60601e-005
0.0112635 0.00120755 4.60601e-005
0.0113859 0.00120804 4.60601e-005
0.0115093 0.00120852 4.60601e-005
0.0116327 0.00120901 4.60601e-005
0.0117561 0.00120949 4.60601e-005
0.0118795 0.00120998 4.60601e-005
0.0120028 0.00121045 4.60601e-005
0.0121272 0.00121093 4.60601e-005
0.0122515 0.0012114 4.60601e-005
0.0123759 0.00121188 4.60601e-005
0.0125002 0.00121235 4.60601e-005
0.0126245 0.00121281 4.60601e-005
0.0127498 0.00121328 4.60601e-005
0.0128752 0.00121374 4.60601e-005
0.0130005 0.0012142 4.60601e-005
0.0131258 0.00121466 4.60601e-005
0.0132511 0.00121511 4.60601e-005
0.0133774 0.00121556 4.60601e-005
0.0135036 0.00121601 4.60601e-005
0.0136299 0.00121646 4.60601e-005
0.0137562 0.00121691 4.60601e-005
0.0138825 0.00121734 4.60601e-005
0.0140098 0.00121778 4.60601e-005
0.014137 0.00121821 4.60601e-005
0.0142643 0.00121864 4.60601e-005
0.0143915 0.00121907 4.60601e-005
0.0145188 0.00121949 4.60601e-005
0.0146471 0.00121991 4.60601e-005
0.0147753 0.00122033 4.60601e-005
0.0149036 0.00122074 4.60601e-005
0.0150318 0.00122115 4.60601e-005
0.0151601 0.00122155 4.60601e-005
0.0152893 0.00122195 4.60601e-005
0.0154186 0.00122235 4.60601e-005
0.0155478 0.00122274 4.60601e-005
0.0156771 0.00122313 4.60601e-005
0.0158063 0.00122351 4.60601e-005
0.0159366 0.00122388 4.60601e-005
0.0160668 0.00122426 4.60601e-005
0.0161971 0.00122463 4.60601e-005
0.0163274 0.00122499 4.60601e-005
0.0164576 0.00122535 4.60601e-005
0.0165889 0.0012257 4.60601e-005
0.0167201 0.00122605 4.60601e-005
0.0168514 0.00122639 4.60601e-005
0.0169827 0.00122673 4.60601e-005
0.0171139 0.00122706 4.60601e-005
0.0172072 0.00122729 4.60601e-005
0.0173004 0.00122752 4.60601e-005
0.0173937 0.00122774 4.60601e-005
0.0174869 0.00122796 4.60601e-005
0.0175773 0.00122818 4.60601e-005
0.0176169 0.00122827 4.60601e-005
0.0176565 0.00122836 4.60601e-005
0.0176962 0.00122845 4.60601e-005
0.0177358 0.00122854 4.60601e-005
0.0177754 0.00122862 4.60601e-005
0.0179087 0.00122892 4.60601e-005
0.018042 0.00122921 4.60601e-005
0.0181753 0.00122949 4.60601e-005
0.0183087 0.00122977 4.60601e-005
0.018442 0.00123003 4.60601e-005
0.0185763 0.00123029 4.60601e-005
0.0187107 0.00123055 4.60601e-005
0.018845 0.00123079 4.60601e-005
0.0189794 0.00123103 4.60601e-005
0.0191137 0.00123126 4.60601e-005
0.0192491 0.00123149 4.60601e-005
0.0193845 0.0012317 4.60601e-005
0.0195199 0.00123191 4.60601e-005
0.0196553 0.00123211 4.60601e-005
0.0197907 0.0012323 4.60601e-005
0.0199272 0.00123248 4.60601e-005
0.0200636 0.00123266 4.60601e-005
0.0202001 0.00123282 4.60601e-005
0.0203365 0.00123298 4.60601e-005
0.020473 0.00123313 4.60601e-005
0.0206105 0.00123327 4.60601e-005
0.020748 0.0012334 4.60601e-005
0.0208855 0.00123352 4.60601e-005
0.021023 0.00123363 4.60601e-005
0.0211606 0.00123374 4.60601e-005
0.0212991 0.00123383 4.60601e-005
0.0214377 0.00123391 4.60601e-005
0.0215763 0.00123398 4.60601e-005
0.0217149 0.00123405 4.60601e-005
0.0218535 0.0012341 4.60601e-005
0.0219931 0.00123415 4.60601e-005
0.0221328 0.00123418 4.60601e-005
0.0222724 0.0012342 4.60601e-005
0.0224121 0.00123421 4.60601e-005
0.0225517 0.00123422 4.60601e-005
0.0226925 0.00123421 4.60601e-005
[...]
POINT_DATA 11930
 FIELD attributes 2
p 1 11930 float
-1547.38 -1534.8 -1520.99 -1507.34 -1493.84 -1473.22 -1458.56 -1443.83 -1429.02 -1414.14 -1393.39 -1345.27 -1297.22 -1249.24 -1201.33 -1158.86 -1127.22 -1101.75 -1076.3 -1050.86 -1034.04 -1022.27 -1012.78 -1003.3 -993.818 -986.195 -979.423 -971.513 -963.602 -955.69 -946.649 -938.188 -929.541 -920.889 -912.255 -903.85 -895.872 -888.683 -881.585 -874.643 -868.619 -862.847 -857.652 -852.581 -847.665 -843.343 -839.187 -835.254 -831.391 -827.616 -824.087 -820.686 -817.414 -814.194 -811.047 -808.056 -805.164 -802.395 -799.691 -797.07 -794.589 -792.177 -789.876 -787.645 -785.499 -783.473 -781.489 -779.586 -777.746 -775.98 -774.303 -772.642 -771.043 -769.5 -768.026 -766.619 -765.202 -763.832 -762.513 -761.259 -760.059 -758.824 -757.632 -756.494 -755.427 -754.411 -753.332 -752.281 -751.272 -750.336 -749.446 -748.47 -747.543 -746.704 -745.984 -745.327 -744.595 -743.923 -743.363 -742.94 -742.598 -742.087 -741.616 -741.203 -740.885 -740.639 -740.212 -739.892 -739.693 -739.614 -739.65 -739.497 -739.432 -739.449 -739.531 -739.691 -739.801 -739.898 -739.987 -740.067 -740.133 -740.403 -740.568 -740.67 -740.712 -740.64 -741.022 -741.231 -741.359 -741.403 -741.243 -741.706 -741.944 -742.102 -742.171 -741.962 -742.453 -742.677 -742.829 -742.905 -742.654 -743.106 -743.276 -743.392 -743.457 -743.188 -743.564 -743.689 -743.783 -743.849 -743.617 -743.92 -744.021 -744.109 -744.191 -744.027 -744.258 -744.338 -744.418 -744.497 -744.404 -744.559 -744.622 -744.685 -744.748 -744.715 -744.81 -744.865 -744.919 -744.974 -744.993 -745.056 -745.113 -745.17 -745.227 -745.286 -745.336 -745.397 -745.457 -745.518 -745.601 -745.65 -745.714 -745.778 -745.842 -745.934 -745.995 -746.063 -746.132 -746.201 -746.295 -746.375 -746.453 -746.53 -746.608 -746.698 -746.805 -746.895 -746.985 -747.076 -747.163 -747.297 -747.401 -747.506 -747.61 -747.697 -747.854 -747.972 -748.089 -748.207 -748.296 -748.471 -748.601 -748.731 -748.86 -748.954 -749.143 -749.285 -749.427 -749.568 -749.672 -749.871 -750.025 -750.18 -750.334 -750.453 -750.657 -750.823 -750.989 -751.154 -751.292 -751.5 -751.68 -751.86 -752.04 -752.202 -752.416 -752.612 -752.809 -753.005 -753.194 -753.35 -753.498 -753.647 -753.796 -753.94 -754.003 -754.066 -754.129 -754.193 -754.266 -754.48 -754.703 -754.927 -755.15 -755.418 -755.615 -755.852 -756.088 -756.325 -756.636 -756.821 -757.071 -757.321 -757.571 -757.921 -758.1 -758.362 -758.625 -758.888 -759.268 -759.448 -759.723 -759.999 -760.274 -760.677 -760.865 -761.153 -761.441 -761.729 -762.145 -762.35 -762.65 -762.95 -763.251 -763.671 -763.899 -764.21 -764.522 -764.834 -765.25 -765.507 -765.83 -766.152 -766.475 -766.878 -767.169 -767.502 -767.835 -768.167 -768.551 -768.881 -769.222 -769.564 -769.906 -770.265 -770.634 -770.984 -771.334 -771.683 -772.015 -772.421 -772.781 -773.138 -773.489 -773.797 -774.231 -774.606 -774.969 -775.317 -775.606 -776.062 -776.454 -776.823 -777.163 -777.439 -777.911 -778.321 -778.695 -779.025 -779.295 -779.776 -780.205 -780.585 -780.907 -781.176 -781.665 -782.113 -782.5 -782.811 -783.08 -783.575 -784.041 -784.431 -784.73 -784.999 -785.495 -785.975 -786.366 -786.651 -786.921 -787.41 -787.896 -788.286 -788.561 -788.835 -789.313 -789.792 -790.176 -790.458 -790.74 -791.206 -791.671 -792.052 -792.345 -792.638 -793.088 -793.539 -793.918 -794.223 -794.527 -794.962 -795.397 -795.773 -796.09 -796.407 -796.826 -797.245 -797.619 -797.947 -798.275 -798.679 -799.082 -799.452 -799.791 -800.129 -800.518 -800.906 -801.273 -801.62 -801.966 -802.34 -802.715 -803.078 -803.431 -803.783 -804.144 -804.505 -804.864 -805.221 -805.577 -805.926 -806.276 -806.63 -806.986 -807.343 -807.681 -808.023 -808.371 -808.723 -809.078 -809.404 -809.739 -810.08 -810.424 -810.775 -811.09 -811.417 -811.749 -812.084 -812.428 -812.731 -813.049 -813.371 -813.692 -814.026 -814.316 -814.624 -814.931 -815.239 -815.558 -815.834 -816.126 -816.418 -816.71 -817.012 -817.273 -817.547 -817.821 -818.095 -818.378 -818.621 -818.875 -819.129 -819.383 -819.643 -819.866 -820.096 -820.327 -820.558 -820.792 -820.993 -821.198 -821.403 -821.609 -821.814 -821.822 -821.829 -821.837 -821.844 -821.852 -822.023 -822.195 -822.366 -822.538 -822.708 -822.859 -823.008 -823.157 -823.305 -823.45 -823.573 -823.689 -823.805 -823.921 -824.03 -824.122 -824.203 -824.284 -824.365 -824.436 -824.495 -824.538 -824.581 -824.625 -824.653 -824.677 -824.679 -824.682 -824.682 -824.666 -824.648 -824.612 -824.571 -824.523 -824.462 -824.4 -824.324 -824.236 -824.138 -824.028 -823.919 -823.801 -823.666 -823.513 -823.353 -823.195 -823.033 -822.847 -822.636 -822.424 -822.214 -822.004 -821.764 -821.497 -821.231 -820.966 -820.702 -820.408 -820.085 -819.762 -819.441 -819.12 -818.77 -818.388 -818.006 -817.627 -817.248 -816.84 -816.397 -815.954 -815.514 -815.072 -814.601 -814.101 -813.595 -813.093 -812.579 -812.044 -811.489 -810.919 -810.352 -809.765 -809.164 -808.552 -807.917 -807.282 -806.619 -805.95 -805.281 -804.577 -803.87 -803.131 -802.392 -801.653 -800.889 -800.101 -799.29 -798.479 -797.668 -796.843 -795.971 -795.085 -794.2 -793.315 -792.427 -792.189 -791.947 -791.706 -791.464 -791.227 -790.51 -789.793 -789.076 -788.36 -787.633 -786.61 -785.576 -784.542 -783.509 -782.448 -781.362 -780.249 -779.135 -778.022 -776.864 -775.715 -774.52 -773.325 -772.122 -770.872 -769.643 -768.38 -767.102 -765.798 -764.463 -763.149 -761.82 -760.457 -759.049 -757.628 -756.227 -754.828 -753.375 -751.867 -750.358 -748.871 -747.383 -745.842 -744.244 -742.647 -741.071 -739.495 -737.862 -736.175 -734.487 -732.821 -731.143 -729.414 -727.65 -725.872 -724.114 -722.321 -720.5 -718.665 -716.795 -714.945 -713.034 -711.12 -709.205 -707.251 -705.287 -703.278 -701.269 -699.261 -697.235 -695.638 -694.022 -692.405 -690.789 -689.253 -688.753 -688.254 -687.754 -687.254 -686.748 -684.568 -682.383 -680.199 -678.014 -675.796 -673.545 -671.265 -668.986 -666.707 -664.365 -662.033 -659.668 -657.294 -654.891 -652.453 -650.027 -647.592 -645.123 -642.594 -640.061 -637.54 -635.019 -632.446 -629.818 -627.189 -624.574 -621.958 -619.285 -616.563 -613.84 -611.13 -608.395 -605.62 -602.832 -600.016 -597.213 -594.35 -591.482 -588.615 -585.719 -582.795 -579.834 -576.875 -573.916 -570.956 -570.867 -570.777 -570.687 -570.597 -570.508 -567.553 -564.599 -561.645 -558.691 -555.714 -552.596 -549.462 -546.33 -543.195 -540.017 -536.818 -533.605 -530.385 -527.138 -523.873 -520.587 -517.301 -513.989 -510.639 -507.288 -503.916 -500.545 -497.139 -493.705 -490.271 -486.816 -483.347 -479.851 -476.348 -472.833 -469.296 -465.722 -462.146 -458.57 -454.983 -452.293 -449.585 -446.877 -444.17 -441.572 -440.605 -439.638 -438.672 -437.705 -436.731 -433.01 -429.286 -425.563 -421.84 -418.083 -414.302 -410.505 -406.709 -402.896 -399.058 -395.205 -391.351 -387.483 -383.576 -379.669 -375.747 -371.826 -367.876 -363.904 -359.93 -355.942 -351.942 -347.919 -343.892 -339.856 -335.804 -331.719 -327.634 -323.55 -319.461 -317.766 -316.062 -314.358 -312.655 -310.986 -308.542 -306.098 -303.654 -301.211 -298.752 -294.562 -290.367 -286.173 -281.976 -277.747 -273.508 -269.265 -265.019 -260.748 -256.469 -252.179 -247.89 -243.583 -239.259 -234.934 -230.597 -226.254 -221.891 -217.527 -213.158 -208.777 -204.373 -199.969 -195.565 -191.159 -189.628 -188.092 -186.555 -185.019 -183.508 -180.597 -177.686 -174.776 -171.866 -168.942 -164.467 -159.99 -155.514 -151.032 -146.531 -142.024 -137.516 -133.008 -128.479 -123.95 -119.412 -114.875 -110.323 -105.767 -101.209 -96.6429 -92.0681 -87.488 -82.9083 -78.3284 -75.0122 -71.6904 -68.3689 -65.0477 -61.8324 -60.5335 -59.2346 -57.9357 -56.6369 -55.3349 -50.7168 -46.0999 -41.4835 -36.8671 -32.236 -27.6003 -22.9668 -18.3359 -13.6957 -9.05208 -4.40317 0.245151 4.89732 9.54653 14.1979 18.8552 23.5146 28.1757 32.8362 37.4927 40.5119 43.5321 46.5521 49.5719 52.5112 54.1732 55.8351 57.497 59.1588 60.8222 65.4959 70.1652 74.8342 79.5029 84.1753 88.8507 93.524 98.1889 102.853 107.519 112.188 116.857 121.522 126.178 130.834 135.494 140.149 144.802 149.455 154.106 155.062 156.016 156.97 157.924 158.871 162.565 166.259 169.953 173.647 177.337 181.981 186.615 191.245 195.87 200.494 205.119 209.744 214.356 218.955 223.557 228.159 232.753 237.342 241.929 246.509 248.628 250.741 252.853 254.965 257.043 259.506 261.97 264.433 266.895 269.352 273.91 278.456 283.001 287.537 292.069 296.598 301.127 305.639 310.134 314.633 319.128 323.613 328.089 332.564 337.029 339.085 341.13 343.176 345.221 347.238 349.645 352.053 354.46 356.867 359.265 363.695 368.111 372.526 376.929 381.326 385.716 390.106 394.477 398.829 403.183 407.531 411.862 416.185 420.508 424.826 425.828 426.824 427.819 428.815 429.804 433.102 436.4 439.698 442.994 446.275 450.54 454.796 459.044 463.271 467.498 471.713 475.929 480.118 484.298 488.475 491.829 495.164 498.496 501.829 505.1 505.922 506.744 507.566 508.387 509.204 513.316 517.422 521.527 525.624 529.705 533.771 537.837 541.882 545.905 549.93 553.939 557.93 561.91 565.89 569.866 570.603 571.336 572.067 572.799 573.528 576.737 579.946 583.155 586.36 589.545 593.445 597.342 601.22 605.071 608.923 612.759 616.582 620.385 624.187 627.975 629.294 630.604 631.911 633.218 634.521 636.967 639.413 641.858 644.299 646.723 650.434 654.136 657.824 661.478 665.132 668.768 672.393 675.987 679.581 683.15 684.549 685.938 687.324 688.71 690.102 692.25 694.398 696.547 698.69 700.82 704.317 707.787 711.229 714.58 717.929 721.257 724.621 728.091 731.563 735.092 736.556 737.743 738.842 739.942 741.065 742.856 744.648 746.439 748.12 749.422 751.628 754.365 757.442 762.084 766.839 771.477 775.419 777.844 780.272 782.445 782.561 782.704 782.887 783.07 783.254 785.107 786.961 788.816 791.175 793.863 796.792 799.705 802.487 805.268 807.991 808.472 808.942 809.395 809.847 810.306 812.547 814.787 817.025 819.191 821.309 823.891 826.473 828.955 831.428 833.844 834.416 834.975 835.51 836.044 836.595 838.437 840.277 842.114 843.881 845.601 847.843 850.083 852.158 854.159 856.106 856.753 857.371 857.939 858.507 859.11 860.354 861.595 862.833 863.989 865.08 866.683 868.28 869.679 870.87 872.051 872.69 873.243 873.694 874.143 874.65 875.067 875.483 875.897 876.254 876.545 877.15 877.642 878.023 878.06 878.088 877.98 877.671 877.127 876.577 875.93 875.801 875.628 875.432 875.236 875.032 874.072 873.1 872.116 871 869.604 867.766 865.917 863.629 860.931 858.221 855.252 851.899 848.285 844.665 840.862 839.898 838.81 837.7 836.591 835.4 831.825 828.24 824.644 820.999 816.922 811.244 805.259 799.012 792.033 784.941 777.38 769.806 761.666 753.035 744.351 735.143 724.782 714.111 703.437 692.248 687.393 682.53 677.665 672.799 667.252 659.947 652.638 645.325 638.008 630.651 616.789 601.092 585.363 568.715 549.396 529.106 509.445 491.899 477.903 464.008 449.366 434.725 407.281 367.506 327.698 286.096 253.053 236.67 228.224 231.165 233.917 177.663 120.283 62.6094 0