/*--------------------------------*- C++ -*----------------------------------*\
| =========                 |                                                 |
| \\      /  F ield         | OpenFOAM: The Open Source CFD Toolbox           |
|  \\    /   O peration     | Version:  5.x                                   |
|   \\  /    A nd           | Web:      www.OpenFOAM.org                      |
|    \\/     M anipulation  |                                                 |
\*---------------------------------------------------------------------------*/
/*   Windows 32 and 64 bit porting by blueCAPE: http://www.bluecape.com.pt   *\
|  Based on Windows porting (2.0.x v4) by Symscape: http://www.symscape.com   |
\*---------------------------------------------------------------------------*/
FoamFile
{
    version     2.0;
    format      ascii;
    class       volScalarField;
    location    "0.21";
    object      p;
}
// * * * * * * * * * * * * * * * * * * * * * * * * * * * * * * * * * * * * * //

dimensions      [0 2 -2 0 0 0 0];

internalField   nonuniform List<scalar> 
750
(
0.39926357
0.39956991
0.39925351
0.39914538
0.39888036
0.39862876
0.39833707
0.39803523
0.39772301
0.3974027
0.39707824
0.39675043
0.39641263
0.39606249
0.39570461
0.39531644
0.39487982
0.39439418
0.39378621
0.39291686
0.39201628
0.38950566
0.38835424
0.37967279
0.3757216
0.39926977
0.39956877
0.39926141
0.39914633
0.3988828
0.39863005
0.39833831
0.39803542
0.39772321
0.39740299
0.39707857
0.39675065
0.39641302
0.39606341
0.39570572
0.39531815
0.39488329
0.39439909
0.39379233
0.39293834
0.39201806
0.38959418
0.38832304
0.37990325
0.37590333
0.39927665
0.39957603
0.39926996
0.39915087
0.39888699
0.39863266
0.39834038
0.39803654
0.3977239
0.39740372
0.39707934
0.39675141
0.39641422
0.39606544
0.39570874
0.395323
0.39489142
0.39441198
0.39381309
0.39297669
0.39206917
0.38971378
0.38843621
0.38016423
0.37648564
0.3992859
0.39958913
0.39928123
0.39915821
0.39889328
0.39863635
0.39834319
0.39803857
0.39772499
0.39740482
0.39708043
0.3967526
0.39641614
0.39606835
0.39571343
0.39533053
0.39490342
0.39443152
0.39384571
0.39303066
0.39215732
0.38986711
0.38867478
0.38052046
0.37729484
0.39929825
0.39960683
0.39929625
0.39916803
0.39890167
0.39864119
0.39834679
0.39804128
0.39772644
0.39740629
0.39708182
0.39675418
0.39641866
0.39607209
0.39571957
0.39534038
0.39491889
0.3944568
0.39388831
0.39310101
0.39227673
0.3900597
0.38900532
0.38098519
0.37844217
0.3993138
0.39962911
0.39931521
0.39918024
0.39891211
0.39864718
0.39835122
0.39804451
0.39772822
0.39740812
0.39708352
0.39675608
0.39642172
0.39607665
0.395727
0.39535236
0.39493765
0.39448737
0.39393908
0.39318753
0.3924259
0.39028699
0.38943487
0.38149977
0.38020317
0.39933241
0.39965633
0.39933805
0.39919476
0.39892463
0.39865429
0.39835646
0.39804818
0.39773032
0.39741026
0.39708552
0.39675831
0.39642525
0.39608199
0.39573575
0.39536639
0.39495949
0.39452324
0.39399733
0.3932862
0.39260733
0.39054946
0.39001684
0.38214961
0.38276433
0.399354
0.39968873
0.39936476
0.3992115
0.39893936
0.39866247
0.39836241
0.39805234
0.39773281
0.39741263
0.39708782
0.39676082
0.39642917
0.39608819
0.39574583
0.39538238
0.39498429
0.39456459
0.39406383
0.39339187
0.39282222
0.39085936
0.39075907
0.38312315
0.38669254
0.39938008
0.39972409
0.39939648
0.3992303
0.39895629
0.39867176
0.39836898
0.39805686
0.39773573
0.39741513
0.39709028
0.39676356
0.39643342
0.39609517
0.39575678
0.39539992
0.3950119
0.39461086
0.3941394
0.39350901
0.39306035
0.39126206
0.39163092
0.38438184
0.39153439
0.39941627
0.3997547
0.39943727
0.39925058
0.39897449
0.3986825
0.39837592
0.39806132
0.39773897
0.39741754
0.39709277
0.39676637
0.39643773
0.39610255
0.39576804
0.39541816
0.39504133
0.39465872
0.39421996
0.39364413
0.39326825
0.39179329
0.39243516
0.38615226
0.39648989
0.35418295
0.34332001
0.32717213
0.31332297
0.29853391
0.28404023
0.2694164
0.25485558
0.24028451
0.22572248
0.21115876
0.19659605
0.18203316
0.1674705
0.15290785
0.1383452
0.12378255
0.10921989
0.09465724
0.080094587
0.065531933
0.05096928
0.036406625
0.021843975
0.0072813213
0.35405262
0.3431667
0.32712763
0.31327579
0.29850445
0.28401811
0.26941238
0.25485275
0.24028438
0.22572249
0.21115887
0.19659594
0.18203313
0.16747049
0.15290784
0.1383452
0.12378255
0.10921989
0.09465724
0.080094587
0.065531933
0.05096928
0.036406625
0.021843975
0.0072813213
0.3536769
0.343213
0.32692548
0.31321559
0.29845811
0.28399008
0.26940268
0.25485028
0.24028419
0.22572231
0.21115888
0.19659587
0.18203311
0.16747048
0.15290784
0.1383452
0.12378255
0.10921989
0.09465724
0.080094587
0.065531933
0.05096928
0.036406625
0.021843974
0.0072813213
0.35314659
0.34336307
0.3266497
0.3131387
0.29843272
0.28397211
0.26939844
0.25484896
0.24028426
0.22572219
0.21115882
0.19659583
0.18203309
0.16747047
0.15290784
0.1383452
0.12378255
0.10921989
0.09465724
0.080094587
0.065531933
0.05096928
0.036406626
0.021843974
0.0072813214
0.35262563
0.34336099
0.32651257
0.31302839
0.29840114
0.28396373
0.26939597
0.25484828
0.2402845
0.22572214
0.2111587
0.1965958
0.18203308
0.16747048
0.15290785
0.13834521
0.12378255
0.10921989
0.094657239
0.080094587
0.065531933
0.05096928
0.036406626
0.021843973
0.0072813218
0.35199704
0.3433245
0.3264241
0.3129294
0.29835499
0.28395596
0.2693941
0.25484796
0.24028467
0.22572203
0.21115853
0.19659576
0.18203306
0.16747048
0.15290785
0.13834521
0.12378255
0.10921989
0.094657239
0.080094587
0.065531933
0.05096928
0.036406626
0.021843972
0.0072813224
0.35114507
0.34337201
0.32623101
0.31286795
0.29832013
0.28395208
0.26939328
0.25484876
0.24028456
0.22572184
0.21115833
0.19659571
0.18203306
0.16747049
0.15290786
0.13834521
0.12378255
0.10921989
0.09465724
0.080094587
0.065531933
0.05096928
0.036406626
0.021843971
0.0072813226
0.35048921
0.34331384
0.32601216
0.31284346
0.29829792
0.28395269
0.26939347
0.25485064
0.24028433
0.22572156
0.21115812
0.19659564
0.18203307
0.16747051
0.15290786
0.13834521
0.12378255
0.10921989
0.09465724
0.080094587
0.065531933
0.050969279
0.036406626
0.02184397
0.0072813223
0.34942951
0.34325391
0.32591409
0.31285449
0.29829255
0.2839572
0.26939498
0.25485256
0.24028425
0.22572124
0.21115792
0.19659557
0.18203309
0.16747052
0.15290787
0.1383452
0.12378255
0.10921989
0.09465724
0.080094587
0.065531933
0.050969279
0.036406625
0.021843969
0.0072813218
0.34523152
0.34379595
0.32590002
0.31292847
0.29826853
0.28396335
0.26939434
0.25485401
0.24028427
0.22572128
0.21115781
0.19659554
0.18203309
0.16747053
0.15290787
0.1383452
0.12378254
0.10921989
0.09465724
0.080094587
0.065531933
0.050969279
0.036406625
0.02184397
0.0072813224
0.39951318
0.39980577
0.39953711
0.3992949
0.39901136
0.39870591
0.39839003
0.39806979
0.39774531
0.39742181
0.39709722
0.39677181
0.39644657
0.39611729
0.39578999
0.39545506
0.39510189
0.39475248
0.39438046
0.3939347
0.39360337
0.39294711
0.39371386
0.39118631
0.40951171
0.39965995
0.39998686
0.39968761
0.39939266
0.39907837
0.39874892
0.39841675
0.39808686
0.39775699
0.39742958
0.39710474
0.39678326
0.3964646
0.39614331
0.39582621
0.39551896
0.39520317
0.39489533
0.39461306
0.39429348
0.39406595
0.39377201
0.39404209
0.3925584
0.39851918
0.39986555
0.40023471
0.39986131
0.39950807
0.39915258
0.39879428
0.39844394
0.39810206
0.39776683
0.39743658
0.39711225
0.39679304
0.39647956
0.39617005
0.39586291
0.3955756
0.39529899
0.3950291
0.39481228
0.39460311
0.39449405
0.39444763
0.39477983
0.39475689
0.39744379
0.40017216
0.40053366
0.40006063
0.39963328
0.39922711
0.39883723
0.39846904
0.39811332
0.39777308
0.39744116
0.39711698
0.39679934
0.39648939
0.39618996
0.39589686
0.39561942
0.3953723
0.39514064
0.39496587
0.39483107
0.39478588
0.39485325
0.39519453
0.39566737
0.39663715
0.40064083
0.40087063
0.40028399
0.39976068
0.39929495
0.39887115
0.39848733
0.39812047
0.39777428
0.39744073
0.39711636
0.39680081
0.39649394
0.39619826
0.3959172
0.39564938
0.39541575
0.39521263
0.39506168
0.3949745
0.39496873
0.39508685
0.39542992
0.3960182
0.39638648
0.40137088
0.40122499
0.4005201
0.39987737
0.39934976
0.39889407
0.3984928
0.3981202
0.39776926
0.39743481
0.39711055
0.39679579
0.39649085
0.39619644
0.39591817
0.39565784
0.39542703
0.39523558
0.39509406
0.395023
0.39503272
0.39516628
0.39546371
0.39603008
0.39619622
0.40248694
0.40156788
0.40072638
0.39996241
0.39937668
0.39889877
0.39848347
0.3981091
0.39775774
0.39742309
0.39709894
0.39678393
0.39647797
0.39618262
0.39590117
0.39563945
0.39540431
0.39520825
0.39506131
0.39498357
0.39499156
0.3951128
0.39536657
0.39587809
0.39598708
0.40436901
0.40174079
0.40084163
0.39997101
0.39935197
0.39887035
0.39845679
0.39808608
0.3977383
0.39740511
0.39708123
0.39676491
0.39645595
0.39615574
0.39586706
0.39559516
0.39534695
0.39513316
0.39496604
0.39486432
0.39485188
0.39495051
0.39517866
0.39563692
0.39575371
0.40789952
0.40145085
0.40083365
0.39984708
0.39924394
0.39878816
0.39839993
0.39804472
0.39770648
0.39737795
0.39705513
0.39673677
0.39642268
0.39611351
0.39581192
0.39552157
0.39524878
0.39500284
0.39479734
0.39465312
0.39460036
0.39467594
0.3949001
0.39533499
0.39549843
0.40948884
0.4004441
0.4012673
0.39991013
0.39930174
0.3988084
0.39840586
0.39804404
0.39770338
0.39737367
0.39705001
0.39673066
0.39641505
0.39610372
0.39579908
0.39550445
0.39522568
0.39497169
0.39475538
0.39459852
0.39453127
0.39459448
0.39479301
0.39519407
0.39538525
)
;

boundaryField
{
    inlet
    {
        type            zeroGradient;
    }
    walls
    {
        type            zeroGradient;
    }
    outlet
    {
        type            fixedValue;
        value           uniform 0;
    }
    centreline
    {
        type            symmetryPlane;
    }
    frontAndBack
    {
        type            empty;
    }
}


// ************************************************************************* //
