/*--------------------------------*- C++ -*----------------------------------*\
| =========                 |                                                 |
| \\      /  F ield         | OpenFOAM: The Open Source CFD Toolbox           |
|  \\    /   O peration     | Version:  5.x                                   |
|   \\  /    A nd           | Web:      www.OpenFOAM.org                      |
|    \\/     M anipulation  |                                                 |
\*---------------------------------------------------------------------------*/
/*   Windows 32 and 64 bit porting by blueCAPE: http://www.bluecape.com.pt   *\
|  Based on Windows porting (2.0.x v4) by Symscape: http://www.symscape.com   |
\*---------------------------------------------------------------------------*/
FoamFile
{
    version     2.0;
    format      ascii;
    class       surfaceScalarField;
    location    "0.21";
    object      phi;
}
// * * * * * * * * * * * * * * * * * * * * * * * * * * * * * * * * * * * * * //

dimensions      [0 3 -1 0 0 0 0];

internalField   nonuniform List<scalar> 
1430
(
5.1522024e-006
-1.5092207e-007
5.3425585e-006
-1.9035607e-007
5.5313885e-006
-1.8882991e-007
5.6954259e-006
-1.6403734e-007
5.8333841e-006
-1.3795821e-007
5.9426765e-006
-1.0929236e-007
6.0288079e-006
-8.6131333e-008
6.097101e-006
-6.8293119e-008
6.1536522e-006
-5.6551156e-008
6.2048181e-006
-5.1165894e-008
6.2567945e-006
-5.1976452e-008
6.3161409e-006
-5.9346422e-008
6.390794e-006
-7.4653069e-008
6.4914178e-006
-1.0062381e-007
6.6331671e-006
-1.4174933e-007
6.8374608e-006
-2.0429364e-007
7.139315e-006
-3.0185416e-007
7.596228e-006
-4.5691303e-007
8.2950505e-006
-6.9882243e-007
9.3759203e-006
-1.0808698e-006
1.0986125e-005
-1.6102043e-006
1.3383087e-005
-2.3969628e-006
1.6683464e-005
-3.3003767e-006
2.0930835e-005
-4.2473712e-006
-4.8348679e-006
2.5765703e-005
5.1511245e-006
-3.0076622e-007
5.3452814e-006
-3.8451294e-007
5.5324967e-006
-3.7604506e-007
5.697607e-006
-3.2914764e-007
5.835005e-006
-2.7535619e-007
5.9441719e-006
-2.1845919e-007
6.029908e-006
-1.7186737e-007
6.0977923e-006
-1.3617739e-007
6.1539742e-006
-1.1273306e-007
6.2047674e-006
-1.0195916e-007
6.2563055e-006
-1.0351453e-007
6.3151189e-006
-1.1815986e-007
6.3890807e-006
-1.4861487e-007
6.4886889e-006
-2.0023203e-007
6.6289922e-006
-2.8205257e-007
6.8311071e-006
-4.0640856e-007
7.129333e-006
-6.0007994e-007
7.5802895e-006
-9.0786946e-007
8.2697295e-006
-1.3882624e-006
9.3308118e-006
-2.141952e-006
1.0921373e-005
-3.200766e-006
1.3255878e-005
-4.7314671e-006
1.652452e-005
-6.5690189e-006
2.0648894e-005
-8.3717459e-006
-9.6843712e-006
2.5498397e-005
5.1524254e-006
-4.5191134e-007
5.3477349e-006
-5.7982235e-007
5.5361149e-006
-5.6442509e-007
5.7014371e-006
-4.9446982e-007
5.8385725e-006
-4.1249165e-007
5.9471466e-006
-3.2703323e-007
6.0321495e-006
-2.5687026e-007
6.0992601e-006
-2.0328806e-007
6.1547103e-006
-1.6818328e-007
6.2047562e-006
-1.5200502e-007
6.2554429e-006
-1.5420129e-007
6.3131865e-006
-1.7590346e-007
6.3857388e-006
-2.2116716e-007
6.4834113e-006
-2.9790461e-007
6.6208214e-006
-4.1946261e-007
6.8185057e-006
-6.0409288e-007
7.1096903e-006
-8.912645e-007
7.5488832e-006
-1.3470623e-006
8.2184068e-006
-2.057786e-006
9.246349e-006
-3.1698941e-006
1.0781499e-005
-4.7359163e-006
1.3033264e-005
-6.9832322e-006
1.617152e-005
-9.7072746e-006
2.0158e-005
-1.2358226e-005
-1.4381865e-005
2.4855494e-005
5.1544019e-006
-6.0503289e-007
5.3516708e-006
-7.7709128e-007
5.5416939e-006
-7.5444822e-007
5.7073825e-006
-6.6015836e-007
5.8441278e-006
-5.4923696e-007
5.9517763e-006
-4.3468174e-007
6.0356333e-006
-3.4072732e-007
6.1016222e-006
-2.692769e-007
6.1559831e-006
-2.2254426e-007
6.204895e-006
-2.0091689e-007
6.2543069e-006
-2.036132e-007
6.3104694e-006
-2.3206599e-007
6.3809281e-006
-2.9162586e-007
6.4757063e-006
-3.9268286e-007
6.6088369e-006
-5.5259316e-007
6.7999727e-006
-7.9522869e-007
7.0807356e-006
-1.1720273e-006
7.5026953e-006
-1.769022e-006
8.1430075e-006
-2.6980982e-006
9.1216353e-006
-4.1485219e-006
1.0575912e-005
-6.1901926e-006
1.2703253e-005
-9.1105735e-006
1.5645424e-005
-1.2649445e-005
1.9415918e-005
-1.612872e-005
-1.882994e-005
2.3863993e-005
5.1572366e-006
-7.6098919e-007
5.3572205e-006
-9.770751e-007
5.5494512e-006
-9.4667899e-007
5.7156168e-006
-8.263239e-007
5.8518272e-006
-6.8544737e-007
5.9582015e-006
-5.4105601e-007
6.0405042e-006
-4.2303006e-007
6.1050115e-006
-3.337842e-007
6.1579208e-006
-2.7545359e-007
6.2053129e-006
-2.4830903e-007
6.2530372e-006
-2.513375e-007
6.3071282e-006
-2.8615701e-007
6.3748307e-006
-3.5932832e-007
6.4658016e-006
-4.8365383e-007
6.5933357e-006
-6.8012729e-007
6.7759235e-006
-9.7781645e-007
7.0431124e-006
-1.4392162e-006
7.4427382e-006
-2.1686478e-006
8.044993e-006
-3.300353e-006
8.9597685e-006
-5.0632973e-006
1.0307353e-005
-7.5377767e-006
1.2268847e-005
-1.1072068e-005
1.4954285e-005
-1.5334883e-005
1.8432479e-005
-1.9606914e-005
-2.2910925e-005
2.2513463e-005
5.161116e-006
-9.2082489e-007
5.3645913e-006
-1.1805504e-006
5.5596295e-006
-1.1417171e-006
5.7263608e-006
-9.9305523e-007
5.8618488e-006
-8.2093532e-007
5.9665832e-006
-6.4579046e-007
6.0469265e-006
-5.0337338e-007
6.109575e-006
-3.964327e-007
6.1606696e-006
-3.2654815e-007
6.2061598e-006
-2.9379931e-007
6.2517876e-006
-2.9696528e-007
6.3033422e-006
-3.3771163e-007
6.367659e-006
-4.2364517e-007
6.4539557e-006
-5.6995049e-007
6.5746279e-006
-8.0079949e-007
6.7467699e-006
-1.1499584e-006
6.997424e-006
-1.6898702e-006
7.3700442e-006
-2.541268e-006
7.9264539e-006
-3.8567627e-006
8.763835e-006
-5.9006784e-006
9.9799172e-006
-8.7538589e-006
1.173743e-005
-1.2829581e-005
1.4099263e-005
-1.7696715e-005
1.719745e-005
-2.2705101e-005
-2.6537187e-005
2.0823712e-005
5.1662549e-006
-1.0857995e-006
5.3740195e-006
-1.3883149e-006
5.5724668e-006
-1.3401645e-006
5.7398251e-006
-1.1604135e-006
5.8743523e-006
-9.5546247e-007
5.9770627e-006
-7.4850088e-007
6.0550442e-006
-5.8135497e-007
6.1154307e-006
-4.5681915e-007
6.1643486e-006
-3.7546608e-007
6.2075554e-006
-3.3700617e-007
6.2506875e-006
-3.4009733e-007
6.2992706e-006
-3.8629479e-007
6.3596108e-006
-4.8398537e-007
6.4404172e-006
-6.5075688e-007
6.5530344e-006
-9.1341673e-007
6.7129924e-006
-1.3099164e-006
6.9444628e-006
-1.9213406e-006
7.2859268e-006
-2.882732e-006
7.7897574e-006
-4.3605933e-006
8.5373532e-006
-6.6482742e-006
9.5995884e-006
-9.816094e-006
1.1114962e-005
-1.4344955e-005
1.307645e-005
-1.9658203e-005
1.5737766e-005
-2.5366417e-005
-2.9545114e-005
1.8745693e-005
5.1729159e-006
-1.2574351e-006
5.3857082e-006
-1.6011072e-006
5.5881547e-006
-1.542611e-006
5.7561548e-006
-1.3284136e-006
5.8894106e-006
-1.0887183e-006
5.9896961e-006
-8.4878639e-007
6.0649152e-006
-6.5657404e-007
6.122626e-006
-5.1452994e-007
6.1690041e-006
-4.2184426e-007
6.2095498e-006
-3.7755189e-007
6.2497871e-006
-3.803346e-007
6.2950058e-006
-4.3151354e-007
6.3508463e-006
-5.3982581e-007
6.425395e-006
-7.253056e-007
6.5288628e-006
-1.0168845e-006
6.6750911e-006
-1.4561447e-006
6.8850664e-006
-2.1313159e-006
7.191758e-006
-3.1894235e-006
7.6373441e-006
-4.8061793e-006
8.2846072e-006
-7.2955373e-006
9.1733855e-006
-1.0704872e-005
1.0412105e-005
-1.5583674e-005
1.1932183e-005
-2.1178282e-005
1.4108844e-005
-2.7543078e-005
-3.1591034e-005
1.6154764e-005
5.1814447e-006
-1.4375994e-006
5.3997652e-006
-1.8194276e-006
5.6068281e-006
-1.7496738e-006
5.7753802e-006
-1.4969657e-006
5.906967e-006
-1.220305e-006
6.0044184e-006
-9.4623784e-007
6.0764631e-006
-7.2861863e-007
6.1310904e-006
-5.6915729e-007
6.1745464e-006
-4.6530024e-007
6.2120654e-006
-4.1507087e-007
6.2490471e-006
-4.1731631e-007
6.2905199e-006
-4.7298637e-007
6.3414048e-006
-5.907107e-007
6.4090332e-006
-7.9293398e-007
6.5023783e-006
-1.1102296e-006
6.6334928e-006
-1.5872591e-006
6.8200919e-006
-2.317915e-006
7.0890778e-006
-3.4584094e-006
7.4713325e-006
-5.188434e-006
8.0110281e-006
-7.8352329e-006
8.7118241e-006
-1.1405668e-005
9.6497591e-006
-1.6521609e-005
1.068492e-005
-2.2213443e-005
1.2323397e-005
-2.9181555e-005
-3.2282546e-005
1.3014909e-005
5.1909171e-006
-1.6272361e-006
5.4172166e-006
-2.045727e-006
5.6282547e-006
-1.9607118e-006
5.7974685e-006
-1.6661795e-006
5.9267312e-006
-1.3495675e-006
6.0209604e-006
-1.040467e-006
6.0894439e-006
-7.9710206e-007
6.1405746e-006
-6.2028794e-007
6.1806847e-006
-5.0541031e-007
6.2148818e-006
-4.4926801e-007
6.2482568e-006
-4.5069131e-007
6.2855814e-006
-5.1031098e-007
6.3311562e-006
-6.3628541e-007
6.3913053e-006
-8.5308315e-007
6.4736707e-006
-1.192595e-006
6.5884385e-006
-1.702027e-006
6.7501009e-006
-2.4795773e-006
6.9789895e-006
-3.6872979e-006
7.2947521e-006
-5.5041966e-006
7.7220277e-006
-8.2625085e-006
8.2360982e-006
-1.1919739e-005
8.8371951e-006
-1.7122706e-005
9.3319924e-006
-2.270824e-005
1.0113019e-005
-2.9962582e-005
8.8150855e-006
-3.0984613e-005
2.8459272e-005
-2.6935692e-006
2.946455e-005
-1.0052782e-006
2.9721429e-005
-2.5687882e-007
2.979945e-005
-7.8020871e-008
2.9832241e-005
-3.2790516e-008
2.9841717e-005
-9.4756177e-009
2.9842423e-005
-7.0640193e-010
2.9839344e-005
3.0788668e-009
2.9836561e-005
2.7837097e-009
2.9835348e-005
1.2121762e-009
2.9835366e-005
-1.7460086e-011
2.9835659e-005
-2.9368209e-010
2.9835792e-005
-1.3274315e-010
2.9835785e-005
6.8751606e-012
2.9835754e-005
3.1017449e-011
2.983574e-005
1.4009486e-011
2.9835739e-005
9.3609334e-013
2.9835741e-005
-1.8308698e-012
2.9835742e-005
-7.3829644e-013
2.9835742e-005
8.9205728e-014
2.9835742e-005
1.3191555e-013
2.9835742e-005
-9.5584843e-014
2.9835742e-005
-1.3211116e-013
2.9835741e-005
9.8426567e-013
1.1826325e-012
2.796768e-005
-5.1628513e-006
2.8922386e-005
-1.9599843e-006
2.9141299e-005
-4.7579136e-007
2.9213141e-005
-1.4986341e-007
2.9234606e-005
-5.4255643e-008
2.9241771e-005
-1.66397e-008
2.9241084e-005
-1.9985403e-011
2.9237819e-005
6.3445061e-009
2.9235088e-005
5.5142004e-009
2.9234102e-005
2.19849e-009
2.9234188e-005
-1.0321175e-010
2.9234468e-005
-5.7439218e-010
2.9234579e-005
-2.4381054e-010
2.923457e-005
1.6148971e-011
2.9234541e-005
5.9640593e-011
2.923453e-005
2.5801445e-011
2.9234529e-005
1.1196318e-012
2.9234531e-005
-3.5692673e-012
2.9234532e-005
-1.3570508e-012
2.9234532e-005
1.5805956e-013
2.9234532e-005
1.8684795e-013
2.9234532e-005
-2.3936411e-013
2.9234532e-005
-2.3645247e-013
2.923453e-005
2.1268466e-012
2.5998335e-012
2.7025513e-005
-7.3328706e-006
2.781799e-005
-2.7524611e-006
2.7991013e-005
-6.4881481e-007
2.8025153e-005
-1.8400284e-007
2.8033866e-005
-6.2969242e-008
2.8039586e-005
-2.2359164e-008
2.8037966e-005
1.5995651e-009
2.8034491e-005
9.81948e-009
2.803222e-005
7.7855184e-009
2.8031645e-005
2.773945e-009
2.8031844e-005
-3.0248802e-010
2.8032083e-005
-8.1384514e-010
2.8032156e-005
-3.1670579e-010
2.8032142e-005
3.0833337e-011
2.8032119e-005
8.2504784e-011
2.8032111e-005
3.3200952e-011
2.8032112e-005
2.4790489e-013
2.8032114e-005
-5.0052559e-012
2.8032114e-005
-1.7197695e-012
2.8032114e-005
2.561438e-013
2.8032114e-005
2.2599739e-013
2.8032114e-005
-3.5723316e-013
2.8032114e-005
-2.6248135e-013
2.8032112e-005
3.4039877e-012
4.0378734e-012
2.5611108e-005
-9.0799853e-006
2.6162985e-005
-3.3043382e-006
2.6236043e-005
-7.2187246e-007
2.6233972e-005
-1.8193194e-007
2.6234457e-005
-6.3453819e-008
2.6236768e-005
-2.4670745e-008
2.6233532e-005
4.8357752e-009
2.6230473e-005
1.287817e-008
2.6229132e-005
9.1267127e-009
2.6229094e-005
2.8116954e-009
2.6229367e-005
-5.7540082e-010
2.6229518e-005
-9.6422144e-010
2.6229537e-005
-3.3624602e-010
2.6229517e-005
5.0698706e-011
2.6229504e-005
9.5765777e-011
2.6229502e-005
3.4792629e-011
2.6229504e-005
-1.4722218e-012
2.6229505e-005
-5.8639824e-012
2.6229505e-005
-1.7355661e-012
2.6229505e-005
3.6834207e-013
2.6229505e-005
2.2768061e-013
2.6229505e-005
-4.6786481e-013
2.6229505e-005
-2.5933429e-013
2.6229504e-005
4.5587545e-012
5.2336523e-012
2.3704026e-005
-1.0270548e-005
2.3911055e-005
-3.5113676e-006
2.3860531e-005
-6.7134781e-007
2.3846316e-005
-1.6771748e-007
2.3839549e-005
-5.6686944e-008
2.3835274e-005
-2.0395111e-008
2.3831274e-005
8.8351129e-009
2.3829737e-005
1.4415977e-008
2.382974e-005
9.1234795e-009
2.3830218e-005
2.3334203e-009
2.3830456e-005
-8.1339462e-010
2.3830469e-005
-9.7755347e-010
2.383043e-005
-2.9704782e-010
2.3830411e-005
6.9843731e-011
2.3830411e-005
9.5869097e-011
2.3830415e-005
3.0505923e-011
2.3830417e-005
-3.3736925e-012
2.3830417e-005
-5.8956389e-012
2.3830417e-005
-1.4205388e-012
2.3830417e-005
4.4431452e-013
2.3830417e-005
1.6289032e-013
2.3830417e-005
-5.5574557e-013
2.3830417e-005
-2.5285758e-013
2.3830416e-005
5.2296274e-012
5.8702726e-012
2.1246084e-005
-1.069292e-005
2.1019878e-005
-3.2851619e-006
2.0888307e-005
-5.3977677e-007
2.0864727e-005
-1.4413708e-007
2.0849513e-005
-4.1472901e-008
2.0841482e-005
-1.2364283e-008
2.0839151e-005
1.116632e-008
2.0840075e-005
1.3491311e-008
2.0841498e-005
7.7013708e-009
2.0842295e-005
1.5359052e-009
2.0842376e-005
-8.94233e-010
2.0842235e-005
-8.3706464e-010
2.0842152e-005
-2.1353402e-010
2.0842143e-005
7.8481982e-011
2.0842157e-005
8.1884942e-011
2.0842166e-005
2.2086638e-011
2.0842167e-005
-4.5593292e-012
2.0842166e-005
-5.031668e-012
2.0842166e-005
-9.2701511e-013
2.0842166e-005
4.3837434e-013
2.0842166e-005
5.3369424e-014
2.0842166e-005
-5.7346742e-013
2.0842165e-005
-2.3616728e-013
2.0842166e-005
5.0683969e-012
5.6483355e-012
1.8136264e-005
-1.0083492e-005
1.7498055e-005
-2.6469524e-006
1.7334114e-005
-3.7583671e-007
1.7296024e-005
-1.0604636e-007
1.7275469e-005
-2.0918057e-008
1.7267771e-005
-4.666797e-009
1.7268561e-005
1.0376465e-008
1.7271902e-005
1.0150617e-008
1.7274322e-005
5.2818548e-009
1.7275122e-005
7.3511891e-010
1.7274983e-005
-7.5535046e-010
1.7274728e-005
-5.8163049e-010
1.7274632e-005
-1.1757868e-010
1.7274641e-005
6.9385091e-011
1.7274666e-005
5.7297915e-011
1.7274675e-005
1.2542844e-011
1.7274675e-005
-4.4004536e-012
1.7274674e-005
-3.5074851e-012
1.7274673e-005
-4.4562505e-013
1.7274673e-005
3.4934029e-013
1.7274673e-005
-4.9810574e-014
1.7274673e-005
-5.0218811e-013
1.7274673e-005
-2.3092702e-013
1.7274674e-005
3.9732713e-012
4.484018e-012
1.4274883e-005
-8.20361e-006
1.3365132e-005
-1.7372018e-006
1.3196204e-005
-2.0690868e-007
1.3148375e-005
-5.8217238e-008
1.3131554e-005
-4.0974649e-009
1.3127258e-005
-3.7019849e-010
1.3130892e-005
6.7425058e-009
1.3135491e-005
5.5516158e-009
1.3138105e-005
2.6679126e-009
1.3138644e-005
1.9579262e-010
1.3138342e-005
-4.5315818e-010
1.3138057e-005
-2.9650833e-010
1.3137981e-005
-4.2036353e-011
1.3138006e-005
4.4128682e-011
1.3138034e-005
2.9641187e-011
1.3138042e-005
4.8763124e-012
1.313804e-005
-2.9368804e-012
1.3138039e-005
-1.805554e-012
1.3138038e-005
-1.2301434e-013
1.3138038e-005
1.9898965e-013
1.3138038e-005
-9.5107371e-014
1.3138038e-005
-3.439286e-013
1.3138038e-005
-2.2439486e-013
1.313804e-005
2.2488967e-012
2.6519991e-012
9.6413528e-006
-4.830054e-006
8.6257113e-006
-7.2156029e-007
8.4775251e-006
-5.8722487e-008
8.4383226e-006
-1.9014734e-008
8.4316678e-006
2.5572811e-009
8.4312123e-006
8.5313525e-011
8.4355987e-006
2.3561511e-009
8.4395935e-006
1.5567755e-009
8.4415365e-006
7.2490877e-010
8.4417417e-006
-9.3304992e-012
8.441429e-006
-1.4051707e-010
8.4412119e-006
-7.9394041e-011
8.4411746e-006
-4.7242972e-012
8.4412037e-006
1.5009987e-011
8.4412252e-006
8.1660398e-012
8.4412293e-006
7.8648558e-013
8.4412274e-006
-1.0335022e-012
8.4412261e-006
-4.8895742e-013
8.441226e-006
5.97104e-015
8.4412261e-006
6.041306e-014
8.4412259e-006
-6.6575958e-014
8.4412257e-006
-1.5340926e-013
8.4412256e-006
-1.6206405e-013
8.4412271e-006
6.4297588e-013
8.5547724e-013
3.9850313e-006
3.2634711e-006
3.2047486e-006
3.1857338e-006
3.1882911e-006
3.1883764e-006
3.1907325e-006
3.1922893e-006
3.1930142e-006
3.1930049e-006
3.1928644e-006
3.192785e-006
3.1927803e-006
3.1927953e-006
3.1928035e-006
3.1928043e-006
3.1928032e-006
3.1928027e-006
3.1928027e-006
3.1928027e-006
3.1928026e-006
3.1928024e-006
3.1928022e-006
3.1928029e-006
1.5618211e-005
-2.2416062e-006
1.6389085e-005
-2.8166005e-006
1.7029303e-005
-2.60093e-006
1.7539002e-005
-2.1758783e-006
1.7909399e-005
-1.719964e-006
1.8169868e-005
-1.3009361e-006
1.8351024e-005
-9.782577e-007
1.8480839e-005
-7.5010238e-007
1.8578658e-005
-6.0322977e-007
1.8659872e-005
-5.3048185e-007
1.8736728e-005
-5.2754736e-007
1.8821117e-005
-5.9470015e-007
1.8923897e-005
-7.3906537e-007
1.9055969e-005
-9.8515518e-007
1.9233376e-005
-1.3700021e-006
1.9475526e-005
-1.9441763e-006
1.9801488e-005
-2.8055397e-006
2.0238177e-005
-4.1239868e-006
2.07926e-005
-6.0586196e-006
2.1399536e-005
-8.869444e-006
2.1943683e-005
-1.2463886e-005
2.1748076e-005
-1.69271e-005
2.0050826e-005
-2.101099e-005
1.4734679e-005
-2.4646435e-005
-1.6249935e-005
1.5766673e-005
-3.0044385e-006
1.6630184e-005
-3.6801116e-006
1.7303008e-005
-3.2737535e-006
1.7790357e-005
-2.6632277e-006
1.8117482e-005
-2.0470887e-006
1.8327707e-005
-1.5111605e-006
1.8457915e-005
-1.108466e-006
1.8540967e-005
-8.3315477e-007
1.8597274e-005
-6.5953715e-007
1.8639579e-005
-5.727862e-007
1.8676055e-005
-5.6402353e-007
1.8712366e-005
-6.3101143e-007
1.8754623e-005
-7.8132243e-007
1.880591e-005
-1.0364424e-006
1.8868726e-005
-1.4328179e-006
1.8945475e-005
-2.0209255e-006
1.9026449e-005
-2.8865133e-006
1.9091319e-005
-4.1888568e-006
1.908607e-005
-6.053371e-006
1.8870135e-005
-8.6535085e-006
1.822301e-005
-1.1816761e-005
1.6529727e-005
-1.5233818e-005
1.3212244e-005
-1.7693507e-005
6.8781387e-006
-1.831233e-005
-9.3717958e-006
1.5956497e-005
-3.9570941e-006
1.6895105e-005
-4.6187202e-006
1.7555304e-005
-3.9339525e-006
1.7981242e-005
-3.0891652e-006
1.8232968e-005
-2.2988148e-006
1.8369261e-005
-1.6474537e-006
1.843398e-005
-1.173185e-006
1.8461124e-005
-8.6029849e-007
1.8470067e-005
-6.6848069e-007
1.8469157e-005
-5.7187605e-007
1.8461723e-005
-5.5658961e-007
1.8448344e-005
-6.1763235e-007
1.8428136e-005
-7.6111464e-007
1.8396992e-005
-1.0052981e-006
1.8345537e-005
-1.3813626e-006
1.8262589e-005
-1.9379779e-006
1.8118286e-005
-2.7422104e-006
1.7857386e-005
-3.927957e-006
1.7395324e-005
-5.5913084e-006
1.6545797e-005
-7.8039816e-006
1.5083373e-005
-1.0354337e-005
1.258629e-005
-1.2736735e-005
8.8113594e-006
-1.3918577e-005
3.4584488e-006
-1.2959419e-005
-5.913347e-006
1.6158616e-005
-5.1118695e-006
1.7093207e-005
-5.5533109e-006
1.765081e-005
-4.4915554e-006
1.7945075e-005
-3.3834301e-006
1.8074372e-005
-2.4281117e-006
1.8108443e-005
-1.6815252e-006
1.8094381e-005
-1.159123e-006
1.805972e-005
-8.2563682e-007
1.8018725e-005
-6.2748607e-007
1.7974168e-005
-5.273192e-007
1.7924296e-005
-5.0671773e-007
1.7864341e-005
-5.5767693e-007
1.7786778e-005
-6.8355188e-007
1.7681029e-005
-8.9954953e-007
1.7529533e-005
-1.2298666e-006
1.7307991e-005
-1.7164353e-006
1.6977933e-005
-2.4121524e-006
1.6462066e-005
-3.4120903e-006
1.5662884e-005
-4.7921265e-006
1.4407525e-005
-6.5486219e-006
1.2519253e-005
-8.4660649e-006
9.8009809e-006
-1.0018463e-005
6.2747453e-006
-1.0392341e-005
2.1516477e-006
-8.8363214e-006
-3.7616993e-006
1.6317418e-005
-6.4254464e-006
1.7090425e-005
-6.3263177e-006
1.7409159e-005
-4.8102893e-006
1.7477641e-005
-3.4519127e-006
1.7430263e-005
-2.3807337e-006
1.733658e-005
-1.5878426e-006
1.7234363e-005
-1.0569054e-006
1.7137264e-005
-7.2853762e-007
1.704942e-005
-5.3964243e-007
1.6966874e-005
-4.4477285e-007
1.6881832e-005
-4.2167635e-007
1.6784259e-005
-4.601035e-007
1.6662195e-005
-5.6148868e-007
1.6498913e-005
-7.3626676e-007
1.6272869e-005
-1.0038231e-006
1.5949982e-005
-1.3935482e-006
1.5486878e-005
-1.9490479e-006
1.4804188e-005
-2.7294003e-006
1.380005e-005
-3.7879888e-006
1.2338322e-005
-5.0868939e-006
1.0301828e-005
-6.4295706e-006
7.6549663e-006
-7.3716012e-006
4.568256e-006
-7.3056308e-006
1.4817954e-006
-5.7498608e-006
-2.2799039e-006
1.634194e-005
-7.7635451e-006
1.6722293e-005
-6.7066714e-006
1.6640896e-005
-4.7288916e-006
1.6392189e-005
-3.2032059e-006
1.6123698e-005
-2.1122426e-006
1.5889269e-005
-1.3534138e-006
1.5700572e-005
-8.6820832e-007
1.5549707e-005
-5.7767249e-007
1.5425913e-005
-4.1584814e-007
1.531681e-005
-3.3567032e-007
1.5208974e-005
-3.1384052e-007
1.5088641e-005
-3.3977008e-007
1.4940377e-005
-4.1322515e-007
1.4744674e-005
-5.4056342e-007
1.4476946e-005
-7.3609561e-007
1.410194e-005
-1.0185416e-006
1.3572512e-005
-1.4196203e-006
1.2818137e-005
-1.9750246e-006
1.1744522e-005
-2.7143739e-006
1.0254563e-005
-3.5969353e-006
8.2865278e-006
-4.4615353e-006
5.9003627e-006
-4.9854361e-006
3.3410353e-006
-4.7463034e-006
1.0538453e-006
-3.4626708e-006
-1.2260587e-006
1.6104185e-005
-8.8638895e-006
1.5776287e-005
-6.3787733e-006
1.5151818e-005
-4.1044225e-006
1.453853e-005
-2.5899174e-006
1.4046208e-005
-1.6199214e-006
1.368767e-005
-9.9487526e-007
1.3433831e-005
-6.1436984e-007
1.3249895e-005
-3.9373655e-007
1.3108735e-005
-2.7468825e-007
1.2989926e-005
-2.1686061e-007
1.2876103e-005
-2.0001814e-007
1.2751566e-005
-2.1523237e-007
1.2599497e-005
-2.6115656e-007
1.2400801e-005
-3.41867e-007
1.2130019e-005
-4.6531361e-007
1.1755176e-005
-6.4369937e-007
1.1231268e-005
-8.9571175e-007
1.0498478e-005
-1.2422344e-006
9.4806671e-006
-1.6965632e-006
8.1113913e-006
-2.2276595e-006
6.3727248e-006
-2.7228688e-006
4.3659377e-006
-2.9786489e-006
2.3496073e-006
-2.7299729e-006
7.0745773e-007
-1.8205212e-006
-5.1860091e-007
1.5280163e-005
-9.1402114e-006
1.3907544e-005
-5.0061546e-006
1.2701809e-005
-2.8986871e-006
1.1782788e-005
-1.6708966e-006
1.114623e-005
-9.8336325e-007
1.0727387e-005
-5.7603213e-007
1.0454335e-005
-3.4131843e-007
1.0270527e-005
-2.0992858e-007
1.0137274e-005
-1.4143507e-007
1.0029306e-005
-1.0889279e-007
9.9284136e-006
-9.9125535e-008
9.8192956e-006
-1.0611439e-007
9.6869217e-006
-1.2878268e-007
9.514337e-006
-1.6928227e-007
9.2798112e-006
-2.3078777e-007
8.9561685e-006
-3.2005664e-007
8.5062233e-006
-4.4576654e-007
7.8819457e-006
-6.1795684e-007
7.0274798e-006
-8.4209724e-007
5.9007173e-006
-1.1008969e-006
4.5113319e-006
-1.3334834e-006
2.9643483e-006
-1.4316653e-006
1.4948955e-006
-1.26052e-006
4.1066135e-007
-7.3628708e-007
-1.0793956e-007
1.3170984e-005
-7.3073548e-006
1.06793e-005
-2.5144702e-006
9.0398619e-006
-1.2592489e-006
8.0254379e-006
-6.5647256e-007
7.4074132e-006
-3.6533859e-007
7.0352058e-006
-2.0382469e-007
6.8093281e-006
-1.1544076e-007
6.6670205e-006
-6.7621016e-008
6.5690359e-006
-4.3450485e-008
6.4923418e-006
-3.2198741e-008
6.4219659e-006
-2.8749649e-008
6.3464312e-006
-3.0579739e-008
6.2549046e-006
-3.7256037e-008
6.1349674e-006
-4.934507e-008
5.9717702e-006
-6.7590556e-008
5.7458734e-006
-9.4159853e-008
5.4315817e-006
-1.3147479e-007
4.9959282e-006
-1.823033e-007
4.4020838e-006
-2.4825277e-007
3.6247003e-006
-3.2351342e-007
2.6803213e-006
-3.8910449e-007
1.6560984e-006
-4.0744234e-007
7.349344e-007
-3.39356e-007
1.479365e-007
-1.4928916e-007
3.9996959e-008
7.6964861e-006
5.1820159e-006
3.922767e-006
3.2662945e-006
2.9009559e-006
2.6971312e-006
2.5816904e-006
2.5140694e-006
2.4706189e-006
2.4384201e-006
2.4096704e-006
2.3790907e-006
2.3418347e-006
2.2924896e-006
2.224899e-006
2.1307392e-006
1.9992644e-006
1.8169612e-006
1.5687084e-006
1.245195e-006
8.5609052e-007
4.4864818e-007
1.0929219e-007
-3.9996959e-008
)
;

boundaryField
{
    inlet
    {
        type            calculated;
        value           nonuniform List<scalar> 
20
(
-5.0012803e-006
-5.0012803e-006
-5.0012803e-006
-5.0012803e-006
-5.0012803e-006
-5.0012803e-006
-5.0012803e-006
-5.0012803e-006
-5.0012803e-006
-5.0012803e-006
-1.5003841e-005
-1.5003841e-005
-1.5003841e-005
-1.5003841e-005
-1.5003841e-005
-1.5003841e-005
-1.5003841e-005
-1.5003841e-005
-1.5003841e-005
-1.5003841e-005
)
;
    }
    walls
    {
        type            calculated;
        value           uniform 0;
    }
    outlet
    {
        type            calculated;
        value           nonuniform List<scalar> 10(2.983574e-005 2.9234529e-005 2.8032111e-005 2.6229502e-005 2.3830415e-005 2.0842166e-005 1.7274675e-005 1.3138041e-005 8.4412289e-006 3.1928038e-006);
    }
    centreline
    {
        type            symmetryPlane;
        value           uniform 0;
    }
    frontAndBack
    {
        type            empty;
        value           nonuniform 0();
    }
}


// ************************************************************************* //
