/*--------------------------------*- C++ -*----------------------------------*\
| =========                 |                                                 |
| \\      /  F ield         | OpenFOAM: The Open Source CFD Toolbox           |
|  \\    /   O peration     | Version:  5.x                                   |
|   \\  /    A nd           | Web:      www.OpenFOAM.org                      |
|    \\/     M anipulation  |                                                 |
\*---------------------------------------------------------------------------*/
/*   Windows 32 and 64 bit porting by blueCAPE: http://www.bluecape.com.pt   *\
|  Based on Windows porting (2.0.x v4) by Symscape: http://www.symscape.com   |
\*---------------------------------------------------------------------------*/
FoamFile
{
    version     2.0;
    format      ascii;
    class       surfaceScalarField;
    location    "0.21";
    object      phi_0;
}
// * * * * * * * * * * * * * * * * * * * * * * * * * * * * * * * * * * * * * //

dimensions      [0 3 -1 0 0 0 0];

internalField   nonuniform List<scalar> 
1430
(
5.1521137e-006
-1.5083339e-007
5.3423519e-006
-1.9023809e-007
5.5310577e-006
-1.8870579e-007
5.6949798e-006
-1.6392205e-007
5.8328364e-006
-1.3785652e-007
5.9420474e-006
-1.0921102e-007
6.0281182e-006
-8.6070743e-008
6.0963707e-006
-6.8252481e-008
6.1528963e-006
-5.652558e-008
6.2040455e-006
-5.1149244e-008
6.2560115e-006
-5.1965946e-008
6.315352e-006
-5.9340558e-008
6.3900004e-006
-7.4648383e-008
6.490618e-006
-1.0061764e-007
6.6323563e-006
-1.4173825e-007
6.8366265e-006
-2.0427027e-007
7.1384309e-006
-3.0180432e-007
7.5952573e-006
-4.568264e-007
8.2939745e-006
-6.9871714e-007
9.3747871e-006
-1.0808125e-006
1.0985075e-005
-1.6102876e-006
1.3382319e-005
-2.3972449e-006
1.6683094e-005
-3.3007749e-006
2.093078e-005
-4.2476858e-006
-4.8348722e-006
2.5765652e-005
5.1510359e-006
-3.0058897e-007
5.3450712e-006
-3.8427326e-007
5.5321629e-006
-3.7579744e-007
5.6971568e-006
-3.2891589e-007
5.8344536e-006
-2.7515325e-007
5.9435392e-006
-2.182966e-007
6.0292152e-006
-1.7174675e-007
6.0970592e-006
-1.3609647e-007
6.1532158e-006
-1.1268213e-007
6.2039926e-006
-1.0192609e-007
6.2555203e-006
-1.0349367e-007
6.314328e-006
-1.1814829e-007
6.3882854e-006
-1.4860571e-007
6.4878876e-006
-2.0021986e-007
6.62818e-006
-2.8203063e-007
6.8302722e-006
-4.063625e-007
7.1284492e-006
-5.9998126e-007
7.5793207e-006
-9.0769786e-007
8.268657e-006
-1.3880533e-006
9.3296821e-006
-2.1418375e-006
1.0920326e-005
-3.200932e-006
1.3255108e-005
-4.7320261e-006
1.6524144e-005
-6.569812e-006
2.0648832e-005
-8.3723731e-006
-9.6843926e-006
2.5498352e-005
5.1523345e-006
-4.5164309e-007
5.3475195e-006
-5.7945834e-007
5.535774e-006
-5.6405191e-007
5.7009791e-006
-4.9412094e-007
5.8380133e-006
-4.1218749e-007
5.9465068e-006
-3.2679005e-007
6.0314505e-006
-2.5669047e-007
6.0985216e-006
-2.0316766e-007
6.153947e-006
-1.6810749e-007
6.2039767e-006
-1.5195587e-007
6.2546535e-006
-1.5417048e-007
6.3123918e-006
-1.7588657e-007
6.3849399e-006
-2.2115383e-007
6.4826068e-006
-2.978868e-007
6.6200067e-006
-4.1943046e-007
6.8176694e-006
-6.040252e-007
7.1088073e-006
-8.9111913e-007
7.5479185e-006
-1.346809e-006
8.2173418e-006
-2.0574767e-006
9.2452276e-006
-3.1697233e-006
1.0780457e-005
-4.736161e-006
1.303249e-005
-6.9840597e-006
1.6171144e-005
-9.7084662e-006
2.0157938e-005
-1.2359167e-005
-1.438192e-005
2.4855466e-005
5.154307e-006
-6.0466974e-007
5.3514476e-006
-7.7659895e-007
5.5413424e-006
-7.5394668e-007
5.7069128e-006
-6.5969135e-007
5.8435569e-006
-5.4883168e-007
5.9511258e-006
-4.3435893e-007
6.034925e-006
-3.4048969e-007
6.1008756e-006
-2.6911825e-007
6.1552124e-006
-2.2244426e-007
6.2041086e-006
-2.0085213e-007
6.2535112e-006
-2.0357308e-007
6.309669e-006
-2.3204435e-007
6.3801239e-006
-2.9160881e-007
6.4748971e-006
-3.9265993e-007
6.6080184e-006
-5.5255179e-007
6.7991343e-006
-7.9514106e-007
7.0798536e-006
-1.1718385e-006
7.5017368e-006
-1.7686921e-006
8.1419539e-006
-2.6976938e-006
9.120527e-006
-4.1482963e-006
1.0574877e-005
-6.1905105e-006
1.2702474e-005
-9.1116573e-006
1.5645032e-005
-1.2651024e-005
1.9415833e-005
-1.6129968e-005
-1.8830058e-005
2.3863971e-005
5.157136e-006
-7.6052545e-007
5.3569865e-006
-9.7644939e-007
5.5490854e-006
-9.4604563e-007
5.7151317e-006
-8.2573762e-007
5.8512412e-006
-6.8494117e-007
5.9575371e-006
-5.4065483e-007
6.0397838e-006
-4.2273638e-007
6.1042544e-006
-3.3358886e-007
6.1571404e-006
-2.7533025e-007
6.2045176e-006
-2.4822942e-007
6.2522334e-006
-2.5128891e-007
6.3063204e-006
-2.8613135e-007
6.3740198e-006
-3.5930819e-007
6.4649863e-006
-4.8362647e-007
6.5925126e-006
-6.8007802e-007
6.7750825e-006
-9.77711e-007
7.0422319e-006
-1.4389878e-006
7.4417876e-006
-2.1682478e-006
8.0439546e-006
-3.2998607e-006
8.9586794e-006
-5.063021e-006
1.0306331e-005
-7.5381622e-006
1.2268062e-005
-1.1073388e-005
1.495385e-005
-1.5336812e-005
1.8432334e-005
-1.9608452e-005
-2.2911161e-005
2.2513437e-005
5.1610078e-006
-9.2025293e-007
5.3643439e-006
-1.1797855e-006
5.5592464e-006
-1.1409481e-006
5.7258574e-006
-9.9234862e-007
5.8612449e-006
-8.2032861e-007
5.9659025e-006
-6.4531247e-007
6.0461919e-006
-5.0302583e-007
6.1088055e-006
-3.9620245e-007
6.1598778e-006
-3.2640258e-007
6.2053544e-006
-2.93706e-007
6.2509747e-006
-2.9690921e-007
6.302526e-006
-3.3768271e-007
6.3668407e-006
-4.2362284e-007
6.4531339e-006
-5.6991973e-007
6.5737997e-006
-8.0074384e-007
6.7459265e-006
-1.1498377e-006
6.996546e-006
-1.6896073e-006
7.3691041e-006
-2.5408058e-006
7.9254352e-006
-3.8561918e-006
8.762773e-006
-5.9003588e-006
9.978917e-006
-8.7543062e-006
1.1736638e-005
-1.283111e-005
1.4098774e-005
-1.7698948e-005
1.7197248e-005
-2.2706926e-005
-2.6537624e-005
2.082371e-005
5.1661371e-006
-1.0851097e-006
5.3737565e-006
-1.3874048e-006
5.5720643e-006
-1.3392559e-006
5.7393014e-006
-1.1595857e-006
5.8737288e-006
-9.5475601e-007
5.9763644e-006
-7.4794806e-007
6.0542946e-006
-5.8095606e-007
6.114648e-006
-4.5655592e-007
6.1635452e-006
-3.7529972e-007
6.2067399e-006
-3.3690072e-007
6.2498655e-006
-3.4003488e-007
6.2984462e-006
-3.862634e-007
6.3587853e-006
-4.8396195e-007
6.4395895e-006
-6.5072392e-007
6.5522021e-006
-9.1335644e-007
6.712148e-006
-1.3097837e-006
6.9435899e-006
-1.9210492e-006
7.2850012e-006
-2.8822171e-006
7.7887651e-006
-4.3599556e-006
8.5363294e-006
-6.6479231e-006
9.5986216e-006
-9.8165984e-006
1.1114173e-005
-1.4346662e-005
1.3075934e-005
-1.9660709e-005
1.5737557e-005
-2.5368548e-005
-2.9545806e-005
1.8745739e-005
5.1727867e-006
-1.2566162e-006
5.3854283e-006
-1.6000464e-006
5.587732e-006
-1.5415596e-006
5.7556106e-006
-1.3274644e-006
5.8887679e-006
-1.0879133e-006
5.988981e-006
-8.4816112e-007
6.0641514e-006
-6.5612651e-007
6.1218313e-006
-5.1423586e-007
6.1681906e-006
-4.2165898e-007
6.208726e-006
-3.7743615e-007
6.2489581e-006
-3.8026697e-007
6.2941752e-006
-4.3148054e-007
6.3500157e-006
-5.3980248e-007
6.4245636e-006
-7.2527186e-007
6.5280289e-006
-1.0168217e-006
6.6742491e-006
-1.4560039e-006
6.8842028e-006
-2.1310028e-006
7.1908527e-006
-3.188867e-006
7.6363894e-006
-4.8054923e-006
8.2836336e-006
-7.2951674e-006
9.1724647e-006
-1.0705429e-005
1.0411341e-005
-1.5585538e-005
1.1931676e-005
-2.1181044e-005
1.4108653e-005
-2.7545525e-005
-3.1591997e-005
1.6154844e-005
5.181303e-006
-1.4366387e-006
5.3994687e-006
-1.818212e-006
5.6063865e-006
-1.7484773e-006
5.7748179e-006
-1.4958957e-006
5.9063078e-006
-1.2194032e-006
6.0036896e-006
-9.4554286e-007
6.0756885e-006
-7.2812545e-007
6.1302874e-006
-5.6883468e-007
6.1737267e-006
-4.6509831e-007
6.2112376e-006
-4.1494703e-007
6.2482154e-006
-4.1724481e-007
6.2896874e-006
-4.7295251e-007
6.3405736e-006
-5.9068871e-007
6.408203e-006
-7.9290123e-007
6.501548e-006
-1.1101667e-006
6.6326584e-006
-1.5871143e-006
6.8192431e-006
-2.3175876e-006
7.0881999e-006
-3.4578237e-006
7.4704235e-006
-5.1877158e-006
8.0101104e-006
-7.8348542e-006
8.7109602e-006
-1.1406279e-005
9.6490345e-006
-1.6523612e-005
1.0684414e-005
-2.2216423e-005
1.232319e-005
-2.9184302e-005
-3.2283782e-005
1.3014976e-005
5.1907632e-006
-1.6261215e-006
5.4169045e-006
-2.0443532e-006
5.627798e-006
-1.9593707e-006
5.7968928e-006
-1.6649903e-006
5.9260612e-006
-1.3485714e-006
6.020224e-006
-1.0397056e-006
6.0886649e-006
-7.9656639e-007
6.1397696e-006
-6.199393e-007
6.1798656e-006
-5.0519426e-007
6.2140569e-006
-4.4913829e-007
6.2474295e-006
-4.5061748e-007
6.2847542e-006
-5.1027721e-007
6.3303314e-006
-6.3626592e-007
6.3904836e-006
-8.5305334e-007
6.4728514e-006
-1.1925346e-006
6.5876188e-006
-1.7018816e-006
6.7492739e-006
-2.4792427e-006
6.9781457e-006
-3.6866955e-006
7.2938926e-006
-5.5034626e-006
7.7211737e-006
-8.2621353e-006
8.2353077e-006
-1.1920413e-005
8.8365356e-006
-1.712484e-005
9.3315168e-006
-2.2711404e-005
1.0112784e-005
-2.996557e-005
8.8150674e-006
-3.0986065e-005
2.8458884e-005
-2.6932321e-006
2.9463823e-005
-1.0049389e-006
2.9720513e-005
-2.5668965e-007
2.9798414e-005
-7.7900465e-008
2.9831073e-005
-3.2659816e-008
2.9840392e-005
-9.31868e-009
2.9840968e-005
-5.7550506e-010
2.9837834e-005
3.1337691e-009
2.9835047e-005
2.7866086e-009
2.9833851e-005
1.1965954e-009
2.9833879e-005
-2.8530295e-011
2.9834175e-005
-2.961432e-010
2.9834307e-005
-1.3159252e-010
2.9834299e-005
7.853403e-012
2.9834268e-005
3.1209815e-011
2.9834254e-005
1.3890681e-011
2.9834253e-005
8.509856e-013
2.9834255e-005
-1.8400021e-012
2.9834256e-005
-7.2684076e-013
2.9834256e-005
9.5514103e-014
2.9834256e-005
1.327368e-013
2.9834256e-005
-9.6988677e-014
2.9834256e-005
-1.354471e-013
2.9834255e-005
9.7627148e-013
1.1772224e-012
2.7967342e-005
-5.1622215e-006
2.8921752e-005
-1.9593488e-006
2.9140482e-005
-4.7541948e-007
2.9212212e-005
-1.4963085e-007
2.9233549e-005
-5.3997001e-008
2.9240561e-005
-1.633002e-008
2.9239754e-005
2.3115172e-010
2.9236441e-005
6.4466762e-009
2.9233712e-005
5.5162203e-009
2.9232741e-005
2.1668216e-009
2.9232837e-005
-1.2416069e-010
2.923312e-005
-5.7859279e-010
2.9233229e-005
-2.4146538e-010
2.9233219e-005
1.800029e-011
2.9233191e-005
5.9979043e-011
2.9233179e-005
2.5565307e-011
2.9233179e-005
9.5962381e-013
2.9233181e-005
-3.5843756e-012
2.9233181e-005
-1.3344434e-012
2.9233181e-005
1.698637e-013
2.9233181e-005
1.8800757e-013
2.9233181e-005
-2.4227951e-013
2.9233181e-005
-2.437947e-013
2.923318e-005
2.1113787e-012
2.589306e-012
2.7025273e-005
-7.3320293e-006
2.7817522e-005
-2.751598e-006
2.7990399e-005
-6.482959e-007
2.8024454e-005
-1.8368563e-007
2.8033045e-005
-6.2588791e-008
2.8038626e-005
-2.1910094e-008
2.8036916e-005
1.9410157e-009
2.8033407e-005
9.9552994e-009
2.8031144e-005
7.7797832e-009
2.8030583e-005
2.7269261e-009
2.803079e-005
-3.3078962e-010
2.803103e-005
-8.1864008e-010
2.8031102e-005
-3.1314669e-010
2.8031086e-005
3.3367323e-011
2.8031064e-005
8.2903516e-011
2.8031056e-005
3.2852847e-011
2.8031057e-005
3.4968776e-014
2.8031059e-005
-5.0200327e-012
2.8031059e-005
-1.6870339e-012
2.8031059e-005
2.7185103e-013
2.8031059e-005
2.2715508e-013
2.8031059e-005
-3.6161106e-013
2.8031059e-005
-2.7392917e-013
2.8031057e-005
3.3810369e-012
4.0221592e-012
2.5610983e-005
-9.0790415e-006
2.6162754e-005
-3.3033696e-006
2.623574e-005
-7.2128118e-007
2.6233612e-005
-1.8155788e-007
2.6234e-005
-6.2976671e-008
2.6236215e-005
-2.4125152e-008
2.6232928e-005
5.2276855e-009
2.6229863e-005
1.3021066e-008
2.6228535e-005
9.1073843e-009
2.6228509e-005
2.753222e-009
2.6228785e-005
-6.0704887e-010
2.6228935e-005
-9.6832834e-010
2.6228953e-005
-3.3164924e-010
2.6228933e-005
5.3597014e-011
2.622892e-005
9.6115416e-011
2.6228918e-005
3.4356934e-011
2.622892e-005
-1.7061074e-012
2.6228921e-005
-5.8713397e-012
2.6228921e-005
-1.6956034e-012
2.6228921e-005
3.8570581e-013
2.6228921e-005
2.2852461e-013
2.6228921e-005
-4.7369629e-013
2.6228921e-005
-2.7477931e-013
2.6228919e-005
4.5290131e-012
5.2134008e-012
2.3704029e-005
-1.0269634e-005
2.3911101e-005
-3.5104413e-006
2.3860591e-005
-6.7077161e-007
2.3846356e-005
-1.6732203e-007
2.383955e-005
-5.6170591e-008
2.3835253e-005
-1.9828286e-008
2.3831261e-005
9.2195853e-009
2.3829742e-005
1.453947e-008
2.382976e-005
9.089827e-009
2.3830242e-005
2.2712778e-009
2.3830478e-005
-8.4343872e-010
2.383049e-005
-9.7996677e-010
2.383045e-005
-2.9193476e-010
2.3830431e-005
7.2668384e-011
2.3830431e-005
9.6076237e-011
2.3830436e-005
3.0035414e-011
2.3830438e-005
-3.5911805e-012
2.3830438e-005
-5.89112e-012
2.3830437e-005
-1.3787669e-012
2.3830437e-005
4.6064198e-013
2.3830437e-005
1.6340577e-013
2.3830437e-005
-5.627421e-013
2.3830437e-005
-2.7173213e-013
2.3830436e-005
5.1954649e-012
5.8476992e-012
2.1246227e-005
-1.0692151e-005
2.1020174e-005
-3.2843876e-006
2.0888699e-005
-5.3929662e-007
2.0865156e-005
-1.4377942e-007
2.0849985e-005
-4.0999449e-008
2.0842023e-005
-1.1866502e-008
2.0839759e-005
1.1484007e-008
2.0840721e-005
1.3577643e-008
2.0842151e-005
7.659822e-009
2.0842942e-005
1.4801105e-009
2.0843016e-005
-9.1814516e-010
2.0842874e-005
-8.3752768e-010
2.0842791e-005
-2.0871572e-010
2.0842783e-005
8.0790903e-011
2.0842797e-005
8.1920699e-011
2.0842805e-005
2.1655396e-011
2.0842806e-005
-4.7283313e-012
2.0842806e-005
-5.016395e-012
2.0842805e-005
-8.9006773e-013
2.0842805e-005
4.5115547e-013
2.0842805e-005
5.3436016e-014
2.0842805e-005
-5.8076295e-013
2.0842805e-005
-2.5669731e-013
2.0842805e-005
5.0339228e-012
5.6267687e-012
1.8136516e-005
-1.0082928e-005
1.7498526e-005
-2.6463975e-006
1.7334734e-005
-3.7550511e-007
1.7296736e-005
-1.0578127e-007
1.7276304e-005
-2.0567162e-008
1.726875e-005
-4.3127844e-009
1.7269646e-005
1.0587913e-008
1.7273028e-005
1.0196271e-008
1.7275444e-005
5.2437022e-009
1.727623e-005
6.9434371e-010
1.7276082e-005
-7.7062458e-010
1.7275825e-005
-5.8077067e-010
1.7275731e-005
-1.138902e-010
1.7275741e-005
7.090054e-011
1.7275765e-005
5.7215419e-011
1.7275775e-005
1.2221102e-011
1.7275775e-005
-4.5054305e-012
1.7275773e-005
-3.4881782e-012
1.7275772e-005
-4.1887863e-013
1.7275773e-005
3.5722579e-013
1.7275773e-005
-5.0562568e-014
1.7275772e-005
-5.0886909e-013
1.7275772e-005
-2.5021136e-013
1.7275773e-005
3.943453e-012
4.4666657e-012
1.427518e-005
-8.2032645e-006
1.3365663e-005
-1.7368806e-006
1.319689e-005
-2.0673144e-007
1.3149183e-005
-5.807418e-008
1.3132523e-005
-3.9075326e-009
1.3128397e-005
-1.8713511e-010
1.3132141e-005
6.8441412e-009
1.3136771e-005
5.5667303e-009
1.3139371e-005
2.6433185e-009
1.3139892e-005
1.7370335e-010
1.3139581e-005
-4.6016156e-010
1.3139296e-005
-2.9540814e-010
1.3139222e-005
-3.9953096e-011
1.3139248e-005
4.4848292e-011
1.3139276e-005
2.9538548e-011
1.3139283e-005
4.6992483e-012
1.3139282e-005
-2.9833204e-012
1.313928e-005
-1.7906378e-012
1.313928e-005
-1.0869868e-013
1.313928e-005
2.0219328e-013
1.313928e-005
-9.6646704e-014
1.313928e-005
-3.492976e-013
1.3139279e-005
-2.3911124e-013
1.3139281e-005
2.2280764e-012
2.640779e-012
9.6416185e-006
-4.8299075e-006
8.6261762e-006
-7.2143831e-007
8.4781083e-006
-5.8663501e-008
8.4390065e-006
-1.8972389e-008
8.4324891e-006
2.609874e-009
8.4321671e-006
1.3492039e-010
8.4366308e-006
2.3803525e-009
8.4406398e-006
1.5577287e-009
8.4425667e-006
7.1644402e-010
8.4427562e-006
-1.5782557e-011
8.4424382e-006
-1.421253e-010
8.4422216e-006
-7.8867286e-011
8.4421858e-006
-4.0914573e-012
8.4422155e-006
1.5186328e-011
8.4422369e-006
8.1174849e-012
8.4422409e-006
7.3425756e-013
8.4422389e-006
-1.0433894e-012
8.4422376e-006
-4.8302246e-013
8.4422375e-006
1.0003615e-014
8.4422376e-006
6.0809768e-014
8.4422375e-006
-6.7881448e-014
8.4422372e-006
-1.5614861e-013
8.4422371e-006
-1.6913315e-013
8.4422386e-006
6.3394097e-013
8.5084763e-013
3.9851599e-006
3.2637216e-006
3.2050581e-006
3.1860857e-006
3.1886955e-006
3.1888304e-006
3.1912108e-006
3.1927685e-006
3.193485e-006
3.1934692e-006
3.1933271e-006
3.1932482e-006
3.1932441e-006
3.1932593e-006
3.1932674e-006
3.1932682e-006
3.1932671e-006
3.1932666e-006
3.1932666e-006
3.1932666e-006
3.1932665e-006
3.1932663e-006
3.1932661e-006
3.1932668e-006
1.5617698e-005
-2.2399788e-006
1.6388064e-005
-2.8147187e-006
1.7027883e-005
-2.5991891e-006
1.7537241e-005
-2.1743482e-006
1.7907377e-005
-1.718707e-006
1.8167669e-005
-1.2999979e-006
1.8348716e-005
-9.7761309e-007
1.847847e-005
-7.4969344e-007
1.8576263e-005
-6.0298752e-007
1.8657472e-005
-5.3034678e-007
1.8734331e-005
-5.27477e-007
1.8818729e-005
-5.946745e-007
1.8921523e-005
-7.3906018e-007
1.9053615e-005
-9.8514555e-007
1.9231044e-005
-1.3699634e-006
1.9473214e-005
-1.9440517e-006
1.9799196e-005
-2.8052249e-006
2.0235907e-005
-4.1234057e-006
2.0790372e-005
-6.0579273e-006
2.1397425e-005
-8.8691892e-006
2.1941838e-005
-1.2464826e-005
2.1746628e-005
-1.6929631e-005
2.0049826e-005
-2.1014603e-005
1.4734142e-005
-2.4649886e-005
-1.6251924e-005
1.5766134e-005
-3.002272e-006
1.6629245e-005
-3.6778299e-006
1.7301776e-005
-3.27172e-006
1.7788879e-005
-2.6614506e-006
1.8115811e-005
-2.0456397e-006
1.8325904e-005
-1.5100904e-006
1.845604e-005
-1.1077493e-006
1.8539067e-005
-8.3272077e-007
1.8595375e-005
-6.5929544e-007
1.8637692e-005
-5.7266392e-007
1.8674186e-005
-5.6397066e-007
1.8710519e-005
-6.3100717e-007
1.8752801e-005
-7.8134258e-007
1.8804123e-005
-1.0364676e-006
1.886698e-005
-1.4328203e-006
1.8943779e-005
-2.020851e-006
1.9024825e-005
-2.8862709e-006
1.9089809e-005
-4.1883897e-006
1.9084723e-005
-6.0528403e-006
1.8868998e-005
-8.6534643e-006
1.822214e-005
-1.1817968e-005
1.6529165e-005
-1.5236656e-005
1.3211928e-005
-1.7697366e-005
6.8779525e-006
-1.8315911e-005
-9.3739711e-006
1.5956093e-005
-3.9545244e-006
1.6894553e-005
-4.6162897e-006
1.7554671e-005
-3.931838e-006
1.7980526e-005
-3.0873051e-006
1.8232172e-005
-2.2972862e-006
1.8368405e-005
-1.6463235e-006
1.8433103e-005
-1.172447e-006
1.8460257e-005
-8.5987531e-007
1.8469225e-005
-6.6826324e-007
1.8468344e-005
-5.7178228e-007
1.8460938e-005
-5.5656549e-007
1.8447589e-005
-6.1765789e-007
1.8427413e-005
-7.6116667e-007
1.8396308e-005
-1.0053625e-006
1.8344903e-005
-1.3814156e-006
1.8262027e-005
-1.9379751e-006
1.8117834e-005
-2.7420771e-006
1.7857087e-005
-3.9276434e-006
1.7395219e-005
-5.5909714e-006
1.6545914e-005
-7.80416e-006
1.5083674e-005
-1.0355728e-005
1.2586663e-005
-1.2739644e-005
8.8116721e-006
-1.3922375e-005
3.4585992e-006
-1.2962838e-005
-5.9153719e-006
1.6158527e-005
-5.1092101e-006
1.7093306e-005
-5.5510693e-006
1.7651094e-005
-4.4896261e-006
1.7945487e-005
-3.3816979e-006
1.8074858e-005
-2.426657e-006
1.8108975e-005
-1.6804401e-006
1.8094951e-005
-1.1584236e-006
1.8060334e-005
-8.2525845e-007
1.8019383e-005
-6.2731153e-007
1.7974864e-005
-5.2726331e-007
1.7925024e-005
-5.0672551e-007
1.7865094e-005
-5.5772854e-007
1.7787556e-005
-6.8362857e-007
1.7681836e-005
-8.996429e-007
1.7530384e-005
-1.2299634e-006
1.7308906e-005
-1.716497e-006
1.6978948e-005
-2.4121193e-006
1.6463229e-005
-3.4119238e-006
1.5664219e-005
-4.7919612e-006
1.4409e-005
-6.548941e-006
1.2520736e-005
-8.4674647e-006
9.8022382e-006
-1.0021147e-005
6.2755878e-006
-1.0395725e-005
2.152022e-006
-8.8392719e-006
-3.7633499e-006
1.6317717e-005
-6.4230863e-006
1.7091194e-005
-6.3245466e-006
1.7410333e-005
-4.8087644e-006
1.7479141e-005
-3.4505063e-006
1.7431998e-005
-2.3795138e-006
1.7338473e-005
-1.586915e-006
1.7236358e-005
-1.0563092e-006
1.7139331e-005
-7.2823115e-007
1.7051539e-005
-5.3951976e-007
1.6969029e-005
-4.4475307e-007
1.6884012e-005
-4.2170841e-007
1.6786451e-005
-4.6016801e-007
1.6664398e-005
-5.6157521e-007
1.6501126e-005
-7.363711e-007
1.62751e-005
-1.0039371e-006
1.5952245e-005
-1.3936423e-006
1.5489202e-005
-1.9490756e-006
1.4806615e-005
-2.7293374e-006
1.3802595e-005
-3.7879409e-006
1.2340883e-005
-5.0872287e-006
1.0304182e-005
-6.430764e-006
7.6568259e-006
-7.3737904e-006
4.569419e-006
-7.3083179e-006
1.4822701e-006
-5.7521229e-006
-2.2810798e-006
1.6342534e-005
-7.7617791e-006
1.6723462e-005
-6.7054752e-006
1.6642555e-005
-4.7278568e-006
1.639428e-005
-3.2022315e-006
1.6126138e-005
-2.1113721e-006
1.5891954e-005
-1.352731e-006
1.5703409e-005
-8.6776427e-007
1.5552631e-005
-5.7745312e-007
1.5428887e-005
-4.1577506e-007
1.531981e-005
-3.3567658e-007
1.5211986e-005
-3.1388422e-007
1.5091651e-005
-3.3983328e-007
1.494338e-005
-4.1330426e-007
1.4747666e-005
-5.4065728e-007
1.4479925e-005
-7.3619607e-007
1.4104914e-005
-1.0186313e-006
1.3575505e-005
-1.4196665e-006
1.2821178e-005
-1.9750103e-006
1.1747613e-005
-2.7143759e-006
1.025758e-005
-3.5971956e-006
8.2891987e-006
-4.4623826e-006
5.9023798e-006
-4.9869715e-006
3.3422273e-006
-4.7481654e-006
1.0542786e-006
-3.4641742e-006
-1.2268011e-006
1.6104873e-005
-8.8628113e-006
1.5777482e-005
-6.3780844e-006
1.5153445e-005
-4.1038197e-006
1.4540575e-005
-2.5893617e-006
1.4048621e-005
-1.6194177e-006
1.3690354e-005
-9.94464e-007
1.3436685e-005
-6.1409535e-007
1.3252837e-005
-3.9360516e-007
1.3111717e-005
-2.7465478e-007
1.2992919e-005
-2.1687899e-007
1.2879094e-005
-2.0005877e-007
1.2754543e-005
-2.1528269e-007
1.2602454e-005
-2.6121512e-007
1.2403731e-005
-3.4193448e-007
1.2132919e-005
-4.6538398e-007
1.175805e-005
-6.4376225e-007
1.1234131e-005
-8.9574778e-007
1.0501351e-005
-1.2422303e-006
9.4835443e-006
-1.6965688e-006
8.1141609e-006
-2.2278122e-006
6.375135e-006
-2.7233566e-006
4.3677093e-006
-2.9795458e-006
2.3506055e-006
-2.7310616e-006
7.0779009e-007
-1.8213588e-006
-5.1901105e-007
1.5280749e-005
-9.1397197e-006
1.3908485e-005
-5.0058197e-006
1.2703076e-005
-2.8984112e-006
1.1784378e-005
-1.6706631e-006
1.1148111e-005
-9.8315093e-007
1.0729497e-005
-5.7584995e-007
1.0456594e-005
-3.4119301e-007
1.0272861e-005
-2.0987166e-007
1.0139633e-005
-1.4142715e-007
1.0031665e-005
-1.0891039e-007
9.9307587e-006
-9.9152837e-008
9.8216209e-006
-1.0614488e-007
9.6892217e-006
-1.2881596e-007
9.5166063e-006
-1.6931908e-007
9.2820476e-006
-2.3082528e-007
8.9583743e-006
-3.2008895e-007
8.50841e-006
-4.4578345e-007
7.8841309e-006
-6.1795112e-007
7.0296544e-006
-8.4209224e-007
5.9027968e-006
-1.1009545e-006
4.5131312e-006
-1.3336909e-006
2.9656492e-006
-1.4320639e-006
1.4956059e-006
-1.2610183e-006
4.1089384e-007
-7.3664666e-007
-1.081172e-007
1.3171354e-005
-7.3072328e-006
1.0679897e-005
-2.5143627e-006
9.0406612e-006
-1.2591754e-006
8.0264235e-006
-6.5642537e-007
7.4085668e-006
-3.6529424e-007
7.0365009e-006
-2.0378407e-007
6.8107202e-006
-1.1541227e-007
6.6684586e-006
-6.7610079e-008
6.570484e-006
-4.3452617e-008
6.4937814e-006
-3.2207803e-008
6.4233896e-006
-2.8761031e-008
6.3478361e-006
-3.0591393e-008
6.2562881e-006
-3.726806e-008
6.136327e-006
-4.9357899e-008
5.9731049e-006
-6.7603186e-008
5.7471865e-006
-9.4170511e-008
5.4328825e-006
-1.3147944e-007
4.997231e-006
-1.8229963e-007
4.4033848e-006
-2.4824601e-007
3.6259499e-006
-3.2351958e-007
2.6814094e-006
-3.8915046e-007
1.6568836e-006
-4.0753803e-007
7.3535298e-007
-3.3948764e-007
1.4807409e-007
-1.4936775e-007
3.9956903e-008
7.6966082e-006
5.1822455e-006
3.9230701e-006
3.2666447e-006
2.9013505e-006
2.6975664e-006
2.5821541e-006
2.5145441e-006
2.4710914e-006
2.4388836e-006
2.4101226e-006
2.3795312e-006
2.3422631e-006
2.2929052e-006
2.225302e-006
2.1311315e-006
1.9996521e-006
1.8173525e-006
1.5691065e-006
1.2455869e-006
8.5643649e-007
4.4889846e-007
1.0941083e-007
-3.9956903e-008
)
;

boundaryField
{
    inlet
    {
        type            calculated;
        value           nonuniform List<scalar> 
20
(
-5.0012803e-006
-5.0012803e-006
-5.0012803e-006
-5.0012803e-006
-5.0012803e-006
-5.0012803e-006
-5.0012803e-006
-5.0012803e-006
-5.0012803e-006
-5.0012803e-006
-1.5003841e-005
-1.5003841e-005
-1.5003841e-005
-1.5003841e-005
-1.5003841e-005
-1.5003841e-005
-1.5003841e-005
-1.5003841e-005
-1.5003841e-005
-1.5003841e-005
)
;
    }
    walls
    {
        type            calculated;
        value           uniform 0;
    }
    outlet
    {
        type            calculated;
        value           nonuniform List<scalar> 10(2.9834253e-005 2.9233178e-005 2.8031056e-005 2.6228918e-005 2.3830436e-005 2.0842805e-005 1.7275775e-005 1.3139283e-005 8.4422404e-006 3.1932676e-006);
    }
    centreline
    {
        type            symmetryPlane;
        value           uniform 0;
    }
    frontAndBack
    {
        type            empty;
        value           nonuniform 0();
    }
}


// ************************************************************************* //
