/*--------------------------------*- C++ -*----------------------------------*\
| =========                 |                                                 |
| \\      /  F ield         | OpenFOAM: The Open Source CFD Toolbox           |
|  \\    /   O peration     | Version:  5.x                                   |
|   \\  /    A nd           | Web:      www.OpenFOAM.org                      |
|    \\/     M anipulation  |                                                 |
\*---------------------------------------------------------------------------*/
/*   Windows 32 and 64 bit porting by blueCAPE: http://www.bluecape.com.pt   *\
|  Based on Windows porting (2.0.x v4) by Symscape: http://www.symscape.com   |
\*---------------------------------------------------------------------------*/
FoamFile
{
    version     2.0;
    format      ascii;
    class       volSymmTensorField;
    location    "0.21";
    object      sigma_0;
}
// * * * * * * * * * * * * * * * * * * * * * * * * * * * * * * * * * * * * * //

dimensions      [0 2 -2 0 0 0 0];

internalField   nonuniform List<symmTensor> 
750
(
(-0.00038437808 2.5741563e-005 0 0.00037379983 0 0)
(-0.0005019752 3.1484719e-006 0 0.00050715465 0 0)
(-0.00052472944 -5.3468084e-006 0 0.00051017738 0 0)
(-0.0004514368 -9.0761415e-006 0 0.00044928426 0 0)
(-0.00037873757 -9.188315e-006 0 0.00037371593 0 0)
(-0.00030635352 -8.4798498e-006 0 0.00030421713 0 0)
(-0.00023983069 -6.6392573e-006 0 0.0002381069 0 0)
(-0.00019408185 -4.7550196e-006 0 0.0001931427 0 0)
(-0.00016228306 -2.6316672e-006 0 0.00016157376 0 0)
(-0.000148692 -4.5562493e-007 0 0.0001481181 0 0)
(-0.00015124036 1.518267e-006 0 0.00015055042 0 0)
(-0.00017403091 4.2420528e-006 0 0.00017320995 0 0)
(-0.00021918584 7.65196e-006 0 0.00021797955 0 0)
(-0.00029058518 1.2005153e-005 0 0.00028808172 0 0)
(-0.00040980674 1.8574311e-005 0 0.00040517162 0 0)
(-0.00058917867 2.8530472e-005 0 0.00057997429 0 0)
(-0.00085990511 4.3781004e-005 0 0.0008394158 0 0)
(-0.001295874 6.8669263e-005 0 0.0012509065 0 0)
(-0.0019932068 0.00011148042 0 0.0018935708 0 0)
(-0.0031016082 0.00017343188 0 0.0028471482 0 0)
(-0.0048132242 0.00027567332 0 0.0042842625 0 0)
(-0.0073533676 0.00041174196 0 0.0060434949 0 0)
(-0.010681957 0.000564446 0 0.0083576311 0 0)
(-0.014531721 0.00080902472 0 0.010159247 0 0)
(-0.017864517 0.00058249329 0 0.011926813 0 0)
(-0.00038645907 7.7648509e-005 0 0.00037317894 0 0)
(-0.00050285116 9.5770394e-006 0 0.00051260112 0 0)
(-0.00052624795 -1.6528905e-005 0 0.00050897575 0 0)
(-0.00045151651 -2.7058868e-005 0 0.00045051355 0 0)
(-0.00037905768 -2.7762507e-005 0 0.00037338076 0 0)
(-0.00030506706 -2.5404557e-005 0 0.00030314419 0 0)
(-0.00023850459 -1.9774092e-005 0 0.00023676764 0 0)
(-0.00019364611 -1.4195163e-005 0 0.00019248267 0 0)
(-0.00016133074 -7.8642191e-006 0 0.00016053928 0 0)
(-0.00014761807 -1.2834225e-006 0 0.00014697537 0 0)
(-0.00014998358 4.5943443e-006 0 0.00014920442 0 0)
(-0.00017255218 1.2779951e-005 0 0.00017163137 0 0)
(-0.00021724042 2.2918677e-005 0 0.00021590794 0 0)
(-0.00028766514 3.5883461e-005 0 0.00028492742 0 0)
(-0.00040580651 5.5523586e-005 0 0.00040086278 0 0)
(-0.00058314632 8.5029271e-005 0 0.00057348698 0 0)
(-0.00084986096 0.00013011484 0 0.00082847259 0 0)
(-0.0012797359 0.00020394862 0 0.0012334376 0 0)
(-0.0019668546 0.00032954316 0 0.001865511 0 0)
(-0.003050747 0.00050215854 0 0.0027919356 0 0)
(-0.004743355 0.00082710818 0 0.0042158329 0 0)
(-0.0072040926 0.0011711666 0 0.0058821382 0 0)
(-0.010528778 0.0016850284 0 0.0082413344 0 0)
(-0.014320972 0.0024978938 0 0.0098368763 0 0)
(-0.017474895 0.0017957563 0 0.011800153 0 0)
(-0.00038956176 0.00013010966 0 0.00037482202 0 0)
(-0.00050570773 1.5588875e-005 0 0.00051711424 0 0)
(-0.00052901881 -2.8415947e-005 0 0.00051053624 0 0)
(-0.00045233648 -4.5203079e-005 0 0.00045162582 0 0)
(-0.00037845268 -4.6835346e-005 0 0.00037265293 0 0)
(-0.0003035988 -4.2776227e-005 0 0.00030171243 0 0)
(-0.00023658246 -3.3106488e-005 0 0.00023487973 0 0)
(-0.00019171101 -2.3817963e-005 0 0.00019062634 0 0)
(-0.00015927458 -1.3353958e-005 0 0.00015854724 0 0)
(-0.00014549384 -2.4314558e-006 0 0.00014492432 0 0)
(-0.00014757251 7.4014496e-006 0 0.00014687098 0 0)
(-0.00016955249 2.0979081e-005 0 0.00016872186 0 0)
(-0.00021342894 3.7736658e-005 0 0.00021222091 0 0)
(-0.00028200805 5.9116025e-005 0 0.00027941607 0 0)
(-0.00039777896 9.1693163e-005 0 0.00039306229 0 0)
(-0.00057096127 0.00014021152 0 0.00056169105 0 0)
(-0.00083033909 0.00021428442 0 0.0008095015 0 0)
(-0.0012482151 0.00033562634 0 0.0012029888 0 0)
(-0.0019135946 0.00053905082 0 0.0018143697 0 0)
(-0.0029549168 0.00083515511 0 0.0026994425 0 0)
(-0.0045911452 0.0013445849 0 0.0040756586 0 0)
(-0.0069457201 0.0019575725 0 0.0056399042 0 0)
(-0.010150456 0.0027954125 0 0.0079224849 0 0)
(-0.014099137 0.0040858917 0 0.0094082896 0 0)
(-0.016649222 0.0029365846 0 0.011415596 0 0)
(-0.00039415239 0.00018302643 0 0.00037882919 0 0)
(-0.00051045299 2.1116667e-005 0 0.00052180489 0 0)
(-0.00053318051 -4.118171e-005 0 0.00051462653 0 0)
(-0.00045368323 -6.4499738e-005 0 0.00045274192 0 0)
(-0.00037734781 -6.6866836e-005 0 0.00037164735 0 0)
(-0.00030154349 -6.0936368e-005 0 0.00029954524 0 0)
(-0.00023391776 -4.7082903e-005 0 0.00023219139 0 0)
(-0.00018849619 -3.3914832e-005 0 0.00018748991 0 0)
(-0.00015619137 -1.9342141e-005 0 0.00015546792 0 0)
(-0.00014231934 -4.2565406e-006 0 0.00014177462 0 0)
(-0.00014403766 9.6004193e-006 0 0.00014335887 0 0)
(-0.00016504121 2.8405726e-005 0 0.00016422902 0 0)
(-0.0002075496 5.1662126e-005 0 0.00020638046 0 0)
(-0.00027380126 8.1261785e-005 0 0.00027123265 0 0)
(-0.00038571378 0.00012634736 0 0.0003810504 0 0)
(-0.00055263096 0.00019329116 0 0.00054346 0 0)
(-0.00080140333 0.00029571592 0 0.00078068719 0 0)
(-0.0012005969 0.00046371147 0 0.0011556391 0 0)
(-0.0018311907 0.00074429834 0 0.0017327036 0 0)
(-0.0028198083 0.0011458257 0 0.0025670996 0 0)
(-0.0043514549 0.0018483033 0 0.0038446436 0 0)
(-0.0065765759 0.0026964005 0 0.0052903414 0 0)
(-0.0095371448 0.0038936884 0 0.0073887744 0 0)
(-0.013669205 0.0055392439 0 0.0088490461 0 0)
(-0.015825088 0.0041228796 0 0.010911065 0 0)
(-0.00040059117 0.0002360182 0 0.0003844756 0 0)
(-0.00051694326 2.5855782e-005 0 0.00052812036 0 0)
(-0.0005388352 -5.5162984e-005 0 0.00052024145 0 0)
(-0.00045546785 -8.5102824e-005 0 0.00045421508 0 0)
(-0.00037580045 -8.796511e-005 0 0.00037017334 0 0)
(-0.0002987419 -7.9967036e-005 0 0.00029664704 0 0)
(-0.00023029043 -6.1902276e-005 0 0.0002285778 0 0)
(-0.00018420262 -4.4583838e-005 0 0.00018324474 0 0)
(-0.00015212832 -2.5850725e-005 0 0.00015140895 0 0)
(-0.00013808338 -6.7951113e-006 0 0.00013758336 0 0)
(-0.00013933822 1.1092158e-005 0 0.00013868989 0 0)
(-0.00015913206 3.493668e-005 0 0.00015835637 0 0)
(-0.00019984146 6.4514176e-005 0 0.00019872588 0 0)
(-0.00026306683 0.00010187683 0 0.00026055681 0 0)
(-0.00036981196 0.00015893151 0 0.00036522006 0 0)
(-0.00052860702 0.00024348506 0 0.00051953627 0 0)
(-0.00076388954 0.00037193451 0 0.00074334684 0 0)
(-0.0011395134 0.00058190582 0 0.0010949935 0 0)
(-0.0017270312 0.00093064163 0 0.0016300313 0 0)
(-0.0026422811 0.0014353369 0 0.0023928748 0 0)
(-0.004037755 0.0023092948 0 0.0035434315 0 0)
(-0.0061067242 0.00336705 0 0.0048475727 0 0)
(-0.0087297255 0.0049119107 0 0.0066728276 0 0)
(-0.012896004 0.0072032101 0 0.0079731862 0 0)
(-0.014855131 0.0052955915 0 0.010358874 0 0)
(-0.00040924726 0.00028914017 0 0.0003920618 0 0)
(-0.00052536079 2.9630354e-005 0 0.0005363868 0 0)
(-0.00054603055 -7.0580844e-005 0 0.00052727611 0 0)
(-0.00045770692 -0.00010751598 0 0.00045610084 0 0)
(-0.00037374329 -0.00011046746 0 0.00036818759 0 0)
(-0.00029512528 -0.00010007936 0 0.00029291984 0 0)
(-0.00022563876 -7.7737765e-005 0 0.00022395358 0 0)
(-0.00017886969 -5.597495e-005 0 0.00017794382 0 0)
(-0.00014708917 -3.3036898e-005 0 0.00014637946 0 0)
(-0.00013279172 -1.0251274e-005 0 0.00013234532 0 0)
(-0.00013357248 1.1810322e-005 0 0.00013296956 0 0)
(-0.00015169565 4.0152045e-005 0 0.00015094592 0 0)
(-0.00019046945 7.6118101e-005 0 0.00018942468 0 0)
(-0.00024990558 0.00012065515 0 0.00024745557 0 0)
(-0.00035045532 0.00018889206 0 0.00034592805 0 0)
(-0.00049944283 0.00028977632 0 0.00049053474 0 0)
(-0.0007182225 0.00044251118 0 0.00069792284 0 0)
(-0.0010651365 0.00069129549 0 0.0010211034 0 0)
(-0.0015984275 0.0011044868 0 0.0015029752 0 0)
(-0.0024259996 0.0016964135 0 0.0021813639 0 0)
(-0.0036504149 0.0027262324 0 0.0031720332 0 0)
(-0.0055294486 0.0039783412 0 0.0042988421 0 0)
(-0.0076629232 0.0059113496 0 0.005705603 0 0)
(-0.012101952 0.0084994301 0 0.0070440363 0 0)
(-0.012801297 0.0061085876 0 0.0091993159 0 0)
(-0.00042057063 0.0003422976 0 0.00040228328 0 0)
(-0.00053578294 3.208591e-005 0 0.00054638374 0 0)
(-0.00055486703 -8.7749394e-005 0 0.00053601435 0 0)
(-0.00046041393 -0.00013206912 0 0.00045835119 0 0)
(-0.00037104819 -0.00013434625 0 0.00036552908 0 0)
(-0.00029065461 -0.0001213878 0 0.00028831573 0 0)
(-0.00021988903 -9.4463669e-005 0 0.00021822946 0 0)
(-0.00017258124 -6.8111272e-005 0 0.00017166426 0 0)
(-0.00014108212 -4.1018136e-005 0 0.00014037054 0 0)
(-0.00012650564 -1.4641894e-005 0 0.00012611227 0 0)
(-0.00012662141 1.1502147e-005 0 0.00012605534 0 0)
(-0.00014321952 4.4348636e-005 0 0.00014251474 0 0)
(-0.0001791983 8.6020662e-005 0 0.00017821359 0 0)
(-0.00023455102 0.00013738407 0 0.0002321371 0 0)
(-0.00032778744 0.00021584309 0 0.00032331466 0 0)
(-0.00046519998 0.00033208661 0 0.00045643214 0 0)
(-0.00066542556 0.00050622771 0 0.00064539702 0 0)
(-0.00097941409 0.00078872166 0 0.00093599522 0 0)
(-0.0014547374 0.0012540743 0 0.0013611056 0 0)
(-0.0021780559 0.0019206023 0 0.0019412255 0 0)
(-0.0031977759 0.0030865028 0 0.0027393708 0 0)
(-0.004871664 0.0044806037 0 0.0036738426 0 0)
(-0.0064415522 0.0067553032 0 0.0046011786 0 0)
(-0.011197397 0.0094868348 0 0.0060606952 0 0)
(-0.0095325947 0.0075110502 0 0.0065656432 0 0)
(-0.00043530704 0.00039569995 0 0.0004158463 0 0)
(-0.00054801102 3.2911763e-005 0 0.00055810394 0 0)
(-0.00056550139 -0.00010687879 0 0.00054659353 0 0)
(-0.00046353275 -0.00015902053 0 0.0004608831 0 0)
(-0.00036750149 -0.00015994334 0 0.000361965 0 0)
(-0.00028520567 -0.00014392714 0 0.00028266922 0 0)
(-0.00021292818 -0.00011219329 0 0.00021125124 0 0)
(-0.00016523446 -8.0981702e-005 0 0.00016432044 0 0)
(-0.00013410255 -4.9574858e-005 0 0.00013336392 0 0)
(-0.00011926235 -2.0020131e-005 0 0.00011890948 0 0)
(-0.00011871657 1.0713541e-005 0 0.00011821808 0 0)
(-0.00013303972 4.6634431e-005 0 0.0001323584 0 0)
(-0.0001668259 9.4898984e-005 0 0.00016590834 0 0)
(-0.00021701825 0.00015191887 0 0.00021469768 0 0)
(-0.00030176444 0.00023946672 0 0.00029739825 0 0)
(-0.0004267565 0.00036972323 0 0.00041815757 0 0)
(-0.00060563127 0.00056305098 0 0.00058586518 0 0)
(-0.00088233927 0.00087483041 0 0.00083967995 0 0)
(-0.0012899187 0.001386322 0 0.0011980355 0 0)
(-0.0019063092 0.0021032052 0 0.0016749934 0 0)
(-0.0026711132 0.003390708 0 0.0022357436 0 0)
(-0.0041076112 0.0048739686 0 0.0029422634 0 0)
(-0.0049253581 0.0075178319 0 0.0031979662 0 0)
(-0.0094067322 0.010687181 0 0.004357591 0 0)
(-0.0070231487 0.0083942713 0 0.0044540289 0 0)
(-0.00045446176 0.00044919488 0 0.00043179913 0 0)
(-0.00056217993 3.2217449e-005 0 0.00057431592 0 0)
(-0.00057815857 -0.00012802826 0 0.0005578643 0 0)
(-0.00046697581 -0.0001883106 0 0.00046374458 0 0)
(-0.00036278253 -0.0001870273 0 0.00035747417 0 0)
(-0.00027865518 -0.00016660975 0 0.00027570835 0 0)
(-0.00020494494 -0.00013065644 0 0.00020332389 0 0)
(-0.00015664552 -9.4115911e-005 0 0.00015583932 0 0)
(-0.00012599219 -5.8382002e-005 0 0.00012525764 0 0)
(-0.00011114699 -2.608691e-005 0 0.00011084969 0 0)
(-0.00010962419 9.0407955e-006 0 0.00010919766 0 0)
(-0.00012232547 4.8929611e-005 0 0.00012175274 0 0)
(-0.00015241905 0.00010180353 0 0.00015166403 0 0)
(-0.00019744844 0.00016447664 0 0.00019529548 0 0)
(-0.00027284268 0.00026000861 0 0.00026869028 0 0)
(-0.00038349515 0.00040349814 0 0.00037537132 0 0)
(-0.00054042996 0.00061133249 0 0.00052114687 0 0)
(-0.00077694758 0.00094724626 0 0.00073570592 0 0)
(-0.00111351 0.0014956583 0 0.0010254379 0 0)
(-0.0016305417 0.0022266468 0 0.0014019965 0 0)
(-0.0021182776 0.0036175552 0 0.0017237382 0 0)
(-0.0032636057 0.0050730865 0 0.0021396894 0 0)
(-0.0031083449 0.0080179272 0 0.0016033595 0 0)
(-0.0072088111 0.01115547 0 0.0023740724 0 0)
(-0.00087404102 0.011335379 0 -0.0020883589 0 0)
(-0.00047866733 0.00050341585 0 0.00044601189 0 0)
(-0.00057854606 3.0364975e-005 0 0.00060078449 0 0)
(-0.00059259505 -0.00015121369 0 0.00056687502 0 0)
(-0.00047048239 -0.00021967942 0 0.00046689935 0 0)
(-0.00035637623 -0.00021474385 0 0.00035160048 0 0)
(-0.00027067308 -0.00019018011 0 0.00026782401 0 0)
(-0.00019562728 -0.00014879928 0 0.00019425843 0 0)
(-0.00014699858 -0.00010653133 0 0.00014657897 0 0)
(-0.00011684159 -6.6571993e-005 0 0.00011638478 0 0)
(-0.00010215243 -3.1918279e-005 0 0.00010216129 0 0)
(-9.9850936e-005 8.8018098e-006 0 9.9805986e-005 0 0)
(-0.00010981262 4.9354675e-005 0 0.00010952775 0 0)
(-0.00013729803 0.00010883124 0 0.00013678321 0 0)
(-0.00017629474 0.00017589277 0 0.00017450486 0 0)
(-0.00024214727 0.00027899273 0 0.00023869086 0 0)
(-0.00033799824 0.00043177293 0 0.00033082313 0 0)
(-0.00046917006 0.0006522169 0 0.00045031106 0 0)
(-0.00066212584 0.0010066033 0 0.00062204392 0 0)
(-0.00092422526 0.0015838494 0 0.00084110902 0 0)
(-0.0013078776 0.0023108862 0 0.0010813714 0 0)
(-0.001511607 0.0037343235 0 0.0011618417 0 0)
(-0.0021816602 0.0051260288 0 0.0011164961 0 0)
(-0.00094029909 0.0078114001 0 -0.00019420878 0 0)
(-0.0030352847 0.010160618 0 -0.0010045111 0 0)
(0.0029891171 0.012042931 0 -0.0076398295 0 0)
(-0.013891836 0.00052250276 0 0.0092507665 0 0)
(-0.0078607882 0.00093214479 0 0.0057650195 0 0)
(-0.0029739403 0.001343968 0 0.0021703058 0 0)
(-0.00086550472 0.0015858037 0 0.00064240618 0 0)
(-0.00028781157 0.0017000677 0 0.00014711524 0 0)
(-6.9379034e-005 0.0017409862 0 -2.6731428e-005 0 0)
(-5.542645e-005 0.0017435947 0 -3.8799568e-005 0 0)
(-6.5264839e-005 0.0017407553 0 -2.5499545e-005 0 0)
(-8.382952e-005 0.0017376525 0 -6.7589302e-006 0 0)
(-9.0587196e-005 0.0017364176 0 2.6835778e-007 0 0)
(-9.1837168e-005 0.0017361922 0 1.592869e-006 0 0)
(-9.0803985e-005 0.0017363402 0 6.0615642e-007 0 0)
(-9.0270935e-005 0.0017364163 0 5.5439835e-008 0 0)
(-9.0083597e-005 0.0017364309 0 -1.338845e-007 0 0)
(-9.0139106e-005 0.0017364201 0 -7.9393155e-008 0 0)
(-9.0208573e-005 0.0017364088 0 -1.027097e-008 0 0)
(-9.0226834e-005 0.0017364056 0 7.8689812e-009 0 0)
(-9.0222156e-005 0.0017364059 0 3.2096021e-009 0 0)
(-9.0219064e-005 0.0017364063 0 4.5539047e-011 0 0)
(-9.0218268e-005 0.0017364063 0 -7.8393214e-010 0 0)
(-9.0218797e-005 0.0017364062 0 -2.9104221e-010 0 0)
(-9.0219831e-005 0.0017364063 0 6.4529382e-010 0 0)
(-9.0220266e-005 0.0017364062 0 1.7669015e-009 0 0)
(-9.0222287e-005 0.0017364062 0 3.1511877e-009 0 0)
(-9.0223871e-005 0.001736406 0 3.3422727e-009 0 0)
(-0.01341972 0.0016579783 0 0.0088959122 0 0)
(-0.0076038898 0.0028451304 0 0.0054733741 0 0)
(-0.0031989124 0.0040103161 0 0.0020477179 0 0)
(-0.0013440616 0.0048373331 0 0.00056673346 0 0)
(-0.00093850804 0.0051387325 0 0.00012447822 0 0)
(-0.00079916484 0.0052225244 0 -1.1108281e-005 0 0)
(-0.0007841694 0.0052330571 0 -3.1318343e-005 0 0)
(-0.00079429212 0.005224977 0 -1.9981109e-005 0 0)
(-0.00080869631 0.0052174172 0 -5.1293919e-006 0 0)
(-0.00081378471 0.0052146904 0 4.8680896e-007 0 0)
(-0.00081479812 0.0052142239 0 1.4322832e-006 0 0)
(-0.00081396154 0.0052146146 0 5.6692397e-007 0 0)
(-0.00081343949 0.0052148454 0 5.0555344e-008 0 0)
(-0.00081325437 0.0052148998 0 -1.1297134e-007 0 0)
(-0.00081330307 0.0052148713 0 -5.3502223e-008 0 0)
(-0.00081334744 0.0052148501 0 -3.5482982e-009 0 0)
(-0.00081335804 0.0052148448 0 7.5546419e-009 0 0)
(-0.00081335416 0.0052148457 0 3.4758616e-009 0 0)
(-0.00081335066 0.005214847 0 -1.7790924e-010 0 0)
(-0.00081335018 0.005214847 0 -7.0459315e-010 0 0)
(-0.00081335064 0.0052148471 0 -3.2175947e-010 0 0)
(-0.00081335165 0.0052148472 0 5.6986967e-010 0 0)
(-0.00081335208 0.0052148471 0 1.5216733e-009 0 0)
(-0.00081335437 0.0052148468 0 3.0671421e-009 0 0)
(-0.00081335647 0.0052148486 0 3.332751e-009 0 0)
(-0.012616574 0.0028819953 0 0.0083731156 0 0)
(-0.0069961349 0.00486093 0 0.0048943119 0 0)
(-0.003619895 0.0070451409 0 0.0016705316 0 0)
(-0.0025602569 0.0081135797 0 0.00055131729 0 0)
(-0.0023398398 0.0085332951 0 0.00016710059 0 0)
(-0.0022503272 0.0087172142 0 3.4751709e-006 0 0)
(-0.0022553052 0.0087342165 0 -1.9511279e-005 0 0)
(-0.0022595232 0.0087240074 0 -1.247102e-005 0 0)
(-0.0022669255 0.0087139951 0 -2.8567497e-006 0 0)
(-0.0022694994 0.0087106634 0 9.0989572e-007 0 0)
(-0.0022695801 0.008710579 0 1.0340458e-006 0 0)
(-0.002268995 0.0087110717 0 4.1560161e-007 0 0)
(-0.0022685768 0.0087113907 0 -3.256416e-009 0 0)
(-0.0022684647 0.0087114448 0 -8.8138596e-008 0 0)
(-0.002268494 0.0087114009 0 -3.6015106e-008 0 0)
(-0.0022685215 0.0087113719 0 3.3844201e-010 0 0)
(-0.0022685268 0.0087113665 0 6.3520605e-009 0 0)
(-0.0022685236 0.0087113684 0 2.53801e-009 0 0)
(-0.0022685217 0.0087113705 0 -3.063263e-010 0 0)
(-0.0022685215 0.0087113707 0 -5.4736556e-010 0 0)
(-0.0022685219 0.0087113706 0 -1.519846e-010 0 0)
(-0.0022685224 0.0087113703 0 3.6171893e-010 0 0)
(-0.002268523 0.0087113704 0 1.1894273e-009 0 0)
(-0.0022685249 0.00871137 0 2.5325371e-009 0 0)
(-0.0022685278 0.0087113739 0 2.7530757e-009 0 0)
(-0.011430657 0.0042128465 0 0.007455637 0 0)
(-0.0060658389 0.007793183 0 0.0035430874 0 0)
(-0.004836016 0.0099236088 0 0.001573198 0 0)
(-0.004251951 0.011600051 0 0.00039579409 0 0)
(-0.0043960685 0.012139084 0 6.9570823e-005 0 0)
(-0.0044605533 0.012265814 0 4.4029546e-006 0 0)
(-0.0044804326 0.012269138 0 -8.3355824e-006 0 0)
(-0.0044790933 0.012255506 0 -4.9782864e-006 0 0)
(-0.0044799155 0.012244984 0 -7.1075597e-007 0 0)
(-0.0044800652 0.012242152 0 7.5695406e-007 0 0)
(-0.0044798379 0.012242421 0 5.4546769e-007 0 0)
(-0.0044795022 0.012243017 0 1.5351315e-007 0 0)
(-0.0044793179 0.012243322 0 -4.2113761e-008 0 0)
(-0.0044792786 0.012243349 0 -5.0043736e-008 0 0)
(-0.0044792864 0.012243298 0 -1.3042485e-008 0 0)
(-0.0044792939 0.012243272 0 3.3666127e-009 0 0)
(-0.0044792946 0.012243268 0 3.9851277e-009 0 0)
(-0.0044792939 0.012243271 0 1.1262488e-009 0 0)
(-0.0044792933 0.012243273 0 -2.7520049e-010 0 0)
(-0.0044792929 0.012243272 0 -3.3450819e-010 0 0)
(-0.0044792931 0.012243273 0 -5.8653371e-011 0 0)
(-0.0044792933 0.012243273 0 1.5190656e-010 0 0)
(-0.0044792939 0.012243273 0 3.8670285e-010 0 0)
(-0.0044792964 0.012243274 0 1.8308474e-009 0 0)
(-0.0044793004 0.012243278 0 1.9040943e-009 0 0)
(-0.0095238947 0.0056794563 0 0.0059909983 0 0)
(-0.006260402 0.01079716 0 0.0024532517 0 0)
(-0.0063518961 0.01338778 0 0.0010187262 0 0)
(-0.0068677648 0.015199328 0 0.00026060377 0 0)
(-0.0073633072 0.015736643 0 6.042365e-005 0 0)
(-0.0074845161 0.015851171 0 1.9995164e-005 0 0)
(-0.0075029323 0.015851129 0 4.9705593e-006 0 0)
(-0.0074941063 0.015838734 0 2.3449313e-006 0 0)
(-0.0074886493 0.015830814 0 7.8933756e-007 0 0)
(-0.0074867534 0.015829232 0 2.20829e-007 0 0)
(-0.0074864762 0.015829745 0 -6.6401088e-008 0 0)
(-0.007486533 0.015830274 0 -9.9394164e-008 0 0)
(-0.0074866101 0.015830462 0 -4.2087457e-008 0 0)
(-0.0074866155 0.015830456 0 -3.6923952e-009 0 0)
(-0.0074865968 0.015830412 0 6.5454991e-009 0 0)
(-0.007486586 0.015830394 0 3.3294676e-009 0 0)
(-0.0074865842 0.015830393 0 6.4188164e-010 0 0)
(-0.0074865855 0.015830396 0 -1.6776942e-010 0 0)
(-0.0074865861 0.015830397 0 -1.0672748e-010 0 0)
(-0.0074865863 0.015830396 0 -1.4770593e-011 0 0)
(-0.0074865864 0.015830396 0 -1.6661376e-011 0 0)
(-0.0074865863 0.015830396 0 -1.0113859e-010 0 0)
(-0.007486587 0.015830397 0 -9.2583824e-011 0 0)
(-0.0074865885 0.015830398 0 3.8466806e-010 0 0)
(-0.0074865935 0.015830404 0 3.9963655e-010 0 0)
(-0.0074923578 0.0087744587 0 0.0036170882 0 0)
(-0.0068556983 0.014098792 0 0.0012296095 0 0)
(-0.0090325513 0.017393844 0 0.00037502975 0 0)
(-0.010606325 0.019031479 0 0.00012724108 0 0)
(-0.011256994 0.019429564 0 4.8279125e-005 0 0)
(-0.011366103 0.019503581 0 2.9744259e-005 0 0)
(-0.011367921 0.019497114 0 1.4983335e-005 0 0)
(-0.011352786 0.019489366 0 7.905023e-006 0 0)
(-0.011341378 0.019485188 0 1.2335514e-006 0 0)
(-0.01133799 0.01948477 0 -5.687443e-007 0 0)
(-0.011337994 0.019485146 0 -6.0861203e-007 0 0)
(-0.011338486 0.019485418 0 -2.3699615e-007 0 0)
(-0.011338767 0.019485479 0 3.7009899e-009 0 0)
(-0.01133879 0.019485468 0 4.4558405e-008 0 0)
(-0.011338745 0.019485448 0 1.9420158e-008 0 0)
(-0.011338721 0.019485442 0 6.4711929e-010 0 0)
(-0.011338718 0.019485441 0 -2.7907128e-009 0 0)
(-0.011338721 0.019485442 0 -9.2966974e-010 0 0)
(-0.011338723 0.019485442 0 2.3671232e-010 0 0)
(-0.011338723 0.019485442 0 2.2826146e-010 0 0)
(-0.011338723 0.019485442 0 2.0692407e-011 0 0)
(-0.011338722 0.019485442 0 -3.5054122e-010 0 0)
(-0.011338724 0.019485443 0 -4.8343516e-010 0 0)
(-0.011338724 0.019485445 0 -1.5148493e-009 0 0)
(-0.011338729 0.01948545 0 -1.397785e-009 0 0)
(-0.0065205093 0.011429331 0 0.0014589053 0 0)
(-0.0089053828 0.018758532 0 -0.00032236825 0 0)
(-0.01358865 0.021729021 0 -8.0544869e-005 0 0)
(-0.015463919 0.022929414 0 5.1266609e-005 0 0)
(-0.016047351 0.02315472 0 5.6021326e-005 0 0)
(-0.016109365 0.023200718 0 4.1748193e-005 0 0)
(-0.016101635 0.023201854 0 2.2425234e-005 0 0)
(-0.016084511 0.023202576 0 1.0418129e-005 0 0)
(-0.0160718 0.023203169 0 8.7825553e-007 0 0)
(-0.016068144 0.023203421 0 -1.3148899e-006 0 0)
(-0.016068483 0.023203273 0 -8.878054e-007 0 0)
(-0.016069108 0.023203195 0 -3.0786834e-007 0 0)
(-0.016069544 0.023203151 0 5.6194044e-008 0 0)
(-0.016069577 0.023203166 0 7.4953163e-008 0 0)
(-0.016069527 0.023203177 0 2.7823966e-008 0 0)
(-0.01606949 0.02320318 0 -2.7047877e-009 0 0)
(-0.016069486 0.023203177 0 -4.8610221e-009 0 0)
(-0.01606949 0.023203176 0 -1.2932063e-009 0 0)
(-0.016069492 0.023203176 0 5.2643029e-010 0 0)
(-0.016069492 0.023203176 0 4.4952622e-010 0 0)
(-0.016069491 0.023203176 0 2.5312452e-011 0 0)
(-0.016069491 0.023203176 0 -6.0224324e-010 0 0)
(-0.016069492 0.023203177 0 -1.0644932e-009 0 0)
(-0.016069491 0.02320318 0 -3.1954608e-009 0 0)
(-0.016069495 0.023203183 0 -2.836073e-009 0 0)
(-0.0065190886 0.016134586 0 -0.001749098 0 0)
(-0.013520533 0.024131818 0 -0.0016968183 0 0)
(-0.019862893 0.026150936 0 -0.0003004062 0 0)
(-0.02121772 0.026791599 0 8.4646129e-006 0 0)
(-0.021671469 0.026881235 0 6.0928357e-005 0 0)
(-0.02169285 0.026921511 0 4.5047376e-005 0 0)
(-0.021701152 0.02694089 0 2.3949022e-005 0 0)
(-0.021686876 0.026952511 0 7.9554649e-006 0 0)
(-0.021678967 0.026955178 0 3.3417436e-007 0 0)
(-0.021675386 0.026955163 0 -1.6175513e-006 0 0)
(-0.021675496 0.026954246 0 -9.3332526e-007 0 0)
(-0.021676203 0.026953863 0 -1.9688918e-007 0 0)
(-0.021676636 0.026953826 0 9.4637868e-008 0 0)
(-0.021676688 0.026953895 0 8.1591376e-008 0 0)
(-0.021676633 0.026953931 0 2.0103576e-008 0 0)
(-0.021676597 0.026953934 0 -5.0662874e-009 0 0)
(-0.021676591 0.026953928 0 -5.0377566e-009 0 0)
(-0.021676595 0.026953926 0 -7.9466074e-010 0 0)
(-0.021676597 0.026953925 0 7.1425996e-010 0 0)
(-0.021676597 0.026953926 0 4.8349284e-010 0 0)
(-0.021676597 0.026953926 0 -4.0796717e-011 0 0)
(-0.021676596 0.026953927 0 -7.8921409e-010 0 0)
(-0.021676596 0.026953928 0 -1.9298661e-009 0 0)
(-0.021676594 0.02695393 0 -3.9480238e-009 0 0)
(-0.021676594 0.02695393 0 -3.3709431e-009 0 0)
(-0.011800774 0.025066598 0 -0.0052828693 0 0)
(-0.021845763 0.030248241 0 -0.0027356795 0 0)
(-0.027365649 0.030479161 0 -0.00030580941 0 0)
(-0.027720641 0.030552252 0 -1.4437277e-005 0 0)
(-0.028038007 0.030572877 0 6.9115519e-005 0 0)
(-0.028086951 0.030642757 0 3.5949013e-005 0 0)
(-0.028134811 0.030680886 0 1.8833734e-005 0 0)
(-0.028132198 0.030698524 0 4.5161112e-006 0 0)
(-0.028128667 0.030701626 0 -5.3642501e-007 0 0)
(-0.028124826 0.030700397 0 -1.5070082e-006 0 0)
(-0.028124279 0.030698726 0 -6.6000904e-007 0 0)
(-0.028124705 0.030698223 0 -7.9984265e-008 0 0)
(-0.028125093 0.030698255 0 9.8241118e-008 0 0)
(-0.028125174 0.030698377 0 6.1772664e-008 0 0)
(-0.028125136 0.030698422 0 1.1050676e-008 0 0)
(-0.028125102 0.030698421 0 -5.7191681e-009 0 0)
(-0.028125095 0.030698413 0 -3.6942069e-009 0 0)
(-0.028125097 0.03069841 0 -2.5905627e-010 0 0)
(-0.028125099 0.03069841 0 6.703107e-010 0 0)
(-0.0281251 0.030698411 0 3.582421e-010 0 0)
(-0.0281251 0.030698411 0 -5.3869555e-011 0 0)
(-0.028125099 0.030698412 0 -8.1741135e-010 0 0)
(-0.028125098 0.030698412 0 -2.2356536e-009 0 0)
(-0.028125094 0.030698413 0 -4.0160194e-009 0 0)
(-0.028125085 0.030698406 0 -2.9582034e-009 0 0)
(-0.035124427 0.042386315 0 -0.0098332752 0 0)
(-0.033466584 0.03568487 0 -0.0018234591 0 0)
(-0.03968374 0.036613171 0 -0.00018525397 0 0)
(-0.038210027 0.035830607 0 -1.3428645e-006 0 0)
(-0.039073619 0.036128201 0 3.5525694e-005 0 0)
(-0.039048752 0.036146309 0 1.2754516e-005 0 0)
(-0.039175946 0.036210262 0 6.4304911e-006 0 0)
(-0.039169215 0.036217764 0 1.0073641e-006 0 0)
(-0.039173022 0.036221511 0 -4.0966881e-007 0 0)
(-0.039165956 0.036218191 0 -6.4419089e-007 0 0)
(-0.039164948 0.036216662 0 -2.2100703e-007 0 0)
(-0.039164842 0.036216215 0 -4.6570465e-009 0 0)
(-0.039165284 0.036216386 0 4.7762862e-008 0 0)
(-0.039165421 0.03621653 0 2.438652e-008 0 0)
(-0.039165428 0.036216575 0 2.9155112e-009 0 0)
(-0.039165398 0.036216567 0 -2.7401761e-009 0 0)
(-0.039165388 0.036216557 0 -1.3721151e-009 0 0)
(-0.039165389 0.036216555 0 1.0582499e-011 0 0)
(-0.039165391 0.036216556 0 3.0101838e-010 0 0)
(-0.039165393 0.036216557 0 1.1775581e-010 0 0)
(-0.039165393 0.036216558 0 -1.0523614e-010 0 0)
(-0.039165392 0.036216557 0 -5.5532532e-010 0 0)
(-0.039165389 0.036216556 0 -1.7029232e-009 0 0)
(-0.039165381 0.036216553 0 -2.218037e-009 0 0)
(-0.039165362 0.036216542 0 -1.1141989e-009 0 0)
(-0.00053775978 0.00062127293 0 0.0004876254 0 0)
(-0.00061511855 2.4571334e-005 0 0.00066408546 0 0)
(-0.00062410728 -0.00020411291 0 0.00058897267 0 0)
(-0.00047587028 -0.00027943872 0 0.00046901178 0 0)
(-0.00034683348 -0.00026745976 0 0.00034087872 0 0)
(-0.00024747026 -0.00022820281 0 0.00024326186 0 0)
(-0.00017477857 -0.0001763444 0 0.00017191966 0 0)
(-0.00012646581 -0.00012475331 0 0.00012517992 0 0)
(-9.7004604e-005 -7.6031419e-005 0 9.5620637e-005 0 0)
(-8.2460464e-005 -3.5434642e-005 0 8.1893433e-005 0 0)
(-7.8284033e-005 1.2248005e-005 0 7.7688002e-005 0 0)
(-8.5738373e-005 6.0897263e-005 0 8.4404151e-005 0 0)
(-0.00010348803 0.00012363816 0 0.00010257349 0 0)
(-0.00013129758 0.00019808813 0 0.00012841331 0 0)
(-0.00017681002 0.00031150118 0 0.00017193717 0 0)
(-0.00024260957 0.0004848147 0 0.00023472608 0 0)
(-0.00032479022 0.00071550508 0 0.00030339502 0 0)
(-0.00044203949 0.0010830799 0 0.00039997489 0 0)
(-0.00055272407 0.0016857601 0 0.00047870578 0 0)
(-0.00070637772 0.0023857091 0 0.00050388484 0 0)
(-0.00063347737 0.0036980004 0 0.0003442857 0 0)
(-0.00053239683 0.0048849889 0 -0.0003407803 0 0)
(0.001320535 0.0069415059 0 -0.0019738861 0 0)
(0.0018962176 0.0076216928 0 -0.0043455826 0 0)
(0.0098097642 0.0072728395 0 -0.012887657 0 0)
(-0.00066893941 0.00083040633 0 0.0005914045 0 0)
(-0.0007003021 5.4528797e-006 0 0.00076561236 0 0)
(-0.00067451525 -0.00029577483 0 0.00062851228 0 0)
(-0.00047284176 -0.00036292371 0 0.00046195631 0 0)
(-0.00031295028 -0.00033086357 0 0.00030755265 0 0)
(-0.00020143945 -0.00026354838 0 0.00019770019 0 0)
(-0.00013082493 -0.00019307415 0 0.00012895524 0 0)
(-8.4015296e-005 -0.00012315236 0 8.3973623e-005 0 0)
(-5.9196181e-005 -6.4346334e-005 0 5.8716346e-005 0 0)
(-4.6135162e-005 -1.5593451e-005 0 4.6065072e-005 0 0)
(-3.9757646e-005 4.1252318e-005 0 3.9717463e-005 0 0)
(-4.0425879e-005 9.3955876e-005 0 4.0067822e-005 0 0)
(-4.5857804e-005 0.0001630364 0 4.6187343e-005 0 0)
(-5.5752764e-005 0.00024829198 0 5.4358638e-005 0 0)
(-7.0582248e-005 0.00036298116 0 6.4653355e-005 0 0)
(-8.684955e-005 0.00054785342 0 8.1358767e-005 0 0)
(-9.8409859e-005 0.00078243387 0 8.3197776e-005 0 0)
(-0.00010741515 0.0011268871 0 6.6689082e-005 0 0)
(-4.3946364e-005 0.0016994266 0 -2.1029499e-005 0 0)
(7.9084631e-005 0.0023084444 0 -0.00025270802 0 0)
(0.00056596106 0.0032050385 0 -0.00083205907 0 0)
(0.0011809182 0.0037800219 0 -0.001884321 0 0)
(0.0031631807 0.0042551415 0 -0.0038943104 0 0)
(0.005202997 0.001946268 0 -0.0073930758 0 0)
(0.0063196848 -0.0012127637 0 -0.0092387854 0 0)
(-0.00085481592 0.0010825769 0 0.00075257127 0 0)
(-0.00079507883 -2.1412756e-005 0 0.00086853653 0 0)
(-0.00070385848 -0.00037235088 0 0.00065002554 0 0)
(-0.00043824961 -0.00040361669 0 0.00042510045 0 0)
(-0.00024993157 -0.00032793955 0 0.00024575344 0 0)
(-0.00013500777 -0.00022247852 0 0.00013151049 0 0)
(-7.2227683e-005 -0.00013123847 0 7.0899287e-005 0 0)
(-3.2959945e-005 -4.40395e-005 0 3.2993763e-005 0 0)
(-1.4357884e-005 2.615974e-005 0 1.4339882e-005 0 0)
(-4.7473472e-006 8.2082803e-005 0 4.46915e-006 0 0)
(2.0704001e-006 0.00013727338 0 -2.1189392e-006 0 0)
(6.9546218e-006 0.00019196811 0 -7.8083299e-006 0 0)
(1.2636165e-005 0.00026555546 0 -1.5010306e-005 0 0)
(2.3308219e-005 0.00035131138 0 -2.4288226e-005 0 0)
(3.497286e-005 0.00045751267 0 -4.1853169e-005 0 0)
(6.1512729e-005 0.00062528549 0 -7.1967712e-005 0 0)
(0.00011746248 0.00086679014 0 -0.00013302153 0 0)
(0.00019182429 0.0011590589 0 -0.00023476318 0 0)
(0.00038936335 0.0016397284 0 -0.0004575573 0 0)
(0.00067497825 0.0021258082 0 -0.00082191841 0 0)
(0.0012649237 0.0027206501 0 -0.0014887027 0 0)
(0.0020885858 0.0029552338 0 -0.0025290891 0 0)
(0.0034921949 0.0027693974 0 -0.0038741181 0 0)
(0.0046686231 0.0006658896 0 -0.0054169383 0 0)
(0.0035809994 -0.0027698367 0 -0.0037531521 0 0)
(-0.001082785 0.0014056641 0 0.00094323645 0 0)
(-0.00084515803 -4.1238868e-005 0 0.00092573122 0 0)