/*--------------------------------*- C++ -*----------------------------------*\
| =========                 |                                                 |
| \\      /  F ield         | OpenFOAM: The Open Source CFD Toolbox           |
|  \\    /   O peration     | Version:  5.x                                   |
|   \\  /    A nd           | Web:      www.OpenFOAM.org                      |
|    \\/     M anipulation  |                                                 |
\*---------------------------------------------------------------------------*/
/*   Windows 32 and 64 bit porting by blueCAPE: http://www.bluecape.com.pt   *\
|  Based on Windows porting (2.0.x v4) by Symscape: http://www.symscape.com   |
\*---------------------------------------------------------------------------*/
FoamFile
{
    version     2.0;
    format      ascii;
    class       volSymmTensorField;
    location    "0.21";
    object      sigma;
}
// * * * * * * * * * * * * * * * * * * * * * * * * * * * * * * * * * * * * * //

dimensions      [0 2 -2 0 0 0 0];

internalField   nonuniform List<symmTensor> 
750
(
(-0.00038465043 2.5759939e-005 0 0.00037405884 0 0)
(-0.00050234762 3.1512e-006 0 0.00050752818 0 0)
(-0.00052515362 -5.3515505e-006 0 0.00051058158 0 0)
(-0.00045183122 -9.085426e-006 0 0.00044967215 0 0)
(-0.00037908465 -9.1995003e-006 0 0.00037405362 0 0)
(-0.00030663633 -8.4913714e-006 0 0.00030449571 0 0)
(-0.00024003011 -6.6490922e-006 0 0.00023830287 0 0)
(-0.00019422653 -4.7635297e-006 0 0.00019328596 0 0)
(-0.00016237308 -2.6377909e-006 0 0.00016166319 0 0)
(-0.00014874872 -4.6016338e-007 0 0.00014817399 0 0)
(-0.00015127939 1.5146159e-006 0 0.00015058915 0 0)
(-0.00017406015 4.2397903e-006 0 0.00017323913 0 0)
(-0.00021920069 7.6502445e-006 0 0.0002179939 0 0)
(-0.00029060552 1.200463e-005 0 0.00028810154 0 0)
(-0.00040984831 1.8575962e-005 0 0.00040521265 0 0)
(-0.00058924201 2.8534456e-005 0 0.00058003488 0 0)
(-0.00086004899 4.3790625e-005 0 0.00083955323 0 0)
(-0.0012961494 6.8685627e-005 0 0.0012511623 0 0)
(-0.0019936459 0.00011150091 0 0.0018939615 0 0)
(-0.0031021108 0.00017344888 0 0.0028475581 0 0)
(-0.0048134635 0.00027567215 0 0.0042843955 0 0)
(-0.0073529012 0.00041171453 0 0.0060430797 0 0)
(-0.010680548 0.0005644186 0 0.0083566969 0 0)
(-0.014529563 0.00080898314 0 0.010158105 0 0)
(-0.017862793 0.00058252225 0 0.011926277 0 0)
(-0.00038673382 7.7703801e-005 0 0.0003734379 0 0)
(-0.00050322533 9.5848401e-006 0 0.00051298035 0 0)
(-0.00052667457 -1.6544296e-005 0 0.00050938003 0 0)
(-0.00045191147 -2.7087386e-005 0 0.00045090332 0 0)
(-0.00037940549 -2.7797034e-005 0 0.00037371828 0 0)
(-0.0003053483 -2.5439889e-005 0 0.00030342165 0 0)
(-0.0002387027 -1.9804361e-005 0 0.00023696239 0 0)
(-0.00019378984 -1.422099e-005 0 0.00019262453 0 0)
(-0.00016142033 -7.8834078e-006 0 0.00016062817 0 0)
(-0.00014767437 -1.2977822e-006 0 0.00014703079 0 0)
(-0.00015002205 4.5827307e-006 0 0.00014924261 0 0)
(-0.00017258082 1.277248e-005 0 0.00017165991 0 0)
(-0.00021725468 2.2912809e-005 0 0.00021592169 0 0)
(-0.00028768457 3.5881255e-005 0 0.00028494626 0 0)
(-0.00040584772 5.5527776e-005 0 0.00040090349 0 0)
(-0.00058320778 8.5040297e-005 0 0.0005735455 0 0)
(-0.00085000202 0.00013014261 0 0.00082860705 0 0)
(-0.0012800056 0.00020399529 0 0.0012336872 0 0)
(-0.0019672844 0.00032960363 0 0.0018658917 0 0)
(-0.0030512388 0.00050221159 0 0.0027923361 0 0)
(-0.0047435904 0.0008271041 0 0.0042159663 0 0)
(-0.0072036424 0.0011710899 0 0.0058817394 0 0)
(-0.010527427 0.0016849386 0 0.0082404169 0 0)
(-0.014318932 0.0024978583 0 0.0098357467 0 0)
(-0.017473243 0.0017958687 0 0.011799616 0 0)
(-0.00038984064 0.00013020178 0 0.00037508341 0 0)
(-0.00050608672 1.5599994e-005 0 0.00051749975 0 0)
(-0.00052945029 -2.8444325e-005 0 0.00051094402 0 0)
(-0.00045273352 -4.5252535e-005 0 0.00045201788 0 0)
(-0.00037880032 -4.6895141e-005 0 0.00037299002 0 0)
(-0.00030387822 -4.2837482e-005 0 0.00030198814 0 0)
(-0.00023677777 -3.3158619e-005 0 0.00023507173 0 0)
(-0.00019185305 -2.3862579e-005 0 0.00019076651 0 0)
(-0.00015936273 -1.3388094e-005 0 0.00015863479 0 0)
(-0.00014554897 -2.4572966e-006 0 0.0001449786 0 0)
(-0.00014760989 7.3804832e-006 0 0.00014690812 0 0)
(-0.00016958015 2.0964817e-005 0 0.00016874956 0 0)
(-0.00021344161 3.7724899e-005 0 0.00021223304 0 0)
(-0.00028202641 5.911056e-005 0 0.00027943398 0 0)
(-0.0003978183 9.1698087e-005 0 0.00039310118 0 0)
(-0.00057101981 0.000140228 0 0.00056174669 0 0)
(-0.00083047406 0.00021432825 0 0.0008096302 0 0)
(-0.0012484723 0.00033570217 0 0.0012032264 0 0)
(-0.0019140064 0.00053914844 0 0.0018147345 0 0)
(-0.0029553917 0.00083522705 0 0.0026998302 0 0)
(-0.004591373 0.0013445817 0 0.0040757883 0 0)
(-0.0069452923 0.0019574661 0 0.0056395252 0 0)
(-0.010149146 0.0027953325 0 0.0079215896 0 0)
(-0.014097266 0.0040855007 0 0.0094073218 0 0)
(-0.016647919 0.0029366282 0 0.011415089 0 0)
(-0.00039443822 0.00018315501 0 0.00037909637 0 0)
(-0.0005108402 2.1128867e-005 0 0.00052219864 0 0)
(-0.00053361938 -4.122595e-005 0 0.00051504123 0 0)
(-0.00045408346 -6.4573353e-005 0 0.00045313686 0 0)
(-0.00037769492 -6.6954709e-005 0 0.00037198391 0 0)
(-0.00030182039 -6.102604e-005 0 0.00029981824 0 0)
(-0.00023410925 -4.7158519e-005 0 0.0002323795 0 0)
(-0.00018863523 -3.3980213e-005 0 0.0001876272 0 0)
(-0.00015627738 -1.9393431e-005 0 0.00015555334 0 0)
(-0.00014237258 -4.2958022e-006 0 0.00014182704 0 0)
(-0.0001440734 9.5685084e-006 0 0.00014339442 0 0)
(-0.00016506646 2.8382172e-005 0 0.00016425426 0 0)
(-0.00020756145 5.1642819e-005 0 0.00020639192 0 0)
(-0.00027381681 8.1250745e-005 0 0.00027124775 0 0)
(-0.00038575086 0.00012635176 0 0.00038108713 0 0)
(-0.00055268488 0.00019331006 0 0.00054351113 0 0)
(-0.00080152948 0.00029577214 0 0.00078080716 0 0)
(-0.0012008383 0.00046381024 0 0.0011558617 0 0)
(-0.0018315764 0.00074442475 0 0.0017330439 0 0)
(-0.0028202445 0.0011459383 0 0.0025674518 0 0)
(-0.0043516653 0.0018483044 0 0.0038447618 0 0)
(-0.0065761827 0.002696243 0 0.0052899972 0 0)
(-0.0095359667 0.0038934992 0 0.0073879697 0 0)
(-0.013667194 0.0055393726 0 0.0088479432 0 0)
(-0.015823795 0.0041231499 0 0.010910379 0 0)
(-0.00040088799 0.00023618249 0 0.00038475229 0 0)
(-0.00051734203 2.586644e-005 0 0.00052852551 0 0)
(-0.00053928422 -5.5226494e-005 0 0.00052066567 0 0)
(-0.00045587216 -8.52035e-005 0 0.00045461369 0 0)
(-0.0003761467 -8.8083578e-005 0 0.00037050899 0 0)
(-0.00029901542 -8.0087222e-005 0 0.00029691645 0 0)
(-0.00023047711 -6.2003813e-005 0 0.000228761 0 0)
(-0.00018433674 -4.4671724e-005 0 0.00018337733 0 0)
(-0.00015221124 -2.5920498e-005 0 0.00015149115 0 0)
(-0.00013813451 -6.8501658e-006 0 0.00013763373 0 0)
(-0.00013937111 1.1047273e-005 0 0.00013872263 0 0)
(-0.00015915606 3.4903281e-005 0 0.00015838042 0 0)
(-0.00019985038 6.4484934e-005 0 0.00019873445 0 0)
(-0.00026307998 0.00010185886 0 0.00026056944 0 0)
(-0.00036984595 0.00015893209 0 0.00036525402 0 0)
(-0.00052865426 0.00024350432 0 0.00051958091 0 0)
(-0.00076400398 0.00037200217 0 0.00074345516 0 0)
(-0.0011397328 0.00058202713 0 0.0010951945 0 0)
(-0.0017273795 0.00093079888 0 0.0016303362 0 0)
(-0.0026426798 0.0014354577 0 0.0023931969 0 0)
(-0.0040379426 0.0023092897 0 0.0035435405 0 0)
(-0.0061063633 0.0033668869 0 0.0048472649 0 0)
(-0.0087286941 0.0049117233 0 0.0066721026 0 0)
(-0.012894427 0.007203053 0 0.0079723177 0 0)
(-0.014853983 0.0052960495 0 0.010358184 0 0)
(-0.00040956018 0.00028933964 0 0.00039235277 0 0)
(-0.00052577471 2.9637209e-005 0 0.00053680697 0 0)
(-0.00054649207 -7.0665696e-005 0 0.00052771204 0 0)
(-0.00045811608 -0.00010764562 0 0.00045650372 0 0)
(-0.00037408809 -0.00011061808 0 0.00036852167 0 0)
(-0.00029539449 -0.00010023069 0 0.00029318467 0 0)
(-0.00022581964 -7.7866166e-005 0 0.00022413082 0 0)
(-0.00017899761 -5.6085431e-005 0 0.00017807035 0 0)
(-0.00014716837 -3.3124342e-005 0 0.00014645779 0 0)
(-0.00013284015 -1.0323125e-005 0 0.00013239311 0 0)
(-0.0001336026 1.1753261e-005 0 0.00013299961 0 0)
(-0.0001517154 4.0106547e-005 0 0.00015096573 0 0)
(-0.00019047742 7.608031e-005 0 0.00018943235 0 0)
(-0.00024991534 0.0001206284 0 0.00024746508 0 0)
(-0.00035048428 0.00018888819 0 0.00034595699 0 0)
(-0.0004994837 0.00028979599 0 0.00049057303 0 0)
(-0.00071832235 0.00044258734 0 0.00069801712 0 0)
(-0.0010653312 0.00069143422 0 0.0010212807 0 0)
(-0.0015987414 0.0011046577 0 0.0015032484 0 0)
(-0.002426328 0.0016965661 0 0.0021816292 0 0)
(-0.0036505577 0.0027262441 0 0.0031721124 0 0)
(-0.0055291336 0.0039781598 0 0.0042985834 0 0)
(-0.0076620641 0.005911173 0 0.0057049848 0 0)
(-0.012100401 0.0084997892 0 0.0070429286 0 0)
(-0.012800572 0.0061092079 0 0.0091986461 0 0)
(-0.00042090585 0.00034253276 0 0.00040259432 0 0)
(-0.00053621543 3.2087386e-005 0 0.00054682195 0 0)
(-0.00055534301 -8.7856223e-005 0 0.00053646394 0 0)
(-0.00046082823 -0.0001322275 0 0.00045875849 0 0)
(-0.00037139093 -0.00013452539 0 0.00036586087 0 0)
(-0.00029091868 -0.00012156809 0 0.00028857503 0 0)
(-0.00022006369 -9.4616961e-005 0 0.00021840047 0 0)
(-0.00017270143 -6.8242063e-005 0 0.00017178301 0 0)
(-0.00014115599 -4.1121589e-005 0 0.00014044338 0 0)
(-0.00012655039 -1.4728439e-005 0 0.00012615651 0 0)
(-0.00012664753 1.1433815e-005 0 0.00012608135 0 0)
(-0.0001432374 4.429588e-005 0 0.00014253274 0 0)
(-0.0001792027 8.5974335e-005 0 0.00017821807 0 0)
(-0.00023455577 0.0001373506 0 0.00023214163 0 0)
(-0.00032781026 0.00021583866 0 0.00032333747 0 0)
(-0.00046523273 0.00033210728 0 0.00045646249 0 0)
(-0.00066550987 0.00050631182 0 0.00064547595 0 0)
(-0.00097958091 0.00078887903 0 0.00093614537 0 0)
(-0.0014550004 0.001254269 0 0.0013613294 0 0)
(-0.0021783601 0.0019207494 0 0.0019414708 0 0)
(-0.0031978904 0.0030865034 0 0.0027394366 0 0)
(-0.0048713957 0.0044804341 0 0.0036736237 0 0)
(-0.0064408798 0.0067551353 0 0.0046006812 0 0)
(-0.01119674 0.0094866449 0 0.0060603218 0 0)
(-0.0095323538 0.0075118125 0 0.0065651558 0 0)
(-0.00043567147 0.00039597162 0 0.00041618341 0 0)
(-0.00054846428 3.2907638e-005 0 0.00055856234 0 0)
(-0.00056599341 -0.00010700586 0 0.00054705792 0 0)
(-0.0004639522 -0.00015920511 0 0.00046129447 0 0)
(-0.00036784038 -0.00016014849 0 0.00036229248 0 0)
(-0.00028546357 -0.00014413254 0 0.00028292195 0 0)
(-0.00021309491 -0.00011236639 0 0.00021141432 0 0)
(-0.00016534641 -8.1127615e-005 0 0.00016443098 0 0)
(-0.00013417069 -4.9688293e-005 0 0.00013343088 0 0)
(-0.00011930258 -2.0116884e-005 0 0.0001189492 0 0)
(-0.00011873936 1.0642623e-005 0 0.00011824093 0 0)
(-0.00013305248 4.6575185e-005 0 0.00013237146 0 0)
(-0.00016682771 9.485073e-005 0 0.00016591006 0 0)
(-0.00021701915 0.0001518836 0 0.0002146983 0 0)
(-0.00030178135 0.00023946567 0 0.00029741605 0 0)
(-0.00042677781 0.00036974823 0 0.00041817706 0 0)
(-0.0006056961 0.00056314786 0 0.00058592423 0 0)
(-0.00088247652 0.00087500762 0 0.00083979957 0 0)
(-0.0012901283 0.0013865412 0 0.0011982093 0 0)
(-0.0019066154 0.0021033438 0 0.0016752329 0 0)
(-0.0026711808 0.0033907284 0 0.0022357664 0 0)
(-0.0041073669 0.0048738168 0 0.0029420649 0 0)
(-0.0049248035 0.0075177481 0 0.0031975175 0 0)
(-0.0094059738 0.010687607 0 0.0043568339 0 0)
(-0.0070227631 0.0083951936 0 0.0044533822 0 0)
(-0.00045486269 0.00044950567 0 0.00043216767 0 0)
(-0.00056265513 3.2209659e-005 0 0.00057479837 0 0)
(-0.0005786668 -0.00012817026 0 0.0005583425 0 0)
(-0.00046739979 -0.00018851359 0 0.00046415961 0 0)
(-0.00036311581 -0.00018725036 0 0.00035779653 0 0)
(-0.00027890597 -0.00016682855 0 0.00027595323 0 0)
(-0.00020510311 -0.00013084087 0 0.00020347812 0 0)
(-0.00015674751 -9.426731e-005 0 0.00015594026 0 0)
(-0.00012605304 -5.8496744e-005 0 0.00012531733 0 0)
(-0.00011118201 -2.6183412e-005 0 0.00011088439 0 0)
(-0.00010964148 8.9697416e-006 0 0.00010921485 0 0)
(-0.00012233522 4.8877647e-005 0 0.00012176258 0 0)
(-0.00015241853 0.00010176294 0 0.00015166375 0 0)
(-0.00019744362 0.00016444653 0 0.00019529061 0 0)
(-0.00027285114 0.0002600173 0 0.00026869949 0 0)
(-0.00038350593 0.00040353702 0 0.00037538028 0 0)
(-0.00054047269 0.00061144841 0 0.00052118471 0 0)
(-0.00077704107 0.00094745158 0 0.00073578357 0 0)
(-0.0011136583 0.0014959083 0 0.0010255537 0 0)
(-0.0016306419 0.002226865 0 0.0014020434 0 0)
(-0.0021182736 0.0036175824 0 0.0017236957 0 0)
(-0.0032633446 0.0050729708 0 0.0021394755 0 0)
(-0.0031079404 0.008017952 0 0.0016029603 0 0)
(-0.0072088189 0.011155916 0 0.0023737435 0 0)
(-0.00087454354 0.011336651 0 -0.0020888051 0 0)
(-0.0004791105 0.00050376942 0 0.00044641291 0 0)
(-0.00057904291 3.0358682e-005 0 0.00060129975 0 0)
(-0.00059311877 -0.00015136317 0 0.00056736374 0 0)
(-0.00047090928 -0.00021989248 0 0.00046731831 0 0)
(-0.00035670093 -0.00021497116 0 0.00035191591 0 0)
(-0.00027091324 -0.00019040014 0 0.00026805789 0 0)
(-0.00019577646 -0.00014898177 0 0.00019440403 0 0)
(-0.00014709126 -0.00010667438 0 0.00014667087 0 0)
(-0.00011689428 -6.6674508e-005 0 0.00011643678 0 0)
(-0.00010218114 -3.2000233e-005 0 0.00010218977 0 0)
(-9.9863777e-005 8.7524304e-006 0 9.9818649e-005 0 0)
(-0.00010981766 4.9319042e-005 0 0.00010953346 0 0)
(-0.00013729229 0.00010880747 0 0.00013677786 0 0)
(-0.00017628476 0.00017588477 0 0.00017449483 0 0)
(-0.00024215276 0.00027902491 0 0.00023869659 0 0)
(-0.00033799721 0.00043183474 0 0.00033081938 0 0)
(-0.00046918554 0.00065236503 0 0.0004503231 0 0)
(-0.00066216818 0.0010068453 0 0.00062207402 0 0)
(-0.00092431263 0.0015841289 0 0.00084116707 0 0)
(-0.0013078946 0.0023111182 0 0.0010813597 0 0)
(-0.0015114667 0.0037343469 0 0.0011616866 0 0)
(-0.0021813558 0.005125917 0 0.0011162372 0 0)
(-0.00093987903 0.0078115391 0 -0.00019466058 0 0)
(-0.0030352608 0.010161307 0 -0.0010049382 0 0)
(0.0029878468 0.012044804 0 -0.0076398756 0 0)
(-0.013891114 0.00052254901 0 0.0092507435 0 0)
(-0.0078614574 0.00093224977 0 0.0057657696 0 0)
(-0.0029752013 0.0013441378 0 0.0021714507 0 0)
(-0.00086692526 0.0015861011 0 0.00064373771 0 0)
(-0.00028901401 0.0017004246 0 0.00014827115 0 0)
(-7.014405e-005 0.0017414724 0 -2.6003252e-005 0 0)
(-5.5739098e-005 0.0017441885 0 -3.8521417e-005 0 0)
(-6.5325601e-005 0.0017413979 0 -2.5475364e-005 0 0)
(-8.3801515e-005 0.0017383111 0 -6.8229991e-006 0 0)
(-9.0572437e-005 0.0017370734 0 2.1839171e-007 0 0)
(-9.1862571e-005 0.0017368418 0 1.58274e-006 0 0)
(-9.0843731e-005 0.0017369874 0 6.1075021e-007 0 0)
(-9.0310734e-005 0.0017370636 0 6.0109098e-008 0 0)
(-9.0119773e-005 0.0017370787 0 -1.3288155e-007 0 0)
(-9.0173913e-005 0.0017370681 0 -7.9767422e-008 0 0)
(-9.0243371e-005 0.0017370568 0 -1.0658764e-008 0 0)
(-9.0261926e-005 0.0017370535 0 7.7735275e-009 0 0)
(-9.025737e-005 0.0017370538 0 3.2373496e-009 0 0)
(-9.0254283e-005 0.0017370541 0 7.8371024e-011 0 0)
(-9.0253458e-005 0.0017370542 0 -7.7967252e-010 0 0)
(-9.0253981e-005 0.0017370541 0 -2.9308514e-010 0 0)
(-9.0255012e-005 0.0017370541 0 6.4182938e-010 0 0)
(-9.0255446e-005 0.001737054 0 1.7582697e-009 0 0)
(-9.025744e-005 0.0017370541 0 3.1229846e-009 0 0)
(-9.025902e-005 0.0017370538 0 3.3099411e-009 0 0)
(-0.013418991 0.0016581664 0 0.0088958525 0 0)
(-0.0076045442 0.0028453273 0 0.0054740629 0 0)
(-0.0032000858 0.0040108431 0 0.0020487569 0 0)
(-0.0013454628 0.0048381463 0 0.00056791497 0 0)
(-0.00093975152 0.0051398746 0 0.00012548996 0 0)
(-0.00080000638 0.0052240672 0 -1.0547187e-005 0 0)
(-0.00078476002 0.0052348087 0 -3.1040717e-005 0 0)
(-0.00079460623 0.0052268911 0 -1.9987257e-005 0 0)
(-0.00080895772 0.005219356 0 -5.1883587e-006 0 0)
(-0.00081406107 0.0052166174 0 4.4812117e-007 0 0)
(-0.00081510345 0.0052161373 0 1.4241546e-006 0 0)
(-0.00081427921 0.0052165224 0 5.7111573e-007 0 0)
(-0.00081375695 0.0052167534 0 5.4026354e-008 0 0)
(-0.00081356964 0.0052168087 0 -1.1192495e-007 0 0)
(-0.00081361683 0.0052167808 0 -5.3980955e-008 0 0)
(-0.00081366129 0.0052167595 0 -3.8895648e-009 0 0)
(-0.00081367214 0.005216754 0 7.4793438e-009 0 0)
(-0.00081366836 0.005216755 0 3.5090094e-009 0 0)
(-0.00081366486 0.0052167563 0 -1.5497389e-010 0 0)
(-0.00081366435 0.0052167563 0 -7.0054365e-010 0 0)
(-0.00081366481 0.0052167564 0 -3.2331621e-010 0 0)
(-0.00081366582 0.0052167565 0 5.6788954e-010 0 0)
(-0.00081366625 0.0052167563 0 1.514379e-009 0 0)
(-0.0008136685 0.005216756 0 3.0353909e-009 0 0)
(-0.00081367061 0.0052167578 0 3.296617e-009 0 0)
(-0.012616036 0.0028821499 0 0.0083730532 0 0)
(-0.0069967482 0.0048613334 0 0.0048948081 0 0)
(-0.0036208005 0.0070462158 0 0.0016711966 0 0)
(-0.0025616526 0.0081148393 0 0.00055234547 0 0)
(-0.002341181 0.0085351945 0 0.00016784304 0 0)
(-0.0022514974 0.0087197231 0 3.9076233e-006 0 0)
(-0.0022562583 0.0087371139 0 -1.9384342e-005 0 0)
(-0.0022603562 0.0087270609 0 -1.2497818e-005 0 0)
(-0.0022677252 0.0087170767 0 -2.9140799e-006 0 0)
(-0.002270318 0.0087137162 0 8.8296734e-007 0 0)
(-0.002270418 0.0087136136 0 1.030104e-006 0 0)
(-0.0022698423 0.0087140991 0 4.2095407e-007 0 0)
(-0.0022694223 0.0087144201 0 -6.4245738e-010 0 0)
(-0.0022693088 0.0087144755 0 -8.7496156e-008 0 0)
(-0.002269337 0.0087144323 0 -3.6439881e-008 0 0)
(-0.0022693645 0.0087144032 0 8.4603997e-011 0 0)
(-0.00226937 0.0087143976 0 6.3042246e-009 0 0)
(-0.0022693669 0.0087143994 0 2.5697701e-009 0 0)
(-0.002269365 0.0087144015 0 -2.8761771e-010 0 0)
(-0.0022693648 0.0087144017 0 -5.4549713e-010 0 0)
(-0.0022693652 0.0087144016 0 -1.5257236e-010 0 0)
(-0.0022693657 0.0087144013 0 3.6056087e-010 0 0)
(-0.0022693662 0.0087144014 0 1.1830722e-009 0 0)
(-0.0022693681 0.008714401 0 2.499965e-009 0 0)
(-0.002269371 0.0087144049 0 2.7173405e-009 0 0)
(-0.011430277 0.0042133577 0 0.0074554498 0 0)
(-0.0060662189 0.007793753 0 0.0035433649 0 0)
(-0.0048369135 0.0099245188 0 0.0015737603 0 0)
(-0.0042532767 0.011601937 0 0.00039632899 0 0)
(-0.0043975764 0.012141794 0 6.995347e-005 0 0)
(-0.0044621058 0.01226918 0 4.5756428e-006 0 0)
(-0.0044819647 0.012272882 0 -8.3146876e-006 0 0)
(-0.0044805992 0.012259383 0 -5.0217445e-006 0 0)
(-0.004481412 0.012248861 0 -7.48439e-007 0 0)
(-0.0044815698 0.012245991 0 7.4481717e-007 0 0)
(-0.0044813511 0.012246243 0 5.4588085e-007 0 0)
(-0.0044810199 0.012246833 0 1.5777778e-007 0 0)
(-0.0044808343 0.01224714 0 -4.0642134e-008 0 0)
(-0.0044807945 0.012247169 0 -4.9956058e-008 0 0)
(-0.0044808019 0.012247119 0 -1.3332228e-008 0 0)
(-0.0044808094 0.012247092 0 3.2429902e-009 0 0)
(-0.0044808102 0.012247089 0 3.9735423e-009 0 0)
(-0.0044808095 0.012247092 0 1.1502767e-009 0 0)
(-0.0044808088 0.012247093 0 -2.6822894e-010 0 0)
(-0.0044808085 0.012247093 0 -3.340886e-010 0 0)
(-0.0044808086 0.012247093 0 -5.9225632e-011 0 0)
(-0.0044808089 0.012247093 0 1.5247911e-010 0 0)
(-0.0044808095 0.012247094 0 3.856525e-010 0 0)
(-0.004480812 0.012247094 0 1.8002277e-009 0 0)
(-0.0044808159 0.012247099 0 1.8736949e-009 0 0)
(-0.0095235353 0.0056799296 0 0.0059907139 0 0)
(-0.0062605546 0.010797782 0 0.0024532217 0 0)
(-0.0063524607 0.013389165 0 0.0010186887 0 0)
(-0.006868916 0.01520156 0 0.00026062476 0 0)
(-0.0073648899 0.015739752 0 6.0398133e-005 0 0)
(-0.0074864244 0.0158549 0 1.992604e-005 0 0)
(-0.0075050027 0.015855152 0 4.9085752e-006 0 0)
(-0.0074962273 0.015842829 0 2.3103467e-006 0 0)
(-0.00749077 0.015834881 0 7.8101444e-007 0 0)
(-0.0074888678 0.015833265 0 2.2441311e-007 0 0)
(-0.0074885881 0.015833764 0 -6.2789647e-008 0 0)
(-0.0074886441 0.015834291 0 -9.8229663e-008 0 0)
(-0.0074887219 0.015834482 0 -4.2029174e-008 0 0)
(-0.0074887277 0.015834478 0 -3.9679397e-009 0 0)
(-0.0074887092 0.015834434 0 6.4783202e-009 0 0)
(-0.0074886983 0.015834416 0 3.3426621e-009 0 0)
(-0.0074886965 0.015834414 0 6.5826532e-010 0 0)
(-0.0074886977 0.015834417 0 -1.6372072e-010 0 0)
(-0.0074886983 0.015834418 0 -1.0872597e-010 0 0)
(-0.0074886986 0.015834418 0 -1.5313718e-011 0 0)
(-0.0074886986 0.015834418 0 -1.5932781e-011 0 0)
(-0.0074886986 0.015834418 0 -9.9293876e-011 0 0)
(-0.0074886992 0.015834419 0 -9.076618e-011 0 0)
(-0.0074887007 0.01583442 0 3.688931e-010 0 0)
(-0.0074887056 0.015834425 0 3.8351248e-010 0 0)
(-0.0074922993 0.0087749405 0 0.0036168395 0 0)
(-0.0068556661 0.014099558 0 0.0012291686 0 0)
(-0.0090328199 0.017395159 0 0.00037460752 0 0)
(-0.010607198 0.019033701 0 0.00012676544 0 0)
(-0.011258513 0.019432516 0 4.7859876e-005 0 0)
(-0.011368112 0.019506934 0 2.9478214e-005 0 0)
(-0.0113702 0.019500597 0 1.4885195e-005 0 0)
(-0.011355162 0.019492853 0 7.8990477e-006 0 0)
(-0.011343752 0.019488635 0 1.2574733e-006 0 0)
(-0.011340343 0.019488197 0 -5.5361226e-007 0 0)
(-0.011340333 0.019488568 0 -6.0531843e-007 0 0)
(-0.011340821 0.019488841 0 -2.3918973e-007 0 0)
(-0.011341104 0.019488904 0 2.3960374e-009 0 0)
(-0.011341129 0.019488893 0 4.4291948e-008 0 0)
(-0.011341085 0.019488874 0 1.9617678e-008 0 0)
(-0.01134106 0.019488867 0 7.7225465e-010 0 0)
(-0.011341057 0.019488866 0 -2.7673783e-009 0 0)
(-0.01134106 0.019488867 0 -9.4608979e-010 0 0)
(-0.011341062 0.019488867 0 2.2809625e-010 0 0)
(-0.011341062 0.019488867 0 2.2760658e-010 0 0)
(-0.011341062 0.019488867 0 2.2450241e-011 0 0)
(-0.011341062 0.019488867 0 -3.4792956e-010 0 0)
(-0.011341063 0.019488868 0 -4.779279e-010 0 0)
(-0.011341063 0.01948887 0 -1.5065846e-009 0 0)
(-0.011341068 0.019488875 0 -1.3920643e-009 0 0)
(-0.0065204203 0.011429952 0 0.0014584928 0 0)
(-0.0089052353 0.018759225 0 -0.00032305038 0 0)
(-0.013588501 0.021730174 0 -8.1427001e-005 0 0)
(-0.015464346 0.022931102 0 5.0391229e-005 0 0)
(-0.016048399 0.023156729 0 5.5361363e-005 0 0)
(-0.016110916 0.023202809 0 4.1398539e-005 0 0)
(-0.016103505 0.023203914 0 2.234107e-005 0 0)
(-0.016086496 0.0232046 0 1.0449853e-005 0 0)
(-0.016073792 0.023205174 0 9.2546638e-007 0 0)
(-0.016070106 0.023205428 0 -1.2949763e-006 0 0)
(-0.016070424 0.023205284 0 -8.8723896e-007 0 0)
(-0.016071044 0.023205206 0 -3.1190803e-007 0 0)
(-0.016071482 0.023205161 0 5.395386e-008 0 0)
(-0.016071517 0.023205176 0 7.4876945e-008 0 0)
(-0.016071468 0.023205187 0 2.8178048e-008 0 0)
(-0.01607143 0.02320519 0 -2.4998601e-009 0 0)
(-0.016071426 0.023205187 0 -4.8531134e-009 0 0)
(-0.01607143 0.023205186 0 -1.3175233e-009 0 0)
(-0.016071432 0.023205186 0 5.1356979e-010 0 0)
(-0.016071432 0.023205186 0 4.4886335e-010 0 0)
(-0.016071431 0.023205186 0 2.7161542e-011 0 0)
(-0.016071431 0.023205186 0 -5.9953474e-010 0 0)
(-0.016071432 0.023205187 0 -1.0537257e-009 0 0)
(-0.016071431 0.02320519 0 -3.1616949e-009 0 0)
(-0.016071435 0.023205193 0 -2.8066171e-009 0 0)
(-0.0065190903 0.016135307 0 -0.0017496938 0 0)
(-0.013520375 0.024132381 0 -0.0016976608 0 0)
(-0.019862471 0.026151562 0 -0.00030150223 0 0)
(-0.021217537 0.02679221 0 7.4403296e-006 0 0)
(-0.021671539 0.02688161 0 6.0220858e-005 0 0)
(-0.021693238 0.026921629 0 4.4720128e-005 0 0)
(-0.021701834 0.026940859 0 2.3905397e-005 0 0)
(-0.021687694 0.026952459 0 8.012742e-006 0 0)
(-0.021679803 0.026955145 0 3.860714e-007 0 0)
(-0.021676199 0.026955154 0 -1.5977591e-006 0 0)
(-0.021676281 0.026954243 0 -9.353953e-007 0 0)
(-0.021676982 0.026953857 0 -2.0142883e-007 0 0)
(-0.021677415 0.026953818 0 9.2378474e-008 0 0)
(-0.02167747 0.026953886 0 8.1751366e-008 0 0)
(-0.021677416 0.026953922 0 2.052455e-008 0 0)
(-0.02167738 0.026953925 0 -4.8722456e-009 0 0)
(-0.021677374 0.02695392 0 -5.0494606e-009 0 0)
(-0.021677378 0.026953917 0 -8.2364584e-010 0 0)
(-0.02167738 0.026953917 0 7.0291776e-010 0 0)
(-0.02167738 0.026953918 0 4.8398924e-010 0 0)
(-0.02167738 0.026953918 0 -3.9727414e-011 0 0)
(-0.021677379 0.026953918 0 -7.8770154e-010 0 0)
(-0.021677379 0.026953919 0 -1.9146465e-009 0 0)
(-0.021677377 0.026953921 0 -3.8978526e-009 0 0)
(-0.021677377 0.026953921 0 -3.3247728e-009 0 0)
(-0.011801647 0.02506751 0 -0.0052834846 0 0)
(-0.021845961 0.030248448 0 -0.002736543 0 0)
(-0.027365104 0.030478827 0 -0.0003068126 0 0)
(-0.027719492 0.030551186 0 -1.5299309e-005 0 0)
(-0.028036416 0.030571099 0 6.8532815e-005 0 0)
(-0.028085411 0.030640472 0 3.5731042e-005 0 0)
(-0.028133477 0.03067843 0 1.8827896e-005 0 0)
(-0.02813102 0.030696091 0 4.5744301e-006 0 0)
(-0.028127536 0.030699255 0 -4.9471987e-007 0 0)
(-0.028123684 0.030698062 0 -1.494668e-006 0 0)
(-0.028123111 0.030696394 0 -6.6308314e-007 0 0)
(-0.028123528 0.030695886 0 -8.3873759e-008 0 0)
(-0.028123916 0.030695914 0 9.6880372e-008 0 0)
(-0.028123999 0.030696035 0 6.2052836e-008 0 0)
(-0.028123962 0.030696081 0 1.1410651e-008 0 0)
(-0.028123928 0.03069608 0 -5.6009565e-009 0 0)
(-0.028123921 0.030696072 0 -3.7154793e-009 0 0)
(-0.028123923 0.030696069 0 -2.8335739e-010 0 0)
(-0.028123925 0.030696069 0 6.6377924e-010 0 0)
(-0.028123926 0.03069607 0 3.5907934e-010 0 0)
(-0.028123925 0.03069607 0 -5.433295e-011 0 0)
(-0.028123925 0.030696071 0 -8.1737636e-010 0 0)
(-0.028123924 0.030696071 0 -2.224182e-009 0 0)
(-0.02812392 0.030696072 0 -3.9677468e-009 0 0)
(-0.028123911 0.030696066 0 -2.9144991e-009 0 0)
(-0.03512707 0.042387515 0 -0.0098337219 0 0)
(-0.033468125 0.035684626 0 -0.0018239326 0 0)
(-0.03968309 0.036611408 0 -0.00018571467 0 0)
(-0.038207504 0.035827415 0 -1.7215207e-006 0 0)
(-0.039069775 0.036123916 0 3.5311008e-005 0 0)
(-0.039044491 0.036141469 0 1.2679775e-005 0 0)
(-0.03917174 0.036205301 0 6.4384648e-006 0 0)
(-0.039165195 0.036212886 0 1.034922e-006 0 0)
(-0.039169105 0.036216725 0 -3.9155763e-007 0 0)
(-0.039162053 0.036213444 0 -6.4008561e-007 0 0)
(-0.039161026 0.036211914 0 -2.2259752e-007 0 0)
(-0.039160908 0.036211459 0 -6.2800587e-009 0 0)
(-0.039161348 0.036211625 0 4.7331244e-008 0 0)
(-0.039161487 0.03621177 0 2.4542993e-008 0 0)
(-0.039161495 0.036211815 0 3.0652958e-009 0 0)
(-0.039161465 0.036211807 0 -2.7043476e-009 0 0)
(-0.039161455 0.036211798 0 -1.3848064e-009 0 0)
(-0.039161456 0.036211796 0 2.6719634e-013 0 0)
(-0.039161459 0.036211797 0 2.9911815e-010 0 0)
(-0.03916146 0.036211798 0 1.1813782e-010 0 0)
(-0.03916146 0.036211798 0 -1.061226e-010 0 0)
(-0.039161459 0.036211798 0 -5.5568543e-010 0 0)
(-0.039161456 0.036211797 0 -1.697308e-009 0 0)
(-0.039161449 0.036211794 0 -2.1918223e-009 0 0)
(-0.039161429 0.036211783 0 -1.0894195e-009 0 0)
(-0.00053829556 0.00062174017 0 0.00048809446 0 0)
(-0.0006156506 2.4591856e-005 0 0.00066465451 0 0)
(-0.00062465329 -0.00020423748 0 0.00058946779 0 0)
(-0.00047629415 -0.00027961331 0 0.00046942437 0 0)
(-0.0003471382 -0.00026763236 0 0.00034117212 0 0)
(-0.0002476981 -0.00022836906 0 0.00024348399 0 0)
(-0.00017489955 -0.00017645111 0 0.00017203732 0 0)
(-0.00012653881 -0.00012481719 0 0.00012525088 0 0)
(-9.7039493e-005 -7.6046091e-005 0 9.5654274e-005 0 0)
(-8.2476211e-005 -3.5426876e-005 0 8.1909249e-005 0 0)
(-7.8284672e-005 1.2296166e-005 0 7.7690044e-005 0 0)
(-8.5731747e-005 6.0950197e-005 0 8.4397221e-005 0 0)
(-0.00010347844 0.00012371942 0 0.00010256218 0 0)
(-0.00013127781 0.00019817357 0 0.00012839194 0 0)
(-0.0001767973 0.00031164855 0 0.00017192621 0 0)
(-0.00024258343 0.00048497141 0 0.00023469553 0 0)
(-0.0003247733 0.00071574744 0 0.00030336717 0 0)
(-0.00044204364 0.0010834359 0 0.00039996199 0 0)
(-0.00055268981 0.0016861295 0 0.0004786344 0 0)
(-0.00070633061 0.0023859976 0 0.00050379393 0 0)
(-0.00063330313 0.0036980631 0 0.00034409439 0 0)
(-0.00053207324 0.0048849296 0 -0.00034108798 0 0)
(0.0013209758 0.0069416342 0 -0.001974365 0 0)
(0.001896404 0.0076223359 0 -0.0043461105 0 0)
(0.0098100481 0.0072744326 0 -0.01288869 0 0)
(-0.00066959617 0.00083111026 0 0.00059195531 0 0)
(-0.00070083116 5.5488862e-006 0 0.00076619377 0 0)
(-0.00067502859 -0.00029579841 0 0.00062896977 0 0)
(-0.00047321215 -0.00036294392 0 0.00046231949 0 0)
(-0.00031321484 -0.00033086365 0 0.00030780983 0 0)
(-0.00020160357 -0.00026350662 0 0.00019786203 0 0)
(-0.00013089761 -0.00019295293 0 0.00012902707 0 0)
(-8.4045265e-005 -0.00012297618 0 8.4005258e-005 0 0)
(-5.91989e-005 -6.4111156e-005 0 5.8721406e-005 0 0)
(-4.6128877e-005 -1.5333115e-005 0 4.6059624e-005 0 0)
(-3.9743666e-005 4.1552928e-005 0 3.9700479e-005 0 0)
(-4.0407073e-005 9.4283247e-005 0 4.0048388e-005 0 0)
(-4.5831272e-005 0.00016336457 0 4.6161235e-005 0 0)
(-5.5721515e-005 0.00024862961 0 5.4320063e-005 0 0)
(-7.0546761e-005 0.00036337175 0 6.4611741e-005 0 0)
(-8.6793172e-005 0.0005482808 0 8.1296113e-005 0 0)
(-9.834865e-005 0.00078291052 0 8.3112877e-005 0 0)
(-0.0001073257 0.001127465 0 6.6563084e-005 0 0)
(-4.3844001e-005 0.0017000118 0 -2.1184176e-005 0 0)
(7.9295598e-005 0.0023088997 0 -0.00025299054 0 0)
(0.00056627535 0.0032052095 0 -0.00083243375 0 0)
(0.001181241 0.0037800289 0 -0.0018846831 0 0)
(0.0031634157 0.0042554395 0 -0.0038946705 0 0)
(0.005203092 0.0019468929 0 -0.0073933518 0 0)
(0.0063195877 -0.0012112817 0 -0.0092383742 0 0)
(-0.00085548052 0.0010835798 0 0.00075309377 0 0)
(-0.00079546911 -2.1185102e-005 0 0.00086897665 0 0)
(-0.00070420613 -0.00037216124 0 0.00065032573 0 0)
(-0.00043848921 -0.00040334631 0 0.00042534194 0 0)
(-0.00025008829 -0.0003275952 0 0.00024591105 0 0)
(-0.00013508773 -0.00022205925 0 0.00013159395 0 0)
(-7.2247274e-005 -0.00013073377 0 7.0921054e-005 0 0)
(-3.2944498e-005 -4.3459302e-005 0 3.2980053e-005 0 0)
(-1.4332268e-005 2.6796703e-005 0 1.4314734e-005 0 0)
(-4.7208956e-006 8.2760438e-005 0 4.4401325e-006 0 0)
(2.0966317e-006 0.00013797877 0 -2.150629e-006 0 0)
(6.9820109e-006 0.00019268415 0 -7.8417141e-006 0 0)
(1.266948e-005 0.00026628478 0 -1.5047719e-005 0 0)
(2.3345502e-005 0.00035205801 0 -2.4339188e-005 0 0)
(3.5017121e-005 0.00045826363 0 -4.1919768e-005 0 0)
(6.1586633e-005 0.0006261054 0 -7.2061718e-005 0 0)
(0.00011756607 0.00086761923 0 -0.00013315877 0 0)
(0.00019198071 0.0011599543 0 -0.00023498075 0 0)
(0.00038960814 0.0016405827 0 -0.00045788433 0 0)
(0.00067524553 0.0021265133 0 -0.00082227889 0 0)
(0.0012652087 0.0027209911 0 -0.0014890763 0 0)
(0.0020887792 0.0029553938 0 -0.0025293681 0 0)
(0.003492244 0.0027696595 0 -0.0038742125 0 0)
(0.0046685479 0.00066643159 0 -0.0054168348 0 0)
(0.0035807641 -0.0027682896 0 -0.0037525073 0 0)
(-0.0010832381 0.0014069621 0 0.00094351558 0 0)
(-0.00084522932 -4.0877231e-005 0 0.00092583986 0 0)
(-0.00066045555 -0.00038802227 0 0.00059918344 0 0)