/*--------------------------------*- C++ -*----------------------------------*\
| =========                 |                                                 |
| \\      /  F ield         | OpenFOAM: The Open Source CFD Toolbox           |
|  \\    /   O peration     | Version:  5.x                                   |
|   \\  /    A nd           | Web:      www.OpenFOAM.org                      |
|    \\/     M anipulation  |                                                 |
\*---------------------------------------------------------------------------*/
/*   Windows 32 and 64 bit porting by blueCAPE: http://www.bluecape.com.pt   *\
|  Based on Windows porting (2.0.x v4) by Symscape: http://www.symscape.com   |
\*---------------------------------------------------------------------------*/
FoamFile
{
    version     2.0;
    format      ascii;
    class       volVectorField;
    location    "0.21";
    object      U;
}
// * * * * * * * * * * * * * * * * * * * * * * * * * * * * * * * * * * * * * //

dimensions      [0 1 -1 0 0 0 0];

internalField   nonuniform List<vector> 
750
(
(0.039340609 -0.00014635422 0)
(0.040556734 -0.00018354507 0)
(0.042218787 -0.00018314528 0)
(0.043532996 -0.00015865989 0)
(0.044739242 -0.00013387476 0)
(0.045680601 -0.00010587893 0)
(0.046429835 -8.353272e-005 0)
(0.047016881 -6.6401767e-005 0)
(0.047488277 -5.4945733e-005 0)
(0.047893361 -4.9709724e-005 0)
(0.048281474 -5.0514823e-005 0)
(0.048699311 -5.770955e-005 0)
(0.049201171 -7.2594103e-005 0)
(0.04985614 -9.786215e-005 0)
(0.050761971 -0.00013790338 0)
(0.052053085 -0.00019880862 0)
(0.053927787 -0.00029381992 0)
(0.056734858 -0.00044501009 0)
(0.061012674 -0.00068118163 0)
(0.067551325 -0.0010539539 0)
(0.077840919 -0.0015707565 0)
(0.09232212 -0.0023416356 0)
(0.11547897 -0.0032185441 0)
(0.14261654 -0.0041424383 0)
(0.18271223 -0.0046965645 0)
(0.039344506 -0.0004373778 0)
(0.04056309 -0.00055612812 0)
(0.042230735 -0.0005471067 0)
(0.04354806 -0.00047757378 0)
(0.044753361 -0.00040059223 0)
(0.04569303 -0.00031764992 0)
(0.046439786 -0.00025015279 0)
(0.047023831 -0.0001984001 0)
(0.047492039 -0.00016425464 0)
(0.047894476 -0.00014859476 0)
(0.04827955 -0.00015091826 0)
(0.048693838 -0.00017233115 0)
(0.049190878 -0.00021678718 0)
(0.049839773 -0.00029210835 0)
(0.050736708 -0.00041156869 0)
(0.05201418 -0.0005931655 0)
(0.053868324 -0.00087617457 0)
(0.056641957 -0.0013262732 0)
(0.060861934 -0.0020287112 0)
(0.067305815 -0.0031336857 0)
(0.077426745 -0.0046791424 0)
(0.091662864 -0.0069352782 0)
(0.11438993 -0.0096075341 0)
(0.14093041 -0.012276276 0)
(0.18065246 -0.014087322 0)
(0.039351071 -0.00072856902 0)
(0.040576635 -0.00093311222 0)
(0.042255683 -0.00091067334 0)
(0.043578534 -0.00079764868 0)
(0.044782614 -0.00066652166 0)
(0.045718905 -0.00052881733 0)
(0.046460127 -0.00041580586 0)
(0.047038166 -0.00032928272 0)
(0.04750046 -0.0002725669 0)
(0.047897499 -0.00024648161 0)
(0.048276356 -0.00025017348 0)
(0.048683627 -0.00028550641 0)
(0.04917114 -0.00035906496 0)
(0.049807726 -0.0004837282 0)
(0.050686905 -0.00068131175 0)
(0.051937287 -0.00098153715 0)
(0.053749893 -0.001448906 0)
(0.056455805 -0.0021913341 0)
(0.060560797 -0.003349994 0)
(0.066812525 -0.0051660314 0)
(0.076606339 -0.0077202497 0)
(0.090324964 -0.011399955 0)
(0.11225972 -0.015842094 0)
(0.13759121 -0.020182828 0)
(0.17646889 -0.023390499 0)
(0.03936073 -0.0010228057 0)
(0.040598272 -0.0013133415 0)
(0.042294812 -0.0012767835 0)
(0.043625511 -0.0011183267 0)
(0.044828116 -0.0009318849 0)
(0.04575927 -0.00073845427 0)
(0.046491638 -0.0005795886 0)
(0.047060676 -0.00045839278 0)
(0.047514481 -0.00037912613 0)
(0.047903276 -0.00034253689 0)
(0.048272722 -0.00034734928 0)
(0.048669615 -0.00039610633 0)
(0.049143063 -0.00049792754 0)
(0.0497612 -0.00067063671 0)
(0.050613981 -0.00094404433 0)
(0.051824409 -0.0013592214 0)
(0.053575402 -0.0020046349 0)
(0.056181313 -0.0030282744 0)
(0.060119168 -0.0046234002 0)
(0.06608514 -0.0071175465 0)
(0.07539921 -0.010629778 0)
(0.088346648 -0.015661737 0)
(0.1091202 -0.021764061 0)
(0.13255926 -0.027709333 0)
(0.17012547 -0.032371043 0)
(0.039374679 -0.0013217253 0)
(0.040629191 -0.0016978878 0)
(0.042349536 -0.0016467602 0)
(0.043690556 -0.001439769 0)
(0.044891139 -0.001196398 0)
(0.045815262 -0.00094594655 0)
(0.046535381 -0.00074074206 0)
(0.047092485 -0.00058500414 0)
(0.047535084 -0.00048322624 0)
(0.047912809 -0.00043601193 0)
(0.048269641 -0.00044165459 0)
(0.048652979 -0.00050313668 0)
(0.049107947 -0.00063210689 0)
(0.04970174 -0.00085100719 0)
(0.050519905 -0.0011972146 0)
(0.051678174 -0.0017222427 0)
(0.053348706 -0.0025369253 0)
(0.055824602 -0.0038265695 0)
(0.05954633 -0.0058312158 0)
(0.065137952 -0.0089579884 0)
(0.073837134 -0.01335684 0)
(0.085743513 -0.019640504 0)
(0.10499295 -0.02725463 0)
(0.1259405 -0.034773066 0)
(0.16167213 -0.040672599 0)
(0.039394282 -0.0016270729 0)
(0.040670889 -0.0020883941 0)
(0.042421628 -0.0020216143 0)
(0.043775605 -0.0017622191 0)
(0.044973186 -0.0014597234 0)
(0.045888141 -0.0011506359 0)
(0.046592604 -0.00089849605 0)
(0.047134851 -0.00070839715 0)
(0.047563327 -0.00058415977 0)
(0.047927295 -0.00052617368 0)
(0.048268244 -0.00053227881 0)
(0.04863496 -0.00060572308 0)
(0.049067328 -0.00076027289 0)
(0.049631122 -0.0010231498 0)
(0.050406888 -0.0014382933 0)
(0.051501181 -0.002066775 0)
(0.053073607 -0.0030399891 0)
(0.055391282 -0.0045769593 0)
(0.058852361 -0.0069574694 0)
(0.063993747 -0.010661182 0)
(0.071945056 -0.015852841 0)
(0.082552974 -0.023263962 0)
(0.099961038 -0.032183366 0)
(0.11763929 -0.04122806 0)
(0.15110972 -0.048159763 0)
(0.039421298 -0.0019411091 0)
(0.040725039 -0.0024863111 0)
(0.042512983 -0.0024025431 0)
(0.043882473 -0.0020858511 0)
(0.045075729 -0.0017214461 0)
(0.045978894 -0.0013517907 0)
(0.04666452 -0.0010520524 0)
(0.047188782 -0.00082779163 0)
(0.047600042 -0.00068123226 0)
(0.047947733 -0.00061227951 0)
(0.048269399 -0.0006184639 0)
(0.048616701 -0.00070289998 0)
(0.049022519 -0.00088132964 0)
(0.049551103 -0.001185433 0)
(0.050277039 -0.0016648095 0)
(0.051296282 -0.0023892963 0)
(0.05275468 -0.0035082343 0)
(0.054889151 -0.0052705199 0)
(0.058049938 -0.0079877209 0)
(0.062675657 -0.012202362 0)
(0.069755684 -0.018068749 0)
(0.078830646 -0.026454272 0)
(0.094066025 -0.036393764 0)
(0.10755018 -0.046807398 0)
(0.13897497 -0.054829725 0)
(0.039458218 -0.0022668001 0)
(0.040793277 -0.0028927803 0)
(0.042625061 -0.0027909381 0)
(0.044012655 -0.00241071 0)
(0.045199573 -0.0019809753 0)
(0.046087804 -0.0015486731 0)
(0.046751717 -0.0012006722 0)
(0.047254605 -0.00094235224 0)
(0.047645643 -0.0007737182 0)
(0.047974404 -0.00069359232 0)
(0.048273624 -0.00069937761 0)
(0.048598453 -0.00079397834 0)
(0.048974685 -0.0009940995 0)
(0.049463035 -0.0013362301 0)
(0.050132228 -0.0018745604 0)
(0.05106637 -0.0026865226 0)
(0.052396765 -0.0039369259 0)
(0.054326357 -0.0058999158 0)
(0.057152698 -0.0089098737 0)
(0.061206428 -0.013560999 0)
(0.067313279 -0.019965661 0)
(0.074642574 -0.029145624 0)
(0.087393444 -0.039773255 0)
(0.096309086 -0.051476946 0)
(0.12550637 -0.059531525 0)
(0.039507786 -0.0026073716 0)
(0.04087746 -0.0033092735 0)
(0.04275852 -0.0031878851 0)
(0.044167144 -0.0027367415 0)
(0.045344312 -0.0022375468 0)
(0.046214406 -0.0017404791 0)
(0.046853623 -0.0013434861 0)
(0.047331707 -0.0010513325 0)
(0.047699687 -0.00086089423 0)
(0.048006322 -0.00076935653 0)
(0.048280704 -0.00077437622 0)
(0.048579836 -0.0008780926 0)
(0.048923769 -0.0010976528 0)
(0.049367607 -0.0014742236 0)
(0.049973948 -0.002065705 0)
(0.050814076 -0.0029557983 0)
(0.052003909 -0.0043216602 0)
(0.05371195 -0.006458171 0)
(0.056175462 -0.0097129363 0)
(0.05960554 -0.014711346 0)
(0.064676204 -0.021500365 0)
(0.070107572 -0.031251563 0)
(0.080135129 -0.042236518 0)
(0.084045363 -0.055316725 0)
(0.11069388 -0.062661943 0)
(0.0395714 -0.0029641048 0)
(0.040979643 -0.0037408891 0)
(0.042913324 -0.0035921928 0)
(0.044345673 -0.0030641575 0)
(0.045508276 -0.0024908063 0)
(0.046356084 -0.001926048 0)
(0.046968378 -0.0014798304 0)
(0.047418151 -0.0011540978 0)
(0.047760116 -0.0009420238 0)
(0.048041093 -0.00083898639 0)
(0.048289596 -0.00084263396 0)
(0.048558641 -0.00095467928 0)
(0.048868487 -0.0011913739 0)
(0.049263925 -0.0015982686 0)
(0.049803038 -0.002236238 0)
(0.050540209 -0.0031946791 0)
(0.051578726 -0.0046599743 0)
(0.053052865 -0.0069423606 0)
(0.055129441 -0.010390536 0)
(0.057907425 -0.015647786 0)
(0.061905576 -0.022693233 0)
(0.065461505 -0.032743448 0)
(0.072294904 -0.043808739 0)
(0.070509099 -0.057840348 0)
(0.091211327 -0.062879027 0)
(0.21551992 -0.0026832271 0)
(0.22624662 -0.0010124099 0)
(0.23014609 -0.00026503049 0)
(0.23066916 -6.8823672e-005 0)
(0.23117273 -3.0894803e-005 0)
(0.23124533 -1.1600624e-005 0)
(0.23129421 -1.3830473e-006 0)
(0.23126734 2.6641805e-006 0)
(0.2312426 2.7026353e-006 0)
(0.23122544 1.3133823e-006 0)
(0.23122328 1.3820482e-008 0)
(0.23122586 -3.0135039e-007 0)
(0.23122777 -1.4365959e-007 0)
(0.23122794 4.5671987e-009 0)
(0.23122765 2.8523991e-008 0)
(0.23122747 1.3973533e-008 0)
(0.23122743 1.2949728e-009 0)
(0.23122745 -1.9061273e-009 0)
(0.23122746 -7.6032752e-010 0)
(0.23122746 1.022473e-010 0)
(0.23122746 1.8559213e-010 0)
(0.23122746 -7.9245157e-011 0)
(0.23122746 -1.4450008e-010 0)
(0.23122746 8.8984864e-010 0)
(0.23122744 1.0413849e-009 0)
(0.21261081 -0.0077282545 0)
(0.22201521 -0.0029486761 0)
(0.22576155 -0.00070899998 0)
(0.22615182 -0.00023936422 0)
(0.22656613 -9.8265451e-005 0)
(0.22660025 -2.7290497e-005 0)
(0.22663599 -1.2938329e-006 0)
(0.22660581 8.7662215e-006 0)
(0.22658013 8.0831819e-006 0)
(0.22656522 3.4306699e-006 0)
(0.22656409 -6.2365053e-008 0)
(0.22656677 -8.6018324e-007 0)
(0.22656839 -3.8011167e-007 0)
(0.22656851 1.9375802e-008 0)
(0.22656823 8.8730293e-008 0)
(0.22656807 3.9808188e-008 0)
(0.22656805 2.4320869e-009 0)
(0.22656807 -5.3540603e-009 0)
(0.22656807 -2.1064084e-009 0)
(0.22656807 2.2930151e-010 0)
(0.22656807 3.1880253e-010 0)
(0.22656807 -3.1200285e-010 0)
(0.22656807 -3.920059e-010 0)
(0.22656807 2.934302e-009 0)
(0.22656805 3.5751053e-009 0)
(0.20666685 -0.012303521 0)
(0.21349227 -0.0046195946 0)
(0.21709203 -0.0011561421 0)
(0.21702893 -0.00034035932 0)
(0.21726557 -0.00011969247 0)
(0.21728959 -4.012489e-005 0)
(0.21731385 7.7409322e-007 0)
(0.21727882 1.5629762e-005 0)
(0.21725542 1.3188195e-005 0)
(0.21724527 5.0233371e-006 0)
(0.21724595 -3.3962427e-007 0)
(0.21724852 -1.3683845e-006 0)
(0.21724965 -5.6189641e-007 0)
(0.21724965 4.2557079e-008 0)
(0.21724941 1.4260562e-007 0)
(0.2172493 6.0064302e-008 0)
(0.2172493 1.8508262e-009 0)
(0.21724931 -8.4559022e-009 0)
(0.21724932 -3.1605882e-009 0)
(0.21724932 3.8544439e-010 0)
(0.21724932 4.1282813e-010 0)
(0.21724932 -5.6212102e-010 0)
(0.21724932 -4.6656387e-010 0)
(0.21724931 5.302499e-009 0)
(0.21724929 6.4310403e-009 0)
(0.1974109 -0.016157633 0)
(0.20103144 -0.0059774544 0)
(0.20377969 -0.0014080912 0)
(0.20319424 -0.0003681991 0)
(0.2033294 -0.00011818944 0)
(0.20333128 -4.6357651e-005 0)
(0.20332953 5.7632272e-006 0)
(0.2032938 2.2562079e-005 0)
(0.20327806 1.7002834e-005 0)
(0.20327458 5.7134692e-006 0)
(0.20327707 -8.3609872e-007 0)
(0.20327895 -1.7737731e-006 0)
(0.2032794 -6.6180961e-007 0)
(0.20327925 7.7286272e-008 0)
(0.20327908 1.788404e-007 0)
(0.20327904 6.9088476e-008 0)
(0.20327906 -8.6983803e-010 0)
(0.20327907 -1.0884696e-008 0)
(0.20327907 -3.5178708e-009 0)
(0.20327907 6.1245251e-010 0)
(0.20327907 4.6060509e-010 0)
(0.20327907 -8.2382165e-010 0)
(0.20327907 -4.9051435e-010 0)
(0.20327907 7.8135361e-009 0)
(0.20327905 9.162198e-009 0)
(0.18466281 -0.018994183 0)
(0.18440331 -0.0068600497 0)
(0.18544628 -0.0013654204 0)
(0.18471542 -0.00034777051 0)
(0.18480698 -0.00012551551 0)
(0.18472985 -4.7208322e-005 0)
(0.18470671 1.332607e-005 0)
(0.18468135 2.7424183e-005 0)
(0.18467903 1.8440323e-005 0)
(0.18468285 5.2178656e-006 0)
(0.18468616 -1.3929262e-006 0)
(0.18468668 -1.9612857e-006 0)
(0.18468634 -6.4314405e-007 0)
(0.18468608 1.1955414e-007 0)
(0.18468603 1.9315586e-007 0)
(0.18468607 6.6015953e-008 0)
(0.1846861 -4.784881e-009 0)
(0.18468611 -1.1879422e-008 0)
(0.1846861 -3.2006115e-009 0)
(0.1846861 8.0977483e-010 0)
(0.1846861 4.1461089e-010 0)
(0.1846861 -1.005763e-009 0)
(0.1846861 -5.3595075e-010 0)
(0.1846861 9.8420254e-009 0)
(0.18468609 1.1168501e-008 0)
(0.16865375 -0.020771178 0)
(0.16254251 -0.0067798186 0)
(0.16244664 -0.0011978942 0)
(0.1616446 -0.00030891985 0)
(0.16166839 -9.9890131e-005 0)
(0.16152412 -3.2670086e-005 0)
(0.16150653 2.0819567e-005 0)
(0.16150329 2.823299e-005 0)
(0.16151722 1.696987e-005 0)
(0.16152675 3.8327862e-006 0)
(0.16152936 -1.7660152e-006 0)
(0.16152816 -1.8278008e-006 0)
(0.16152714 -5.1076981e-007 0)
(0.16152688 1.514113e-007 0)
(0.16152699 1.7824461e-007 0)
(0.16152709 5.2328987e-008 0)
(0.16152712 -8.2313402e-009 0)
(0.16152711 -1.0979241e-008 0)
(0.16152711 -2.3177555e-009 0)
(0.16152711 9.1078036e-010 0)
(0.16152711 2.253303e-010 0)
(0.16152711 -1.1393341e-009 0)
(0.16152711 -5.0390568e-010 0)
(0.1615271 1.0486378e-008 0)
(0.16152711 1.1700763e-008 0)
(0.14805267 -0.020780959 0)
(0.13526932 -0.0058976056 0)
(0.13502976 -0.00091445955 0)
(0.13400583 -0.00024947825 0)
(0.13398391 -6.1068099e-005 0)
(0.13381322 -1.5393667e-005 0)
(0.13382283 2.2458573e-005 0)
(0.13384283 2.4053109e-005 0)
(0.13387065 1.2831001e-005 0)
(0.13388205 2.1166284e-006 0)
(0.13388277 -1.7083389e-006 0)
(0.13388008 -1.4117836e-006 0)
(0.13387873 -3.1681111e-007 0)
(0.13387861 1.5281819e-007 0)
(0.13387886 1.3816056e-007 0)
(0.13387899 3.311649e-008 0)
(0.13387901 -9.4529869e-009 0)
(0.13387899 -8.4740587e-009 0)
(0.13387898 -1.2728879e-009 0)
(0.13387898 8.011394e-010 0)
(0.13387899 -8.7000548e-012 0)
(0.13387899 -1.0814254e-009 0)
(0.13387898 -4.0196322e-010 0)
(0.13387898 9.1777686e-009 0)
(0.133879 1.028499e-008 0)
(0.12073109 -0.018127389 0)
(0.1030556 -0.0043886016 0)
(0.10311462 -0.00057587334 0)
(0.10182183 -0.00016105814 0)
(0.10186338 -2.121995e-005 0)
(0.10170633 -2.6985786e-006 0)
(0.10174967 1.7666982e-005 0)
(0.10178243 1.5560849e-005 0)
(0.10181611 7.5562363e-006 0)
(0.10182524 7.2877639e-007 0)
(0.10182403 -1.2224785e-006 0)
(0.10182075 -8.4658948e-007 0)
(0.10181953 -1.3698574e-007 0)
(0.10181959 1.1628914e-007 0)
(0.10181991 8.3939006e-008 0)
(0.10182003 1.5256302e-008 0)
(0.10182003 -7.654123e-009 0)
(0.10182001 -5.1064428e-009 0)
(0.10182 -4.5036155e-010 0)
(0.10182 5.4740716e-010 0)
(0.10182 -1.8325674e-010 0)
(0.10182 -8.6145348e-010 0)
(0.10182 -4.3207948e-010 0)
(0.10182 6.0628211e-009 0)
(0.10182003 6.9799694e-009 0)
(0.086196493 -0.013013523 0)
(0.066087227 -0.0024858293 0)
(0.06656713 -0.00021597919 0)
(0.065245957 -7.0461046e-005 0)
(0.065422179 8.4507178e-006 0)
(0.065302119 1.3959492e-006 0)
(0.065363664 9.2370682e-006 0)
(0.065391749 6.0678562e-006 0)
(0.065419934 2.7816281e-006 0)
(0.065424576 -2.2122484e-008 0)
(0.065422596 -5.5102665e-007 0)
(0.065419897 -3.0925619e-007 0)
(0.065419143 -2.1604599e-008 0)
(0.065419325 5.6920653e-008 0)
(0.065419588 3.1702337e-008 0)
(0.065419664 3.4414342e-009 0)
(0.065419652 -3.8432766e-009 0)
(0.065419635 -1.8914062e-009 0)
(0.065419631 3.0332925e-012 0)
(0.065419633 2.4532968e-010 0)
(0.065419633 -1.9672591e-010 0)
(0.065419631 -5.3048991e-010 0)
(0.065419629 -5.3483788e-010 0)
(0.065419628 2.3189264e-009 0)
(0.065419655 2.9765803e-009 0)
(0.040148281 -0.0068308743 0)
(0.024155747 -0.00013550001 0)
(0.02548515 5.9579302e-008 0)
(0.024506328 9.47438e-006 0)
(0.024771108 -1.403761e-006 0)
(0.024678552 -7.7525941e-007 0)
(0.024726557 -5.6648066e-007 0)
(0.024732833 1.4782841e-007 0)
(0.02474594 5.4780535e-008 0)
(0.024746254 8.5404628e-009 0)
(0.024745342 -3.698283e-010 0)
(0.024744224 -9.8285984e-011 0)
(0.024744038 1.8190579e-009 0)
(0.024744155 1.8014524e-009 0)
(0.024744265 1.3714729e-010 0)
(0.024744287 -3.1585879e-010 0)
(0.024744278 -2.2789092e-010 0)
(0.024744271 -4.2651694e-011 0)
(0.02474427 7.8417288e-012 0)
(0.024744271 -2.5558587e-011 0)
(0.024744271 -7.1062629e-011 0)
(0.024744269 -5.0470203e-011 0)
(0.024744268 -3.316624e-011 0)
(0.024744265 4.9292619e-010 0)
(0.024744279 5.9534105e-010 0)
(0.039724233 -0.0037028347 0)
(0.041221767 -0.0046552096 0)
(0.043264073 -0.0044064678 0)
(0.044744588 -0.0037228365 0)
(0.045866605 -0.0029883012 0)
(0.046661013 -0.0022854029 0)
(0.047214633 -0.0017388305 0)
(0.047599149 -0.0013459602 0)
(0.047883306 -0.0010913051 0)
(0.048107361 -0.00096548082 0)
(0.048301972 -0.00096547971 0)
(0.048504332 -0.0010915469 0)
(0.048740002 -0.0013577021 0)
(0.049031284 -0.0018172509 0)
(0.049428115 -0.002534888 0)
(0.049948912 -0.0036078094 0)
(0.050666495 -0.0052372434 0)
(0.051650895 -0.0077510814 0)
(0.05293235 -0.011484956 0)
(0.054428837 -0.017064031 0)
(0.056286578 -0.024347105 0)
(0.05657949 -0.034268332 0)
(0.056892216 -0.044534944 0)
(0.043488629 -0.056939305 0)
(0.036389364 -0.046476844 0)
(0.040029806 -0.0050064435 0)
(0.04173632 -0.0062418552 0)
(0.04395909 -0.0056833755 0)
(0.045448734 -0.0047021111 0)
(0.046466366 -0.0036743355 0)
(0.047135346 -0.0027528897 0)
(0.047556017 -0.0020491969 0)
(0.047810888 -0.001557695 0)
(0.047983013 -0.0012442281 0)
(0.048103194 -0.0010889375 0)
(0.048201118 -0.0010781767 0)
(0.048292119 -0.0012105005 0)
(0.048390884 -0.0015024391 0)
(0.048505746 -0.0019984117 0)
(0.048655298 -0.0027725328 0)
(0.048841145 -0.0039180806 0)
(0.049037548 -0.0056258193 0)
(0.04925791 -0.0082232144 0)
(0.049406938 -0.011979415 0)
(0.04915157 -0.017319074 0)
(0.048409718 -0.023951896 0)
(0.045513127 -0.031631291 0)
(0.040544972 -0.037571754 0)
(0.026150966 -0.040309628 0)
(0.010884486 -0.020651108 0)
(0.040439267 -0.0066547333 0)
(0.042351873 -0.0080101358 0)
(0.044669453 -0.0070035228 0)
(0.046041362 -0.0056134702 0)
(0.046862269 -0.0042541884 0)
(0.0473367 -0.0031002976 0)
(0.047571359 -0.002244508 0)
(0.04767169 -0.0016694806 0)
(0.047711351 -0.0013104637 0)
(0.047717345 -0.001129666 0)
(0.047707206 -0.0011059016 0)
(0.047678104 -0.0012337158 0)
(0.047638957 -0.0015243116 0)
(0.047574648 -0.0020137044 0)
(0.047468971 -0.0027775638 0)
(0.047319797 -0.0039102262 0)
(0.047039247 -0.0055508426 0)
(0.046552344 -0.0080016627 0)
(0.045729814 -0.011470993 0)
(0.044107373 -0.016196522 0)
(0.041396154 -0.021784621 0)
(0.036414147 -0.02733453 0)
(0.028865102 -0.030671655 0)
(0.015988911 -0.029926185 0)
(0.0025433427 -0.014201633 0)
(0.040936304 -0.0087067285 0)
(0.042923787 -0.0098797464 0)
(0.045083338 -0.0082393691 0)
(0.046122198 -0.0063526622 0)
(0.04659669 -0.0046495709 0)
(0.046785413 -0.0032796456 0)
(0.046778693 -0.0022990668 0)
(0.046708014 -0.001663955 0)
(0.046603468 -0.0012790427 0)
(0.046493845 -0.0010849678 0)
(0.046373472 -0.0010495147 0)
(0.04623488 -0.0011587367 0)
(0.04606321 -0.001424597 0)
(0.045837096 -0.001879455 0)
(0.045511275 -0.0025694029 0)
(0.045051511 -0.0035985815 0)
(0.044379504 -0.0050712685 0)
(0.043322303 -0.0072098467 0)
(0.041739006 -0.010188337 0)
(0.039164787 -0.014041775 0)
(0.035265114 -0.018353472 0)
(0.02935362 -0.022073377 0)
(0.021340129 -0.023338065 0)
(0.010953761 -0.020592596 0)
(0.00041277971 -0.0088262485 0)
(0.041421709 -0.011145739 0)
(0.043222523 -0.011627212 0)
(0.044767918 -0.0091592219 0)
(0.045182103 -0.0067510708 0)
(0.045126304 -0.0047556547 0)
(0.044931406 -0.0032347452 0)
(0.044650294 -0.0021893139 0)
(0.044392598 -0.0015336987 0)
(0.044153581 -0.0011517193 0)
(0.043936659 -0.00095805906 0)
(0.043726029 -0.00091393734 0)
(0.043496705 -0.0010013011 0)
(0.04322138 -0.0012226809 0)
(0.042864951 -0.0016071211 0)
(0.042380236 -0.0021933151 0)
(0.041687576 -0.0030480726 0)
(0.04072205 -0.0042739982 0)
(0.039284007 -0.0060063152 0)
(0.037199622 -0.0083772996 0)
(0.034093274 -0.011327555 0)
(0.02963687 -0.014446925 0)
(0.023547228 -0.016759146 0)
(0.01599292 -0.016918561 0)
(0.0077575805 -0.013755026 0)
(-5.9958157e-005 -0.0055945807 0)
(0.041654507 -0.013807796 0)
(0.042933853 -0.012871583 0)
(0.043232189 -0.0094582837 0)
(0.042724578 -0.006613584 0)
(0.041986898 -0.0044619275 0)
(0.041326778 -0.0029146312 0)
(0.040779066 -0.001904805 0)
(0.040343307 -0.0012874639 0)
(0.039999498 -0.0009391539 0)
(0.03970379 -0.0007652126 0)
(0.039433563 -0.00071978729 0)
(0.03914609 -0.00078133151 0)
(0.03881181 -0.00095197091 0)
(0.038377773 -0.001244558 0)
(0.037802266 -0.0016970628 0)
(0.036990506 -0.0023489217 0)
(0.035865296 -0.0032772107 0)
(0.03425451 -0.0045691168 0)
(0.031963782 -0.0063001875 0)
(0.028712158 -0.0083880197 0)
(0.024251232 -0.010474826 0)
(0.018545186 -0.011816492 0)
(0.011895702 -0.011428378 0)
(0.0055447387 -0.0086089129 0)
(-0.00015983302 -0.0032068389 0)
(0.041332374 -0.016422571 0)
(0.041558014 -0.013040741 0)
(0.039943059 -0.0088338671 0)
(0.038300317 -0.0057756933 0)
(0.036845453 -0.0037105524 0)
(0.035746152 -0.0023221554 0)
(0.034983368 -0.0014581018 0)
(0.034432214 -0.00095027182 0)
(0.034028556 -0.00067149993 0)
(0.03370273 -0.00053520783 0)
(0.033412557 -0.00049615497 0)
(0.03311421 -0.0005350758 0)
(0.032768284 -0.00064964779 0)
(0.032327786 -0.00084952796 0)
(0.031740568 -0.0011556443 0)
(0.030928204 -0.0015984735 0)
(0.029801559 -0.0022234397 0)
(0.028222193 -0.0030854212 0)
(0.026011187 -0.0042195219 0)
(0.022965366 -0.0055548475 0)
(0.01893128 -0.0068174904 0)
(0.013986263 -0.0075154241 0)
(0.0085202061 -0.0069859788 0)
(0.0037785424 -0.0048469764 0)
(-0.0001844796 -0.0015418584 0)
(0.039694318 -0.018218063 0)
(0.038268983 -0.011550082 0)
(0.034088619 -0.007054212 0)
(0.031449625 -0.0042330928 0)
(0.029476062 -0.00255091 0)
(0.028142462 -0.0015226746 0)
(0.027293385 -0.00091635088 0)
(0.026729288 -0.00057219192 0)
(0.026338872 -0.00039059616 0)
(0.026039474 -0.00030356557 0)
(0.025779461 -0.00027762245 0)
(0.025517577 -0.0002978296 0)
(0.025214929 -0.00036107773 0)
(0.024832986 -0.00047388578 0)
(0.02432221 -0.0006452554 0)
(0.023620452 -0.00089382115 0)
(0.022648392 -0.0012440084 0)
(0.021295118 -0.0017240177 0)
(0.019420171 -0.0023484653 0)
(0.016878151 -0.0030706768 0)
(0.013599096 -0.003726265 0)
(0.0097014203 -0.0040250052 0)
(0.0055737523 -0.0035931227 0)
(0.0022743736 -0.0022230006 0)
(-0.00019517244 -0.00046899318 0)
(0.03454601 -0.016414671 0)
(0.031654578 -0.0077404291 0)
(0.024664192 -0.0043442956 0)
(0.021796518 -0.0023361761 0)
(0.0197595 -0.0013266408 0)
(0.01854587 -0.00075045208 0)
(0.01781741 -0.00043063489 0)
(0.017371089 -0.00025662063 0)
(0.01707848 -0.00016805619 0)
(0.016863419 -0.0001266369 0)
(0.016681008 -0.00011403085 0)
(0.016499329 -0.00012139716 0)
(0.016290352 -0.00014754871 0)
(0.01602551 -0.00019456339 0)
(0.015670212 -0.00026575221 0)
(0.01518117 -0.00036919047 0)
(0.014501722 -0.00051444856 0)
(0.013555573 -0.00071259368 0)
(0.012247733 -0.00097011551 0)
(0.010483606 -0.0012654208 0)
(0.0082280476 -0.0015248006 0)
(0.0056107699 -0.0016109809 0)
(0.0029205257 -0.0013679444 0)
(0.00096294229 -0.00068698738 0)
(-0.00021717918 2.9418851e-005 0)
(0.020535236 -0.012030456 0)
(0.017382714 -0.0023119915 0)
(0.010610827 -0.00037910443 0)
(0.0091975519 -0.00015153392 0)
(0.0078269296 -4.7051053e-005 0)
(0.0071694857 -1.6186264e-005 0)
(0.0067817741 -3.6464091e-006 0)
(0.0065634503 2.2192422e-006 0)
(0.0064293903 4.5951264e-006 0)
(0.0063371696 5.4680432e-006 0)
(0.0062619689 5.754637e-006 0)
(0.0061882376 6.1147387e-006 0)
(0.0061035757 6.9181134e-006 0)
(0.0059950873 8.1359458e-006 0)
(0.0058483279 1.0182364e-005 0)
(0.0056449931 1.2913231e-005 0)
(0.0053608435 1.6562926e-005 0)
(0.0049644166 2.1630858e-005 0)
(0.0044161369 2.802398e-005 0)
(0.0036792725 3.6412839e-005 0)
(0.0027412859 4.5135979e-005 0)
(0.0016800641 6.0500196e-005 0)
(0.00062049111 7.1308339e-005 0)
(-2.1574486e-005 0.00011465997 0)
(-0.00018887726 0.0001305093 0)
)
;

boundaryField
{
    inlet
    {
        type            fixedValue;
        value           uniform (0.03876 0 0);
    }
    walls
    {
        type            fixedValue;
        value           uniform (0 0 0);
    }
    outlet
    {
        type            zeroGradient;
    }
    centreline
    {
        type            symmetryPlane;
    }
    frontAndBack
    {
        type            empty;
    }
}


// ************************************************************************* //
