/*--------------------------------*- C++ -*----------------------------------*\
| =========                 |                                                 |
| \\      /  F ield         | OpenFOAM: The Open Source CFD Toolbox           |
|  \\    /   O peration     | Version:  5.x                                   |
|   \\  /    A nd           | Web:      www.OpenFOAM.org                      |
|    \\/     M anipulation  |                                                 |
\*---------------------------------------------------------------------------*/
/*   Windows 32 and 64 bit porting by blueCAPE: http://www.bluecape.com.pt   *\
|  Based on Windows porting (2.0.x v4) by Symscape: http://www.symscape.com   |
\*---------------------------------------------------------------------------*/
FoamFile
{
    version     2.0;
    format      ascii;
    class       volVectorField;
    location    "0.21";
    object      U_0;
}
// * * * * * * * * * * * * * * * * * * * * * * * * * * * * * * * * * * * * * //

dimensions      [0 1 -1 0 0 0 0];

internalField   nonuniform List<vector> 
750
(
(0.039340258 -0.00014626851 0)
(0.040555683 -0.00018343177 0)
(0.04221666 -0.00018302519 0)
(0.043529983 -0.00015854853 0)
(0.044735346 -0.00013377609 0)
(0.045676003 -0.00010580011 0)
(0.046424683 -8.347377e-005 0)
(0.047011342 -6.6362367e-005 0)
(0.047482496 -5.4920815e-005 0)
(0.047887426 -4.9693477e-005 0)
(0.048275434 -5.0504604e-005 0)
(0.048693214 -5.7703787e-005 0)
(0.04919504 -7.2589482e-005 0)
(0.049849969 -9.7856145e-005 0)
(0.050755745 -0.00013789244 0)
(0.052046743 -0.00019878581 0)
(0.053921196 -0.00029377118 0)
(0.056727746 -0.00044492555 0)
(0.06100474 -0.0006810794 0)
(0.067542579 -0.0010538989 0)
(0.077832108 -0.0015708373 0)
(0.092314644 -0.0023419105 0)
(0.11547457 -0.0032189282 0)
(0.1426152 -0.0041427502 0)
(0.18271272 -0.0046965644 0)
(0.039344149 -0.00043712084 0)
(0.040562026 -0.00055578283 0)
(0.042228583 -0.00054674711 0)
(0.043545017 -0.00047723794 0)
(0.044749435 -0.00040029703 0)
(0.045688403 -0.00031741346 0)
(0.046434609 -0.00024997693 0)
(0.047018269 -0.00019828207 0)
(0.047486238 -0.00016418034 0)
(0.047888522 -0.00014854648 0)
(0.048273493 -0.00015088773 0)
(0.048687725 -0.0001723141 0)
(0.049184734 -0.00021677372 0)
(0.049833588 -0.00029209043 0)
(0.050730471 -0.00041153651 0)
(0.05200783 -0.0005930978 0)
(0.05386173 -0.00087602995 0)
(0.056634855 -0.001326022 0)
(0.060854022 -0.0020284053 0)
(0.0672971 -0.0031335185 0)
(0.077417962 -0.004679385 0)
(0.091655399 -0.0069360965 0)
(0.11438549 -0.0096086881 0)
(0.14092901 -0.012277167 0)
(0.18065288 -0.014087327 0)
(0.039350705 -0.0007281388 0)
(0.040575543 -0.00093252925 0)
(0.042253481 -0.00091007292 0)
(0.043575432 -0.00079708669 0)
(0.044778627 -0.00066603038 0)
(0.045714219 -0.00052842387 0)
(0.046454898 -0.00041551437 0)
(0.047032559 -0.00032908705 0)
(0.04749462 -0.00027244387 0)
(0.047891508 -0.00024640183 0)
(0.048270264 -0.00025012312 0)
(0.048677483 -0.00028547868 0)
(0.049164967 -0.00035904294 0)
(0.049801515 -0.00048369901 0)
(0.050680645 -0.00068125902 0)
(0.051930921 -0.0009814262 0)
(0.053743293 -0.0014486683 0)
(0.056448718 -0.0021909204 0)
(0.060552931 -0.0033494897 0)
(0.066803881 -0.0051657541 0)
(0.076597616 -0.0077206493 0)
(0.090317511 -0.011401302 0)
(0.11225519 -0.015844031 0)
(0.13758991 -0.020184363 0)
(0.17646923 -0.023390566 0)
(0.039360347 -0.0010221963 0)
(0.040597134 -0.0013125142 0)
(0.042292533 -0.0012759376 0)
(0.04362232 -0.0011175369 0)
(0.044824037 -0.00093119757 0)
(0.045754496 -0.00073790543 0)
(0.046486332 -0.0005791835 0)
(0.047055003 -0.00045812174 0)
(0.047508582 -0.00037895546 0)
(0.047897228 -0.00034242623 0)
(0.04826658 -0.00034728027 0)
(0.048663424 -0.00039606861 0)
(0.049136848 -0.0004978979 0)
(0.04975495 -0.00067059694 0)
(0.050607687 -0.00094397243 0)
(0.051818018 -0.0013590703 0)
(0.053568795 -0.0020043094 0)
(0.056174252 -0.0030277066 0)
(0.060111372 -0.0046227061 0)
(0.066076601 -0.0071171611 0)
(0.075390582 -0.010630326 0)
(0.088339221 -0.015663599 0)
(0.10911557 -0.021766748 0)
(0.13255779 -0.027711467 0)
(0.17012559 -0.032371212 0)
(0.03937427 -0.0013209275 0)
(0.04062799 -0.0016968074 0)
(0.042347155 -0.0016456626 0)
(0.043687247 -0.0014387492 0)
(0.044886939 -0.0011955149 0)
(0.045810374 -0.00094524452 0)
(0.046529974 -0.00074022641 0)
(0.047086725 -0.00058466047 0)
(0.047529109 -0.00048300936 0)
(0.047906687 -0.00043587154 0)
(0.048263434 -0.00044156824 0)
(0.048646727 -0.00050309056 0)
(0.049101679 -0.00063207045 0)
(0.049695439 -0.00085095791 0)
(0.050513569 -0.0011971261 0)
(0.051671754 -0.0017220545 0)
(0.053342088 -0.0025365189 0)
(0.055817574 -0.003825859 0)
(0.059538625 -0.0058303432 0)
(0.065129556 -0.008957505 0)
(0.073828662 -0.013357525 0)
(0.08573614 -0.019642845 0)
(0.10498818 -0.027258056 0)
(0.1259385 -0.034775802 0)
(0.16167186 -0.040672895 0)
(0.039393833 -0.0016260737 0)
(0.040669608 -0.0020870498 0)
(0.042419122 -0.0020202577 0)
(0.043772153 -0.0017609672 0)
(0.044968844 -0.0014586449 0)
(0.045883118 -0.0011497833 0)
(0.046587078 -0.00089787367 0)
(0.04712899 -0.00070798402 0)
(0.047557261 -0.00058389865 0)
(0.047921089 -0.00052600551 0)
(0.048261964 -0.00053217698 0)
(0.04862864 -0.00060566978 0)
(0.049060998 -0.00076023119 0)
(0.049624766 -0.0010230932 0)
(0.050400506 -0.001438191 0)
(0.051494729 -0.0020665541 0)
(0.053066983 -0.0030395104 0)
(0.055384299 -0.0045761198 0)
(0.058844774 -0.0069564328 0)
(0.06398554 -0.010660599 0)
(0.071936813 -0.015853651 0)
(0.082545705 -0.023266734 0)
(0.099956065 -0.032187397 0)
(0.11763666 -0.041231268 0)
(0.15110917 -0.048160365 0)
(0.039420795 -0.0019398917 0)
(0.04072366 -0.0024846914 0)
(0.042510333 -0.0024009197 0)
(0.043878862 -0.002084365 0)
(0.04507123 -0.0017201735 0)
(0.045973724 -0.001350791 0)
(0.046658868 -0.001051328 0)
(0.047182813 -0.00082731262 0)
(0.04759388 -0.00068092926 0)
(0.047941442 -0.00061208615 0)
(0.048263048 -0.00061834844 0)
(0.048610312 -0.00070284115 0)
(0.04901613 -0.00088128491 0)
(0.049544695 -0.0011853706 0)
(0.050270617 -0.0016646963 0)
(0.051289807 -0.0023890493 0)
(0.052748065 -0.0035076939 0)
(0.054882238 -0.0052695673 0)
(0.058042503 -0.0079865431 0)
(0.062667713 -0.012201689 0)
(0.069747762 -0.018069668 0)
(0.078823576 -0.026457418 0)
(0.094060897 -0.036398379 0)
(0.10754732 -0.046811213 0)
(0.13897452 -0.054830815 0)
(0.039457645 -0.0022653439 0)
(0.040791789 -0.0028908742 0)
(0.042622261 -0.0027890406 0)
(0.044008883 -0.0024089886 0)
(0.045194918 -0.0019795104 0)
(0.046082493 -0.0015475306 0)
(0.046745945 -0.0011998509 0)
(0.047248537 -0.00094181139 0)
(0.047639394 -0.00077337655 0)
(0.047968042 -0.00069337695 0)
(0.048267216 -0.00069925105 0)
(0.048592012 -0.00079391573 0)
(0.048968252 -0.00099405334 0)
(0.049456593 -0.0013361646 0)
(0.050125784 -0.0018744404 0)
(0.051059893 -0.0026862559 0)
(0.052390188 -0.0039363369 0)
(0.054319549 -0.0058988722 0)
(0.05714547 -0.0089085835 0)
(0.061198863 -0.013560303 0)
(0.067305757 -0.019966688 0)
(0.074635821 -0.029149093 0)
(0.087388368 -0.039778364 0)
(0.096306306 -0.051481421 0)
(0.12550612 -0.059533162 0)
(0.039507128 -0.0026056535 0)
(0.04087586 -0.0033070715 0)
(0.042755575 -0.0031857076 0)
(0.044163223 -0.0027347852 0)
(0.045339522 -0.0022358927 0)
(0.046208975 -0.0017391991 0)
(0.046847758 -0.0013425731 0)
(0.047325566 -0.0010507339 0)
(0.047693382 -0.00086051803 0)
(0.047999922 -0.00076912356 0)
(0.048274273 -0.00077424063 0)
(0.048573376 -0.00087802714 0)
(0.048917325 -0.0010976087 0)
(0.049361166 -0.0014741585 0)
(0.049967519 -0.0020655816 0)
(0.050807638 -0.0029555195 0)
(0.051997411 -0.0043210373 0)
(0.053705293 -0.0064570616 0)
(0.056168511 -0.009711567 0)
(0.059598398 -0.014710632 0)
(0.06466913 -0.021501504 0)
(0.070101254 -0.031255318 0)
(0.080130227 -0.042242101 0)
(0.08404243 -0.055321737 0)
(0.11069355 -0.062663994 0)
(0.039570647 -0.0029621005 0)
(0.040977935 -0.0037383817 0)
(0.042910258 -0.0035897344 0)
(0.044341639 -0.0030619679 0)
(0.045503393 -0.0024889666 0)
(0.046350579 -0.0019246351 0)
(0.04696247 -0.0014788325 0)
(0.047411985 -0.0011534459 0)
(0.047753806 -0.00094161761 0)
(0.048034707 -0.0008387397 0)
(0.048283195 -0.00084249233 0)
(0.048552219 -0.00095461352 0)
(0.048862088 -0.0011913331 0)
(0.049257539 -0.0015982071 0)
(0.049796684 -0.0022361169 0)
(0.050533868 -0.0031943959 0)
(0.051572358 -0.0046593293 0)
(0.053046414 -0.0069412027 0)
(0.055122817 -0.010389122 0)
(0.057900721 -0.015647037 0)
(0.061899055 -0.022694472 0)
(0.065455775 -0.032747458 0)
(0.072290413 -0.043814715 0)
(0.070506256 -0.057845952 0)
(0.091210455 -0.062881677 0)
(0.21551865 -0.0026828839 0)
(0.22624191 -0.0010120612 0)
(0.23013951 -0.00026484027 0)
(0.23066154 -6.8712178e-005 0)
(0.23116427 -3.0774176e-005 0)
(0.2312357 -1.1455277e-005 0)
(0.2312833 -1.2342204e-006 0)
(0.23125572 2.7179637e-006 0)
(0.23123082 2.708524e-006 0)
(0.23121377 1.2997725e-006 0)
(0.23121173 3.174884e-009 0)
(0.23121437 -3.0437835e-007 0)
(0.23121626 -1.4265814e-007 0)
(0.23121643 5.5573355e-009 0)
(0.23121613 2.871254e-008 0)
(0.23121595 1.3860766e-008 0)
(0.23121592 1.2069506e-009 0)
(0.23121593 -1.9151408e-009 0)
(0.23121595 -7.5100208e-010 0)
(0.23121595 1.0858617e-010 0)
(0.23121594 1.8603169e-010 0)
(0.23121594 -8.0985944e-011 0)
(0.23121594 -1.4769238e-010 0)
(0.23121595 8.8213047e-010 0)
(0.23121593 1.0365977e-009 0)
(0.21260968 -0.0077272854 0)
(0.22201116 -0.0029477072 0)
(0.22575575 -0.00070846462 0)
(0.22614497 -0.00023900465 0)
(0.22655855 -9.788486e-005 0)
(0.22659145 -2.6826016e-005 0)
(0.22662601 -9.8524919e-007 0)
(0.22659519 8.9233007e-006 0)
(0.22656939 8.0904808e-006 0)
(0.22655462 3.3854769e-006 0)
(0.22655361 -9.3613689e-008 0)
(0.22655632 -8.6699212e-007 0)
(0.22655794 -3.7679469e-007 0)
(0.22655804 2.216454e-008 0)
(0.22655776 8.927087e-008 0)
(0.2265576 3.9464303e-008 0)
(0.22655758 2.188354e-009 0)
(0.2265576 -5.3793388e-009 0)
(0.22655761 -2.0734611e-009 0)
(0.22655761 2.4696957e-010 0)
(0.2265576 3.2089281e-010 0)
(0.2265576 -3.1610593e-010 0)
(0.22655761 -4.0229878e-010 0)
(0.22655761 2.9116766e-009 0)
(0.22655759 3.559935e-009 0)
(0.20666607 -0.012302047 0)
(0.21348941 -0.0046180788 0)
(0.21708761 -0.0011552382 0)
(0.21702384 -0.00033982298 0)
(0.21725979 -0.00011906401 0)
(0.21728263 -3.9364241e-005 0)
(0.21730593 1.2882803e-006 0)
(0.21727043 1.5871372e-005 0)
(0.21724701 1.3187592e-005 0)
(0.21723699 4.9455469e-006 0)
(0.21723777 -3.8886333e-007 0)
(0.21724036 -1.3775039e-006 0)
(0.21724148 -5.5610283e-007 0)
(0.21724147 4.690702e-008 0)
(0.21724123 1.4338219e-007 0)
(0.21724112 5.949203e-008 0)
(0.21724112 1.479474e-009 0)
(0.21724114 -8.4894988e-009 0)
(0.21724114 -3.1053178e-009 0)
(0.21724114 4.1305683e-010 0)
(0.21724114 4.1516663e-010 0)
(0.21724114 -5.6901798e-010 0)
(0.21724114 -4.8398088e-010 0)
(0.21724114 5.2649913e-009 0)
(0.21724112 6.4056119e-009 0)
(0.19741043 -0.016155855 0)
(0.20103005 -0.0059756244 0)
(0.20377749 -0.001406964 0)
(0.20319174 -0.00036751496 0)
(0.20332631 -0.00011734318 0)
(0.20332729 -4.5373862e-005 0)
(0.20332494 6.5040031e-006 0)
(0.20328903 2.2846368e-005 0)
(0.20327337 1.6981042e-005 0)
(0.20327002 5.6082488e-006 0)
(0.20327256 -8.9644334e-007 0)
(0.20327443 -1.7831587e-006 0)
(0.20327488 -6.5373656e-007 0)
(0.20327472 8.2731514e-008 0)
(0.20327455 1.7962493e-007 0)
(0.20327451 6.8310031e-008 0)
(0.20327453 -1.3190854e-009 0)
(0.20327454 -1.0910372e-008 0)
(0.20327454 -3.4451948e-009 0)
(0.20327454 6.4606363e-010 0)
(0.20327454 4.6263722e-010 0)
(0.20327454 -8.3373138e-010 0)
(0.20327454 -5.164154e-010 0)
(0.20327454 7.7616426e-009 0)
(0.20327452 9.126567e-009 0)
(0.1846627 -0.0189923 0)
(0.18440354 -0.0068581544 0)
(0.18544677 -0.0013642577 0)
(0.18471587 -0.00034699689 0)
(0.18480713 -0.00012451701 0)
(0.1847297 -4.6089446e-005 0)
(0.18470653 1.4114239e-005 0)
(0.18468132 2.7694597e-005 0)
(0.18467916 1.8387769e-005 0)
(0.18468304 5.0964209e-006 0)
(0.18468634 -1.4552442e-006 0)
(0.18468684 -1.9680741e-006 0)
(0.1846865 -6.3337354e-007 0)
(0.18468623 1.2534536e-007 0)
(0.18468619 1.9373088e-007 0)
(0.18468623 6.5102747e-008 0)
(0.18468626 -5.2404076e-009 0)
(0.18468626 -1.188368e-008 0)
(0.18468626 -3.11829e-009 0)
(0.18468626 8.4386965e-010 0)
(0.18468626 4.1625189e-010 0)
(0.18468626 -1.0185063e-009 0)
(0.18468626 -5.7060397e-010 0)
(0.18468625 9.7789e-009 0)
(0.18468625 1.1125468e-008 0)
(0.1686543 -0.020769489 0)
(0.16254425 -0.006778124 0)
(0.16244948 -0.0011968312 0)
(0.16164781 -0.0003081562 0)
(0.16167181 -9.8875682e-005 0)
(0.16152801 -3.1592047e-005 0)
(0.16151103 2.152589e-005 0)
(0.16150821 2.8441835e-005 0)
(0.1615223 1.6892211e-005 0)
(0.16153179 3.7133183e-006 0)
(0.16153434 -1.8202407e-006 0)
(0.16153311 -1.830474e-006 0)
(0.16153209 -5.0071069e-007 0)
(0.16153183 1.5659205e-007 0)
(0.16153195 1.7847189e-007 0)
(0.16153205 5.1417767e-008 0)
(0.16153208 -8.6189691e-009 0)
(0.16153207 -1.0957371e-008 0)
(0.16153206 -2.2383977e-009 0)
(0.16153206 9.3971414e-010 0)
(0.16153206 2.2596366e-010 0)
(0.16153206 -1.1533915e-009 0)
(0.16153206 -5.4330391e-010 0)
(0.16153206 1.041781e-008 0)
(0.16153206 1.1656335e-008 0)
(0.14805385 -0.020779676 0)
(0.13527214 -0.0058962943 0)
(0.13503424 -0.0009136716 0)
(0.13401096 -0.00024886081 0)
(0.1339898 -6.0228935e-005 0)
(0.13382025 -1.4540904e-005 0)
(0.13383096 2.2982773e-005 0)
(0.13385152 2.4178704e-005 0)
(0.13387941 1.2747997e-005 0)
(0.13389068 2.019822e-006 0)
(0.1338913 -1.7468486e-006 0)
(0.13388858 -1.4108005e-006 0)
(0.13388724 -3.0825132e-007 0)
(0.13388713 1.5659235e-007 0)
(0.13388738 1.3806578e-007 0)
(0.13388751 3.2361793e-008 0)
(0.13388753 -9.7209769e-009 0)
(0.13388751 -8.4355558e-009 0)
(0.1338875 -1.2093737e-009 0)
(0.1338875 8.2144762e-010 0)
(0.13388751 -9.3044223e-012 0)
(0.1338875 -1.0955347e-009 0)
(0.1338875 -4.4129031e-010 0)
(0.1338875 9.1134807e-009 0)
(0.13388752 1.0246492e-008 0)
(0.12073257 -0.01812651 0)
(0.10305886 -0.0043877508 0)
(0.10311956 -0.00057537372 0)
(0.10182753 -0.00016065003 0)
(0.10187016 -2.0729667e-005 0)
(0.10171455 -2.1807231e-006 0)
(0.1017591 1.7963261e-005 0)
(0.10179236 1.5611346e-005 0)
(0.10182602 7.4909749e-006 0)
(0.10183497 6.6905143e-007 0)
(0.10183365 -1.2430677e-006 0)
(0.10183035 -8.4407628e-007 0)
(0.10182914 -1.3132109e-007 0)
(0.10182922 1.1837234e-007 0)
(0.10182953 8.3705939e-008 0)
(0.10182965 1.4767508e-008 0)
(0.10182965 -7.7924012e-009 0)
(0.10182963 -5.0694699e-009 0)
(0.10182962 -4.1118097e-010 0)
(0.10182962 5.577853e-010 0)
(0.10182962 -1.8561646e-010 0)
(0.10182962 -8.7381916e-010 0)
(0.10182962 -4.6718927e-010 0)
(0.10182962 6.0117074e-009 0)
(0.10182965 6.9509699e-009 0)
(0.086197826 -0.013013031 0)
(0.066090165 -0.0024853907 0)
(0.066571357 -0.00021572087 0)
(0.065250768 -7.0260008e-005 0)
(0.065427944 8.6424255e-006 0)
(0.065309061 1.5986726e-006 0)
(0.065371509 9.3356991e-006 0)
(0.065399902 6.0727297e-006 0)
(0.065428002 2.7491693e-006 0)
(0.065432479 -4.4760928e-008 0)
(0.06543042 -5.5741735e-007 0)
(0.065427715 -3.07367e-007 0)
(0.065426976 -1.916078e-008 0)
(0.065427166 5.7605365e-008 0)
(0.065427429 3.1525551e-008 0)
(0.065427504 3.2394317e-009 0)
(0.065427491 -3.883535e-009 0)
(0.065427474 -1.8700367e-009 0)
(0.065427471 1.7669546e-011 0)
(0.065427472 2.4765948e-010 0)
(0.065427472 -1.9988817e-010 0)
(0.06542747 -5.3860636e-010 0)
(0.065427469 -5.5765465e-010 0)
(0.065427467 2.2872451e-009 0)
(0.065427494 2.9592404e-009 0)
(0.04014882 -0.0068308461 0)
(0.024157323 -0.0001355042 0)
(0.02548742 1.9855814e-011 0)
(0.024508852 9.4142298e-006 0)
(0.024774015 -1.4206644e-006 0)
(0.024681908 -7.8194427e-007 0)
(0.024730225 -5.7050195e-007 0)
(0.024736577 1.4753819e-007 0)
(0.024749625 5.4836437e-008 0)
(0.024749867 9.1486943e-009 0)
(0.024748927 -2.9596027e-010 0)
(0.02474781 -7.5514043e-012 0)
(0.024747631 1.9615865e-009 0)
(0.024747752 1.8156866e-009 0)
(0.024747861 1.2875539e-010 0)
(0.024747882 -3.2118496e-010 0)
(0.024747873 -2.2668147e-010 0)
(0.024747866 -4.1028884e-011 0)
(0.024747865 7.3975714e-012 0)
(0.024747866 -2.6621116e-011 0)
(0.024747866 -7.3214198e-011 0)
(0.024747864 -5.3288936e-011 0)
(0.024747863 -3.8566441e-011 0)
(0.024747861 4.8878128e-010 0)
(0.024747874 5.9603271e-010 0)
(0.039723281 -0.0037002126 0)
(0.041219875 -0.0046520606 0)
(0.043260846 -0.0044034559 0)
(0.044740437 -0.0037201819 0)
(0.045861659 -0.0029860972 0)
(0.046655505 -0.0022837386 0)
(0.04720878 -0.0017376737 0)
(0.047593077 -0.0013452126 0)
(0.047877138 -0.0010908484 0)
(0.048101155 -0.00096521454 0)
(0.048295775 -0.00096533383 0)
(0.048498148 -0.0010914823 0)
(0.048733849 -0.001357671 0)
(0.049025168 -0.0018172036 0)
(0.049422061 -0.0025347854 0)
(0.049942926 -0.0036075332 0)
(0.050660535 -0.0052365753 0)
(0.051645006 -0.0077498706 0)
(0.052926515 -0.011483498 0)
(0.054423157 -0.017063331 0)
(0.056281371 -0.024348591 0)
(0.05657519 -0.03427285 0)
(0.056889011 -0.044541563 0)
(0.043486804 -0.056945746 0)
(0.036388232 -0.046480515 0)
(0.040028653 -0.0050027452 0)
(0.04173449 -0.0062377431 0)
(0.043956226 -0.0056796387 0)
(0.045445202 -0.0046988463 0)
(0.046462255 -0.0036716716 0)
(0.047130823 -0.0027509195 0)
(0.04755123 -0.0020478533 0)
(0.047805986 -0.0015568621 0)
(0.047978095 -0.0012437476 0)
(0.048098303 -0.0010886781 0)
(0.048196262 -0.0010780464 0)
(0.048287315 -0.0012104681 0)
(0.048386139 -0.0015024544 0)
(0.048501087 -0.0019984179 0)
(0.048650709 -0.0027724889 0)
(0.048836709 -0.0039178783 0)
(0.049033236 -0.0056252594 0)
(0.049253822 -0.0082221662 0)
(0.049403217 -0.011978195 0)
(0.049148339 -0.017318777 0)
(0.048407092 -0.023954014 0)
(0.045511283 -0.031636558 0)
(0.040543901 -0.037579104 0)
(0.026150417 -0.040316595 0)
(0.010884026 -0.020655219 0)
(0.040438201 -0.0066500308 0)
(0.042350706 -0.0080054124 0)
(0.044667891 -0.0069993723 0)
(0.046039621 -0.0056098481 0)
(0.046860314 -0.0042512351 0)
(0.04733454 -0.003098124 0)
(0.047569103 -0.0022430707 0)
(0.047669411 -0.0016686285 0)
(0.047709147 -0.0013100069 0)
(0.047715204 -0.0011294513 0)
(0.047705145 -0.0011058275 0)
(0.047676107 -0.001233733 0)
(0.047637046 -0.0015243813 0)
(0.04757284 -0.0020137961 0)
(0.047467243 -0.0027776114 0)
(0.047318238 -0.0039101476 0)
(0.047037915 -0.0055504822 0)
(0.046551341 -0.0080009101 0)
(0.04572926 -0.011470167 0)
(0.044107379 -0.016196675 0)
(0.041396774 -0.021787189 0)
(0.036415136 -0.027340221 0)
(0.028866011 -0.030679248 0)
(0.015989581 -0.029933087 0)
(0.0025434691 -0.01420585 0)
(0.040935726 -0.0087014821 0)
(0.042923842 -0.0098750438 0)
(0.045083847 -0.0082353189 0)
(0.046123135 -0.006349074 0)
(0.046597892 -0.0046465956 0)
(0.046786723 -0.0032774332 0)
(0.046780119 -0.0022976473 0)
(0.046709537 -0.0016631643 0)
(0.046605112 -0.0012786561 0)
(0.046495601 -0.0010848203 0)
(0.046375311 -0.0010494966 0)
(0.046236795 -0.0011588162 0)
(0.046065189 -0.0014247213 0)
(0.045839136 -0.0018796194 0)
(0.04551341 -0.0025695621 0)
(0.045053765 -0.0035986431 0)
(0.044381974 -0.0050711162 0)
(0.043325081 -0.0072093904 0)
(0.041742231 -0.010187853 0)
(0.039168452 -0.014042301 0)
(0.035269085 -0.01835629 0)
(0.029357342 -0.022078974 0)
(0.021342848 -0.023345178 0)
(0.010955429 -0.020598882 0)
(0.00041304491 -0.0088298977 0)
(0.041421932 -0.011140691 0)
(0.043223902 -0.011623211 0)
(0.044770476 -0.0091557993 0)
(0.045185612 -0.0067479494 0)
(0.045130553 -0.0047529896 0)
(0.044936128 -0.0032327434 0)
(0.044655332 -0.0021880254 0)
(0.044397874 -0.0015330271 0)
(0.044158988 -0.0011514275 0)
(0.043942201 -0.00095798867 0)
(0.043731629 -0.00091398172 0)
(0.043502362 -0.0010014207 0)
(0.04322706 -0.0012228498 0)
(0.042870643 -0.0016073176 0)
(0.042385982 -0.0021935357 0)
(0.041693361 -0.0030482431 0)
(0.04072795 -0.0042740103 0)
(0.039290109 -0.0060061179 0)
(0.037206068 -0.0083771273 0)
(0.03409998 -0.01132825 0)
(0.029643399 -0.014449531 0)
(0.023552858 -0.016763966 0)
(0.015996856 -0.016924535 0)
(0.0077597571 -0.013760158 0)
(-5.9799042e-005 -0.0055973187 0)
(0.041655554 -0.013803708 0)
(0.04293606 -0.012868725 0)
(0.0432359 -0.0094558065 0)
(0.042729468 -0.0066112543 0)
(0.041992807 -0.004459875 0)
(0.041333481 -0.0029130508 0)
(0.040786235 -0.0019037773 0)
(0.040350786 -0.0012869473 0)
(0.040007133 -0.0009389684 0)
(0.039711516 -0.00076520516 0)
(0.039441337 -0.00071986883 0)
(0.039153874 -0.0007814605 0)
(0.038819581 -0.00095213986 0)
(0.038385515 -0.0012447591 0)
(0.037809982 -0.0016972781 0)
(0.036998184 -0.0023491156 0)
(0.035872984 -0.0032772986 0)
(0.034262277 -0.0045690637 0)
(0.031971732 -0.0063001741 0)
(0.028720189 -0.0083886176 0)
(0.024258787 -0.010476827 0)
(0.018551425 -0.01182012 0)
(0.011899835 -0.0114328 0)
(0.0055468847 -0.0086125516 0)
(-0.00015985089 -0.0032086572 0)
(0.041333865 -0.016419817 0)
(0.041560299 -0.013038975 0)
(0.039946722 -0.0088323182 0)
(0.03830509 -0.0057742465 0)
(0.036851248 -0.0037092339 0)
(0.03575282 -0.0023210955 0)
(0.034990575 -0.00145741 0)
(0.034439739 -0.00094993546 0)
(0.034036232 -0.00067140316 0)
(0.033710458 -0.00053523884 0)
(0.033420294 -0.00049624249 0)
(0.033121924 -0.00053519107 0)
(0.032775953 -0.00064978486 0)
(0.032335395 -0.00084969054 0)
(0.0317481 -0.0011558145 0)
(0.030935656 -0.001598627 0)
(0.029808956 -0.0022235307 0)
(0.028229587 -0.0030854157 0)
(0.026018638 -0.0042195423 0)
(0.022972786 -0.0055552597 0)
(0.018938162 -0.0068187722 0)
(0.013991837 -0.0075177389 0)
(0.0085237222 -0.006988781 0)
(0.0037803026 -0.0048491782 0)
(-0.00018461495 -0.0015429271 0)
(0.039695683 -0.018216648 0)
(0.038270795 -0.011549158 0)
(0.034091513 -0.0070534474 0)
(0.031453326 -0.0042324025 0)
(0.029480574 -0.0025502811 0)
(0.028147666 -0.0015221401 0)
(0.027299081 -0.00091598389 0)
(0.026735259 -0.00057202018 0)
(0.026344957 -0.0003905627 0)
(0.026045578 -0.00030360483 0)
(0.025785542 -0.00027769017 0)
(0.025523614 -0.00029790811 0)
(0.025220906 -0.00036116525 0)
(0.024838891 -0.00047398355 0)
(0.02432803 -0.00064535661 0)
(0.023626185 -0.00089390803 0)
(0.022654055 -0.0012440562 0)
(0.021300753 -0.0017240059 0)
(0.019425827 -0.0023484636 0)
(0.016883732 -0.0030708602 0)
(0.013604251 -0.0037268772 0)
(0.0097055607 -0.0040261706 0)
(0.0055762708 -0.0035945473 0)
(0.0022756263 -0.0022240589 0)
(-0.00019529659 -0.00046951699 0)
(0.034546796 -0.01641416 0)
(0.031655756 -0.0077400367 0)
(0.024666054 -0.0043439753 0)
(0.02179882 -0.002335941 0)
(0.019762281 -0.0013264302 0)
(0.018549049 -0.00075026713 0)
(0.017820914 -0.00043050795 0)
(0.017374774 -0.00025656968 0)
(0.017082226 -0.00016806008 0)
(0.016867156 -0.0001266686 0)
(0.016684709 -0.0001140722 0)
(0.016502984 -0.00012144036 0)
(0.016293955 -0.00014759401 0)
(0.016029054 -0.00019461243 0)
(0.015673691 -0.0002658013 0)
(0.015184586 -0.00036923379 0)
(0.014505089 -0.00051447122 0)
(0.013558928 -0.00071258834 0)
(0.012251111 -0.00097010364 0)
(0.010486956 -0.0012654672 0)
(0.0082311463 -0.0015250072 0)
(0.0056132745 -0.0016113896 0)
(0.0029220286 -0.0013684783 0)
(0.00096367419 -0.00068734778 0)
(-0.00021724995 2.9234428e-005 0)
(0.020535427 -0.012030524 0)
(0.017383176 -0.0023119726 0)
(0.01061155 -0.00037913898 0)
(0.0091983907 -0.00015158587 0)
(0.0078278964 -4.7092491e-005 0)
(0.0071705587 -1.6217455e-005 0)
(0.0067829454 -3.6645992e-006 0)
(0.0065646728 2.2111977e-006 0)
(0.0064306203 4.592635e-006 0)
(0.0063383814 5.4669677e-006 0)
(0.0062631523 5.7542009e-006 0)
(0.0061893908 6.1150761e-006 0)
(0.0061046985 6.9191228e-006 0)
(0.0059961777 8.1377176e-006 0)
(0.0058493846 1.0185284e-005 0)
(0.0056460179 1.2918004e-005 0)
(0.0053618461 1.6570443e-005 0)
(0.0049654184 2.1642166e-005 0)
(0.0044171596 2.8040387e-005 0)
(0.0036803116 3.6436602e-005 0)
(0.0027422637 4.5165642e-005 0)
(0.0016808694 6.0543535e-005 0)
(0.00062094291 7.1325567e-005 0)
(-2.13779e-005 0.00011469616 0)
(-0.00018890018 0.00013053006 0)
)
;

boundaryField
{
    inlet
    {
        type            fixedValue;
        value           uniform (0.03876 0 0);
    }
    walls
    {
        type            fixedValue;
        value           uniform (0 0 0);
    }
    outlet
    {
        type            zeroGradient;
    }
    centreline
    {
        type            symmetryPlane;
    }
    frontAndBack
    {
        type            empty;
    }
}


// ************************************************************************* //
