/*--------------------------------*- C++ -*----------------------------------*\
| =========                 |                                                 |
| \\      /  F ield         | OpenFOAM: The Open Source CFD Toolbox           |
|  \\    /   O peration     | Version:  5.x                                   |
|   \\  /    A nd           | Web:      www.OpenFOAM.org                      |
|    \\/     M anipulation  |                                                 |
\*---------------------------------------------------------------------------*/
/*   Windows 32 and 64 bit porting by blueCAPE: http://www.bluecape.com.pt   *\
|  Based on Windows porting (2.0.x v4) by Symscape: http://www.symscape.com   |
\*---------------------------------------------------------------------------*/
FoamFile
{
    version     2.0;
    format      ascii;
    class       volVectorField;
    location    "1000";
    object      U;
}
// * * * * * * * * * * * * * * * * * * * * * * * * * * * * * * * * * * * * * //

dimensions      [0 1 -1 0 0 0 0];

internalField   nonuniform List<vector> 
4000
(
(0.999135 0.000753642 9.89893e-024)
(0.997594 0.00244179 0)
(0.994255 0.00350932 0)
(0.99033 0.00386808 0)
(0.986283 0.00399552 0)
(0.982157 0.0040192 0)
(0.977999 0.00397739 -3.04354e-024)
(0.97386 0.00389707 0)
(0.969775 0.00380076 0)
(0.965751 0.00369976 1.31129e-024)
(0.96179 0.00359773 0)
(0.957897 0.00349637 0)
(0.954077 0.00339963 4.68887e-024)
(0.950326 0.00330723 0)
(0.946642 0.00321945 6.5406e-024)
(0.943023 0.00313741 7.37248e-024)
(0.939469 0.00306187 8.15322e-024)
(0.935975 0.002993 8.88903e-024)
(0.93254 0.00293057 9.58633e-024)
(0.92916 0.00287384 1.0247e-023)
(0.925832 0.00282121 1.08691e-023)
(0.922555 0.00277129 1.14564e-023)
(0.919329 0.00272312 0)
(0.916154 0.00267658 1.25431e-023)
(0.913029 0.00263174 1.3049e-023)
(0.909954 0.00258786 1.35316e-023)
(0.90693 0.00254361 1.39924e-023)
(0.903958 0.00249798 1.44358e-023)
(0.90104 0.00245094 1.48675e-023)
(0.898175 0.00240306 1.52902e-023)
(0.895366 0.00235589 0)
(0.89261 0.00231012 1.61145e-023)
(0.889909 0.00226473 1.65122e-023)
(0.887263 0.00221867 1.68991e-023)
(0.884673 0.00217106 1.72759e-023)
(0.882141 0.00212132 1.7643e-023)
(0.879668 0.00206893 1.79995e-023)
(0.877255 0.00201517 1.83512e-023)
(0.874903 0.00196187 1.87014e-023)
(0.872612 0.00190874 0)
(0.870384 0.00185501 1.93787e-023)
(0.86822 0.00180054 1.97076e-023)
(0.866121 0.00174606 2.00277e-023)
(0.864086 0.00169226 2.03286e-023)
(0.862113 0.00163959 2.06023e-023)
(0.8602 0.00158778 2.08488e-023)
(0.858342 0.00153572 2.10733e-023)
(0.856538 0.00148252 0)
(0.854784 0.0014283 2.14898e-023)
(0.853078 0.00137384 2.16906e-023)
(0.851419 0.00132023 2.18868e-023)
(0.849805 0.00126871 2.20785e-023)
(0.848236 0.00122061 2.22634e-023)
(0.846711 0.00117649 2.24398e-023)
(0.845231 0.00113683 2.26082e-023)
(0.843795 0.00110048 2.27644e-023)
(0.8424 0.00106479 0)
(0.841043 0.00102667 2.30181e-023)
(0.839726 0.000984556 2.31207e-023)
(0.838445 0.000938534 2.32167e-023)
(0.837199 0.000889909 2.33133e-023)
(0.835987 0.00084153 2.34187e-023)
(0.834807 0.000795538 2.35322e-023)
(0.833657 0.000752265 2.3649e-023)
(0.832538 0.000711782 0)
(0.831447 0.000674334 2.38834e-023)
(0.830384 0.000640235 2.39991e-023)
(0.829346 0.000609445 2.41138e-023)
(0.828333 0.000581421 2.42276e-023)
(0.827343 0.000555428 2.43406e-023)
(0.826375 0.000531153 2.44522e-023)
(0.825429 0.00050867 2.45627e-023)
(0.824503 0.000488248 2.4672e-023)
(0.823595 0.000470329 2.47813e-023)
(0.822706 0.000454889 2.48918e-023)
(0.821832 0.000441109 2.50047e-023)
(0.820976 0.000427861 2.51198e-023)
(0.820136 0.000414154 2.52366e-023)
(0.819314 0.000399298 2.53529e-023)
(0.818508 0.000383161 2.5467e-023)
(0.817722 0.000366318 2.55784e-023)
(0.816952 0.000349782 0)
(0.8162 0.000335242 2.5794e-023)
(0.81546 0.000324176 2.58981e-023)
(0.814734 0.000322956 2.59968e-023)
(0.814002 0.000335019 2.61036e-023)
(0.813267 0.000353542 2.62241e-023)
(0.812531 0.000372392 2.63562e-023)
(0.811791 0.00038933 2.64947e-023)
(0.81105 0.000403635 2.66385e-023)
(0.810311 0.000415109 0)
(0.809575 0.000423684 2.69417e-023)
(0.808844 0.000429595 2.71e-023)
(0.808119 0.000433052 2.72607e-023)
(0.807401 0.000434169 2.74223e-023)
(0.80669 0.000433146 2.75846e-023)
(0.805989 0.0004303 2.7748e-023)
(0.805297 0.000425975 2.79127e-023)
(0.804616 0.000420455 2.80788e-023)
(0.803946 0.000413953 2.82461e-023)
(0.803287 0.000406623 2.84145e-023)
(0.802639 0.000398576 2.85837e-023)
(0.802004 0.000389916 2.87534e-023)
(0.80138 0.000380726 2.89235e-023)
(0.800768 0.000371068 2.90936e-023)
(0.800168 0.000361098 2.92641e-023)
(0.799581 0.000351049 2.94347e-023)
(0.799004 0.000340841 2.96034e-023)
(0.798438 0.000330492 2.97697e-023)
(0.797883 0.000320144 2.99343e-023)
(0.797338 0.000309962 3.00966e-023)
(0.796802 0.000300032 3.0256e-023)
(0.796276 0.000290383 3.04119e-023)
(0.795757 0.000281025 3.05641e-023)
(0.795247 0.000272064 3.0712e-023)
(0.794744 0.000263524 3.08556e-023)
(0.794247 0.000255478 3.09942e-023)
(0.793757 0.000247941 3.11278e-023)
(0.793271 0.00024098 3.12557e-023)
(0.792791 0.000234581 3.13777e-023)
(0.792314 0.000228774 3.1493e-023)
(0.79184 0.000223515 3.16014e-023)
(0.791369 0.000218816 3.17019e-023)
(0.790899 0.000214636 3.17947e-023)
(0.790431 0.000211015 3.18785e-023)
(0.789963 0.000207857 3.19534e-023)
(0.789496 0.000205214 3.20192e-023)
(0.789028 0.000203228 3.20772e-023)
(0.788559 0.00020201 3.21261e-023)
(0.788088 0.000201253 3.2165e-023)
(0.787615 0.000200675 3.21937e-023)
(0.787141 0.000200257 3.22134e-023)
(0.786663 0.000199882 3.22205e-023)
(0.786182 0.000199056 3.22114e-023)
(0.785697 0.000197999 3.21874e-023)
(0.785209 0.000197126 3.21509e-023)
(0.784717 0.000196735 3.21014e-023)
(0.78422 0.000196726 3.2039e-023)
(0.78372 0.000196989 3.19626e-023)
(0.783215 0.000197321 3.1872e-023)
(0.782706 0.00019773 3.17665e-023)
(0.782192 0.000198238 3.16468e-023)
(0.781673 0.000198908 3.1512e-023)
(0.781149 0.000199673 3.13623e-023)
(0.78062 0.000200531 3.11963e-023)
(0.780085 0.000201371 3.10135e-023)
(0.779544 0.00020219 3.08131e-023)
(0.778997 0.000202929 3.05962e-023)
(0.778445 0.00020379 3.03637e-023)
(0.777886 0.000204972 3.01172e-023)
(0.777322 0.000206648 2.98554e-023)
(0.776751 0.000208763 2.95779e-023)
(0.776173 0.000211295 2.92837e-023)
(0.775587 0.000214141 2.8974e-023)
(0.774995 0.000217376 2.86497e-023)
(0.774394 0.000221054 2.83118e-023)
(0.773786 0.000225144 2.79584e-023)
(0.773168 0.000229423 2.7588e-023)
(0.772542 0.000233879 2.72003e-023)
(0.771907 0.000238514 2.67966e-023)
(0.771263 0.000243379 2.63774e-023)
(0.77061 0.000248371 2.59445e-023)
(0.76995 0.00025346 2.54993e-023)
(0.769281 0.000258668 2.50443e-023)
(0.768604 0.000264084 2.45788e-023)
(0.767919 0.000269636 2.41014e-023)
(0.767225 0.000275225 2.36102e-023)
(0.766522 0.000280568 2.31059e-023)
(0.765812 0.000285294 2.25891e-023)
(0.765095 0.000288749 2.20612e-023)
(0.764373 0.000291003 2.15236e-023)
(0.763646 0.000292722 2.09794e-023)
(0.762915 0.000294781 2.04286e-023)
(0.762179 0.000297533 1.98707e-023)
(0.761439 0.000301391 1.93064e-023)
(0.760694 0.000307082 1.87388e-023)
(0.759944 0.000314773 1.81629e-023)
(0.759189 0.000323446 1.75711e-023)
(0.758429 0.000331847 1.69619e-023)
(0.757665 0.000339196 1.63375e-023)
(0.756899 0.000345276 1.56992e-023)
(0.75613 0.000350373 1.50486e-023)
(0.755358 0.000355346 1.43847e-023)
(0.754582 0.000360755 1.3707e-023)
(0.753799 0.000367211 1.30147e-023)
(0.753007 0.00037553 1.23088e-023)
(0.752205 0.00038671 1.15896e-023)
(0.751388 0.000401205 1.08595e-023)
(0.750554 0.000419788 1.012e-023)
(0.7497 0.000443146 9.37255e-024)
(0.748819 0.00047101 8.61489e-024)
(0.747909 0.000502692 7.84439e-024)
(0.746967 0.000537508 7.05707e-024)
(0.745989 0.00057594 6.2557e-024)
(0.744975 0.00061602 5.42993e-024)
(0.743914 0.000659616 4.59983e-024)
(0.742834 0.000699522 3.69419e-024)
(0.74164 0.000745956 2.89475e-024)
(0.740637 0.000773085 1.65006e-024)
(0.738858 0.000809771 1.58514e-024)
(1.00017 0.00117493 -8.92378e-026)
(1.00081 0.00282787 0)
(1.00142 0.00353145 0)
(1.00176 0.00396747 0)
(1.0019 0.00422327 0)
(1.00187 0.00435481 0)
(1.0017 0.00443685 -2.05514e-024)
(1.00141 0.00445416 0)
(1.00104 0.00444444 0)
(1.00058 0.00442806 6.78804e-025)
(1.00004 0.00439843 0)
(0.999441 0.00435545 0)
(0.998792 0.00431142 2.96031e-024)
(0.998098 0.00426658 0)
(0.997371 0.00421938 4.23264e-024)
(0.99662 0.0041705 4.81371e-024)
(0.995853 0.00411954 5.36526e-024)
(0.995077 0.00406693 5.8904e-024)
(0.994296 0.00401493 6.39662e-024)
(0.993512 0.00396443 6.87336e-024)
(0.992725 0.00391379 7.31293e-024)
(0.991939 0.00386241 7.72546e-024)
(0.991154 0.00381015 0)
(0.990374 0.00375678 8.48541e-024)
(0.989598 0.00370235 8.83662e-024)
(0.988829 0.00364707 9.16873e-024)
(0.988067 0.00359091 9.48359e-024)
(0.987312 0.00353389 9.78811e-024)
(0.986563 0.00347602 1.00838e-023)
(0.985821 0.00341688 1.037e-023)
(0.985085 0.00335606 0)
(0.98436 0.00329386 1.09173e-023)
(0.983644 0.00323075 1.1173e-023)
(0.982937 0.0031668 1.14176e-023)
(0.982238 0.00310226 1.16522e-023)
(0.981547 0.00303727 1.18776e-023)
(0.980862 0.00297233 1.20965e-023)
(0.980181 0.00290584 1.23105e-023)
(0.979508 0.00283628 1.25073e-023)
(0.978843 0.00276424 0)
(0.978185 0.00269053 1.2876e-023)
(0.977536 0.0026155 1.30474e-023)
(0.976894 0.00253983 1.32039e-023)
(0.97626 0.00246574 1.33514e-023)
(0.975632 0.00239616 1.34987e-023)
(0.975009 0.00233386 1.36511e-023)
(0.974388 0.00228 1.38066e-023)
(0.973768 0.00223333 0)
(0.973146 0.00219137 1.41043e-023)
(0.972521 0.00215189 1.42413e-023)
(0.971891 0.00211292 1.43675e-023)
(0.971259 0.00207268 1.44788e-023)
(0.970624 0.00202736 1.45618e-023)
(0.96999 0.00197583 1.46306e-023)
(0.969359 0.00192275 1.47091e-023)
(0.968731 0.00187257 1.47917e-023)
(0.968103 0.00182845 0)
(0.967471 0.0017923 1.49591e-023)
(0.966831 0.00176417 1.50501e-023)
(0.96618 0.00174264 1.51456e-023)
(0.965514 0.00172512 1.52458e-023)
(0.964837 0.00170851 1.53463e-023)
(0.96415 0.00169087 1.54422e-023)
(0.963456 0.00167179 1.55357e-023)
(0.962754 0.00165159 0)
(0.962046 0.00163087 1.57279e-023)
(0.961334 0.00160998 1.58271e-023)
(0.960619 0.00158911 1.59268e-023)
(0.959901 0.00156837 1.60251e-023)
(0.959181 0.00154787 1.61216e-023)
(0.958461 0.00152754 1.62172e-023)
(0.95774 0.00150742 1.63131e-023)
(0.95702 0.00148742 1.64099e-023)
(0.956303 0.00146738 1.65085e-023)
(0.95559 0.00144723 1.66077e-023)
(0.954881 0.00142696 1.6706e-023)
(0.954177 0.00140666 1.68026e-023)
(0.953478 0.00138676 1.68981e-023)
(0.95278 0.00136735 1.69898e-023)
(0.952084 0.00134806 1.70781e-023)
(0.951389 0.00132879 1.7166e-023)
(0.950696 0.00131003 0)
(0.950005 0.00129253 1.73503e-023)
(0.949319 0.00127832 1.74501e-023)
(0.948637 0.0012641 1.75738e-023)
(0.947977 0.00124962 1.7718e-023)
(0.947337 0.00123817 1.78421e-023)
(0.946715 0.0012271 1.79516e-023)
(0.94611 0.00121511 1.80588e-023)
(0.945521 0.00120186 1.81661e-023)
(0.944946 0.00118735 0)
(0.944385 0.00117213 1.83869e-023)
(0.943834 0.00115695 1.8502e-023)
(0.943292 0.00114214 1.86171e-023)
(0.942758 0.00112736 1.87296e-023)
(0.94223 0.00111228 1.88406e-023)
(0.941708 0.00109684 1.8952e-023)
(0.941192 0.0010811 1.90641e-023)
(0.940681 0.00106522 1.9177e-023)
(0.940175 0.00104933 1.92905e-023)
(0.939673 0.00103356 1.94042e-023)
(0.939174 0.00101798 1.95181e-023)
(0.938678 0.00100263 1.96317e-023)
(0.938185 0.000987622 1.97452e-023)
(0.937695 0.000972616 1.98575e-023)
(0.937206 0.000957939 1.99712e-023)
(0.936719 0.000944596 2.00878e-023)
(0.936233 0.000932155 2.02001e-023)
(0.935746 0.000920426 2.03109e-023)
(0.93526 0.00090948 2.04211e-023)
(0.934773 0.000899391 2.05297e-023)
(0.934285 0.000890173 2.06362e-023)
(0.933797 0.000881842 2.07402e-023)
(0.933307 0.000874363 2.08416e-023)
(0.932816 0.000867753 2.09402e-023)
(0.932323 0.000861986 2.10359e-023)
(0.931829 0.00085709 2.11285e-023)
(0.931332 0.000853075 2.1218e-023)
(0.930834 0.000850012 2.13041e-023)
(0.930333 0.000847888 2.13861e-023)
(0.929829 0.00084673 2.14639e-023)
(0.929323 0.000846497 2.15368e-023)
(0.928813 0.000847164 2.16045e-023)
(0.928301 0.000848665 2.16666e-023)
(0.927785 0.000850975 2.17227e-023)
(0.927265 0.000853736 2.1772e-023)
(0.926743 0.000856913 2.18169e-023)
(0.926218 0.000860889 2.18585e-023)
(0.92569 0.000865891 2.18936e-023)
(0.925158 0.000871202 2.19189e-023)
(0.924624 0.000876281 2.1936e-023)
(0.924087 0.000883066 2.19527e-023)
(0.923543 0.000892242 2.19602e-023)
(0.922992 0.000901725 2.19485e-023)
(0.922435 0.000911159 2.193e-023)
(0.921872 0.000920545 2.19048e-023)
(0.921305 0.000930027 2.18713e-023)
(0.920732 0.000939642 2.18282e-023)
(0.920154 0.000949556 2.17751e-023)
(0.91957 0.000959554 2.17113e-023)
(0.918981 0.000969693 2.16382e-023)
(0.918385 0.000980134 2.15564e-023)
(0.917784 0.000991054 2.14651e-023)
(0.917176 0.00100267 2.13638e-023)
(0.916561 0.00101502 2.12505e-023)
(0.915938 0.0010278 2.11243e-023)
(0.915307 0.00104067 2.09854e-023)
(0.914669 0.00105314 2.08352e-023)
(0.914024 0.0010654 2.06768e-023)
(0.913372 0.00107789 2.05106e-023)
(0.912714 0.00109095 2.03345e-023)
(0.912049 0.0011045 2.01469e-023)
(0.911376 0.00111831 1.99475e-023)
(0.910697 0.001132 1.97375e-023)
(0.910011 0.00114575 1.95191e-023)
(0.909319 0.00116017 1.92925e-023)
(0.90862 0.00117551 1.90537e-023)
(0.907912 0.00119122 1.88003e-023)
(0.907197 0.00120696 1.85346e-023)
(0.906475 0.0012224 1.82578e-023)
(0.905745 0.00123738 1.79705e-023)
(0.90501 0.00125156 1.76734e-023)
(0.904269 0.00126487 1.73685e-023)
(0.903524 0.00127796 1.70585e-023)
(0.902773 0.00129147 1.67409e-023)
(0.902017 0.00130543 1.6413e-023)
(0.901254 0.00131941 1.60733e-023)
(0.900485 0.00133274 1.57219e-023)
(0.899709 0.00134524 1.53593e-023)
(0.898926 0.0013565 1.49856e-023)
(0.898138 0.00136628 1.46066e-023)
(0.897345 0.00137514 1.42279e-023)
(0.896547 0.00138355 1.38468e-023)
(0.895744 0.00139104 1.34607e-023)
(0.894938 0.00139734 1.30704e-023)
(0.894126 0.00140213 1.26741e-023)
(0.893314 0.00140517 1.22658e-023)
(0.892501 0.00140644 1.1845e-023)
(0.891686 0.00140657 1.14135e-023)
(0.89087 0.00140623 1.09722e-023)
(0.890051 0.00140645 1.05231e-023)
(0.889228 0.00140836 1.00693e-023)
(0.8884 0.00141271 9.61035e-024)
(0.887567 0.0014198 9.14363e-024)
(0.886727 0.00142999 8.66964e-024)
(0.885881 0.00144313 8.19064e-024)
(0.885031 0.00145895 7.70745e-024)
(0.884178 0.00147779 7.22153e-024)
(0.883324 0.00150023 6.7376e-024)
(0.882469 0.00152705 6.25438e-024)
(0.881615 0.00155904 5.76157e-024)
(0.880759 0.00159563 5.25368e-024)
(0.879903 0.00163497 4.72897e-024)
(0.879044 0.00167755 4.19636e-024)
(0.878189 0.00172222 3.63673e-024)
(0.87732 0.00177266 3.08757e-024)
(0.876478 0.00182277 2.44996e-024)
(0.875536 0.00188165 1.94811e-024)
(0.874826 0.00194434 1.05401e-024)
(0.873401 0.00203465 1.01436e-024)
(1.00007 0.000615555 -3.12519e-024)
(1.00044 0.00183814 0)
(1.00105 0.00277187 0)
(1.00159 0.00341924 0)
(1.00203 0.00385476 0)
(1.00237 0.00415116 0)
(1.00261 0.00433334 2.45081e-024)
(1.00277 0.00443692 0)
(1.00283 0.0045241 0)
(1.00282 0.00459798 -9.50552e-025)
(1.00274 0.00464713 0)
(1.00262 0.00466373 0)
(1.00245 0.00467567 -3.69333e-024)
(1.00224 0.00467206 0)
(1.002 0.00465338 -5.18652e-024)
(1.00173 0.00462361 -5.85464e-024)
(1.00143 0.00458568 -6.47923e-024)
(1.00112 0.00454205 -7.0638e-024)
(1.00079 0.00449713 -7.61635e-024)
(1.00044 0.00445451 -8.13223e-024)
(1.00008 0.00441079 -8.60675e-024)
(0.999715 0.0043646 -9.0496e-024)
(0.999339 0.00431595 0)
(0.998957 0.00426553 -9.85957e-024)
(0.99857 0.00421394 -1.02263e-023)
(0.998179 0.004161 -1.0569e-023)
(0.997786 0.00410564 -1.08934e-023)
(0.997393 0.00404791 -1.1209e-023)
(0.996999 0.00398925 -3.31583e-023)
(0.996604 0.00392994 -1.18234e-023)
(0.996206 0.00387026 0)
(0.995806 0.00381014 -1.23837e-023)
(0.995402 0.00374918 -1.26329e-023)
(0.994995 0.00368753 -1.28679e-023)
(0.994585 0.00362537 -3.76893e-023)
(0.994173 0.0035628 -1.33053e-023)
(0.993758 0.00349903 -1.35144e-023)
(0.993342 0.00343565 -1.37172e-023)
(0.99292 0.00337264 -1.39082e-023)
(0.992492 0.00330801 0)
(0.992057 0.00324183 -4.09994e-023)
(0.991615 0.00317575 -1.44134e-023)
(0.991163 0.00311109 -1.4545e-023)
(0.990703 0.0030475 -1.46531e-023)
(0.990236 0.00298447 -1.47471e-023)
(0.989767 0.00292207 -1.48405e-023)
(0.9893 0.00286144 -4.30008e-023)
(0.988839 0.00280421 0)
(0.988385 0.0027513 -1.51602e-023)
(0.987937 0.00270258 -1.5279e-023)
(0.987494 0.00265809 -1.53938e-023)
(0.987051 0.00261807 -1.55009e-023)
(0.986606 0.00258246 -1.55891e-023)
(0.98615 0.00254737 -1.57109e-023)
(0.985683 0.00251181 -1.58384e-023)
(0.985206 0.00247737 -1.59596e-023)
(0.984719 0.00244418 0)
(0.98423 0.00241206 -1.62034e-023)
(0.983741 0.00238166 -1.63487e-023)
(0.983255 0.00235259 -1.6515e-023)
(0.982776 0.0023248 -1.67036e-023)
(0.982302 0.0022989 -1.69033e-023)
(0.981831 0.00227392 -1.71013e-023)
(0.981362 0.00224912 -1.72965e-023)
(0.980894 0.00222503 0)
(0.980426 0.00220192 -1.76887e-023)
(0.979959 0.00217956 -1.7886e-023)
(0.979491 0.00215762 -1.80833e-023)
(0.979022 0.00213598 -1.82799e-023)
(0.978553 0.0021146 -1.84755e-023)
(0.978083 0.00209338 -1.86703e-023)
(0.977614 0.00207213 -1.88643e-023)
(0.977144 0.0020506 -1.90574e-023)
(0.976675 0.00202868 -1.92499e-023)
(0.976205 0.00200643 -1.94412e-023)
(0.975737 0.00198405 -1.9631e-023)
(0.975268 0.00196227 -1.98197e-023)
(0.9748 0.00194207 -2.00078e-023)
(0.974332 0.00192295 -2.0193e-023)
(0.973863 0.00190364 -2.03744e-023)
(0.973394 0.00188389 -2.05542e-023)
(0.972925 0.00186415 0)
(0.972456 0.00184479 -2.09133e-023)
(0.971988 0.00182612 1.96867e-023)
(0.971521 0.00180746 1.98657e-023)
(0.971055 0.00178846 -2.14647e-023)
(0.970591 0.00176976 -2.16402e-023)
(0.97013 0.0017515 -2.18059e-023)
(0.969672 0.00173332 -2.19664e-023)
(0.969216 0.00171488 -2.2123e-023)
(0.968764 0.00169633 4.30933e-023)
(0.968313 0.00167858 -2.24328e-023)
(0.967864 0.00166259 -2.25885e-023)
(0.967416 0.00164799 -2.27424e-023)
(0.966968 0.00163339 -2.2892e-023)
(0.966519 0.00161818 -2.30385e-023)
(0.966071 0.00160254 2.17079e-023)
(0.965623 0.00158672 -2.33283e-023)
(0.965175 0.00157092 -2.34723e-023)
(0.964726 0.00155537 -2.36156e-023)
(0.964277 0.00154019 -2.37581e-023)
(0.963827 0.00152545 -2.38999e-023)
(0.963376 0.00151116 2.25316e-023)
(0.962923 0.00149725 -2.41805e-023)
(0.96247 0.00148283 -2.43184e-023)
(0.962015 0.00146951 -2.44571e-023)
(0.961559 0.00145865 -2.45976e-023)
(0.961102 0.00144828 -2.47345e-023)
(0.960643 0.00143812 -2.48693e-023)
(0.960183 0.00142874 2.34751e-023)
(0.959722 0.00142042 -2.51364e-023)
(0.959259 0.00141315 -2.52668e-023)
(0.958794 0.00140679 -2.53945e-023)
(0.958328 0.00140122 -2.55196e-023)
(0.957861 0.00139642 -2.56418e-023)
(0.957392 0.00139238 2.42268e-023)
(0.956922 0.00138909 -2.58774e-023)
(0.956451 0.00138666 -2.59907e-023)
(0.95598 0.00138521 -2.61007e-023)
(0.955507 0.00138478 -2.62071e-023)
(0.955034 0.00138539 -2.63098e-023)
(0.95456 0.00138702 2.48956e-023)
(0.954085 0.00138957 -2.6502e-023)
(0.95361 0.00139304 -2.65904e-023)
(0.953134 0.00139725 -2.66719e-023)
(0.952657 0.00140118 -2.67466e-023)
(0.952182 0.0014049 -2.68177e-023)
(0.951706 0.00140994 2.54076e-023)
(0.95123 0.00141667 -2.69485e-023)
(0.950754 0.0014229 -2.69996e-023)
(0.950278 0.0014285 -2.70442e-023)
(0.949802 0.00143899 -2.70893e-023)
(0.949326 0.00145317 -2.71268e-023)
(0.948848 0.00146543 2.57419e-023)
(0.948371 0.00147629 -2.71602e-023)
(0.947895 0.00148706 -2.71678e-023)
(0.947419 0.00149835 -2.71674e-023)
(0.946942 0.00151025 -2.71572e-023)
(0.946464 0.0015229 -2.71364e-023)
(0.945985 0.00153562 2.57451e-023)
(0.945506 0.00154846 -2.70618e-023)
(0.945026 0.00156188 -2.70108e-023)
(0.944545 0.0015761 -2.69499e-023)
(0.944063 0.0015919 -2.68795e-023)
(0.943579 0.00160921 -2.67977e-023)
(0.943093 0.0016272 -2.67021e-023)
(0.942605 0.00164478 2.53185e-023)
(0.942116 0.00166089 -2.64705e-023)
(0.941627 0.0016762 -2.63398e-023)
(0.941138 0.00169212 -2.62002e-023)
(0.940647 0.00170924 -2.60477e-023)
(0.940154 0.00172724 -2.58809e-023)
(0.93966 0.00174533 2.45014e-023)
(0.939164 0.00176281 -2.55067e-023)
(0.938668 0.00178019 -2.53045e-023)
(0.938171 0.00179927 -2.50916e-023)
(0.93767 0.00182038 -2.48624e-023)
(0.937166 0.00184216 -2.46148e-023)
(0.936659 0.00186376 2.32349e-023)
(0.93615 0.00188456 -2.40714e-023)
(0.935639 0.0019042 -2.37761e-023)
(0.935127 0.001922 -2.34667e-023)
(0.934615 0.00193797 -2.31456e-023)
(0.934102 0.00195414 -2.28159e-023)
(0.933587 0.00197202 2.14154e-023)
(0.933068 0.00199184 -2.21159e-023)
(0.932545 0.00201252 -2.17402e-023)
(0.932018 0.00203283 -2.13471e-023)
(0.931486 0.00205208 -2.09371e-023)
(0.930951 0.00206857 -2.05115e-023)
(0.930414 0.00208207 1.90301e-023)
(0.929876 0.00209507 -1.96347e-023)
(0.929334 0.00210874 -1.91845e-023)
(0.928788 0.00212254 -1.87235e-023)
(0.928236 0.00213636 -1.82543e-023)
(0.927677 0.00215132 -1.77741e-023)
(0.927104 0.00216772 -1.72684e-023)
(0.926514 0.00218385 1.57247e-023)
(0.92591 0.00219871 -1.61844e-023)
(0.925292 0.00221242 -1.56155e-023)
(0.924662 0.002226 -1.5032e-023)
(0.924021 0.00224134 -1.44364e-023)
(0.923368 0.00225932 -1.38267e-023)
(0.922704 0.0022793 1.21931e-023)
(0.922031 0.00230063 -1.25583e-023)
(0.92135 0.00232277 -1.19018e-023)
(0.920665 0.0023447 -1.12316e-023)
(0.919979 0.00236603 -1.05509e-023)
(0.919295 0.00238873 -9.86398e-024)
(0.918612 0.00241562 8.34412e-024)
(0.917929 0.00244774 -8.45931e-024)
(0.917245 0.00248386 -7.72723e-024)
(0.916565 0.00252241 -6.97057e-024)
(0.915885 0.0025638 -6.19742e-024)
(0.915215 0.00260906 -5.38865e-024)
(0.914532 0.00266032 4.11687e-024)
(0.913888 0.00271884 -3.66772e-024)
(0.913152 0.00278518 -2.90361e-024)
(0.912621 0.00287931 -1.61854e-024)
(0.911592 0.00300414 -1.68719e-024)
(1.00003 0.000514477 9.03851e-025)
(1.00026 0.00152212 0)
(1.00068 0.00233643 0)
(1.00113 0.00296707 0)
(1.00155 0.00344575 0)
(1.00191 0.00380563 0)
(1.00221 0.00407399 -5.66874e-025)
(1.00244 0.0042711 0)
(1.00259 0.00442576 0)
(1.00269 0.00455866 1.86687e-024)
(1.00274 0.00464746 0)
(1.00274 0.00469462 0)
(1.00271 0.00474101 4.00553e-024)
(1.00264 0.00477235 0)
(1.00254 0.00478231 5.21649e-024)
(1.00241 0.00478015 5.78249e-024)
(1.00226 0.00476853 6.30946e-024)
(1.00208 0.0047494 6.79308e-024)
(1.00188 0.00473143 7.22694e-024)
(1.00166 0.00471292 7.61254e-024)
(1.00143 0.00468553 7.97201e-024)
(1.00119 0.00465122 8.31483e-024)
(1.00093 0.00461235 0)
(1.00067 0.00457039 8.94839e-024)
(1.00039 0.00452587 9.23696e-024)
(1.00011 0.00447812 9.51256e-024)
(0.999821 0.00442579 9.78106e-024)
(0.999525 0.00437116 1.00396e-023)
(0.999224 0.00431682 2.14275e-023)
(0.998918 0.00426234 1.05194e-023)
(0.998606 0.00420767 0)
(0.998288 0.00415248 1.09367e-023)
(0.997965 0.0040964 1.11244e-023)
(0.997636 0.00403944 1.1304e-023)
(0.997303 0.00398178 2.39144e-023)
(0.996964 0.00392367 1.16411e-023)
(0.99662 0.00386549 1.17962e-023)
(0.996271 0.00380713 1.19351e-023)
(0.995917 0.00374822 1.20828e-023)
(0.995557 0.0036891 0)
(0.995191 0.00363007 2.58317e-023)
(0.994818 0.00357138 1.25516e-023)
(0.994438 0.00351288 1.26986e-023)
(0.994052 0.00345442 1.28487e-023)
(0.993659 0.00339601 1.30003e-023)
(0.99326 0.00333813 1.31461e-023)
(0.992857 0.00328148 2.76498e-023)
(0.992451 0.00322674 0)
(0.992042 0.00317474 1.34474e-023)
(0.991633 0.00312639 1.35087e-023)
(0.991225 0.00308225 1.35526e-023)
(0.990817 0.00304187 1.35911e-023)
(0.990412 0.00300214 1.36639e-023)
(0.99001 0.00296373 1.38387e-023)
(0.989608 0.00292931 1.40546e-023)
(0.989205 0.00289744 1.42854e-023)
(0.9888 0.00286689 0)
(0.988394 0.00283744 1.47752e-023)
(0.987988 0.00280942 1.50183e-023)
(0.987582 0.00278292 1.52494e-023)
(0.987177 0.00275779 1.54668e-023)
(0.986772 0.00273372 1.56695e-023)
(0.986368 0.00271 1.58662e-023)
(0.985965 0.00268621 1.60687e-023)
(0.985562 0.00266301 0)
(0.98516 0.002641 1.64644e-023)
(0.984758 0.00262003 1.66518e-023)
(0.984357 0.0025996 1.68347e-023)
(0.983955 0.00257945 1.70141e-023)
(0.983554 0.00255957 1.71903e-023)
(0.983153 0.00253992 1.7363e-023)
(0.982752 0.00252038 1.75332e-023)
(0.982351 0.00250073 1.77021e-023)
(0.981949 0.00248074 1.78716e-023)
(0.981546 0.00246035 1.80424e-023)
(0.981143 0.00243961 1.82148e-023)
(0.980739 0.00241895 1.83929e-023)
(0.980334 0.00239967 1.85609e-023)
(0.97993 0.00238215 1.87089e-023)
(0.979525 0.00236497 1.88564e-023)
(0.979119 0.00234743 1.90101e-023)
(0.978712 0.00232984 0)
(0.978305 0.00231253 1.93278e-023)
(0.977896 0.00229558 -1.29469e-024)
(0.977486 0.00227847 -1.3103e-024)
(0.977074 0.00226124 1.98034e-023)
(0.976661 0.00224462 1.99564e-023)
(0.976246 0.00222849 2.01054e-023)
(0.975829 0.00221225 2.02536e-023)
(0.975411 0.0021954 2.04053e-023)
(0.974991 0.00217782 -2.19414e-023)
(0.97457 0.00216024 2.07308e-023)
(0.974148 0.00214426 2.0886e-023)
(0.973725 0.00213056 2.10204e-023)
(0.973301 0.00211765 2.11509e-023)
(0.972875 0.00210405 2.12867e-023)
(0.972447 0.00208981 -1.43226e-024)
(0.972018 0.00207546 2.1564e-023)
(0.971587 0.00206135 2.17065e-023)
(0.971154 0.00204765 2.18499e-023)
(0.970719 0.00203442 2.19936e-023)
(0.970282 0.00202172 2.21375e-023)
(0.969843 0.00200967 -1.47406e-024)
(0.969402 0.00199821 2.24234e-023)
(0.96896 0.00198639 2.25655e-023)
(0.968514 0.00197369 2.27488e-023)
(0.968068 0.0019637 2.28717e-023)
(0.967621 0.00195506 2.3002e-023)
(0.967172 0.00194683 2.31423e-023)
(0.966722 0.00193936 -1.50641e-024)
(0.966271 0.00193297 2.34261e-023)
(0.965818 0.00192755 2.35644e-023)
(0.965363 0.00192281 2.36992e-023)
(0.964908 0.00191863 2.38323e-023)
(0.964452 0.00191502 2.39637e-023)
(0.963995 0.00191194 -1.51816e-024)
(0.963538 0.00190938 2.42193e-023)
(0.96308 0.0019075 2.43452e-023)
(0.962623 0.00190644 2.44693e-023)
(0.962166 0.00190624 2.45911e-023)
(0.96171 0.00190696 2.4711e-023)
(0.961254 0.00190867 -1.50102e-024)
(0.960798 0.00191121 2.49419e-023)
(0.960343 0.00191463 2.50509e-023)
(0.959889 0.00191835 2.51479e-023)
(0.959436 0.00192085 2.52322e-023)
(0.958985 0.00192325 2.53292e-023)
(0.958536 0.00192827 -1.46376e-024)
(0.958088 0.00193538 2.55317e-023)
(0.957641 0.00194166 2.55989e-023)
(0.957195 0.00194526 2.57234e-023)
(0.95675 0.00195111 2.58557e-023)
(0.956313 0.00196286 2.58515e-023)
(0.955875 0.00197349 -1.40977e-024)
(0.955441 0.0019824 2.59261e-023)
(0.95501 0.00199179 2.59768e-023)
(0.954581 0.00200229 2.60219e-023)
(0.954153 0.00201371 2.60576e-023)
(0.953726 0.00202598 2.60833e-023)
(0.9533 0.00203778 -1.35534e-024)
(0.952876 0.00204962 2.61001e-023)
(0.952454 0.00206227 2.61071e-023)
(0.952034 0.0020759 2.61091e-023)
(0.951616 0.00209145 2.61123e-023)
(0.9512 0.00210843 2.60976e-023)
(0.950785 0.00212568 2.60623e-023)
(0.950372 0.00214153 -1.26447e-024)
(0.949962 0.00215511 2.594e-023)
(0.949554 0.0021685 2.58862e-023)
(0.949149 0.00218384 2.58343e-023)
(0.948744 0.00220099 2.57642e-023)
(0.948341 0.0022188 2.56727e-023)
(0.94794 0.00223585 -1.18758e-024)
(0.947541 0.00225152 2.54537e-023)
(0.947145 0.00226789 2.53482e-023)
(0.946749 0.00228801 2.52453e-023)
(0.946354 0.00231077 2.51118e-023)
(0.945958 0.00233336 2.49439e-023)
(0.945564 0.00235517 -1.09225e-024)
(0.94517 0.00237572 2.45548e-023)
(0.944778 0.00239458 2.43294e-023)
(0.944387 0.00241062 2.4082e-023)
(0.943999 0.00242493 2.38316e-023)
(0.943611 0.00244167 2.35964e-023)
(0.943223 0.00246243 -1.02899e-024)
(0.942833 0.00248623 2.30751e-023)
(0.942442 0.00251053 2.27608e-023)
(0.942048 0.00253368 2.24125e-023)
(0.941652 0.00255489 2.20362e-023)
(0.941256 0.00257163 2.16208e-023)
(0.94086 0.00258542 -1.03896e-024)
(0.940462 0.0026012 2.08167e-023)
(0.940062 0.00261906 2.04042e-023)
(0.939659 0.00263739 1.99674e-023)
(0.939252 0.00265854 1.95407e-023)
(0.938839 0.00268715 1.91341e-023)
(0.938415 0.00272068 1.86867e-023)
(0.937979 0.00275283 -9.36933e-025)
(0.93753 0.0027825 1.76074e-023)
(0.937069 0.00281012 1.70331e-023)
(0.936599 0.00283682 1.6447e-023)
(0.936118 0.00286538 1.58543e-023)
(0.935626 0.00289606 1.52345e-023)
(0.935125 0.00292674 -9.73164e-025)
(0.934617 0.00295612 1.38938e-023)
(0.934105 0.00298325 1.31845e-023)
(0.933592 0.00300623 1.24513e-023)
(0.933082 0.00302545 1.17124e-023)
(0.932574 0.00304608 1.09846e-023)
(0.932066 0.00307326 -8.56751e-025)
(0.931556 0.00310706 9.48311e-024)
(0.931045 0.00314315 8.66308e-024)
(0.930538 0.00317843 7.80608e-024)
(0.930036 0.0032143 6.94383e-024)
(0.929544 0.00325477 6.05655e-024)
(0.929051 0.0033017 -5.08529e-025)
(0.928579 0.00335861 4.19844e-024)
(0.928075 0.0034199 3.36159e-024)
(0.927672 0.00351292 2.06204e-024)
(0.927019 0.00363153 2.32423e-024)
(1.00001 0.000395799 -8.2655e-025)
(1.00017 0.00122089 0)
(1.00048 0.00195772 0)
(1.00083 0.00257604 0)
(1.00118 0.00308096 0)
(1.00151 0.00348671 0)
(1.00179 0.00380866 3.81949e-025)
(1.00202 0.00406342 0)
(1.00221 0.00427086 2.6978e-024)
(1.00235 0.00444187 -1.24497e-024)
(1.00245 0.00457737 4.26743e-024)
(1.00251 0.00468084 5.08692e-024)
(1.00253 0.00476106 -2.66766e-024)
(1.00252 0.00482405 0)
(1.00248 0.00486609 -3.47621e-024)
(1.00242 0.00489078 -3.85509e-024)
(1.00233 0.00490509 -4.20895e-024)
(1.00221 0.00490888 -4.5355e-024)
(1.00208 0.0049055 -4.83031e-024)
(1.00192 0.00489614 -5.09437e-024)
(1.00176 0.00488071 -5.34253e-024)
(1.00158 0.00485915 -5.58036e-024)
(1.00139 0.00483229 0)
(1.00118 0.0048011 -6.02239e-024)
(1.00096 0.00476616 -6.22692e-024)
(1.00074 0.0047276 -6.42394e-024)
(1.0005 0.00468543 -6.61608e-024)
(1.00026 0.00464039 -6.80009e-024)
(1.00001 0.00459361 -6.97304e-024)
(0.999744 0.00454588 -7.13593e-024)
(0.999476 0.00449755 0)
(0.999202 0.00444853 -7.43551e-024)
(0.998921 0.00439863 -7.57704e-024)
(0.998634 0.00434784 -7.71418e-024)
(0.99834 0.0042963 -7.84626e-024)
(0.99804 0.00424422 -7.97194e-024)
(0.997733 0.0041917 -8.09122e-024)
(0.997421 0.00413881 -8.2022e-024)
(0.997104 0.00408598 -8.31713e-024)
(0.996781 0.00403346 0)
(0.996451 0.00398133 -8.55782e-024)
(0.996116 0.00392965 -8.67783e-024)
(0.995774 0.00387845 -8.80105e-024)
(0.995426 0.00382753 -8.92685e-024)
(0.995072 0.00377645 -9.0511e-024)
(0.994711 0.00372504 -9.16966e-024)
(0.994343 0.00367346 -9.27517e-024)
(0.993969 0.00362235 0)
(0.993591 0.00357268 -9.44263e-024)