# vtk DataFile Version 2.0
track0
ASCII
DATASET POLYDATA
POINTS 11935 float
-0.0205 0.001 1e-005
-0.0203851 0.00100536 1.50238e-005
-0.0202701 0.00101047 1.96632e-005
-0.0201551 0.00101535 2.39707e-005
-0.0200401 0.00102 2.79418e-005
-0.0198624 0.00102682 3.35499e-005
-0.0196933 0.00103276 3.80969e-005
-0.0195243 0.00103809 4.16122e-005
-0.0193551 0.00104281 4.41048e-005
-0.019186 0.00104692 4.55841e-005
-0.0190172 0.00105042 4.60585e-005
-0.0187132 0.00105593 4.60585e-005
-0.0184093 0.00106079 4.60585e-005
-0.0181054 0.00106513 4.60585e-005
-0.0178014 0.00106895 4.60585e-005
-0.0174976 0.00107224 4.60585e-005
-0.0172058 0.00107511 4.60585e-005
-0.016914 0.0010779 4.60585e-005
-0.0166222 0.00108062 4.60585e-005
-0.0163305 0.00108327 4.60585e-005
-0.0160387 0.00108586 4.60585e-005
-0.0157586 0.00108825 4.60585e-005
-0.0154784 0.00109057 4.60585e-005
-0.0151983 0.0010928 4.60585e-005
-0.0149182 0.00109496 4.60585e-005
-0.0146381 0.00109703 4.60585e-005
-0.0143692 0.0010989 4.60585e-005
-0.0141002 0.00110067 4.60585e-005
-0.0138313 0.00110237 4.60585e-005
-0.0135624 0.00110399 4.60585e-005
-0.0132934 0.00110554 4.60585e-005
-0.0130353 0.00110695 4.60585e-005
-0.0127771 0.00110831 4.60585e-005
-0.0125189 0.00110962 4.60585e-005
-0.0122607 0.0011109 4.60585e-005
-0.0120025 0.00111214 4.60585e-005
-0.0117547 0.00111329 4.60585e-005
-0.0115068 0.00111442 4.60585e-005
-0.0112589 0.00111554 4.60585e-005
-0.0110111 0.00111663 4.60585e-005
-0.0107632 0.00111771 4.60585e-005
-0.0105252 0.00111873 4.60585e-005
-0.0102873 0.00111973 4.60585e-005
-0.0100493 0.00112072 4.60585e-005
-0.00981133 0.00112169 4.60585e-005
-0.00957337 0.00112266 4.60585e-005
-0.00934491 0.00112357 4.60585e-005
-0.00911645 0.00112447 4.60585e-005
-0.00888799 0.00112536 4.60585e-005
-0.00865954 0.00112625 4.60585e-005
-0.00843108 0.00112712 4.60585e-005
-0.00821175 0.00112795 4.60585e-005
-0.00799242 0.00112878 4.60585e-005
-0.00777309 0.00112959 4.60585e-005
-0.00755376 0.0011304 4.60585e-005
-0.00733443 0.00113121 4.60585e-005
-0.00712387 0.00113198 4.60585e-005
-0.0069133 0.00113274 4.60585e-005
-0.00670273 0.00113351 4.60585e-005
-0.00649216 0.00113426 4.60585e-005
-0.0062816 0.00113502 4.60585e-005
-0.00607944 0.00113574 4.60585e-005
-0.00587729 0.00113646 4.60585e-005
-0.00567514 0.00113718 4.60585e-005
-0.00547298 0.0011379 4.60585e-005
-0.00527083 0.00113861 4.60585e-005
-0.00507675 0.0011393 4.60585e-005
-0.00488267 0.00113998 4.60585e-005
-0.0046886 0.00114066 4.60585e-005
-0.00449452 0.00114134 4.60585e-005
-0.00430044 0.00114203 4.60585e-005
-0.00411412 0.00114269 4.60585e-005
-0.0039278 0.00114334 4.60585e-005
-0.00374147 0.00114399 4.60585e-005
-0.00355515 0.00114464 4.60585e-005
-0.00336883 0.0011453 4.60585e-005
-0.00318995 0.00114593 4.60585e-005
-0.00301107 0.00114656 4.60585e-005
-0.00283219 0.00114718 4.60585e-005
-0.00265331 0.00114781 4.60585e-005
-0.00247443 0.00114844 4.60585e-005
-0.0023027 0.00114906 4.60585e-005
-0.00213097 0.00114967 4.60585e-005
-0.00195924 0.00115027 4.60585e-005
-0.0017875 0.00115088 4.60585e-005
-0.00161577 0.00115149 4.60585e-005
-0.0014509 0.00115209 4.60585e-005
-0.00128603 0.00115268 4.60585e-005
-0.00112116 0.00115327 4.60585e-005
-0.000956289 0.00115386 4.60585e-005
-0.000791418 0.00115446 4.60585e-005
-0.000633135 0.00115505 4.60585e-005
-0.000474851 0.00115563 4.60585e-005
-0.000316567 0.00115622 4.60585e-005
-0.000158284 0.0011568 4.60585e-005
0 0.0011574 4.60585e-005
0.000105677 0.00115781 4.60585e-005
0.000211355 0.00115821 4.60585e-005
0.000317032 0.00115861 4.60585e-005
0.00042271 0.00115902 4.60585e-005
0.000528387 0.00115943 4.60585e-005
0.000634886 0.00115986 4.60585e-005
0.000741385 0.00116028 4.60585e-005
0.000847885 0.00116071 4.60585e-005
0.000954384 0.00116114 4.60585e-005
0.00106088 0.00116158 4.60585e-005
0.00116821 0.00116203 4.60585e-005
0.00127554 0.00116248 4.60585e-005
0.00138286 0.00116294 4.60585e-005
0.00149019 0.00116339 4.60585e-005
0.00159752 0.00116386 4.60585e-005
0.00170568 0.00116434 4.60585e-005
0.00181384 0.00116481 4.60585e-005
0.001922 0.00116529 4.60585e-005
0.00203016 0.00116577 4.60585e-005
0.00213833 0.00116625 4.60585e-005
0.00224733 0.00116674 4.60585e-005
0.00235633 0.00116723 4.60585e-005
0.00246533 0.00116773 4.60585e-005
0.00257434 0.00116822 4.60585e-005
0.00268334 0.00116871 4.60585e-005
0.00279319 0.00116921 4.60585e-005
0.00290304 0.00116972 4.60585e-005
0.00301289 0.00117023 4.60585e-005
0.00312274 0.00117074 4.60585e-005
0.00323259 0.00117124 4.60585e-005
0.00334329 0.00117175 4.60585e-005
0.003454 0.00117226 4.60585e-005
0.0035647 0.00117278 4.60585e-005
0.0036754 0.0011733 4.60585e-005
0.00378611 0.00117382 4.60585e-005
0.00389767 0.00117433 4.60585e-005
0.00400924 0.00117486 4.60585e-005
0.0041208 0.00117539 4.60585e-005
0.00423237 0.00117592 4.60585e-005
0.00434393 0.00117644 4.60585e-005
0.00445636 0.00117695 4.60585e-005
0.00456879 0.00117749 4.60585e-005
0.00468123 0.00117802 4.60585e-005
0.00479366 0.00117856 4.60585e-005
0.00490609 0.00117909 4.60585e-005
0.0050194 0.00117961 4.60585e-005
0.0051327 0.00118014 4.60585e-005
0.00524601 0.00118068 4.60585e-005
0.00535931 0.00118122 4.60585e-005
0.00547262 0.00118176 4.60585e-005
0.00558681 0.00118228 4.60585e-005
0.005701 0.00118282 4.60585e-005
0.00581518 0.00118336 4.60585e-005
0.00592937 0.0011839 4.60585e-005
0.00604356 0.00118444 4.60585e-005
0.00615863 0.00118496 4.60585e-005
0.00627371 0.0011855 4.60585e-005
0.00638878 0.00118604 4.60585e-005
0.00650386 0.00118658 4.60585e-005
0.00661893 0.00118712 4.60585e-005
0.0067349 0.00118764 4.60585e-005
0.00685087 0.00118818 4.60585e-005
0.00696684 0.00118872 4.60585e-005
0.00708281 0.00118926 4.60585e-005
0.00719878 0.0011898 4.60585e-005
0.00731565 0.00119032 4.60585e-005
0.00743252 0.00119086 4.60585e-005
0.00754939 0.00119139 4.60585e-005
0.00766626 0.00119193 4.60585e-005
0.00778313 0.00119246 4.60585e-005
0.00790091 0.00119298 4.60585e-005
0.00801869 0.00119351 4.60585e-005
0.00813647 0.00119404 4.60585e-005
0.00825425 0.00119457 4.60585e-005
0.00837203 0.0011951 4.60585e-005
0.00849073 0.00119562 4.60585e-005
0.00860942 0.00119614 4.60585e-005
0.00872812 0.00119667 4.60585e-005
0.00884682 0.00119719 4.60585e-005
0.00896551 0.00119771 4.60585e-005
0.00908513 0.00119823 4.60585e-005
0.00920475 0.00119875 4.60585e-005
0.00932437 0.00119927 4.60585e-005
0.00944398 0.00119978 4.60585e-005
0.0095636 0.0012003 4.60585e-005
0.00968415 0.00120081 4.60585e-005
0.0098047 0.00120132 4.60585e-005
0.00992525 0.00120183 4.60585e-005
0.0100458 0.00120234 4.60585e-005
0.0101663 0.00120285 4.60585e-005
0.0102878 0.00120335 4.60585e-005
0.0104093 0.00120385 4.60585e-005
0.0105308 0.00120436 4.60585e-005
0.0106523 0.00120486 4.60585e-005
0.0107738 0.00120536 4.60585e-005
0.0108962 0.00120585 4.60585e-005
0.0110186 0.00120635 4.60585e-005
0.0111411 0.00120684 4.60585e-005
0.0112635 0.00120733 4.60585e-005
0.0113859 0.00120782 4.60585e-005
0.0115093 0.00120831 4.60585e-005
0.0116327 0.0012088 4.60585e-005
0.0117561 0.00120928 4.60585e-005
0.0118795 0.00120976 4.60585e-005
0.0120028 0.00121024 4.60585e-005
0.0121272 0.00121072 4.60585e-005
0.0122515 0.00121119 4.60585e-005
0.0123759 0.00121167 4.60585e-005
0.0125002 0.00121214 4.60585e-005
0.0126245 0.00121261 4.60585e-005
0.0127498 0.00121307 4.60585e-005
0.0128752 0.00121354 4.60585e-005
0.0130005 0.001214 4.60585e-005
0.0131258 0.00121446 4.60585e-005
0.0132511 0.00121491 4.60585e-005
0.0133774 0.00121536 4.60585e-005
0.0135036 0.00121581 4.60585e-005
0.0136299 0.00121626 4.60585e-005
0.0137562 0.00121671 4.60585e-005
0.0138825 0.00121715 4.60585e-005
0.0140098 0.00121758 4.60585e-005
0.014137 0.00121802 4.60585e-005
0.0142643 0.00121845 4.60585e-005
0.0143915 0.00121888 4.60585e-005
0.0145188 0.0012193 4.60585e-005
0.0146471 0.00121972 4.60585e-005
0.0147753 0.00122014 4.60585e-005
0.0149036 0.00122055 4.60585e-005
0.0150318 0.00122096 4.60585e-005
0.0151601 0.00122137 4.60585e-005
0.0152893 0.00122177 4.60585e-005
0.0154186 0.00122217 4.60585e-005
0.0155478 0.00122256 4.60585e-005
0.0156771 0.00122295 4.60585e-005
0.0158063 0.00122333 4.60585e-005
0.0159366 0.00122371 4.60585e-005
0.0160668 0.00122408 4.60585e-005
0.0161971 0.00122446 4.60585e-005
0.0163274 0.00122482 4.60585e-005
0.0164576 0.00122518 4.60585e-005
0.0165889 0.00122553 4.60585e-005
0.0167201 0.00122588 4.60585e-005
0.0168514 0.00122623 4.60585e-005
0.0169827 0.00122657 4.60585e-005
0.0171139 0.0012269 4.60585e-005
0.0172037 0.00122712 4.60585e-005
0.0172934 0.00122734 4.60585e-005
0.0173831 0.00122756 4.60585e-005
0.0174728 0.00122777 4.60585e-005
0.0175598 0.00122798 4.60585e-005
0.017603 0.00122808 4.60585e-005
0.0176461 0.00122817 4.60585e-005
0.0176892 0.00122827 4.60585e-005
0.0177323 0.00122837 4.60585e-005
0.0177754 0.00122847 4.60585e-005
0.0179087 0.00122876 4.60585e-005
0.018042 0.00122905 4.60585e-005
0.0181753 0.00122934 4.60585e-005
0.0183087 0.00122961 4.60585e-005
0.018442 0.00122988 4.60585e-005
0.0185763 0.00123014 4.60585e-005
0.0187107 0.0012304 4.60585e-005
0.018845 0.00123064 4.60585e-005
0.0189794 0.00123088 4.60585e-005
0.0191137 0.00123111 4.60585e-005
0.0192491 0.00123133 4.60585e-005
0.0193845 0.00123155 4.60585e-005
0.0195199 0.00123176 4.60585e-005
0.0196553 0.00123196 4.60585e-005
0.0197907 0.00123215 4.60585e-005
0.0199272 0.00123233 4.60585e-005
0.0200636 0.0012325 4.60585e-005
0.0202001 0.00123267 4.60585e-005
0.0203365 0.00123282 4.60585e-005
0.020473 0.00123297 4.60585e-005
0.0206105 0.0012331 4.60585e-005
0.020748 0.00123323 4.60585e-005
0.0208855 0.00123335 4.60585e-005
0.021023 0.00123346 4.60585e-005
0.0211606 0.00123356 4.60585e-005
0.0212991 0.00123365 4.60585e-005
0.0214377 0.00123373 4.60585e-005
0.0215763 0.0012338 4.60585e-005
0.0217149 0.00123385 4.60585e-005
0.0218535 0.0012339 4.60585e-005
0.0219931 0.00123394 4.60585e-005
0.0221328 0.00123397 4.60585e-005
0.0222724 0.00123399 4.60585e-005
0.0224121 0.00123399 4.60585e-005
0.0225517 0.00123399 4.60585e-005
0.0226925 0.00123398 4.60585e-005
[...]
POINT_DATA 11935
 FIELD attributes 2
p 1 11935 float
-1555.68 -1543.11 -1529.32 -1515.69 -1502.21 -1481.62 -1466.98 -1452.27 -1437.48 -1422.61 -1401.88 -1353.81 -1305.79 -1257.84 -1209.95 -1167.48 -1135.83 -1110.35 -1084.89 -1059.43 -1042.59 -1030.82 -1021.33 -1011.85 -1002.37 -994.744 -987.976 -980.059 -972.142 -964.224 -955.167 -946.693 -938.029 -929.361 -920.711 -912.29 -904.303 -897.102 -889.991 -883.032 -876.992 -871.21 -866.007 -860.924 -855.995 -851.661 -847.499 -843.561 -839.691 -835.909 -832.372 -828.969 -825.693 -822.47 -819.32 -816.324 -813.429 -810.659 -807.954 -805.331 -802.849 -800.436 -798.135 -795.905 -793.759 -791.734 -789.749 -787.847 -786.008 -784.244 -782.568 -780.908 -779.309 -777.767 -776.293 -774.888 -773.471 -772.101 -770.783 -769.53 -768.332 -767.098 -765.906 -764.77 -763.704 -762.69 -761.612 -760.562 -759.555 -758.619 -757.73 -756.753 -755.824 -754.983 -754.259 -753.597 -752.859 -752.18 -751.612 -751.18 -750.832 -750.309 -749.827 -749.4 -749.069 -748.811 -748.374 -748.043 -747.831 -747.739 -747.763 -747.607 -747.541 -747.557 -747.638 -747.798 -747.913 -748.017 -748.114 -748.201 -748.272 -748.548 -748.717 -748.824 -748.871 -748.803 -749.184 -749.393 -749.523 -749.571 -749.415 -749.874 -750.112 -750.271 -750.345 -750.141 -750.63 -750.854 -751.006 -751.086 -750.84 -751.291 -751.46 -751.576 -751.642 -751.376 -751.752 -751.875 -751.967 -752.033 -751.8 -752.102 -752.199 -752.285 -752.365 -752.196 -752.426 -752.502 -752.578 -752.654 -752.555 -752.707 -752.766 -752.824 -752.882 -752.844 -752.935 -752.984 -753.033 -753.082 -753.095 -753.153 -753.205 -753.257 -753.309 -753.364 -753.41 -753.467 -753.524 -753.581 -753.662 -753.708 -753.77 -753.833 -753.895 -753.987 -754.046 -754.116 -754.185 -754.254 -754.349 -754.43 -754.509 -754.588 -754.667 -754.76 -754.868 -754.96 -755.053 -755.146 -755.237 -755.372 -755.48 -755.587 -755.694 -755.785 -755.945 -756.066 -756.187 -756.307 -756.4 -756.579 -756.711 -756.844 -756.977 -757.074 -757.267 -757.411 -757.556 -757.701 -757.808 -758.009 -758.167 -758.324 -758.481 -758.603 -758.81 -758.979 -759.148 -759.317 -759.458 -759.669 -759.853 -760.036 -760.219 -760.384 -760.601 -760.801 -761.001 -761.201 -761.393 -761.544 -761.689 -761.835 -761.98 -762.12 -762.19 -762.26 -762.329 -762.399 -762.48 -762.695 -762.921 -763.146 -763.372 -763.643 -763.841 -764.079 -764.317 -764.556 -764.87 -765.055 -765.306 -765.557 -765.808 -766.16 -766.338 -766.601 -766.864 -767.127 -767.508 -767.686 -767.96 -768.235 -768.509 -768.912 -769.097 -769.382 -769.668 -769.954 -770.369 -770.568 -770.865 -771.161 -771.457 -771.874 -772.096 -772.402 -772.709 -773.015 -773.426 -773.676 -773.992 -774.308 -774.623 -775.02 -775.304 -775.628 -775.953 -776.278 -776.654 -776.975 -777.308 -777.641 -777.974 -778.325 -778.684 -779.025 -779.366 -779.707 -780.029 -780.425 -780.776 -781.124 -781.466 -781.765 -782.189 -782.555 -782.91 -783.249 -783.53 -783.977 -784.362 -784.723 -785.055 -785.324 -785.788 -786.191 -786.559 -786.882 -787.146 -787.621 -788.045 -788.42 -788.735 -789 -789.484 -789.929 -790.311 -790.618 -790.884 -791.377 -791.841 -792.229 -792.525 -792.793 -793.289 -793.768 -794.159 -794.445 -794.715 -795.206 -795.695 -796.086 -796.364 -796.64 -797.123 -797.606 -797.994 -798.28 -798.567 -799.038 -799.51 -799.897 -800.195 -800.494 -800.952 -801.41 -801.796 -802.108 -802.42 -802.863 -803.306 -803.691 -804.016 -804.34 -804.769 -805.197 -805.58 -805.916 -806.253 -806.666 -807.08 -807.46 -807.807 -808.154 -808.553 -808.952 -809.328 -809.684 -810.039 -810.424 -810.809 -811.181 -811.543 -811.904 -812.275 -812.646 -813.014 -813.379 -813.743 -814.101 -814.46 -814.822 -815.186 -815.55 -815.895 -816.244 -816.599 -816.957 -817.319 -817.651 -817.991 -818.337 -818.686 -819.042 -819.361 -819.692 -820.027 -820.365 -820.711 -821.017 -821.338 -821.661 -821.984 -822.319 -822.61 -822.918 -823.226 -823.535 -823.853 -824.129 -824.42 -824.711 -825.002 -825.302 -825.561 -825.833 -826.105 -826.377 -826.658 -826.899 -827.15 -827.402 -827.654 -827.912 -828.133 -828.363 -828.592 -828.821 -829.054 -829.255 -829.459 -829.664 -829.869 -830.074 -830.084 -830.094 -830.105 -830.115 -830.125 -830.293 -830.462 -830.63 -830.798 -830.965 -831.115 -831.263 -831.411 -831.559 -831.703 -831.824 -831.939 -832.054 -832.169 -832.278 -832.368 -832.448 -832.528 -832.608 -832.678 -832.736 -832.778 -832.821 -832.863 -832.891 -832.914 -832.916 -832.918 -832.918 -832.902 -832.884 -832.848 -832.807 -832.76 -832.699 -832.638 -832.562 -832.476 -832.379 -832.272 -832.165 -832.048 -831.915 -831.765 -831.609 -831.453 -831.295 -831.111 -830.905 -830.698 -830.492 -830.286 -830.051 -829.79 -829.529 -829.27 -829.011 -828.723 -828.407 -828.09 -827.776 -827.462 -827.12 -826.746 -826.372 -826 -825.629 -825.229 -824.796 -824.362 -823.931 -823.498 -823.036 -822.546 -822.051 -821.558 -821.055 -820.53 -819.986 -819.426 -818.87 -818.294 -817.703 -817.103 -816.478 -815.855 -815.203 -814.545 -813.887 -813.194 -812.499 -811.771 -811.043 -810.316 -809.563 -808.787 -807.987 -807.187 -806.388 -805.574 -804.713 -803.839 -802.965 -802.091 -801.215 -800.955 -800.693 -800.43 -800.168 -799.91 -799.225 -798.54 -797.855 -797.17 -796.474 -795.462 -794.438 -793.415 -792.392 -791.342 -790.266 -789.162 -788.058 -786.955 -785.806 -784.666 -783.48 -782.294 -781.1 -779.857 -778.637 -777.381 -776.111 -774.814 -773.485 -772.178 -770.856 -769.499 -768.096 -766.679 -765.285 -763.891 -762.443 -760.937 -759.431 -757.948 -756.465 -754.926 -753.329 -751.732 -750.158 -748.584 -746.952 -745.263 -743.574 -741.907 -740.23 -738.499 -736.731 -734.949 -733.189 -731.393 -729.568 -727.728 -725.851 -723.997 -722.08 -720.159 -718.238 -716.274 -714.304 -712.285 -710.268 -708.25 -706.214 -704.578 -702.921 -701.264 -699.608 -698.036 -697.564 -697.092 -696.62 -696.147 -695.669 -693.475 -691.276 -689.077 -686.879 -684.646 -682.38 -680.083 -677.788 -675.493 -673.132 -670.783 -668.4 -666.006 -663.583 -661.124 -658.678 -656.224 -653.734 -651.181 -648.624 -646.081 -643.538 -640.941 -638.287 -635.633 -632.992 -630.353 -627.652 -624.902 -622.152 -619.415 -616.651 -613.848 -611.031 -608.185 -605.353 -602.458 -599.56 -596.662 -593.735 -590.777 -587.784 -584.791 -581.799 -578.837 -578.831 -578.825 -578.819 -578.813 -578.807 -575.728 -572.65 -569.572 -566.495 -563.392 -560.238 -557.069 -553.9 -550.728 -547.513 -544.277 -541.027 -537.769 -534.482 -531.178 -527.854 -524.53 -521.177 -517.787 -514.396 -510.984 -507.573 -504.125 -500.65 -497.175 -493.678 -490.167 -486.629 -483.084 -479.527 -475.948 -472.329 -468.71 -465.091 -461.462 -459.052 -456.625 -454.198 -451.771 -449.433 -448.146 -446.86 -445.573 -444.287 -442.991 -439.227 -435.459 -431.691 -427.924 -424.12 -420.295 -416.455 -412.614 -408.754 -404.871 -400.974 -397.077 -393.161 -389.21 -385.258 -381.292 -377.326 -373.33 -369.314 -365.296 -361.264 -357.216 -353.149 -349.08 -345.001 -340.902 -336.774 -332.646 -328.519 -324.388 -323.229 -322.064 -320.9 -319.735 -318.587 -315.565 -312.544 -309.524 -306.504 -303.466 -299.236 -295 -290.765 -286.525 -282.257 -277.978 -273.697 -269.412 -265.101 -260.785 -256.458 -252.131 -247.786 -243.428 -239.069 -234.697 -230.317 -225.922 -221.527 -217.128 -212.713 -208.28 -203.848 -199.416 -194.982 -194.212 -193.44 -192.668 -191.896 -191.131 -187.434 -183.738 -180.043 -176.348 -172.638 -168.141 -163.644 -159.148 -154.644 -150.128 -145.603 -141.079 -136.554 -132.016 -127.476 -122.927 -118.379 -113.817 -109.258 -104.697 -100.127 -95.5494 -90.9705 -86.3921 -81.8156 -79.4143 -77.0113 -74.6084 -72.2056 -69.8562 -67.6566 -65.4572 -63.2578 -61.0586 -58.8559 -54.2501 -49.6485 -45.0475 -40.4454 -35.8361 -31.2202 -26.6064 -21.9998 -17.3894 -12.7771 -8.15755 -3.5386 1.08055 5.6899 10.3005 14.9189 19.5353 24.1506 28.7656 33.3752 35.4661 37.555 39.6439 41.7326 43.7855 46.3168 48.8479 51.3789 53.9098 56.4402 61.0562 65.6626 70.2685 74.8723 79.4748 84.0821 88.6889 93.2804 97.8647 102.451 107.043 111.632 116.213 120.785 125.352 129.924 134.484 139.043 143.602 148.162 148.403 148.644 148.885 149.126 149.367 153.673 157.98 162.285 166.591 170.887 175.426 179.954 184.475 188.984 193.493 198.004 202.514 207.01 211.486 215.964 220.444 224.913 229.375 233.836 238.289 239.997 241.698 243.399 245.1 246.781 249.522 252.262 255.003 257.743 260.474 264.9 269.308 273.716 278.113 282.505 286.894 291.284 295.655 300.007 304.361 308.713 313.054 317.386 321.717 326.035 328.121 330.196 332.271 334.346 336.394 338.625 340.856 343.087 345.318 347.54 351.823 356.091 360.36 364.617 368.867 373.112 377.356 381.582 385.789 389.998 394.201 398.392 402.574 406.756 410.929 412.466 413.996 415.525 417.055 418.57 421.194 423.818 426.442 429.066 431.678 435.808 439.924 444.039 448.139 452.235 456.321 460.407 464.477 468.528 472.581 476.623 480.648 484.67 488.691 492.713 492.909 493.104 493.299 493.494 493.689 497.489 501.288 505.088 508.886 512.669 516.633 520.594 524.542 528.473 532.406 536.324 540.236 544.133 548.03 551.916 553.942 555.958 557.973 559.988 561.981 563.83 565.68 567.529 569.377 571.217 575.053 578.875 582.697 586.503 590.305 594.091 597.876 601.641 605.394 609.143 611.945 614.731 617.514 620.297 623.054 623.991 624.928 625.865 626.801 627.732 631.418 635.094 638.771 642.434 646.086 649.72 653.355 656.966 660.548 664.13 667.088 670.031 672.971 675.91 678.862 679.467 680.071 680.676 681.28 681.882 685.382 688.861 692.34 695.782 699.179 702.557 705.934 709.425 713.022 716.617 719.713 722.239 724.585 726.933 729.363 729.767 730.17 730.573 730.953 731.249 734.139 737.298 740.459 744.267 749.126 753.871 758.617 761.532 763.559 765.277 765.909 766.674 767.656 768.637 769.637 770.974 772.311 773.648 775.339 777.257 780.327 783.397 786.374 789.25 792.119 793.376 794.612 795.804 796.996 798.232 799.857 801.482 803.106 804.682 806.231 808.997 811.761 814.458 817.079 819.691 820.886 822.058 823.182 824.306 825.496 826.909 828.321 829.732 831.095 832.428 834.892 837.352 839.676 841.86 844.034 845.145 846.212 847.203 848.192 849.273 850.281 851.288 852.293 853.238 854.14 855.993 857.838 859.467 860.908 862.338 863.307 864.173 864.907 865.638 866.487 866.827 867.166 867.505 867.805 868.063 868.93 869.607 870.271 870.609 870.891 871.045 871.058 870.768 870.47 870.012 869.856 869.629 869.358 869.087 868.798 868.136 867.463 866.781 865.974 864.915 863.328 861.728 859.673 857.206 854.726 851.993 848.905 845.507 842.101 838.474 837.397 836.172 834.919 833.664 832.301 829.063 825.815 822.558 819.247 815.519 810.029 804.204 798.136 791.333 784.397 776.992 769.575 761.574 753.06 744.495 735.407 725.137 714.559 703.979 692.897 688.318 683.721 679.123 674.524 669.305 661.784 654.258 646.728 639.192 631.601 617.861 602.195 586.495 569.773 550.463 530.182 510.405 492.845 478.896 464.939 450.231 435.523 408.05 368.265 328.446 286.833 254.622 238.135 228.632 231.375 232.762 175.792 118.516 60.9486 0