/*--------------------------------*- C++ -*----------------------------------*\
| =========                 |                                                 |
| \\      /  F ield         | OpenFOAM: The Open Source CFD Toolbox           |
|  \\    /   O peration     | Version:  5.x                                   |
|   \\  /    A nd           | Web:      www.OpenFOAM.org                      |
|    \\/     M anipulation  |                                                 |
\*---------------------------------------------------------------------------*/
/*   Windows 32 and 64 bit porting by blueCAPE: http://www.bluecape.com.pt   *\
|  Based on Windows porting (2.0.x v4) by Symscape: http://www.symscape.com   |
\*---------------------------------------------------------------------------*/
FoamFile
{
    version     2.0;
    format      ascii;
    class       volScalarField;
    location    "0.23";
    object      p;
}
// * * * * * * * * * * * * * * * * * * * * * * * * * * * * * * * * * * * * * //

dimensions      [0 2 -2 0 0 0 0];

internalField   nonuniform List<scalar> 
750
(
0.39547589
0.39580974
0.39548152
0.39538226
0.39511757
0.39487196
0.39458426
0.39428844
0.39398293
0.39366964
0.39335328
0.39303314
0.39270303
0.39236211
0.39201283
0.39163208
0.39120471
0.39072682
0.39012616
0.38926531
0.38836692
0.38587416
0.38472393
0.37607712
0.3721634
0.39548213
0.39580827
0.39548972
0.39538301
0.39511998
0.39487318
0.39458547
0.39428856
0.39398305
0.39366989
0.39335357
0.39303335
0.39270344
0.39236301
0.39201389
0.39163381
0.39120812
0.39073174
0.39013226
0.38928662
0.38836886
0.38596228
0.3846947
0.37630685
0.37234341
0.39548865
0.3958155
0.39549826
0.39538737
0.39512405
0.39487565
0.39458746
0.39428955
0.39398361
0.39367056
0.39335428
0.39303409
0.39270465
0.39236503
0.39201691
0.39163866
0.39121623
0.39074466
0.39015306
0.38932494
0.38841998
0.38608133
0.38481264
0.37657119
0.3729303
0.39549726
0.3958287
0.39550937
0.39539448
0.39513017
0.39487912
0.39459014
0.39429141
0.39398453
0.39367158
0.39335533
0.39303525
0.39270654
0.39236794
0.39202158
0.39164618
0.39122827
0.39076424
0.3901857
0.38937919
0.38850824
0.3862343
0.38505373
0.3769353
0.37375135
0.39550878
0.39584655
0.39552418
0.395404
0.39513832
0.39488364
0.39459355
0.39429394
0.39398575
0.39367291
0.39335667
0.3930368
0.39270902
0.39237165
0.39202771
0.39165601
0.39124378
0.39078956
0.39022815
0.38944967
0.38862789
0.38642607
0.38538331
0.37740803
0.37490602
0.39552331
0.39586899
0.39554287
0.39541581
0.39514847
0.39488924
0.39459772
0.39429696
0.3939873
0.39367453
0.39335828
0.39303867
0.39271202
0.39237619
0.3920352
0.39166791
0.3912625
0.39082016
0.39027866
0.38953462
0.38877666
0.3866517
0.38580947
0.37792007
0.37667025
0.39554074
0.3958964
0.39556539
0.39542984
0.39516065
0.39489587
0.39460258
0.3943004
0.39398917
0.39367644
0.39336012
0.39304083
0.39271552
0.39238153
0.39204399
0.39168189
0.39128435
0.39085611
0.39033716
0.38963081
0.38895671
0.38691274
0.38639119
0.37856256
0.37923854
0.39556105
0.39592897
0.39559172
0.39544599
0.39517502
0.39490351
0.39460808
0.39430425
0.39399142
0.39367857
0.3933622
0.3930433
0.39271943
0.39238769
0.39205405
0.39169792
0.39130933
0.39089786
0.39040454
0.38973725
0.3891714
0.38722263
0.3871365
0.37953761
0.38317575
0.39558591
0.39596419
0.39562309
0.39546404
0.39519156
0.39491225
0.39461413
0.39430833
0.39399411
0.39368084
0.39336444
0.39304596
0.39272366
0.39239461
0.39206492
0.3917155
0.39133733
0.39094462
0.3904808
0.38985782
0.38941226
0.38762602
0.38800976
0.38079584
0.38801324
0.3956212
0.39599352
0.39566381
0.39548325
0.39520922
0.39492229
0.39462051
0.39431221
0.39399706
0.39368301
0.39336668
0.39304868
0.39272795
0.39240194
0.39207606
0.39173368
0.39136692
0.39099239
0.39056135
0.38999383
0.38962255
0.3881582
0.38881757
0.38256534
0.39296705
0.35064565
0.33979097
0.32370082
0.3099407
0.29528195
0.2809265
0.26645478
0.25205091
0.23763875
0.2232371
0.20883424
0.19443224
0.1800297
0.16562732
0.15122491
0.13682254
0.12242017
0.1080178
0.093615423
0.079213051
0.064810677
0.050408304
0.036005931
0.02160356
0.007201184
0.3505132
0.33963401
0.32365658
0.30988824
0.2952511
0.28090723
0.26644728
0.2520471
0.23763828
0.22323696
0.20883441
0.19443223
0.18002969
0.1656273
0.1512249
0.13682253
0.12242017
0.1080178
0.093615423
0.079213051
0.064810677
0.050408305
0.036005931
0.02160356
0.0072011843
0.35013634
0.33967071
0.32345237
0.30982421
0.29520001
0.28087359
0.2664398
0.2520437
0.23763799
0.22323672
0.20883453
0.19443221
0.18002968
0.16562728
0.15122489
0.13682253
0.12242017
0.1080178
0.093615423
0.07921305
0.064810677
0.050408305
0.036005931
0.021603559
0.0072011847
0.34960822
0.33981033
0.32316476
0.30974664
0.29516837
0.28084913
0.26643371
0.25204155
0.23763768
0.22323675
0.2088346
0.19443222
0.18002967
0.16562727
0.15122489
0.13682254
0.12242017
0.1080178
0.093615423
0.07921305
0.064810677
0.050408305
0.036005931
0.021603559
0.0072011852
0.34908831
0.33980577
0.3230139
0.30963031
0.29512963
0.28083619
0.26642798
0.25203994
0.23763733
0.22323699
0.20883465
0.19443223
0.18002966
0.16562726
0.15122489
0.13682254
0.12242017
0.1080178
0.093615423
0.07921305
0.064810677
0.050408305
0.036005932
0.021603559
0.007201186
0.34845623
0.33976798
0.32291498
0.30952028
0.29507447
0.28082318
0.26642247
0.25203868
0.23763727
0.22323721
0.20883465
0.19443221
0.18002965
0.16562725
0.1512249
0.13682254
0.12242017
0.1080178
0.093615423
0.07921305
0.064810678
0.050408305
0.036005932
0.021603559
0.0072011868
0.34760961
0.33980736
0.32271232
0.30944608
0.29502943
0.28081278
0.26641814
0.2520385
0.23763753
0.22323732
0.20883462
0.19443216
0.18002963
0.16562725
0.1512249
0.13682254
0.12242017
0.1080178
0.093615423
0.07921305
0.064810678
0.050408305
0.036005932
0.021603558
0.0072011874
0.34696806
0.33973602
0.32247949
0.30940617
0.2949961
0.28080574
0.26641508
0.25203951
0.23763808
0.22323746
0.20883455
0.19443207
0.18002959
0.16562725
0.15122491
0.13682255
0.12242017
0.1080178
0.093615423
0.07921305
0.064810678
0.050408305
0.036005932
0.021603558
0.0072011879
0.34592147
0.33966412
0.32236375
0.30939634
0.29497808
0.28080274
0.26641407
0.25204106
0.23763877
0.22323774
0.20883448
0.19443198
0.18002955
0.16562726
0.15122491
0.13682255
0.12242017
0.1080178
0.093615423
0.07921305
0.064810677
0.050408304
0.036005932
0.021603558
0.0072011883
0.34175666
0.34021556
0.32235029
0.30947237
0.29495027
0.28080607
0.26641129
0.25204206
0.2376389
0.22323802
0.20883446
0.19443194
0.18002952
0.16562725
0.15122492
0.13682255
0.12242017
0.1080178
0.093615423
0.07921305
0.064810678
0.050408304
0.036005932
0.021603559
0.0072011886
0.39571669
0.39603936
0.39576367
0.3955246
0.39524439
0.39494392
0.39463336
0.39431942
0.39400265
0.39368662
0.3933707
0.39305396
0.39273652
0.39241641
0.39209811
0.39177063
0.39142664
0.39108556
0.3907208
0.39028195
0.38995768
0.38931321
0.39010186
0.38760864
0.40603927
0.39586238
0.39621637
0.3959116
0.39561915
0.39530864
0.39498411
0.39465748
0.39433457
0.39401279
0.39369376
0.39337754
0.39306445
0.3927547
0.39244191
0.39213441
0.39183547
0.39152696
0.3912281
0.39095302
0.39063801
0.39041567
0.39013075
0.39041853
0.38896058
0.39495223
0.39606969
0.39645772
0.39608076
0.39573057
0.39537903
0.39502607
0.39468165
0.39434763
0.39402123
0.3936997
0.39338388
0.39307346
0.39276972
0.39246816
0.39217019
0.39189251
0.39162337
0.39136099
0.39115077
0.39094603
0.39083947
0.39079568
0.39114342
0.391139
0.393831
0.39638096
0.39674759
0.39627503
0.39585135
0.39544888
0.39506471
0.39470435
0.39435689
0.39402581
0.39370251
0.39338733
0.39307937
0.3927784
0.39248773
0.39220323
0.39193517
0.3916961
0.39147079
0.39130125
0.39117013
0.39112635
0.39119549
0.3915443
0.39201846
0.39299633
0.39685485
0.39707401
0.39649332
0.39597408
0.39551256
0.39509494
0.3947202
0.39436209
0.39402482
0.39370081
0.39338569
0.39307993
0.39278191
0.39249541
0.39222286
0.39196309
0.39173721
0.39154033
0.39139365
0.39130892
0.39130491
0.39142543
0.39176817
0.3923465
0.39272911
0.39758721
0.39741916
0.39672356
0.39608543
0.39556394
0.39511537
0.39472241
0.39435968
0.39401819
0.39369377
0.3933792
0.39307408
0.39277822
0.39249261
0.39222285
0.39197012
0.39174626
0.3915609
0.39142333
0.39135405
0.39136617
0.3915007
0.3917959
0.39234785
0.39253027
0.39870186
0.3977534
0.39692214
0.3961646
0.39558635
0.39511674
0.39471017
0.39434635
0.39400541
0.39368112
0.39336708
0.39306169
0.39276497
0.39247831
0.3922051
0.39195098
0.3917224
0.39153203
0.39138949
0.39131455
0.39132521
0.39144682
0.39169947
0.3921951
0.39231974
0.40057803
0.39791498
0.39703087
0.39616691
0.39555625
0.39508376
0.39468058
0.39432132
0.39398481
0.3936625
0.39334905
0.39304255
0.3927429
0.39245147
0.39217091
0.3919065
0.39166487
0.39145663
0.39129436
0.39119708
0.39118841
0.39128933
0.3915177
0.39196046
0.39209008
0.4040927
0.39761604
0.39701475
0.39603427
0.39544127
0.3949961
0.39462027
0.39427803
0.39395216
0.3936352
0.39332316
0.39301485
0.39271018
0.39240989
0.3921165
0.39183357
0.39156738
0.3913271
0.39112694
0.39098824
0.39094211
0.39102414
0.39124973
0.39167036
0.39184267
0.40567736
0.39660902
0.39744259
0.39609179
0.39549529
0.39501396
0.39462457
0.39427607
0.39394806
0.39363018
0.39331752
0.39300835
0.39270227
0.39239985
0.3921034
0.39181621
0.39154403
0.39129588
0.39108535
0.39093497
0.39087615
0.3909469
0.39114984
0.39153923
0.39173552
)
;

boundaryField
{
    inlet
    {
        type            zeroGradient;
    }
    walls
    {
        type            zeroGradient;
    }
    outlet
    {
        type            fixedValue;
        value           uniform 0;
    }
    centreline
    {
        type            symmetryPlane;
    }
    frontAndBack
    {
        type            empty;
    }
}


// ************************************************************************* //
