/*--------------------------------*- C++ -*----------------------------------*\
| =========                 |                                                 |
| \\      /  F ield         | OpenFOAM: The Open Source CFD Toolbox           |
|  \\    /   O peration     | Version:  5.x                                   |
|   \\  /    A nd           | Web:      www.OpenFOAM.org                      |
|    \\/     M anipulation  |                                                 |
\*---------------------------------------------------------------------------*/
/*   Windows 32 and 64 bit porting by blueCAPE: http://www.bluecape.com.pt   *\
|  Based on Windows porting (2.0.x v4) by Symscape: http://www.symscape.com   |
\*---------------------------------------------------------------------------*/
FoamFile
{
    version     2.0;
    format      ascii;
    class       surfaceScalarField;
    location    "0.23";
    object      phi;
}
// * * * * * * * * * * * * * * * * * * * * * * * * * * * * * * * * * * * * * //

dimensions      [0 3 -1 0 0 0 0];

internalField   nonuniform List<scalar> 
1430
(
5.1609473e-006
-1.5966693e-007
5.3630647e-006
-2.0211743e-007
5.5642154e-006
-2.0115076e-007
5.739626e-006
-1.7541051e-007
5.8875797e-006
-1.4795378e-007
6.0048797e-006
-1.1729995e-007
6.0969908e-006
-9.2111153e-008
6.1693084e-006
-7.2317579e-008
6.2284163e-006
-5.9107881e-008
6.2812449e-006
-5.2828666e-008
6.3342394e-006
-5.2994482e-008
6.3941389e-006
-5.9899551e-008
6.469225e-006
-7.5086084e-008
6.5704331e-006
-1.0120814e-007
6.7132709e-006
-1.4283773e-007
6.9198933e-006
-2.0662247e-007
7.2265705e-006
-3.0667715e-007
7.6913429e-006
-4.6477237e-007
8.3988441e-006
-7.0750119e-007
9.4828615e-006
-1.0840173e-006
1.1082965e-005
-1.600104e-006
1.3452818e-005
-2.3698523e-006
1.6718119e-005
-3.2653011e-006
2.093939e-005
-4.2212713e-006
-4.8335718e-006
2.5772962e-005
5.1598967e-006
-3.1828331e-007
5.3661928e-006
-4.0841351e-007
5.5656727e-006
-4.0063069e-007
5.7422688e-006
-3.5200661e-007
5.8896176e-006
-2.9530251e-007
6.006784e-006
-2.3446642e-007
6.0984467e-006
-1.8377386e-007
6.1703203e-006
-1.4419117e-007
6.2290352e-006
-1.1782282e-007
6.2814642e-006
-1.0525764e-007
6.3340028e-006
-1.0553311e-007
6.3933555e-006
-1.1925228e-007
6.4677302e-006
-1.4946076e-007
6.5679062e-006
-2.0138413e-007
6.709271e-006
-2.842025e-007
6.913648e-006
-4.109995e-007
7.2165996e-006
-6.096287e-007
7.6752722e-006
-9.2344496e-007
8.3732592e-006
-1.4054881e-006
9.4375001e-006
-2.1482582e-006
1.1017963e-005
-3.1805669e-006
1.3325774e-005
-4.6776631e-006
1.6559413e-005
-6.49894e-006
2.0657774e-005
-8.3196328e-006
-9.6808083e-006
2.5505011e-005
5.1615037e-006
-4.7850665e-007
5.3692322e-006
-6.1614205e-007
5.5700801e-006
-6.0147863e-007
5.7469506e-006
-5.2887709e-007
5.8940294e-006
-4.4238128e-007
6.0105401e-006
-3.5097719e-007
6.1013864e-006
-2.7462014e-007
6.1724103e-006
-2.1521507e-007
6.2303407e-006
-1.7575328e-007
6.2819809e-006
-1.5689781e-007
6.3336269e-006
-1.5717912e-007
6.3918743e-006
-1.7749973e-007
6.4648121e-006
-2.2239856e-007
6.5630147e-006
-2.9958674e-007
6.701419e-006
-4.2260682e-007
6.9012534e-006
-6.1083388e-007
7.1969581e-006
-9.0533333e-007
7.6435824e-006
-1.3700692e-006
8.3213626e-006
-2.0832683e-006
9.352377e-006
-3.1792725e-006
1.0877741e-005
-4.7059311e-006
1.3103496e-005
-6.9034177e-006
1.6206146e-005
-9.6015903e-006
2.016624e-005
-1.2279727e-005
-1.4374792e-005
2.4860224e-005
5.1639464e-006
-6.4117273e-007
5.3740387e-006
-8.2623436e-007
5.5767994e-006
-8.0423934e-007
5.754122e-006
-7.0619966e-007
5.9007946e-006
-5.8905389e-007
6.0162882e-006
-4.6647088e-007
6.105866e-006
-3.6419793e-007
6.1756506e-006
-2.8499964e-007
6.2324165e-006
-2.3251926e-007
6.2828625e-006
-2.0734381e-007
6.3331699e-006
-2.0748649e-007
6.3897836e-006
-2.3411344e-007
6.4605824e-006
-2.9319738e-007
6.5558387e-006
-3.9484301e-007
6.6898623e-006
-5.5663045e-007
6.882974e-006
-8.0394559e-007
7.1679507e-006
-1.19031e-006
7.5969053e-006
-1.7990238e-006
8.2450422e-006
-2.7314051e-006
9.2266165e-006
-4.1608468e-006
1.067157e-005
-6.1508846e-006
1.2773892e-005
-9.0057402e-006
1.5681057e-005
-1.2508755e-005
1.9425297e-005
-1.6023967e-005
-1.8817007e-005
2.3867513e-005
5.1674172e-006
-8.0730958e-007
5.3807107e-006
-1.0395279e-006
5.5859917e-006
-1.0095203e-006
5.7638797e-006
-8.8408767e-007
5.9099871e-006
-7.3516136e-007
6.0240885e-006
-5.8057229e-007
6.1119503e-006
-4.5205969e-007
6.180101e-006
-3.5315034e-007
6.2353202e-006
-2.8773855e-007
6.2841607e-006
-2.5618428e-007
6.3326965e-006
-2.5602227e-007
6.3871719e-006
-2.885889e-007
6.4551509e-006
-3.6117638e-007
6.5465281e-006
-4.8622025e-007
6.6748194e-006
-6.8492166e-007
6.8591541e-006
-9.8828035e-007
7.1301592e-006
-1.4613151e-006
7.5362149e-006
-2.2050794e-006
8.1457137e-006
-3.3409039e-006
9.06313e-006
-5.0782631e-006
1.040196e-005
-7.4897148e-006
1.2340076e-005
-1.0943856e-005
1.4992982e-005
-1.5161661e-005
1.8445468e-005
-1.9476453e-005
-2.2888307e-005
2.2516768e-005
5.1720977e-006
-9.7812697e-007
5.3894024e-006
-1.2568326e-006
5.5978109e-006
-1.2179289e-006
5.7763351e-006
-1.0626118e-006
5.9216661e-006
-8.8049238e-007
6.0339767e-006
-6.9288292e-007
6.1196793e-006
-5.3776231e-007
6.185797e-006
-4.19268e-007
6.2390826e-006
-3.410242e-007
6.2859026e-006
-3.0300432e-007
6.3322405e-006
-3.0236012e-007
6.3841055e-006
-3.4045399e-007
6.4486173e-006
-4.2568812e-007
6.5352164e-006
-5.7281939e-007
6.6564849e-006
-8.0619017e-007
6.8301001e-006
-1.1618955e-006
7.0840793e-006
-1.7152943e-006
7.4623971e-006
-2.5833973e-006
8.0252714e-006
-3.9037781e-006
8.8647573e-006
-5.917749e-006
1.0072746e-005
-8.6977034e-006
1.180921e-005
-1.2680321e-005
1.4142157e-005
-1.7494608e-005
1.7214239e-005
-2.2548535e-005
-2.6498278e-005
2.082421e-005
5.1781821e-006
-1.1550287e-006
5.4002647e-006
-1.4789153e-006
5.6123635e-006
-1.4300276e-006
5.7915432e-006
-1.2417915e-006
5.9358268e-006
-1.0247759e-006
6.045924e-006
-8.0298013e-007
6.1290288e-006
-6.208672e-007
6.1926942e-006
-4.8293339e-007
6.243655e-006
-3.9198505e-007
6.2880378e-006
-3.4738705e-007
6.3317677e-006
-3.4609009e-007
6.3805828e-006
-3.8926906e-007
6.4410176e-006
-4.8612291e-007
6.5219992e-006
-6.5380104e-007
6.6350276e-006
-9.1921855e-007
6.796124e-006
-1.3229919e-006
7.0303151e-006
-1.9494853e-006
7.37658e-006
-2.9296622e-006
7.8857775e-006
-4.4129755e-006
8.6346809e-006
-6.6666524e-006
9.689549e-006
-9.7525714e-006
1.118653e-005
-1.4177302e-005
1.3121349e-005
-1.9429426e-005
1.5754005e-005
-2.5181191e-005
-2.9484488e-005
1.8740215e-005
5.1858914e-006
-1.3396398e-006
5.4133821e-006
-1.7064059e-006
5.629668e-006
-1.6463136e-006
5.8094454e-006
-1.4215689e-006
5.9523234e-006
-1.167654e-006
6.0597663e-006
-9.10423e-007
6.1398462e-006
-7.0094707e-007
6.2006275e-006
-5.4371478e-007
6.2488643e-006
-4.402218e-007
6.2904105e-006
-3.8893334e-007
6.3311253e-006
-3.8680488e-007
6.3764794e-006
-4.346231e-007
6.4323043e-006
-5.4194787e-007
6.5068913e-006
-7.2838801e-007
6.6105498e-006
-1.022877e-006
6.7575268e-006
-1.4699689e-006
6.9695482e-006
-2.1615067e-006
7.2799875e-006
-3.2401013e-006
7.72944e-006
-4.862428e-006
8.3772342e-006
-7.3144465e-006
9.2593792e-006
-1.0634716e-005
1.0481751e-005
-1.5399674e-005
1.1976333e-005
-2.0924008e-005
1.4122668e-005
-2.7327526e-005
-3.1506946e-005
1.6145125e-005
5.195516e-006
-1.5338755e-006
5.4287178e-006
-1.9396077e-006
5.6496698e-006
-1.8672656e-006
5.8298411e-006
-1.6017403e-006
5.9708492e-006
-1.3086621e-006
6.0751849e-006
-1.0147586e-006
6.1518023e-006
-7.7756455e-007
6.2092741e-006
-6.0118656e-007
6.2543681e-006
-4.8531586e-007
6.2926915e-006
-4.2725674e-007
6.3300245e-006
-4.2413782e-007
6.3715338e-006
-4.7613241e-007
6.422283e-006
-5.9269712e-007
6.4897864e-006
-7.9589138e-007
6.5830856e-006
-1.1161762e-006
6.7145592e-006
-1.6014425e-006
6.9025133e-006
-2.3494608e-006
7.1740746e-006
-3.5116626e-006
7.5587015e-006
-5.2470549e-006
8.0982213e-006
-7.8539663e-006
8.7926778e-006
-1.1329173e-005
9.7161374e-006
-1.6323133e-005
1.0729403e-005
-2.1937274e-005
1.2338618e-005
-2.893674e-005
-3.2174125e-005
1.3005797e-005
5.2059615e-006
-1.7385567e-006
5.4472223e-006
-2.1808684e-006
5.6718963e-006
-2.0919396e-006
5.8524616e-006
-1.7823056e-006
5.9908548e-006
-1.4470553e-006
6.0916424e-006
-1.1155462e-006
6.1643851e-006
-8.5030726e-007
6.2181154e-006
-6.5491687e-007
6.2596242e-006
-5.2682468e-007
6.2944166e-006
-4.6204912e-007
6.3280092e-006
-4.5773038e-007
6.3652675e-006
-5.1339072e-007
6.4105793e-006
-6.3800893e-007
6.4704169e-006
-8.5572897e-007
6.5524946e-006
-1.1982539e-006
6.6673049e-006
-1.7162528e-006
6.8296583e-006
-2.5118142e-006
7.0599212e-006
-3.7419254e-006
7.3767276e-006
-5.5638613e-006
7.8027333e-006
-8.2799721e-006
8.3100162e-006
-1.1836456e-005
8.8978791e-006
-1.6910996e-005
9.3742999e-006
-2.2413695e-005
1.0131208e-005
-2.9693648e-005
8.8133902e-006
-3.0856307e-005
2.8490798e-005
-2.7178363e-006
2.9516711e-005
-1.0259133e-006
2.9778368e-005
-2.6165708e-007
2.9853021e-005
-7.4652057e-008
2.9882529e-005
-2.9508096e-008
2.9895129e-005
-1.260008e-008
2.9902848e-005
-7.7196708e-009
2.9904715e-005
-1.8664897e-009
2.9903476e-005
1.2384315e-009
2.9901711e-005
1.7653933e-009
2.9900821e-005
8.9006191e-010
2.9900678e-005
1.4261536e-010
2.9900791e-005
-1.1277647e-010
2.9900869e-005
-7.8245457e-011
2.9900881e-005
-1.1604475e-011
2.9900869e-005
1.1961161e-011
2.9900861e-005
8.2283814e-012
2.990086e-005
1.3255179e-012
2.990086e-005
-9.1555921e-013
2.9900861e-005
-5.8478824e-013
2.9900861e-005
-1.5196083e-013
2.9900861e-005
-5.6013545e-014
2.9900861e-005
1.2187398e-013
2.990086e-005
1.4394475e-012
1.4449849e-012
2.7994884e-005
-5.2077098e-006
2.8966361e-005
-1.9973898e-006
2.9189186e-005
-4.8448198e-007
2.9256389e-005
-1.4185539e-007
2.9274287e-005
-4.7406511e-008
2.9285157e-005
-2.3469804e-008
2.929116e-005
-1.3722883e-008
2.9292705e-005
-3.4112018e-009
2.9291362e-005
2.5817116e-009
2.9289785e-005
3.3421904e-009
2.9289005e-005
1.6699988e-009
2.9288907e-005
2.409893e-010
2.9289014e-005
-2.206616e-010
2.9289083e-005
-1.4691077e-010
2.9289091e-005
-1.9783919e-011
2.928908e-005
2.2904287e-011
2.9289073e-005
1.5153893e-011
2.9289073e-005
2.2566459e-012
2.9289073e-005
-1.7666019e-012
2.9289074e-005
-1.1002247e-012
2.9289074e-005
-2.8925616e-013
2.9289074e-005
-8.5535951e-014
2.9289074e-005
3.0164541e-013
2.9289072e-005
2.803028e-012
2.8777172e-012
2.7044303e-005
-7.391789e-006
2.7848431e-005
-2.8015178e-006
2.8022274e-005
-6.5832539e-007
2.8048929e-005
-1.6851014e-007
2.8054926e-005
-5.3403731e-008
2.8064985e-005
-3.3528866e-008
2.806962e-005
-1.835702e-008
2.807021e-005
-4.0016917e-009
2.8068849e-005
3.9429442e-009
2.8067596e-005
4.5950392e-009
2.8067057e-005
2.2088292e-009
2.8067036e-005
2.6213394e-010
2.8067133e-005
-3.1730499e-010
2.8067183e-005
-1.9685525e-010
2.8067185e-005
-2.2560666e-011
2.8067176e-005
3.1958776e-011
2.8067172e-005
1.9773815e-011
2.8067171e-005
2.5271671e-012
2.8067172e-005
-2.4859e-012
2.8067172e-005
-1.4735554e-012
2.8067173e-005
-3.6151411e-013
2.8067172e-005
-6.1920666e-014
2.8067172e-005
5.2652433e-013
2.8067171e-005
4.0214666e-012
4.0917221e-012
2.5620784e-005
-9.14506e-006
2.617553e-005
-3.3562638e-006
2.6244122e-005
-7.2691766e-007
2.623465e-005
-1.590386e-007
2.6234364e-005
-5.3117765e-008
2.6240944e-005
-4.0108797e-008
2.6242386e-005
-1.9799007e-008
2.6241666e-005
-3.2813481e-009
2.624046e-005
5.1492725e-009
2.6239724e-005
5.3303276e-009
2.6239536e-005
2.3973455e-009
2.6239598e-005
1.9987697e-010
2.6239667e-005
-3.8627093e-010
2.623969e-005
-2.1933436e-010
2.6239686e-005
-1.8755414e-011
2.623968e-005
3.7890785e-011
2.6239678e-005
2.1395442e-011
2.6239679e-005
2.074587e-012
2.6239679e-005
-2.9659538e-012
2.6239679e-005
-1.6351136e-012
2.6239679e-005
-3.5508297e-013
2.6239679e-005
-1.223407e-014
2.6239679e-005
7.532872e-013
2.6239678e-005
4.9189231e-012
4.9022356e-012
2.3703658e-005
-1.033195e-005
2.3902838e-005
-3.5554431e-006
2.3845383e-005
-6.6946289e-007
2.3827656e-005
-1.4131182e-007
2.3821901e-005
-4.7362249e-008
2.3820144e-005
-3.8352326e-008
2.3817494e-005
-1.7148805e-008
2.3815822e-005
-1.6099299e-009
2.3815129e-005
5.8423551e-009
2.3815131e-005
5.3290995e-009
2.3815326e-005
2.2019936e-009
2.3815442e-005
8.3492006e-011
2.3815463e-005
-4.0736368e-010
2.3815453e-005
-2.0846674e-010
2.3815444e-005
-9.6702568e-012
2.3815442e-005
3.9158964e-011
2.3815444e-005
1.9776625e-011
2.3815445e-005
1.0958131e-012
2.3815445e-005
-3.0879871e-012
2.3815445e-005
-1.5491116e-012
2.3815445e-005
-3.0495444e-013
2.3815445e-005
4.8652057e-014
2.3815445e-005
9.557016e-013
2.3815444e-005
5.2707675e-012
5.116755e-012
2.1234126e-005
-1.0741866e-005
2.0994955e-005
-3.3162723e-006
2.0857623e-005
-5.3213048e-007
2.083486e-005
-1.1854867e-007
2.0821788e-005
-3.4289957e-008
2.0813162e-005
-2.9726466e-008
2.0807946e-005
-1.1933063e-008
2.080618e-005
1.5631964e-010
2.0806379e-005
5.6433439e-009
2.0807184e-005
4.5236056e-009
2.0807688e-005
1.6984403e-009
2.0807804e-005
-3.2657355e-011
2.0807764e-005
-3.6717083e-010
2.0807722e-005
-1.6696638e-010
2.0807712e-005
7.022674e-013
2.0807716e-005
3.4803702e-011
2.080772e-005
1.5459705e-011
2.0807722e-005
2.3636117e-014
2.0807721e-005
-2.766562e-012
2.0807721e-005
-1.2438292e-012
2.0807721e-005
-2.2778275e-013
2.0807721e-005
1.0087612e-013
2.0807721e-005
1.0612952e-012
2.0807721e-005
4.9027072e-012
4.6297565e-012
1.8115535e-005
-1.0117186e-005
1.7464688e-005
-2.6654249e-006
1.7298242e-005
-3.6568403e-007
1.7265259e-005
-8.5566417e-008
1.7247029e-005
-1.605949e-008
1.7235325e-005
-1.8022619e-008
1.7229591e-005
-6.1991421e-009
1.7228511e-005
1.2366849e-009
1.7229717e-005
4.4371462e-009
1.7231109e-005
3.1317085e-009
1.7231747e-005
1.0605848e-009
1.7231811e-005
-9.6937641e-011
1.7231715e-005
-2.7103188e-010
1.7231656e-005
-1.0808649e-010
1.7231649e-005
7.5015639e-012
1.7231659e-005
2.545788e-011
1.7231664e-005
9.7822724e-012
1.7231665e-005
-6.7515847e-013
1.7231664e-005
-2.0437622e-012
1.7231664e-005
-8.109592e-013
1.7231664e-005
-1.3290464e-013
1.7231664e-005
1.2044377e-013
1.7231664e-005
9.6878069e-013
1.7231665e-005
3.8114094e-012
3.5136199e-012
1.4251321e-005
-8.2233819e-006
1.3332146e-005
-1.74625e-006
1.3165363e-005
-1.9890158e-007
1.3125365e-005
-4.556801e-008
1.3110426e-005
-1.1206633e-009
1.3100125e-005
-7.7213927e-009
1.3095818e-005
-1.8925406e-009
1.3095802e-005
1.2530986e-009
1.3097671e-005
2.5677666e-009
1.3099199e-005
1.6039018e-009
1.3099775e-005
4.8493933e-010
1.3099769e-005
-9.1012236e-011
1.3099646e-005
-1.4795392e-010
1.3099588e-005
-5.0985239e-011
1.3099588e-005
7.8919862e-012
1.30996e-005
1.3814051e-011
1.3099605e-005
4.4918796e-012
1.3099605e-005
-7.4719643e-013
1.3099604e-005
-1.1286425e-012
1.3099604e-005
-3.9563563e-013
1.3099604e-005
-5.7354711e-014
1.3099604e-005
9.88055e-014
1.3099604e-005
6.6728517e-013
1.3099605e-005
2.2537584e-012
2.04245e-012
9.6209682e-006
-4.8385532e-006
8.5998983e-006
-7.2518004e-007
8.4568479e-006
-5.5851168e-008
8.425729e-006
-1.444904e-008
8.4207669e-006
3.8414143e-009
8.4149614e-006
-1.9158789e-009
8.4130014e-006
6.7447252e-011
8.4137319e-006
5.2264937e-010
8.4154854e-006
8.1428696e-010
8.4166533e-006
4.3600689e-010
8.4170215e-006
1.1666026e-010
8.4169694e-006
-3.8851475e-011
8.4168647e-006
-4.3298633e-011
8.4168262e-006
-1.2489529e-011
8.4168306e-006
3.5638782e-012
8.4168404e-006
4.0190388e-012
8.4168438e-006
1.0421183e-012
8.4168434e-006
-3.514809e-013
8.4168426e-006
-3.4031468e-013
8.4168423e-006
-1.0679844e-013
8.4168423e-006
-2.0368211e-014
8.4168423e-006
3.2976713e-014
8.4168427e-006
2.5142683e-013
8.4168442e-006
7.5568352e-013
6.8343054e-013
3.9748369e-006
3.2496569e-006
3.1938057e-006
3.1793567e-006
3.1831981e-006
3.1812823e-006
3.1813497e-006
3.1818723e-006
3.1826866e-006
3.1831226e-006
3.1832393e-006
3.1832005e-006
3.1831572e-006
3.1831447e-006
3.1831482e-006
3.1831523e-006
3.1831533e-006
3.1831529e-006
3.1831526e-006
3.1831525e-006
3.1831525e-006
3.1831525e-006
3.1831527e-006
3.1831535e-006
1.56668e-005
-2.4015154e-006
1.6484006e-005
-2.9980744e-006
1.7160598e-005
-2.7685322e-006
1.7702013e-005
-2.3237203e-006
1.809734e-005
-1.8423819e-006
1.8375161e-005
-1.3933674e-006
1.85672e-005
-1.042346e-006
1.8703118e-005
-7.9083522e-007
1.8803666e-005
-6.2737287e-007
1.8885467e-005
-5.4384934e-007
1.8962038e-005
-5.3430194e-007
1.9045529e-005
-5.9688117e-007
1.914674e-005
-7.3922008e-007
1.9276795e-005
-9.857846e-007
1.9452053e-005
-1.3735117e-006
1.9692313e-005
-1.9565128e-006
2.0016446e-005
-2.835947e-006
2.0450441e-005
-4.1759206e-006
2.1000233e-005
-6.1136535e-006
2.1595334e-005
-8.8750725e-006
2.2114256e-005
-1.2355378e-005
2.1881979e-005
-1.6678719e-005
2.0142733e-005
-2.0674449e-005
1.4781155e-005
-2.433207e-005
-1.6075152e-005
1.5814367e-005
-3.2120417e-006
1.6711297e-005
-3.8950047e-006
1.7408511e-005
-3.4657454e-006
1.7917189e-005
-2.8323983e-006
1.8261588e-005
-2.1867816e-006
1.8484232e-005
-1.6160113e-006
1.8621687e-005
-1.1798008e-006
1.8707624e-005
-8.7677225e-007
1.8764154e-005
-6.8390331e-007
1.8805245e-005
-5.8493948e-007
1.8839975e-005
-5.690329e-007
1.8874247e-005
-6.3115313e-007
1.891404e-005
-7.7901275e-007
1.8961984e-005
-1.0337283e-006
1.9020898e-005
-1.4324257e-006
1.9092824e-005
-2.0284388e-006
1.9166991e-005
-2.910114e-006
1.9221728e-005
-4.2306581e-006
1.9201899e-005
-6.0938244e-006
1.8966994e-005
-8.6401672e-006
1.8296868e-005
-1.1685252e-005
1.6578529e-005
-1.496038e-005
1.3241863e-005
-1.7337783e-005
6.8965781e-006
-1.7986785e-005
-9.1785741e-006
1.5988367e-005
-4.1965675e-006
1.6935878e-005
-4.8425155e-006
1.7599953e-005
-4.1298207e-006
1.8030752e-005
-3.2631975e-006
1.828793e-005
-2.4439601e-006
1.8429016e-005
-1.7570969e-006
1.8495934e-005
-1.2467187e-006
1.8522494e-005
-9.0333201e-007
1.8529299e-005
-6.907085e-007
1.8525654e-005
-5.8129449e-007
1.8515545e-005
-5.5892442e-007
1.8499444e-005
-6.1505183e-007
1.8476333e-005
-7.5590189e-007
1.8441615e-005
-9.9901041e-007
1.8385583e-005
-1.3763939e-006
1.8296104e-005
-1.9389598e-006
1.814193e-005
-2.7559397e-006
1.786774e-005
-3.9564676e-006
1.7389214e-005
-5.6152982e-006
1.6521346e-005
-7.7723e-006
1.5045712e-005
-1.0209618e-005
1.2546953e-005
-1.2461621e-005
8.782377e-006
-1.3573207e-005
3.4471604e-006
-1.2651569e-005
-5.7314137e-006
1.6160906e-005
-5.3536325e-006
1.707489e-005
-5.7564992e-006
1.7612892e-005
-4.6678228e-006
1.7892616e-005
-3.542922e-006
1.8012583e-005
-2.5639271e-006
1.8041014e-005
-1.7855281e-006
1.8022881e-005
-1.2285853e-006
1.7984049e-005
-8.6450042e-007
1.7939123e-005
-6.4578196e-007
1.7891175e-005
-5.3334642e-007
1.7838441e-005
-5.0619029e-007
1.7776119e-005
-5.527301e-007
1.7696432e-005
-6.7621516e-007
1.75882e-005
-8.9077855e-007
1.7432889e-005
-1.2210828e-006
1.7205606e-005
-1.7116767e-006
1.6866608e-005
-2.416942e-006
1.6338029e-005
-3.4278882e-006
1.5525253e-005
-4.8025222e-006
1.4261106e-005
-6.5081528e-006
1.2376612e-005
-8.3251242e-006
9.6828014e-006
-9.76781e-006
6.197363e-006
-1.0087769e-005
2.1188229e-006
-8.5730285e-006
-3.6125908e-006
1.6286441e-005
-6.6362329e-006
1.7016718e-005
-6.4867757e-006
1.7298427e-005
-4.949532e-006
1.7335771e-005
-3.5802657e-006
1.726476e-005
-2.4929166e-006
1.7154707e-005
-1.6754753e-006
1.7041811e-005
-1.1156894e-006
1.6937692e-005
-7.6038148e-007
1.6845055e-005
-5.5314441e-007
1.675923e-005
-4.4752148e-007
1.6671996e-005
-4.189561e-007
1.6573332e-005
-4.5406626e-007
1.6450469e-005
-5.5335247e-007
1.6286353e-005
-7.2666285e-007
1.6058903e-005
-9.9363211e-007
1.573312e-005
-1.3858943e-006
1.5264534e-005
-1.9483561e-006
1.4572962e-005
-2.7363155e-006
1.3560134e-005
-3.7896948e-006
1.2100856e-005
-5.0488747e-006
1.0087387e-005
-6.3116543e-006
7.4876257e-006
-7.168049e-006
4.4638007e-006
-7.0639436e-006
1.4390976e-006
-5.5483253e-006
-2.1734932e-006
1.6287891e-005
-7.9202832e-006
1.6618631e-005
-6.8175153e-006
1.6494419e-005
-4.8253201e-006
1.6206759e-005
-3.2926061e-006
1.590546e-005
-2.1916171e-006
1.5647174e-005
-1.4171898e-006
1.5443246e-005
-9.1176065e-007
1.528361e-005
-6.0074543e-007
1.5154954e-005
-4.2448867e-007
1.504339e-005
-3.3595791e-007
1.4934501e-005
-3.1006692e-007
1.4814339e-005
-3.3390468e-007
1.4666834e-005
-4.0584713e-007
1.4472141e-005
-5.3196965e-007
1.4205618e-005
-7.2710921e-007
1.3830828e-005
-1.011104e-006
1.3299333e-005
-1.4168612e-006
1.2540494e-005
-1.9774771e-006
1.1463742e-005
-2.7129422e-006
9.9834577e-006
-3.5685906e-006
8.0499655e-006
-4.378162e-006
5.7235152e-006
-4.8415987e-006
3.2361238e-006
-4.5765521e-006
1.0145699e-006
-3.3267713e-006
-1.1589233e-006
1.6043824e-005
-8.9602663e-006
1.5672033e-005
-6.4457243e-006
1.5009899e-005
-4.1631864e-006
1.435967e-005
-2.6423763e-006
1.3834248e-005
-1.6661956e-006
1.3450325e-005
-1.0332666e-006
1.3179873e-005
-6.4130876e-007
1.2986907e-005
-4.0777964e-007
1.2841586e-005
-2.7916761e-007
1.272147e-005
-2.1584166e-007
1.260788e-005
-1.9647691e-007
1.248454e-005
-2.1056502e-007
1.2334379e-005
-2.5568615e-007
1.2138024e-005
-3.3561453e-007
1.1869829e-005
-4.5891448e-007
1.1497078e-005
-6.38353e-007
1.0973427e-005
-8.9320994e-007
1.0239219e-005
-1.2432689e-006
9.2216455e-006
-1.6953687e-006
7.8639759e-006
-2.2109211e-006
6.1600161e-006
-2.6742022e-006
4.211058e-006
-2.8926406e-006
2.2621365e-006
-2.6276306e-006
6.7743449e-007
-1.7420692e-006
-4.8148884e-007
1.5228821e-005
-9.1852459e-006
1.3823544e-005
-5.0404474e-006
1.2587928e-005
-2.9275708e-006
1.164005e-005
-1.6944985e-006
1.0977435e-005
-1.0035805e-006
1.0537527e-005
-5.9335822e-007
1.0250041e-005
-3.5382321e-007
1.0058493e-005
-2.1623201e-007
9.9222793e-006
-1.429535e-007
9.8141046e-006
-1.0766693e-007
9.7143505e-006
-9.6722832e-008
9.6070617e-006
-1.0327626e-007
9.4770115e-006
-1.2563597e-007
9.3071811e-006
-1.6578413e-007
9.0755401e-006
-2.2727343e-007
8.7543647e-006
-3.1717757e-007
8.3055798e-006
-4.4442501e-007
7.6809541e-006
-6.1864314e-007
6.8277203e-006
-8.4213489e-007
5.710874e-006
-1.0940748e-006
4.3484776e-006
-1.3118057e-006
2.8475046e-006
-1.3916676e-006
1.431257e-006
-1.211383e-006
3.8974683e-007
-7.0055892e-007
-9.174199e-008
1.3137658e-005
-7.3190634e-006
1.0622977e-005
-2.525766e-006
8.9631911e-006
-1.2677849e-006
7.9308135e-006
-6.6212081e-007
7.2972652e-006
-3.7003231e-007
6.9118074e-006
-2.0790042e-007
6.6764071e-006
-1.1842292e-007
6.5291484e-006
-6.897329e-008
6.4297017e-006
-4.3506833e-008
6.3535319e-006
-3.1497135e-008
6.28455e-006
-2.7740998e-008
6.2107703e-006
-2.9496584e-008
6.1212442e-006
-3.6109901e-008
6.0035631e-006
-4.8103031e-008
5.8426692e-006
-6.6379433e-008
5.6186539e-006
-9.3162334e-008
5.3052709e-006
-1.3104189e-007
4.8692629e-006
-1.8263514e-007
4.2758508e-006
-2.4872274e-007
3.5041947e-006
-3.224187e-007
2.5761407e-006
-3.8375167e-007
1.5814278e-006
-3.9695456e-007
6.9547784e-007
-3.25433e-007
1.3550695e-007
-1.40588e-007
4.3764984e-008
7.6847775e-006
5.1590115e-006
3.8912266e-006
3.2291058e-006
2.8590735e-006
2.651173e-006
2.5327501e-006
2.4637768e-006
2.42027e-006
2.3887728e-006
2.3610318e-006
2.3315352e-006
2.2954253e-006
2.2473223e-006
2.1809429e-006
2.0877806e-006
1.9567387e-006
1.7741036e-006
1.5253809e-006
1.2029622e-006
8.1921052e-007
4.2225597e-007
9.6822995e-008
-4.3764983e-008
)
;

boundaryField
{
    inlet
    {
        type            calculated;
        value           nonuniform List<scalar> 
20
(
-5.0012803e-006
-5.0012803e-006
-5.0012803e-006
-5.0012803e-006
-5.0012803e-006
-5.0012803e-006
-5.0012803e-006
-5.0012803e-006
-5.0012803e-006
-5.0012803e-006
-1.5003841e-005
-1.5003841e-005
-1.5003841e-005
-1.5003841e-005
-1.5003841e-005
-1.5003841e-005
-1.5003841e-005
-1.5003841e-005
-1.5003841e-005
-1.5003841e-005
)
;
    }
    walls
    {
        type            calculated;
        value           uniform 0;
    }
    outlet
    {
        type            calculated;
        value           nonuniform List<scalar> 10(2.9900858e-005 2.9289071e-005 2.806717e-005 2.6239677e-005 2.3815444e-005 2.0807722e-005 1.7231666e-005 1.3099607e-005 8.4168456e-006 3.1831542e-006);
    }
    centreline
    {
        type            symmetryPlane;
        value           uniform 0;
    }
    frontAndBack
    {
        type            empty;
        value           nonuniform 0();
    }
}


// ************************************************************************* //
