/*--------------------------------*- C++ -*----------------------------------*\
| =========                 |                                                 |
| \\      /  F ield         | OpenFOAM: The Open Source CFD Toolbox           |
|  \\    /   O peration     | Version:  5.x                                   |
|   \\  /    A nd           | Web:      www.OpenFOAM.org                      |
|    \\/     M anipulation  |                                                 |
\*---------------------------------------------------------------------------*/
/*   Windows 32 and 64 bit porting by blueCAPE: http://www.bluecape.com.pt   *\
|  Based on Windows porting (2.0.x v4) by Symscape: http://www.symscape.com   |
\*---------------------------------------------------------------------------*/
FoamFile
{
    version     2.0;
    format      ascii;
    class       surfaceScalarField;
    location    "0.23";
    object      phi_0;
}
// * * * * * * * * * * * * * * * * * * * * * * * * * * * * * * * * * * * * * //

dimensions      [0 3 -1 0 0 0 0];

internalField   nonuniform List<scalar> 
1430
(
5.1608604e-006
-1.5958012e-007
5.3628602e-006
-2.0199976e-007
5.5638883e-006
-2.0102812e-007
5.7391864e-006
-1.7529805e-007
5.8870417e-006
-1.4785536e-007
6.0042628e-006
-1.1722111e-007
6.096315e-006
-9.2052179e-008
6.1685927e-006
-7.2277715e-008
6.227675e-006
-5.9082276e-008
6.2804871e-006
-5.2812131e-008
6.3334717e-006
-5.2984638e-008
6.393366e-006
-5.9894254e-008
6.468448e-006
-7.5082068e-008
6.5696506e-006
-1.0120259e-007
6.7124776e-006
-1.4282702e-007
6.919077e-006
-2.0659938e-007
7.225708e-006
-3.0663099e-007
7.69041e-006
-4.6470195e-007
8.3978417e-006
-7.0743167e-007
9.4818501e-006
-1.0840084e-006
1.1082069e-005
-1.6002187e-006
1.345218e-005
-2.3701111e-006
1.671779e-005
-3.2656101e-006
2.0939279e-005
-4.2214892e-006
-4.833599e-006
2.5772878e-005
5.1598093e-006
-3.1810911e-007
5.365984e-006
-4.0817442e-007
5.5653418e-006
-4.0038598e-007
5.7418244e-006
-3.5178064e-007
5.8890752e-006
-2.9510614e-007
6.0061629e-006
-2.3430879e-007
6.0977671e-006
-1.836564e-007
6.1696012e-006
-1.4411179e-007
6.2282907e-006
-1.1777187e-007
6.2807035e-006
-1.0522486e-007
6.3332324e-006
-1.0551362e-007
6.39258e-006
-1.1924181e-007
6.4669508e-006
-1.4945291e-007
6.5671214e-006
-2.013732e-007
6.7084758e-006
-2.8418138e-007
6.9128304e-006
-4.1095399e-007
7.2157368e-006
-6.0953732e-007
7.6743403e-006
-9.2330535e-007
8.3722589e-006
-1.4053503e-006
9.4364907e-006
-2.1482401e-006
1.1017069e-005
-3.1807966e-006
1.3325135e-005
-4.6781772e-006
1.6559084e-005
-6.4995593e-006
2.0657663e-005
-8.3200686e-006
-9.6808701e-006
2.5504934e-005
5.1614127e-006
-4.7824149e-007
5.369017e-006
-6.1577877e-007
5.569741e-006
-6.0110996e-007
5.7464975e-006
-5.2853708e-007
5.8934784e-006
-4.4208709e-007
6.0099109e-006
-3.5074136e-007
6.1006995e-006
-2.7444495e-007
6.1716846e-006
-2.150969e-007
6.2295902e-006
-1.7567754e-007
6.2812146e-006
-1.568493e-007
6.3328514e-006
-1.5715041e-007
6.391094e-006
-1.7748441e-007
6.4640282e-006
-2.2238714e-007
6.5622259e-006
-2.9957082e-007
6.7006205e-006
-4.2257601e-007
6.9004336e-006
-6.1076709e-007
7.196095e-006
-9.0519871e-007
7.6426526e-006
-1.3698629e-006
8.320367e-006
-2.0830647e-006
9.3513732e-006
-3.1792463e-006
1.087685e-005
-4.7062736e-006
1.3102855e-005
-6.9041817e-006
1.6205822e-005
-9.602527e-006
2.0166139e-005
-1.2280386e-005
-1.4374897e-005
2.4860166e-005
5.1638502e-006
-6.4081138e-007
5.3738145e-006
-8.2574303e-007
5.5764488e-006
-8.0374429e-007
5.7536567e-006
-7.0574495e-007
5.9002317e-006
-5.8866211e-007
6.015648e-006
-4.6615772e-007
6.1051692e-006
-3.6396614e-007
6.174916e-006
-2.8484376e-007
6.231658e-006
-2.3241956e-007
6.282089e-006
-2.0728029e-007
6.3323878e-006
-2.0744919e-007
6.3889971e-006
-2.3409374e-007
6.4597928e-006
-2.9318284e-007
6.5550446e-006
-3.9482266e-007
6.6890596e-006
-5.5659097e-007
6.8821519e-006
-8.0385935e-007
7.1670883e-006
-1.1901351e-006
7.5959799e-006
-1.7987544e-006
8.2440545e-006
-2.7311393e-006
9.2256218e-006
-4.1608136e-006
1.0670684e-005
-6.1513357e-006
1.2773248e-005
-9.0067458e-006
1.5680729e-005
-1.2510008e-005
1.9425196e-005
-1.6024853e-005
-1.8817172e-005
2.3867471e-005
5.1673142e-006
-8.0684525e-007
5.3804752e-006
-1.0389041e-006
5.5856272e-006
-1.0088963e-006
5.7634e-006
-8.8351769e-007
5.9094103e-006
-7.3467241e-007
6.0234355e-006
-5.8018292e-007
6.1112421e-006
-4.5177276e-007
6.1793565e-006
-3.5295818e-007
6.2345528e-006
-2.8761594e-007
6.2833792e-006
-2.5610671e-007
6.3319072e-006
-2.559772e-007
6.3863789e-006
-2.8856543e-007
6.4543554e-006
-3.6115935e-007
6.545729e-006
-4.8619623e-007
6.6740129e-006
-6.8487489e-007
6.8583307e-006
-9.8817707e-007
7.1292994e-006
-1.4611038e-006
7.535297e-006
-2.204752e-006
8.1447384e-006
-3.3405806e-006
9.06215e-006
-5.0782251e-006
1.0401083e-005
-7.4902691e-006
1.2339428e-005
-1.0945091e-005
1.4992635e-005
-1.5163214e-005
1.844535e-005
-1.9477568e-005
-2.2888553e-005
2.2516731e-005
5.1719866e-006
-9.7755155e-007
5.3891545e-006
-1.256072e-006
5.5974317e-006
-1.2171734e-006
5.7758403e-006
-1.0619263e-006
5.9210748e-006
-8.7990693e-007
6.0333107e-006
-6.9241885e-007
6.11896e-006
-5.3742208e-007
6.185043e-006
-4.1904123e-007
6.238307e-006
-3.4087994e-007
6.2851142e-006
-3.0291392e-007
6.3314453e-006
-3.0230831e-007
6.3833074e-006
-3.4042747e-007
6.4478173e-006
-4.2566934e-007
6.5344139e-006
-5.7279276e-007
6.6556768e-006
-8.0613782e-007
6.8292778e-006
-1.161778e-006
7.0832254e-006
-1.7150514e-006
7.461492e-006
-2.5830186e-006
8.0243156e-006
-3.9034041e-006
8.8638002e-006
-5.9177097e-006
1.0071885e-005
-8.698354e-006
1.1808559e-005
-1.2681765e-005
1.414178e-005
-1.7496435e-005
1.7214101e-005
-2.2549889e-005
-2.6498654e-005
2.0824202e-005
5.178062e-006
-1.1543332e-006
5.4000043e-006
-1.4780143e-006
5.61197e-006
-1.4291392e-006
5.7910345e-006
-1.2409908e-006
5.9352226e-006
-1.024095e-006
6.045247e-006
-8.0244322e-007
6.1283007e-006
-6.2047588e-007
6.1919334e-006
-4.8267388e-007
6.242874e-006
-3.9182063e-007
6.2872454e-006
-3.4728531e-007
6.3309698e-006
-3.460327e-007
6.3797826e-006
-3.8924027e-007
6.4402165e-006
-4.8610326e-007
6.5211969e-006
-6.5377312e-007
6.6342216e-006
-9.1916258e-007
6.7953072e-006
-1.3228636e-006
7.0294726e-006
-1.9492167e-006
7.3756948e-006
-2.9292408e-006
7.8848515e-006
-4.4125608e-006
8.6337581e-006
-6.6666163e-006
9.6887139e-006
-9.7533097e-006
1.1185883e-005
-1.4178934e-005
1.312096e-005
-1.9431512e-005
1.5753881e-005
-2.518281e-005
-2.9485046e-005
1.8740272e-005
5.185762e-006
-1.3388148e-006
5.4131102e-006
-1.7053626e-006
5.6292627e-006
-1.6452917e-006
5.8089262e-006
-1.4206543e-006
5.9517103e-006
-1.1668792e-006
6.0590826e-006
-9.0981549e-007
6.1391139e-006
-7.0050718e-007
6.1998645e-006
-5.4342455e-007
6.2480829e-006
-4.4003903e-007
6.2896194e-006
-3.8882186e-007
6.3303298e-006
-3.867431e-007
6.3756827e-006
-4.3459317e-007
6.4315078e-006
-5.4192837e-007
6.5060948e-006
-7.2836009e-007
6.6097519e-006
-1.0228197e-006
6.7567219e-006
-1.4698336e-006
6.968724e-006
-2.1612188e-006
7.2791303e-006
-3.2396471e-006
7.7285544e-006
-4.8619848e-006
8.3763556e-006
-7.3144175e-006
9.2585792e-006
-1.0635533e-005
1.0481119e-005
-1.5401474e-005
1.1975951e-005
-2.0926343e-005
1.4122571e-005
-2.732943e-005
-3.1507702e-005
1.6145227e-005
5.1953773e-006
-1.5329118e-006
5.4284371e-006
-1.9384223e-006
5.6492569e-006
-1.8661115e-006
5.8293168e-006
-1.6007142e-006
5.9702334e-006
-1.3077958e-006
6.0745012e-006
-1.0140833e-006
6.1510729e-006
-7.7707885e-007
6.2085162e-006
-6.0086783e-007
6.253594e-006
-4.8511688e-007
6.2919093e-006
-4.2713717e-007
6.329239e-006
-4.2407283e-007
6.3707485e-006
-4.7610269e-007
6.4214991e-006
-5.9267895e-007
6.4890039e-006
-7.9586488e-007
6.582304e-006
-1.1161198e-006
6.7137742e-006
-1.6013037e-006
6.9017152e-006
-2.3491599e-006
7.1732544e-006
-3.5111862e-006
7.5578645e-006
-5.246595e-006
8.0973963e-006
-7.8539493e-006
8.7919253e-006
-1.1330062e-005
9.7155341e-006
-1.6325083e-005
1.0729016e-005
-2.1939826e-005
1.233851e-005
-2.8938924e-005
-3.2175092e-005
1.30059e-005
5.2058156e-006
-1.7374471e-006
5.446936e-006
-2.1795426e-006
5.6714822e-006
-2.0906577e-006
5.8519398e-006
-1.7811719e-006
5.9902449e-006
-1.4461008e-006
6.0909679e-006
-1.1148063e-006
6.1636679e-006
-8.4977887e-007
6.2173722e-006
-6.5457206e-007
6.258867e-006
-5.2661176e-007
6.2936532e-006
-4.6192336e-007
6.3272437e-006
-4.576633e-007
6.3645033e-006
-5.1336237e-007
6.4098179e-006
-6.379935e-007
6.4696587e-006
-8.5570564e-007
6.5517395e-006
-1.1982006e-006
6.6665492e-006
-1.7161134e-006
6.8288957e-006
-2.5115064e-006
7.059148e-006
-3.7414384e-006
7.3759489e-006
-5.5633959e-006
7.8019746e-006
-8.279975e-006
8.3093296e-006
-1.1837417e-005
8.8973258e-006
-1.6913079e-005
9.3739283e-006
-2.2416428e-005
1.0131072e-005
-2.9696068e-005
8.8134316e-006
-3.0857451e-005
2.8490561e-005
-2.7176825e-006
2.9516386e-005
-1.0258256e-006
2.9778114e-005
-2.6172784e-007
2.9852923e-005
-7.4809216e-008
2.9882598e-005
-2.9674835e-008
2.9895281e-005
-1.2682503e-008
2.9902993e-005
-7.7121134e-009
2.9904826e-005
-1.8327156e-009
2.9903564e-005
1.2610805e-009
2.9901794e-005
1.7699824e-009
2.990091e-005
8.848648e-010
2.9900772e-005
1.3751986e-010
2.9900886e-005
-1.1432667e-010
2.9900964e-005
-7.7833698e-011
2.9900975e-005
-1.1057083e-011
2.9900963e-005
1.2132046e-011
2.9900955e-005
8.1997712e-012
2.9900954e-005
1.2807269e-012
2.9900955e-005
-9.2614048e-013
2.9900955e-005
-5.8006944e-013
2.9900955e-005
-1.4787991e-013
2.9900955e-005
-5.5614397e-014
2.9900955e-005
1.2011652e-013
2.9900954e-005
1.4397089e-012
1.446908e-012
2.7994682e-005
-5.2074302e-006
2.8966101e-005
-1.9972443e-006
2.9188999e-005
-4.8462606e-007
2.9256368e-005
-1.4217786e-007
2.9274432e-005
-4.7739051e-008
2.9285372e-005
-2.3622488e-008
2.9291364e-005
-1.3704433e-008
2.9292873e-005
-3.3417798e-009
2.9291507e-005
2.6273641e-009
2.9289926e-005
3.3511146e-009
2.9289151e-005
1.6595485e-009
2.9289058e-005
2.3113814e-010
2.9289167e-005
-2.2355313e-010
2.9289235e-005
-1.4607819e-010
2.9289243e-005
-1.8746755e-011
2.9289232e-005
2.3219481e-011
2.9289225e-005
1.5093899e-011
2.9289224e-005
2.172253e-012
2.9289225e-005
-1.7858372e-012
2.9289225e-005
-1.0914356e-012
2.9289225e-005
-2.8201324e-013
2.9289225e-005
-8.5588318e-014
2.9289225e-005
2.9810677e-013
2.9289224e-005
2.8062794e-012
2.8845393e-012
2.7044168e-005
-7.391432e-006
2.7848268e-005
-2.801344e-006
2.80222e-005
-6.5855814e-007
2.8049038e-005
-1.6901581e-007
2.8055176e-005
-5.3877228e-008
2.806528e-005
-3.3726625e-008
2.8069894e-005
-1.8318799e-008
2.8070449e-005
-3.896401e-009
2.8069067e-005
4.0089784e-009
2.8067812e-005
4.6067225e-009
2.8067278e-005
2.1932601e-009
2.8067261e-005
2.4848436e-010
2.8067358e-005
-3.2105062e-010
2.8067408e-005
-1.9562692e-010
2.806741e-005
-2.1149385e-011
2.8067401e-005
3.2365432e-011
2.8067397e-005
1.9679543e-011
2.8067396e-005
2.413514e-012
2.8067397e-005
-2.5097166e-012
2.8067397e-005
-1.4614478e-012
2.8067397e-005
-3.5211251e-013
2.8067397e-005
-6.2815982e-014
2.8067397e-005
5.2179324e-013
2.8067396e-005
4.0312297e-012
4.1062035e-012
2.5620715e-005
-9.1446761e-006
2.6175484e-005
-3.3561128e-006
2.624419e-005
-7.272643e-007
2.6234872e-005
-1.5969744e-007
2.623467e-005
-5.3675032e-008
2.6241261e-005
-4.0318115e-008
2.6242677e-005
-1.9734237e-008
2.6241928e-005
-3.1480032e-009
2.6240709e-005
5.2282124e-009
2.6239974e-005
5.3415692e-009
2.623979e-005
2.3776355e-009
2.6239854e-005
1.8417244e-010
2.6239923e-005
-3.9019025e-010
2.6239945e-005
-2.177743e-010
2.6239941e-005
-1.7147323e-011
2.6239935e-005
3.8315521e-011
2.6239934e-005
2.1268785e-011
2.6239934e-005
1.9469701e-012
2.6239935e-005
-2.9892175e-012
2.6239935e-005
-1.6205372e-012
2.6239935e-005
-3.4521309e-013
2.6239935e-005
-1.4248769e-014
2.6239935e-005
7.4810867e-013
2.6239934e-005
4.9370374e-012
4.9253978e-012
2.3703661e-005
-1.0331606e-005
2.3902931e-005
-3.5553834e-006
2.3845564e-005
-6.6989711e-007
2.3827896e-005
-1.4202975e-007
2.3822149e-005
-4.7927849e-008
2.3820371e-005
-3.8540343e-008
2.3817699e-005
-1.7062336e-008
2.3816017e-005
-1.4657387e-009
2.3815323e-005
5.9222772e-009
2.3815328e-005
5.3364378e-009
2.3815525e-005
2.1804559e-009
2.3815642e-005
6.8030915e-011
2.3815662e-005
-4.1074964e-010
2.3815651e-005
-2.0670401e-010
2.3815642e-005
-8.0908146e-012
2.3815641e-005
3.952597e-011
2.3815642e-005
1.9629291e-011
2.3815643e-005
9.7240653e-013
2.3815644e-005
-3.1060423e-012
2.3815643e-005
-1.5333323e-012
2.3815643e-005
-2.9637951e-013
2.3815643e-005
4.551552e-014
2.3815643e-005
9.5051466e-013
2.3815643e-005
5.2959814e-012
5.1469093e-012
2.1234218e-005
-1.0741622e-005
2.0995144e-005
-3.3163095e-006
2.0857825e-005
-5.3257751e-007
2.083501e-005
-1.1921474e-007
2.0821865e-005
-3.4783246e-008
2.0813193e-005
-2.986828e-008
2.0807971e-005
-1.1840817e-008
2.0806218e-005
2.8786399e-010
2.0806429e-005
5.7108242e-009
2.080724e-005
4.5256088e-009
2.0807742e-005
1.6784464e-009
2.0807856e-005
-4.5560984e-011
2.0807814e-005
-3.6952362e-010
2.0807773e-005
-1.6523878e-010
2.0807763e-005
2.0265371e-012
2.0807767e-005
3.5060621e-011
2.0807772e-005
1.5313977e-011
2.0807773e-005
-7.8071827e-014
2.0807772e-005
-2.7769743e-012
2.0807772e-005
-1.229062e-012
2.0807772e-005
-2.2172929e-013
2.0807772e-005
9.711924e-014
2.0807772e-005
1.0565007e-012
2.0807772e-005
4.9303754e-012
4.6620394e-012
1.8115694e-005
-1.0117043e-005
1.7464893e-005
-2.6655083e-006
1.7298377e-005
-3.6606195e-007
1.7265241e-005
-8.607816e-008
1.7246875e-005
-1.6417801e-008
1.7235116e-005
-1.8109448e-008
1.7229398e-005
-6.1221906e-009
1.7228352e-005
1.3333858e-009
1.722958e-005
4.4827824e-009
1.7230976e-005
3.129777e-009
1.7231609e-005
1.0454549e-009
1.7231669e-005
-1.056906e-010
1.7231572e-005
-2.7225178e-010
1.7231513e-005
-1.0669869e-010
1.7231507e-005
8.4119203e-012
1.7231517e-005
2.559471e-011
1.7231522e-005
9.6649733e-012
1.7231523e-005
-7.4369339e-013
1.7231522e-005
-2.0472202e-012
1.7231522e-005
-7.9956429e-013
1.7231522e-005
-1.2966113e-013
1.7231522e-005
1.1685728e-013
1.7231522e-005
9.64782e-013
1.7231523e-005
3.8350122e-012
3.5411797e-012
1.4251493e-005
-8.223309e-006
1.3332307e-005
-1.7463225e-006
1.3165386e-005
-1.9914051e-007
1.3125175e-005
-4.5866832e-008
1.3110079e-005
-1.3221148e-009
1.309973e-005
-7.7605871e-009
1.3095455e-005
-1.8467551e-009
1.3095483e-005
1.3047628e-009
1.3097376e-005
2.59013e-009
1.3098905e-005
1.6010495e-009
1.3099474e-005
4.7647542e-010
1.3099463e-005
-9.5360494e-011
1.3099339e-005
-1.4833471e-010
1.3099283e-005
-5.0158396e-011
1.3099283e-005
8.355049e-012
1.3099295e-005
1.3860149e-011
1.30993e-005
4.4222832e-012
1.30993e-005
-7.8115941e-013
1.3099299e-005
-1.1282183e-012
1.3099299e-005
-3.8906503e-013
1.3099298e-005
-5.621019e-014
1.3099299e-005
9.6273774e-014
1.3099299e-005
6.6435733e-013
1.30993e-005
2.2679616e-012
2.0595962e-012
9.6211118e-006
-4.8385206e-006
8.5999939e-006
-7.2520467e-007
8.4567868e-006
-5.5933295e-008
8.4254703e-006
-1.455039e-008
8.420371e-006
3.7772319e-009
8.4145375e-006
-1.9270764e-009
8.4126095e-006
8.1256359e-011
8.4133773e-006
5.3696186e-010
8.4151475e-006
8.1995649e-010
8.4163139e-006
4.3459325e-010
8.4166763e-006
1.1411571e-010
8.4166209e-006
-3.9976542e-011
8.4165159e-006
-4.3312026e-011
8.416478e-006
-1.222029e-011
8.4164826e-006
3.6888341e-012
8.4164925e-006
4.0231699e-012
8.4164959e-006
1.0198129e-012
8.4164954e-006
-3.6019905e-013
8.4164947e-006
-3.3932085e-013
8.4164944e-006
-1.0464835e-013
8.4164943e-006
-2.0262835e-014
8.4164944e-006
3.1935622e-014
8.4164948e-006
2.498575e-013
8.4164963e-006
7.5994718e-013
6.8914701e-013
3.974911e-006
3.2497063e-006
3.193773e-006
3.1792227e-006
3.1829999e-006
3.1810728e-006
3.1811541e-006
3.181691e-006
3.182511e-006
3.1829456e-006
3.1830597e-006
3.1830197e-006
3.1829764e-006
3.1829642e-006
3.1829679e-006
3.1829719e-006
3.1829729e-006
3.1829726e-006
3.1829722e-006
3.1829721e-006
3.1829721e-006
3.1829721e-006
3.1829724e-006
3.1829731e-006
1.5666344e-005
-2.3999499e-006
1.6483131e-005
-2.99633e-006
1.7159396e-005
-2.7669223e-006
1.7700518e-005
-2.3222938e-006
1.8095608e-005
-1.841191e-006
1.8373259e-005
-1.3924577e-006
1.8565189e-005
-1.0417088e-006
1.8701046e-005
-7.9042854e-007
1.8801565e-005
-6.2713126e-007
1.8883359e-005
-5.4371696e-007
1.8959932e-005
-5.3423699e-007
1.9043433e-005
-5.9686252e-007
1.9144661e-005
-7.3922174e-007
1.9274736e-005
-9.8578119e-007
1.9450015e-005
-1.3734793e-006
1.9690293e-005
-1.9563909e-006
2.0014442e-005
-2.835656e-006
2.0448468e-005
-4.1754646e-006
2.0998311e-005
-6.1132381e-006
2.1593529e-005
-8.8751928e-006
2.211269e-005
-1.2356579e-005
2.1880753e-005
-1.6681142e-005
2.0141902e-005
-2.0677577e-005
1.4780764e-005
-2.433493e-005
-1.6076688e-005
1.5813951e-005
-3.2100596e-006
1.6710607e-005
-3.8929858e-006
1.740762e-005
-3.4639361e-006
1.7916117e-005
-2.8307906e-006
1.8260363e-005
-2.1854373e-006
1.8482892e-005
-1.6149862e-006
1.8620274e-005
-1.1790915e-006
1.8706179e-005
-8.763333e-007
1.8762704e-005
-6.8365663e-007
1.8803806e-005
-5.84818e-007
1.8838554e-005
-5.6898509e-007
1.8872845e-005
-6.3115394e-007
1.8912662e-005
-7.7903842e-007
1.8960637e-005
-1.0337568e-006
1.9019588e-005
-1.4324302e-006
1.909156e-005
-2.0283631e-006
1.9165791e-005
-2.9098867e-006
1.9220617e-005
-4.2302905e-006
1.9200917e-005
-6.0935383e-006
1.8966181e-005
-8.6404561e-006
1.8296248e-005
-1.1686646e-005
1.6578108e-005
-1.4963001e-005
1.3241589e-005
-1.7341058e-005
6.8964026e-006
-1.7989744e-005
-9.1802853e-006
1.5988123e-005
-4.1943418e-006
1.6935593e-005
-4.8404562e-006
1.7599664e-005
-4.1280069e-006
1.8030444e-005
-3.2615705e-006
1.8287591e-005
-2.4425844e-006
1.8428642e-005
-1.7560368e-006
1.8495539e-005
-1.2459882e-006
1.85221e-005
-9.0289475e-007
1.8528924e-005
-6.904803e-007
1.8525304e-005
-5.8119885e-007
1.8515221e-005
-5.5890132e-007
1.8499144e-005
-6.1507732e-007
1.847606e-005
-7.5595391e-007
1.8441374e-005
-9.9907128e-007
1.8385384e-005
-1.3764396e-006
1.8295964e-005
-1.9389431e-006
1.8141877e-005
-2.7558007e-006
1.78678e-005
-3.9562128e-006
1.7389411e-005
-5.6151491e-006
1.6521692e-005
-7.7727369e-006
1.5046142e-005
-1.0211097e-005
1.2547351e-005
-1.246421e-005
8.7826387e-006
-1.3576345e-005
3.4472401e-006
-1.2654345e-005
-5.7330452e-006
1.6160936e-005
-5.3514368e-006
1.7075133e-005
-5.7546535e-006
1.7613335e-005
-4.6662082e-006
1.7893216e-005
-3.5414519e-006
1.8013292e-005
-2.5626603e-006
1.804179e-005
-1.784535e-006
1.8023701e-005
-1.227899e-006
1.7984909e-005
-8.6410249e-007
1.7940018e-005
-6.4558998e-007
1.78921e-005
-5.33281e-007
1.7839392e-005
-5.0619258e-007
1.7777091e-005
-5.5277705e-007
1.7697423e-005
-6.7628531e-007
1.7589212e-005
-8.9086053e-007
1.7433934e-005
-1.2211616e-006
1.7206702e-005
-1.711711e-006
1.6867784e-005
-2.4168823e-006
1.6339314e-005
-3.4277428e-006
1.5526642e-005
-4.8024778e-006
1.4262535e-005
-6.5086299e-006
1.2377965e-005
-8.3265267e-006
9.6838977e-006
-9.770143e-006
6.1980635e-006
-1.0090511e-005
2.1191046e-006
-8.5753862e-006
-3.6139406e-006
1.6286753e-005
-6.6343486e-006
1.7017413e-005
-6.4853137e-006
1.7299457e-005
-4.9482523e-006
1.7337094e-005
-3.579089e-006
1.7266318e-005
-2.4918837e-006
1.7156432e-005
-1.67465e-006
1.7043647e-005
-1.1151133e-006
1.6939597e-005
-7.6005284e-007
1.6847004e-005
-5.5299728e-007
1.6761209e-005
-4.4748582e-007
1.6673995e-005
-4.1897817e-007
1.657534e-005
-4.5412256e-007
1.6452484e-005
-5.534292e-007
1.6288375e-005
-7.2675115e-007
1.6060936e-005
-9.9372252e-007
1.5735179e-005
-1.3859547e-006
1.5266643e-005
-1.9483459e-006
1.4575146e-005
-2.7362453e-006
1.3562379e-005
-3.7897106e-006
1.2103043e-005
-5.0492946e-006
1.0089328e-005
-6.3128117e-006
7.4891235e-006
-7.169938e-006
4.4647326e-006
-7.0661203e-006
1.4394766e-006
-5.5501302e-006
-2.174464e-006
1.628838e-005
-7.9188878e-006
1.6619548e-005
-6.8164812e-006
1.6495709e-005
-4.8244135e-006
1.6208398e-005
-3.2917786e-006
1.5907404e-005
-2.1908897e-006
1.5649349e-005
-1.4165949e-006
1.5445572e-005
-9.1133637e-007
1.5286025e-005
-6.0050568e-007
1.5157418e-005
-4.2438975e-007
1.5045878e-005
-3.3594585e-007
1.4936998e-005
-3.1009872e-007
1.4816835e-005
-3.3395912e-007
1.4669322e-005
-4.0591634e-007
1.4474619e-005
-5.3204843e-007
1.4208086e-005
-7.2718932e-007
1.3833296e-005
-1.0111647e-006
1.3301823e-005
-1.4168734e-006
1.2543025e-005
-1.9774467e-006
1.1466286e-005
-2.7129718e-006
9.9858883e-006
-3.5688969e-006
8.0520579e-006
-4.3789813e-006
5.7250661e-006
-4.8429461e-006
3.2370484e-006
-4.5781025e-006
1.0149251e-006
-3.3280069e-006
-1.1595388e-006
1.6044354e-005
-8.9594003e-006
1.5672946e-005
-6.4450737e-006
1.5011144e-005
-4.1626116e-006
1.4361241e-005
-2.6418758e-006
1.3836118e-005
-1.6657662e-006
1.345243e-005
-1.0329076e-006
1.318214e-005
-6.4104611e-007
1.2989267e-005
-4.0763231e-007
1.284399e-005
-2.7911263e-007
1.2723888e-005
-2.15844e-007
1.2610296e-005
-1.9650731e-007
1.2486946e-005
-2.1060841e-007
1.2336767e-005
-2.5573759e-007
1.2140391e-005
-3.356726e-007
1.1872174e-005
-4.589727e-007
1.1499408e-005
-6.383982e-007
1.097576e-005
-8.9322585e-007
1.0241569e-005
-1.2432549e-006
9.2239858e-006
-1.6953888e-006
7.8661927e-006
-2.2111038e-006
6.1619e-006
-2.6746885e-006
4.21242e-006
-2.893466e-006
2.2629104e-006
-2.6285929e-006
6.7770919e-007
-1.7428056e-006
-4.8182958e-007
1.5229272e-005
-9.1848314e-006
1.38243e-005
-5.040102e-006
1.2588962e-005
-2.9272731e-006
1.1641346e-005
-1.6942596e-006
1.0978965e-005
-1.0033855e-006
1.053925e-005
-5.9319257e-007
1.0251903e-005
-3.5369943e-007
1.0060435e-005
-2.1616429e-007
9.9242543e-006
-1.42932e-007
9.8160846e-006
-1.0767428e-007
9.7163211e-006
-9.6743804e-008
9.6090154e-006
-1.0330278e-007
9.4789437e-006
-1.2566589e-007
9.3090885e-006
-1.6581742e-007
9.0774223e-006
-2.273064e-007
8.7562273e-006
-3.1720323e-007
8.3074369e-006
-4.4443545e-007
7.682818e-006
-6.1863585e-007
6.8295689e-006
-8.421397e-007
5.712619e-006
-1.0941538e-006
4.3499616e-006
-1.3120312e-006
2.8485631e-006
-1.3920674e-006
1.4318345e-006
-1.2118643e-006
3.8993886e-007
-7.0091001e-007
-9.1890698e-008
1.3137961e-005
-7.3189509e-006
1.0623509e-005
-2.5256508e-006
8.9639275e-006
-1.2676913e-006
7.9317245e-006
-6.6205671e-007
7.2983216e-006
-3.6998261e-007
6.9129882e-006
-2.0785914e-007
6.6776808e-006
-1.1839206e-007
6.5304742e-006
-6.8957692e-008
6.4310461e-006
-4.3503979e-008
6.3548742e-006
-3.1502345e-008
6.2858803e-006
-2.7749924e-008
6.2120842e-006
-2.9506715e-008
6.1225392e-006
-3.6120877e-008
6.0048368e-006
-4.8115061e-008
5.8439215e-006
-6.6391065e-008
5.61989e-006
-9.3171671e-008
5.3065004e-006
-1.3104591e-007
4.8704968e-006
-1.826322e-007
4.2770774e-006
-2.4872019e-007
3.5053581e-006
-3.2243451e-007
2.5771388e-006
-3.8381191e-007
1.5821383e-006
-3.9706685e-007
6.9585083e-007
-3.2557677e-007
1.3562053e-007
-1.4067967e-007
4.3729852e-008
7.68489e-006
5.1592392e-006
3.8915479e-006
3.2294912e-006
2.8595086e-006
2.6516494e-006
2.5332574e-006
2.4642996e-006
2.4207957e-006
2.3892933e-006
2.3615434e-006
2.3320366e-006
2.2959158e-006
2.2478007e-006
2.1814097e-006
2.088238e-006
1.9571921e-006
1.7745599e-006
1.5258398e-006
1.2034053e-006
8.1959338e-007
4.2252655e-007
9.6949799e-008
-4.3729851e-008
)
;

boundaryField
{
    inlet
    {
        type            calculated;
        value           nonuniform List<scalar> 
20
(
-5.0012803e-006
-5.0012803e-006
-5.0012803e-006
-5.0012803e-006
-5.0012803e-006
-5.0012803e-006
-5.0012803e-006
-5.0012803e-006
-5.0012803e-006
-5.0012803e-006
-1.5003841e-005
-1.5003841e-005
-1.5003841e-005
-1.5003841e-005
-1.5003841e-005
-1.5003841e-005
-1.5003841e-005
-1.5003841e-005
-1.5003841e-005
-1.5003841e-005
)
;
    }
    walls
    {
        type            calculated;
        value           uniform 0;
    }
    outlet
    {
        type            calculated;
        value           nonuniform List<scalar> 10(2.9900952e-005 2.9289222e-005 2.8067395e-005 2.6239933e-005 2.3815643e-005 2.0807773e-005 1.7231524e-005 1.3099302e-005 8.4164976e-006 3.1829738e-006);
    }
    centreline
    {
        type            symmetryPlane;
        value           uniform 0;
    }
    frontAndBack
    {
        type            empty;
        value           nonuniform 0();
    }
}


// ************************************************************************* //
