/*--------------------------------*- C++ -*----------------------------------*\
| =========                 |                                                 |
| \\      /  F ield         | OpenFOAM: The Open Source CFD Toolbox           |
|  \\    /   O peration     | Version:  5.x                                   |
|   \\  /    A nd           | Web:      www.OpenFOAM.org                      |
|    \\/     M anipulation  |                                                 |
\*---------------------------------------------------------------------------*/
/*   Windows 32 and 64 bit porting by blueCAPE: http://www.bluecape.com.pt   *\
|  Based on Windows porting (2.0.x v4) by Symscape: http://www.symscape.com   |
\*---------------------------------------------------------------------------*/
FoamFile
{
    version     2.0;
    format      ascii;
    class       volSymmTensorField;
    location    "0.23";
    object      sigma_0;
}
// * * * * * * * * * * * * * * * * * * * * * * * * * * * * * * * * * * * * * //

dimensions      [0 2 -2 0 0 0 0];

internalField   nonuniform List<symmTensor> 
750
(
(-0.00041084353 2.7510587e-005 0 0.00039896957 0 0)
(-0.00053849317 3.3130971e-006 0 0.00054369913 0 0)
(-0.00056609212 -5.9606789e-006 0 0.00054956601 0 0)
(-0.00048986597 -1.0142478e-005 0 0.00048701692 0 0)
(-0.00041257512 -1.0439533e-005 0 0.00040660937 0 0)
(-0.00033416264 -9.7681793e-006 0 0.00033158198 0 0)
(-0.0002595857 -7.7654246e-006 0 0.00025751402 0 0)
(-0.00020829693 -5.7427131e-006 0 0.00020720357 0 0)
(-0.00017114363 -3.3893562e-006 0 0.00017037168 0 0)
(-0.00015425599 -1.0603355e-006 0 0.00015360454 0 0)
(-0.00015510559 1.0299413e-006 0 0.00015438729 0 0)
(-0.00017666682 3.8645265e-006 0 0.0001758376 0 0)
(-0.00022051113 7.335794e-006 0 0.00021925812 0 0)
(-0.00029252432 1.181005e-005 0 0.00028997665 0 0)
(-0.00041369384 1.8589395e-005 0 0.00040900882 0 0)
(-0.00059539236 2.8783719e-005 0 0.00058592283 0 0)
(-0.0008740869 4.4561059e-005 0 0.00085296284 0 0)
(-0.0013219765 7.0005949e-005 0 0.0012751232 0 0)
(-0.0020322665 0.00011301712 0 0.0019281774 0 0)
(-0.003141434 0.00017437547 0 0.0028792858 0 0)
(-0.0048236047 0.00027493432 0 0.0042875183 0 0)
(-0.0072966228 0.00040899059 0 0.0059966196 0 0)
(-0.010546891 0.00056200893 0 0.0082704138 0 0)
(-0.014335425 0.00080650161 0 0.01005852 0 0)
(-0.017728598 0.00058622749 0 0.011888436 0 0)
(-0.00041323474 8.2969056e-005 0 0.00039842333 0 0)
(-0.0005395885 1.0046514e-005 0 0.0005497554 0 0)
(-0.00056788286 -1.8463114e-005 0 0.0005484102 0 0)
(-0.00049001136 -3.0295792e-005 0 0.0004884388 0 0)
(-0.00041297438 -3.1582706e-005 0 0.00040626722 0 0)
(-0.00033271666 -2.9312772e-005 0 0.00033039197 0 0)
(-0.00025811995 -2.3202902e-005 0 0.00025603468 0 0)
(-0.00020776543 -1.7167608e-005 0 0.00020641914 0 0)
(-0.00017013338 -1.0177497e-005 0 0.00016926993 0 0)
(-0.00015314925 -3.1544943e-006 0 0.00015241744 0 0)
(-0.00015381441 3.102414e-006 0 0.00015300942 0 0)
(-0.00017509116 1.1592091e-005 0 0.00017416184 0 0)
(-0.00021852919 2.1932576e-005 0 0.00021714454 0 0)
(-0.00028951665 3.5260065e-005 0 0.00028673278 0 0)
(-0.00040965009 5.5522021e-005 0 0.00040465583 0 0)
(-0.00058916801 8.5720071e-005 0 0.00057922822 0 0)
(-0.00086376465 0.00013237634 0 0.00084173047 0 0)
(-0.001305302 0.00020774746 0 0.0012570964 0 0)
(-0.0020051314 0.00033406717 0 0.0018992995 0 0)
(-0.0030897659 0.00050538912 0 0.0028234203 0 0)
(-0.004753566 0.00082500235 0 0.0042192334 0 0)
(-0.0071489774 0.0011630978 0 0.0058368673 0 0)
(-0.010397807 0.0016778966 0 0.0081547351 0 0)
(-0.01413326 0.0024958674 0 0.0097363147 0 0)
(-0.017346685 0.0018079184 0 0.011761586 0 0)
(-0.00041686841 0.00013897877 0 0.00040042504 0 0)
(-0.00054301964 1.6219823e-005 0 0.00055497528 0 0)
(-0.00057118388 -3.1827754e-005 0 0.00055036225 0 0)
(-0.00049105594 -5.070111e-005 0 0.00048979299 0 0)
(-0.00041235987 -5.332643e-005 0 0.0004055027 0 0)
(-0.00033107247 -4.9421443e-005 0 0.0003287914 0 0)
(-0.00025592951 -3.8912523e-005 0 0.00025388406 0 0)
(-0.00020563116 -2.884468e-005 0 0.00020436067 0 0)
(-0.00016793421 -1.7327866e-005 0 0.00016714373 0 0)
(-0.00015090763 -5.6573221e-006 0 0.00015025429 0 0)
(-0.00015126099 4.8189797e-006 0 0.00015053698 0 0)
(-0.00017204936 1.8931624e-005 0 0.00017122022 0 0)
(-0.00021452824 3.5972937e-005 0 0.00021327072 0 0)
(-0.00028377259 5.7994307e-005 0 0.0002811438 0 0)
(-0.00040143648 9.1569102e-005 0 0.00039668656 0 0)
(-0.00057666062 0.00014125702 0 0.00056711032 0 0)
(-0.00084366241 0.00021791704 0 0.00082220827 0 0)
(-0.0012726119 0.00034190856 0 0.0012255335 0 0)
(-0.0019503164 0.00054655093 0 0.001846776 0 0)
(-0.0029927121 0.00083925189 0 0.0027300318 0 0)
(-0.004601043 0.0013415032 0 0.0040790509 0 0)
(-0.0068930024 0.0019455802 0 0.0055965015 0 0)
(-0.0100222 0.0027883298 0 0.0078374152 0 0)
(-0.013921638 0.0040581789 0 0.0093185819 0 0)
(-0.016545269 0.0029465185 0 0.011377192 0 0)
(-0.00042231713 0.00019542581 0 0.00040517293 0 0)
(-0.0005486972 2.1737191e-005 0 0.00056059528 0 0)
(-0.000576137 -4.6274748e-005 0 0.00055519266 0 0)
(-0.00049273871 -7.2451832e-005 0 0.00049121178 0 0)
(-0.00041120943 -7.616931e-005 0 0.00040445036 0 0)
(-0.00032877884 -7.0428756e-005 0 0.00032636454 0 0)
(-0.00025288814 -5.5306229e-005 0 0.00025081222 0 0)
(-0.00020210086 -4.1064379e-005 0 0.00020091359 0 0)
(-0.0001646412 -2.5073166e-005 0 0.0001638537 0 0)
(-0.00014753203 -8.8988071e-006 0 0.00014691027 0 0)
(-0.00014755839 5.9183946e-006 0 0.00014686194 0 0)
(-0.00016728575 2.5347969e-005 0 0.00016647348 0 0)
(-0.00020859145 4.9099453e-005 0 0.00020738124 0 0)
(-0.00027530001 7.9523885e-005 0 0.0002727037 0 0)
(-0.00038912126 0.00012608469 0 0.00038443087 0 0)
(-0.0005578647 0.00019456851 0 0.00054842934 0 0)
(-0.00081382335 0.00030049295 0 0.00079250941 0 0)
(-0.0012235308 0.00047195861 0 0.0011767974 0 0)
(-0.0018656859 0.00075405956 0 0.0017630717 0 0)
(-0.0028545371 0.0011528388 0 0.0025948929 0 0)
(-0.0043604489 0.0018449238 0 0.0038475849 0 0)
(-0.0065273435 0.0026796831 0 0.0052502521 0 0)
(-0.009420019 0.0038766954 0 0.0073106824 0 0)
(-0.013483476 0.0055531129 0 0.0087485203 0 0)
(-0.015708414 0.0041521099 0 0.010851313 0 0)
(-0.00043004174 0.0002519048 0 0.0004119526 0 0)
(-0.00055643706 2.6282847e-005 0 0.00056814245 0 0)
(-0.00058283044 -6.2106983e-005 0 0.00056178075 0 0)
(-0.00049494073 -9.5620805e-005 0 0.00049305713 0 0)
(-0.00040958134 -0.00010014945 0 0.00040288743 0 0)
(-0.00032565941 -9.2326213e-005 0 0.00032312523 0 0)
(-0.00024876616 -7.25764e-005 0 0.00024669776 0 0)
(-0.00019732431 -5.3849869e-005 0 0.00019620317 0 0)
(-0.00016029469 -3.3308107e-005 0 0.00015949715 0 0)
(-0.00014306646 -1.2881226e-005 0 0.00014249364 0 0)
(-0.00014254757 6.2616756e-006 0 0.00014188611 0 0)
(-0.00016125214 3.1009619e-005 0 0.00016048135 0 0)
(-0.00020063468 6.1092607e-005 0 0.00019948652 0 0)
(-0.00026428224 9.95533e-005 0 0.00026173594 0 0)
(-0.00037293665 0.00015845711 0 0.00036833434 0 0)
(-0.00053319096 0.00024489033 0 0.00052388622 0 0)
(-0.00077510978 0.00037791293 0 0.00075399421 0 0)
(-0.0011603247 0.00059238604 0 0.0011140844 0 0)
(-0.0017582946 0.0009430771 0 0.0016573876 0 0)
(-0.0026738516 0.0014432057 0 0.0024183557 0 0)
(-0.0040455258 0.0023052146 0 0.0035462229 0 0)
(-0.0060616578 0.0033489051 0 0.0048116806 0 0)
(-0.0086260677 0.004894526 0 0.0066018581 0 0)
(-0.012746277 0.0071914913 0 0.0078912543 0 0)
(-0.014752623 0.0053380702 0 0.010298629 0 0)
(-0.00044049023 0.00030851215 0 0.00042113989 0 0)
(-0.00056641403 2.9738139e-005 0 0.00057794717 0 0)
(-0.00059125275 -7.9408723e-005 0 0.00056995902 0 0)
(-0.0004976492 -0.00012057742 0 0.00049535577 0 0)
(-0.00040739029 -0.00012535477 0 0.00040075285 0 0)
(-0.00032163353 -0.00011514626 0 0.00031896266 0 0)
(-0.00024350562 -9.0718637e-005 0 0.00024145123 0 0)
(-0.00019140751 -6.7136335e-005 0 0.00019032898 0 0)
(-0.00015485805 -4.1974811e-005 0 0.00015405825 0 0)
(-0.00013749916 -1.7668686e-005 0 0.0001369845 0 0)
(-0.00013650359 6.1598301e-006 0 0.00013589713 0 0)
(-0.00015344309 3.5352854e-005 0 0.00015270415 0 0)
(-0.0001910969 7.2130161e-005 0 0.00019001849 0 0)
(-0.00025083 0.00011785173 0 0.00024836257 0 0)
(-0.00035306812 0.00018830115 0 0.00034854922 0 0)
(-0.00050333976 0.00029152495 0 0.00049418693 0 0)
(-0.0007280162 0.00044968906 0 0.00070718121 0 0)
(-0.0010835964 0.00070367584 0 0.0010379543 0 0)
(-0.0016266927 0.0011183144 0 0.0015275511 0 0)
(-0.0024525548 0.0017069037 0 0.0022030243 0 0)
(-0.0036553308 0.0027235795 0 0.0031732091 0 0)
(-0.0054907162 0.003958564 0 0.0042687875 0 0)
(-0.0075759457 0.0058943423 0 0.0056439727 0 0)
(-0.011955482 0.0085358143 0 0.0069396328 0 0)
(-0.01272784 0.006171154 0 0.0091328936 0 0)
(-0.00045417751 0.00036525936 0 0.00043349068 0 0)
(-0.00057864378 3.1834239e-005 0 0.00058969369 0 0)
(-0.00060147058 -9.8382513e-005 0 0.00057998929 0 0)
(-0.0005008288 -0.00014742531 0 0.00049800632 0 0)
(-0.00040446631 -0.00015161798 0 0.00039784248 0 0)
(-0.00031666428 -0.00013870535 0 0.00031382334 0 0)
(-0.00023712611 -0.00010930649 0 0.00023509257 0 0)
(-0.00018435203 -8.0740046e-005 0 0.00018328091 0 0)
(-0.00014831327 -5.0976545e-005 0 0.00014749992 0 0)
(-0.00013084578 -2.2893782e-005 0 0.00013039906 0 0)
(-0.00012911569 5.2247589e-006 0 0.00012854398 0 0)
(-0.00014475933 3.9391696e-005 0 0.00014406115 0 0)
(-0.00017958172 8.1828872e-005 0 0.00017859566 0 0)
(-0.00023496741 0.00013445804 0 0.00023255328 0 0)
(-0.00032978444 0.00021570908 0 0.00032531937 0 0)
(-0.00046826242 0.00033453655 0 0.00045925287 0 0)
(-0.00067369043 0.00051472553 0 0.00065313502 0 0)
(-0.00099528751 0.0008032753 0 0.00095026653 0 0)
(-0.0014781587 0.0012709487 0 0.0013809763 0 0)
(-0.0022044953 0.0019303214 0 0.001962398 0 0)
(-0.0032021927 0.0030834556 0 0.0027407873 0 0)
(-0.0048385442 0.0044627591 0 0.0036480262 0 0)
(-0.0063707917 0.0067407624 0 0.0045488941 0 0)
(-0.011130137 0.0094700343 0 0.0060210812 0 0)
(-0.0095056483 0.007580243 0 0.0065191121 0 0)
(-0.0004718745 0.00042241178 0 0.0004496904 0 0)
(-0.00059276551 3.2391982e-005 0 0.00060324274 0 0)
(-0.0006135133 -0.00011891131 0 0.00059185928 0 0)
(-0.00050437815 -0.00017621124 0 0.00050086171 0 0)
(-0.00040053824 -0.0001788393 0 0.00039385894 0 0)
(-0.00031060541 -0.00016285221 0 0.00030751943 0 0)
(-0.00022939858 -0.00012813416 0 0.00022734847 0 0)
(-0.00017619681 -9.4280674e-005 0 0.00017513675 0 0)
(-0.00014074536 -5.9725466e-005 0 0.0001398931 0 0)
(-0.00012314775 -2.8453354e-005 0 0.00012273559 0 0)
(-0.00012088505 5.0201998e-006 0 0.00012038839 0 0)
(-0.00013420205 4.1963574e-005 0 0.00013355497 0 0)
(-0.00016679386 9.1107408e-005 0 0.00016586024 0 0)
(-0.00021703565 0.00014961776 0 0.00021469345 0 0)
(-0.00030329149 0.00024051798 0 0.00029899788 0 0)
(-0.00042866409 0.0003733572 0 0.00041987861 0 0)
(-0.00061188979 0.00057354732 0 0.00059154215 0 0)
(-0.00089515801 0.00089196936 0 0.00085078133 0 0)
(-0.0013085007 0.0014062723 0 0.0012134299 0 0)
(-0.0019279532 0.002115871 0 0.0016908809 0 0)
(-0.0026726814 0.0033902484 0 0.0022340557 0 0)
(-0.0040782784 0.0048589017 0 0.0029192732 0 0)
(-0.0048674743 0.0075112244 0 0.0031515004 0 0)
(-0.0093287591 0.010730366 0 0.0042796028 0 0)
(-0.0069744692 0.0084811519 0 0.0043852706 0 0)
(-0.00049457948 0.00047996482 0 0.00046868972 0 0)
(-0.00060879806 3.1719488e-005 0 0.00062152107 0 0)
(-0.00062748902 -0.0001408021 0 0.00060421675 0 0)
(-0.00050810939 -0.00020630312 0 0.00050394264 0 0)
(-0.00039521606 -0.00020665081 0 0.00038880811 0 0)
(-0.00030335691 -0.0001858615 0 0.00029982568 0 0)
(-0.00022053802 -0.00014663443 0 0.00021851766 0 0)
(-0.0001666612 -0.00010696299 0 0.00016574509 0 0)
(-0.00013188809 -6.7646637e-005 0 0.00013104934 0 0)
(-0.0001145078 -3.3455877e-005 0 0.00011416856 0 0)
(-0.00011125269 4.3176314e-006 0 0.00011082244 0 0)
(-0.00012311781 4.5817852e-005 0 0.0001225558 0 0)
(-0.00015225752 9.9879612e-005 0 0.00015150094 0 0)
(-0.00019691993 0.00016368786 0 0.00019475916 0 0)
(-0.00027352187 0.00026302517 0 0.00026942917 0 0)
(-0.00038437307 0.00040942626 0 0.00037605357 0 0)
(-0.0005445155 0.00062452558 0 0.00052472879 0 0)
(-0.00078561787 0.00096782323 0 0.00074290942 0 0)
(-0.0011262083 0.0015190663 0 0.0010351894 0 0)
(-0.001638303 0.0022448776 0 0.0014058813 0 0)
(-0.0021129738 0.0036188013 0 0.0017161144 0 0)
(-0.0032351695 0.0050624986 0 0.0021169271 0 0)
(-0.0030664273 0.0080236865 0 0.0015612421 0 0)
(-0.007205015 0.011196627 0 0.0023396321 0 0)
(-0.00091404115 0.011448225 0 -0.0021355872 0 0)
(-0.00052274477 0.0005386324 0 0.00048597741 0 0)
(-0.00062681852 3.0491289e-005 0 0.00065076426 0 0)
(-0.00064305013 -0.00016392998 0 0.0006139121 0 0)
(-0.00051167785 -0.00023765565 0 0.00050730496 0 0)
(-0.0003879909 -0.00023363789 0 0.0003822963 0 0)
(-0.00029424224 -0.0002083533 0 0.00029082056 0 0)
(-0.00021030885 -0.00016337517 0 0.00020857657 0 0)
(-0.00015613894 -0.00011747835 0 0.00015562973 0 0)
(-0.00012192163 -7.3514484e-005 0 0.00012141046 0 0)
(-0.00010484979 -3.6608739e-005 0 0.00010485383 0 0)
(-0.00010096681 6.8384556e-006 0 0.00010089854 0 0)
(-0.00011029756 4.9370863e-005 0 0.00011004967 0 0)
(-0.00013658302 0.00010960706 0 0.00013610781 0 0)
(-0.00017521886 0.00017836073 0 0.00017343092 0 0)
(-0.00024248776 0.00028517801 0 0.00023898993 0 0)
(-0.00033767073 0.00044116715 0 0.00033015982 0 0)
(-0.00047036121 0.00066972792 0 0.00045113877 0 0)
(-0.00066735934 0.0010311606 0 0.00062606945 0 0)
(-0.00093145265 0.0016105921 0 0.0008455996 0 0)
(-0.0013084762 0.0023314337 0 0.0010797964 0 0)
(-0.0014956282 0.0037367753 0 0.0011454791 0 0)
(-0.0021517479 0.0051175706 0 0.001091046 0 0)
(-0.00090030937 0.0078301446 0 -0.00023911208 0 0)
(-0.0030276257 0.010227802 0 -0.0010517804 0 0)
(0.0028781196 0.012208324 0 -0.0076492508 0 0)
(-0.01383621 0.0005278292 0 0.0092530205 0 0)
(-0.0079187297 0.00094408126 0 0.0058290924 0 0)
(-0.0030716256 0.0013608915 0 0.0022582979 0 0)
(-0.00097277024 0.0016129845 0 0.00074155684 0 0)
(-0.00038255645 0.0017335869 0 0.00023695851 0 0)
(-0.00013803394 0.0017834729 0 3.7690495e-005 0 0)
(-9.1624432e-005 0.001795012 0 -6.1786911e-006 0 0)
(-7.9316981e-005 0.0017962665 0 -1.5402897e-005 0 0)
(-8.5422777e-005 0.0017952827 0 -9.1790694e-006 0 0)
(-8.99403e-005 0.0017942823 0 -4.34578e-006 0 0)
(-9.3841649e-005 0.0017936504 0 -4.1274161e-007 0 0)
(-9.4624718e-005 0.0017935136 0 4.4520424e-007 0 0)
(-9.4565095e-005 0.0017935315 0 3.7628864e-007 0 0)
(-9.4236271e-005 0.0017935651 0 4.8598743e-008 0 0)
(-9.4137956e-005 0.0017935735 0 -5.2589159e-008 0 0)
(-9.415109e-005 0.0017935689 0 -4.025574e-008 0 0)
(-9.4183525e-005 0.0017935633 0 -8.1553467e-009 0 0)
(-9.4192951e-005 0.0017935617 0 1.4169458e-009 0 0)
(-9.4194012e-005 0.0017935615 0 2.4206227e-009 0 0)
(-9.4191923e-005 0.0017935618 0 3.1202507e-010 0 0)
(-9.4191448e-005 0.0017935618 0 -1.9038388e-010 0 0)
(-9.4191983e-005 0.0017935618 0 3.1149263e-010 0 0)
(-9.4192162e-005 0.0017935617 0 7.6646932e-010 0 0)
(-9.4191669e-005 0.0017935618 0 1.7817309e-010 0 0)
(-9.4192513e-005 0.001793562 0 9.8439218e-011 0 0)
(-0.013363054 0.0016783764 0 0.0088940739 0 0)
(-0.0076591716 0.0028672263 0 0.0055311743 0 0)
(-0.003292284 0.004059897 0 0.0021278705 0 0)
(-0.001453065 0.0049150345 0 0.00065282942 0 0)
(-0.0010448545 0.0052406422 0 0.00020572354 0 0)
(-0.00087818033 0.0053581043 0 3.8026838e-005 0 0)
(-0.00085041361 0.0053832926 0 9.945765e-007 0 0)
(-0.00083730994 0.0053899229 0 -1.2234401e-005 0 0)
(-0.0008420826 0.0053871607 0 -7.5933214e-006 0 0)
(-0.00084519014 0.0053849292 0 -3.7538994e-006 0 0)
(-0.00084842946 0.0053832801 0 -3.0020441e-007 0 0)
(-0.00084915347 0.0053829464 0 4.6543707e-007 0 0)
(-0.00084903431 0.0053830291 0 3.3247247e-007 0 0)
(-0.0008487591 0.0053831283 0 5.3923218e-008 0 0)
(-0.00084866226 0.0053831548 0 -3.8878305e-008 0 0)
(-0.00084866243 0.0053831471 0 -3.1825781e-008 0 0)
(-0.00084868527 0.0053831352 0 -6.1448082e-009 0 0)
(-0.00084869326 0.0053831314 0 2.2880909e-009 0 0)
(-0.00084869298 0.0053831315 0 1.9981096e-009 0 0)
(-0.00084869142 0.005383132 0 3.6153588e-010 0 0)
(-0.00084869094 0.0053831323 0 -2.0877184e-010 0 0)
(-0.00084869151 0.0053831324 0 2.8527872e-010 0 0)
(-0.00084869154 0.0053831319 0 6.03271e-010 0 0)
(-0.00084869105 0.005383132 0 -3.6341531e-012 0 0)
(-0.00084869231 0.0053831332 0 -9.086389e-011 0 0)
(-0.012574037 0.0029013094 0 0.0083687508 0 0)
(-0.0070478495 0.00490127 0 0.0049352195 0 0)
(-0.0036886166 0.0071580315 0 0.0017090958 0 0)
(-0.0026857696 0.0082225393 0 0.00063524827 0 0)
(-0.0024623973 0.0086973402 0 0.00022712683 0 0)
(-0.0023711684 0.0089309746 0 4.4929008e-005 0 0)
(-0.0023637079 0.0089826152 0 -1.0881702e-006 0 0)
(-0.0023580528 0.0089875403 0 -8.3488723e-006 0 0)
(-0.0023591116 0.0089844236 0 -6.3744057e-006 0 0)
(-0.0023612894 0.008980046 0 -2.2815786e-006 0 0)
(-0.0023628497 0.0089781372 0 -8.5477953e-008 0 0)
(-0.0023632284 0.0089777876 0 4.0120868e-007 0 0)
(-0.0023631089 0.0089779193 0 2.5878838e-007 0 0)
(-0.0023628958 0.0089780751 0 2.8196228e-008 0 0)
(-0.0023628316 0.0089781052 0 -3.2842441e-008 0 0)
(-0.0023628304 0.0089780902 0 -2.2667105e-008 0 0)
(-0.0023628442 0.008978074 0 -3.3202379e-009 0 0)
(-0.0023628485 0.0089780695 0 2.0656554e-009 0 0)
(-0.0023628483 0.0089780696 0 1.5622914e-009 0 0)
(-0.0023628474 0.0089780708 0 1.7771679e-010 0 0)
(-0.0023628472 0.0089780711 0 -7.7976947e-011 0 0)
(-0.0023628472 0.0089780705 0 1.0154791e-010 0 0)
(-0.0023628475 0.0089780707 0 4.612252e-010 0 0)
(-0.0023628466 0.0089780704 0 -3.6403835e-010 0 0)
(-0.0023628482 0.0089780719 0 -4.5262165e-010 0 0)
(-0.01139939 0.0042617016 0 0.0074410986 0 0)
(-0.0061046937 0.0078578247 0 0.003561712 0 0)
(-0.0049146297 0.010012249 0 0.0016141047 0 0)
(-0.0043739681 0.011763669 0 0.00043528417 0 0)
(-0.0045452936 0.012367656 0 0.00010090154 0 0)
(-0.0046262409 0.012549198 0 2.3395928e-005 0 0)
(-0.0046507917 0.01258841 0 -1.0185421e-006 0 0)
(-0.0046484388 0.012589885 0 -4.9427485e-006 0 0)
(-0.0046475074 0.012584896 0 -3.5326143e-006 0 0)
(-0.0046471295 0.012579745 0 -9.9224765e-007 0 0)
(-0.0046473942 0.012577946 0 7.8407552e-008 0 0)
(-0.0046474656 0.012577736 0 2.5036477e-007 0 0)
(-0.0046474052 0.01257792 0 1.296534e-007 0 0)
(-0.0046473234 0.012578092 0 6.8145443e-009 0 0)
(-0.0046472943 0.012578117 0 -1.9229662e-008 0 0)
(-0.0046472891 0.012578097 0 -1.0010812e-008 0 0)
(-0.0046472921 0.012578081 0 -3.9265128e-010 0 0)
(-0.0046472933 0.012578077 0 1.5533505e-009 0 0)
(-0.0046472931 0.012578078 0 7.5960534e-010 0 0)
(-0.0046472928 0.012578079 0 1.8754996e-011 0 0)
(-0.0046472926 0.012578079 0 -5.3836826e-011 0 0)
(-0.0046472928 0.012578079 0 6.6436641e-011 0 0)
(-0.0046472929 0.012578079 0 1.1892488e-010 0 0)
(-0.0046472923 0.012578079 0 -5.9665051e-010 0 0)
(-0.0046472941 0.01257808 0 -6.356406e-010 0 0)
(-0.0094820886 0.0057474634 0 0.0059544139 0 0)
(-0.0062863237 0.010846056 0 0.0024574006 0 0)
(-0.0064123712 0.013513539 0 0.0010115511 0 0)
(-0.006985392 0.015387553 0 0.00026059589 0 0)
(-0.0075276036 0.015991631 0 5.9732651e-005 0 0)
(-0.0076868334 0.016160434 0 1.6812525e-005 0 0)
(-0.0077262773 0.01619204 0 1.4335028e-006 0 0)
(-0.0077244197 0.016190937 0 -2.9723557e-007 0 0)
(-0.0077205484 0.016185077 0 -3.1256291e-007 0 0)
(-0.0077176125 0.016180706 0 1.4134317e-007 0 0)
(-0.007716801 0.016179448 0 1.1884296e-007 0 0)
(-0.0077166563 0.016179406 0 1.9318713e-008 0 0)
(-0.0077167277 0.016179601 0 -1.4391107e-008 0 0)
(-0.0077167825 0.016179726 0 -8.6402474e-009 0 0)
(-0.0077167858 0.016179738 0 -9.8317761e-010 0 0)
(-0.0077167735 0.01617972 0 2.3971143e-009 0 0)
(-0.0077167665 0.016179708 0 1.56789e-009 0 0)
(-0.0077167647 0.016179706 0 3.9218984e-010 0 0)
(-0.0077167647 0.016179706 0 -5.9475236e-011 0 0)
(-0.0077167654 0.016179707 0 -4.6806998e-011 0 0)
(-0.0077167657 0.016179707 0 2.1390298e-011 0 0)
(-0.0077167656 0.016179707 0 -3.475624e-011 0 0)
(-0.0077167656 0.016179707 0 -4.046478e-011 0 0)
(-0.0077167651 0.016179707 0 -6.1631557e-010 0 0)
(-0.0077167664 0.016179707 0 -6.9154972e-010 0 0)
(-0.0074898905 0.0088210518 0 0.0035963009 0 0)
(-0.006859647 0.014177508 0 0.0011876165 0 0)
(-0.0090731226 0.017509271 0 0.00033955448 0 0)
(-0.010705133 0.019210165 0 9.176444e-005 0 0)
(-0.011415995 0.01966613 0 1.5807623e-005 0 0)
(-0.011571782 0.019777829 0 6.1482722e-006 0 0)
(-0.011602687 0.019789026 0 3.9732758e-006 0 0)
(-0.011598931 0.019785634 0 4.5777211e-006 0 0)
(-0.01159093 0.019780339 0 2.4196612e-006 0 0)
(-0.01158612 0.019777796 0 8.8932764e-007 0 0)
(-0.011584628 0.019777224 0 1.1400827e-008 0 0)
(-0.011584379 0.019777268 0 -2.2409222e-007 0 0)
(-0.011584602 0.019777375 0 -1.1784645e-007 0 0)
(-0.011584755 0.019777427 0 -7.4670333e-009 0 0)
(-0.011584782 0.01977743 0 1.9827233e-008 0 0)
(-0.011584763 0.019777422 0 1.2222852e-008 0 0)
(-0.011584748 0.019777417 0 2.0390971e-009 0 0)
(-0.011584745 0.019777416 0 -9.5803998e-010 0 0)
(-0.011584745 0.019777416 0 -6.7968823e-010 0 0)
(-0.011584746 0.019777416 0 -6.7535241e-011 0 0)
(-0.011584746 0.019777416 0 6.5515374e-011 0 0)
(-0.011584746 0.019777416 0 -1.3773959e-010 0 0)
(-0.011584747 0.019777417 0 -4.8738203e-011 0 0)
(-0.011584747 0.019777417 0 -4.2359484e-010 0 0)
(-0.011584747 0.019777416 0 -4.8918468e-010 0 0)
(-0.0065122776 0.01149363 0 0.0014174597 0 0)
(-0.0089001359 0.018823044 0 -0.00038150358 0 0)
(-0.013593948 0.021822578 0 -0.00014738799 0 0)
(-0.015520335 0.023059624 0 -1.2891216e-005 0 0)
(-0.016153203 0.023311538 0 2.8069387e-006 0 0)
(-0.016253847 0.023367435 0 7.2745057e-006 0 0)
(-0.016274875 0.023368725 0 8.9875256e-006 0 0)
(-0.016270655 0.023367486 0 8.570085e-006 0 0)
(-0.01626272 0.023366189 0 4.0879727e-006 0 0)
(-0.016257786 0.023366071 0 1.1216696e-006 0 0)
(-0.016256071 0.023366037 0 -1.7505458e-007 0 0)
(-0.016255751 0.023365996 0 -3.8465087e-007 0 0)
(-0.016255989 0.02336594 0 -1.8369072e-007 0 0)
(-0.016256213 0.023365917 0 4.0137756e-009 0 0)
(-0.016256257 0.023365923 0 3.5249994e-008 0 0)
(-0.016256239 0.023365929 0 1.8438087e-008 0 0)
(-0.016256219 0.023365931 0 1.5328029e-009 0 0)
(-0.016256213 0.02336593 0 -2.0527497e-009 0 0)
(-0.016256214 0.023365929 0 -9.3569159e-010 0 0)
(-0.016256215 0.023365929 0 -3.4966146e-011 0 0)
(-0.016256216 0.023365929 0 7.1597116e-011 0 0)
(-0.016256216 0.02336593 0 -2.6852613e-010 0 0)
(-0.016256216 0.02336593 0 -1.5076817e-010 0 0)
(-0.016256217 0.02336593 0 3.8963378e-011 0 0)
(-0.016256216 0.023365928 0 2.0736566e-011 0 0)
(-0.0065165278 0.016205555 0 -0.0018077328 0 0)
(-0.013511626 0.024180979 0 -0.001766651 0 0)
(-0.019834575 0.026196323 0 -0.0003798336 0 0)
(-0.021206753 0.026833993 0 -6.4680334e-005 0 0)
(-0.021668951 0.026906611 0 3.9935613e-006 0 0)
(-0.02170279 0.026925616 0 1.0846593e-005 0 0)
(-0.021729521 0.026929229 0 1.2277854e-005 0 0)
(-0.021728932 0.026935448 0 8.7206599e-006 0 0)
(-0.021726104 0.026938343 0 4.0765019e-006 0 0)
(-0.021722759 0.026939896 0 1.1153899e-006 0 0)
(-0.021720734 0.026940082 0 -3.255445e-007 0 0)
(-0.021720272 0.026939778 0 -4.088197e-007 0 0)
(-0.021720491 0.026939576 0 -1.4403654e-007 0 0)
(-0.021720688 0.026939531 0 1.4532972e-008 0 0)
(-0.021720751 0.026939554 0 3.915016e-008 0 0)
(-0.021720735 0.026939574 0 1.5427936e-008 0 0)
(-0.021720717 0.026939579 0 5.2612627e-010 0 0)
(-0.021720711 0.026939578 0 -2.3883847e-009 0 0)
(-0.021720712 0.026939576 0 -8.0746918e-010 0 0)
(-0.021720713 0.026939576 0 5.6229779e-011 0 0)
(-0.021720714 0.026939576 0 3.2103293e-011 0 0)
(-0.021720714 0.026939577 0 -3.9300209e-010 0 0)
(-0.021720714 0.026939577 0 -4.0937091e-010 0 0)
(-0.021720715 0.026939577 0 5.5300615e-010 0 0)
(-0.021720713 0.026939576 0 6.2819963e-010 0 0)
(-0.011872784 0.025147231 0 -0.0053433703 0 0)
(-0.021848271 0.030260698 0 -0.0028075107 0 0)
(-0.027302577 0.030445885 0 -0.00037979392 0 0)
(-0.027603374 0.030464825 0 -7.5787116e-005 0 0)
(-0.027863089 0.030433828 0 2.1295403e-005 0 0)
(-0.027894095 0.03045636 0 1.192532e-005 0 0)
(-0.027945184 0.030471191 0 1.2057249e-005 0 0)
(-0.02795432 0.030484215 0 6.5357195e-006 0 0)
(-0.027958168 0.030490552 0 3.0267192e-006 0 0)
(-0.027955782 0.030492867 0 4.4280688e-007 0 0)
(-0.02795397 0.030492687 0 -3.2893582e-007 0 0)
(-0.027953241 0.030492124 0 -3.0915785e-007 0 0)
(-0.027953321 0.030491836 0 -8.3628071e-008 0 0)
(-0.027953484 0.030491805 0 2.4664902e-008 0 0)
(-0.027953558 0.030491853 0 3.1514416e-008 0 0)
(-0.027953554 0.030491882 0 1.0062781e-008 0 0)
(-0.027953539 0.030491886 0 -7.9386612e-010 0 0)
(-0.027953533 0.030491883 0 -1.951828e-009 0 0)
(-0.027953534 0.030491881 0 -5.0085848e-010 0 0)
(-0.027953535 0.030491881 0 1.0072274e-010 0 0)
(-0.027953535 0.030491882 0 -3.2550996e-011 0 0)
(-0.027953535 0.030491882 0 -4.564965e-010 0 0)
(-0.027953535 0.030491882 0 -7.2365371e-010 0 0)
(-0.027953536 0.030491883 0 3.4401015e-010 0 0)
(-0.027953532 0.030491882 0 7.6791555e-010 0 0)
(-0.035303024 0.042470673 0 -0.0098782637 0 0)
(-0.033522369 0.0356378 0 -0.001863183 0 0)
(-0.039546053 0.036449011 0 -0.00021720193 0 0)
(-0.037913747 0.03556894 0 -2.7459654e-005 0 0)
(-0.038653085 0.035786955 0 1.9141775e-005 0 0)
(-0.038568651 0.035753763 0 4.8946354e-006 0 0)
(-0.038682533 0.035797084 0 4.8124996e-006 0 0)
(-0.03868628 0.035804384 0 2.2981704e-006 0 0)
(-0.038700574 0.035814238 0 1.1504153e-006 0 0)
(-0.038697865 0.035815484 0 1.1731659e-007 0 0)
(-0.038696838 0.035815338 0 -1.29374e-007 0 0)
(-0.038695759 0.03581463 0 -1.1164047e-007 0 0)
(-0.038695726 0.035814392 0 -2.5273748e-008 0 0)
(-0.038695846 0.035814394 0 1.3433829e-008 0 0)
(-0.038695949 0.035814463 0 1.2441092e-008 0 0)
(-0.038695963 0.035814491 0 3.3225757e-009 0 0)
(-0.038695955 0.035814493 0 -6.8142024e-010 0 0)
(-0.038695948 0.035814489 0 -8.3228238e-010 0 0)
(-0.038695948 0.035814487 0 -1.7601692e-010 0 0)
(-0.038695949 0.035814487 0 3.1869949e-011 0 0)
(-0.038695949 0.035814487 0 -9.467468e-011 0 0)
(-0.038695948 0.035814487 0 -3.3225728e-010 0 0)
(-0.038695946 0.035814487 0 -6.9862184e-010 0 0)
(-0.038695945 0.035814486 0 1.8977424e-010 0 0)
(-0.03869594 0.035814487 0 7.9007696e-010 0 0)
(-0.00059010736 0.0006682653 0 0.00053330597 0 0)
(-0.00066565122 2.8186945e-005 0 0.00071797079 0 0)
(-0.00067561255 -0.00021281555 0 0.00063555051 0 0)
(-0.00051622377 -0.00029163915 0 0.00050822722 0 0)
(-0.00037619016 -0.00027886869 0 0.00036913648 0 0)
(-0.00026969012 -0.00023876118 0 0.00026495937 0 0)
(-0.00018688591 -0.00018155767 0 0.00018375784 0 0)
(-0.00013363504 -0.00012572203 0 0.00013214698 0 0)
(-0.00010030668 -7.223678e-005 0 9.8860009e-005 0 0)
(-8.3874628e-005 -2.9279444e-005 0 8.3282741e-005 0 0)
(-7.8272725e-005 2.2344907e-005 0 7.7797736e-005 0 0)
(-8.4885195e-005 7.0964779e-005 0 8.3548459e-005 0 0)
(-0.00010255657 0.0001371396 0 0.00010140634 0 0)
(-0.00012931266 0.0002119241 0 0.00012624423 0 0)
(-0.00017558305 0.00033135013 0 0.00017077107 0 0)
(-0.00024018045 0.00050503947 0 0.00023167486 0 0)
(-0.00032329888 0.00074408412 0 0.00030073567 0 0)
(-0.00044314944 0.0011207291 0 0.00039915547 0 0)
(-0.00054998811 0.0017228583 0 0.00047220161 0 0)
(-0.00070127261 0.0024137982 0 0.0004944846 0 0)
(-0.00061695006 0.003706376 0 0.00032605012 0 0)
(-0.00050339246 0.0048840418 0 -0.00036921589 0 0)
(0.0013595363 0.0069614135 0 -0.0020190195 0 0)
(0.0019143068 0.0076852526 0 -0.004397237 0 0)
(0.0098410323 0.0074109196 0 -0.012988637 0 0)
(-0.00072997986 0.00090081433 0 0.00064216564 0 0)
(-0.00074758099 1.7328906e-005 0 0.00081767408 0 0)
(-0.0007203204 -0.00029299865 0 0.00066923971 0 0)
(-0.00050642491 -0.00035795729 0 0.00049497315 0 0)
(-0.00033755061 -0.00032310003 0 0.00033162044 0 0)
(-0.00021717957 -0.00025168067 0 0.00021332775 0 0)
(-0.00013816721 -0.00017379705 0 0.00013627607 0 0)
(-8.7122049e-005 -9.8754899e-005 0 8.7277994e-005 0 0)
(-5.950964e-005 -3.4336297e-005 0 5.9253174e-005 0 0)
(-4.5205156e-005 1.8865577e-005 0 4.5176946e-005 0 0)
(-3.8459605e-005 7.5109957e-005 0 3.8160773e-005 0 0)
(-3.8601787e-005 0.0001342153 0 3.8071671e-005 0 0)
(-4.3332012e-005 0.00020254561 0 4.3578633e-005 0 0)
(-5.2857483e-005 0.00028833097 0 5.0615566e-005 0 0)
(-6.7160288e-005 0.00040813155 0 6.054452e-005 0 0)
(-8.1699657e-005 0.00059667452 0 7.5289648e-005 0 0)
(-9.2957089e-005 0.00083551331 0 7.4986153e-005 0 0)
(-9.7438187e-005 0.0011885827 0 5.2748816e-005 0 0)
(-3.3517237e-005 0.0017585767 0 -3.6856108e-005 0 0)
(9.8140432e-005 0.0023542485 0 -0.00027893106 0 0)
(0.00059335296 0.0032256311 0 -0.00086574974 0 0)
(0.0012071855 0.003788247 0 -0.0019153006 0 0)
(0.003180559 0.0042920308 0 -0.003924689 0 0)
(0.0052091547 0.0020102897 0 -0.0074161142 0 0)
(0.0063120123 -0.001078614 0 -0.0092028906 0 0)
(-0.00091212573 0.0011804635 0 0.00079638382 0 0)
(-0.00082592693 2.5779959e-006 0 0.0009036108 0 0)
(-0.00073113408 -0.00034972089 0 0.00067327352 0 0)
(-0.00045735675 -0.0003719856 0 0.00044453501 0 0)
(-0.00026304655 -0.0002881752 0 0.00025909512 0 0)
(-0.00014251367 -0.0001761616 0 0.00013952367 0 0)
(-7.4236095e-005 -7.6296524e-005 0 7.3041219e-005 0 0)
(-3.1776813e-005 1.7825047e-005 0 3.1883266e-005 0 0)
(-1.2004362e-005 9.3416744e-005 0 1.1977271e-005 0 0)
(-2.4294001e-006 0.0001521183 0 1.7825353e-006 0 0)
(4.5889033e-006 0.00021226922 0 -5.319101e-006 0 0)
(9.3538163e-006 0.00026706007 0 -1.103218e-005 0 0)
(1.5508226e-005 0.00034120328 0 -1.8423503e-005 0 0)
(2.6531304e-005 0.0004296523 0 -2.9167375e-005 0 0)
(3.8744577e-005 0.00053602323 0 -4.8078328e-005 0 0)
(6.8210112e-005 0.00071022689 0 -8.0959841e-005 0 0)
(0.00012643747 0.00095146605 0 -0.00014574292 0 0)
(0.00020532087 0.0012492271 0 -0.00025459774 0 0)
(0.00041002727 0.0017235732 0 -0.00048650996 0 0)
(0.00069475999 0.0021947022 0 -0.00085079721 0 0)
(0.0012873967 0.0027559144 0 -0.0015194777 0 0)
(0.0021013994 0.0029756546 0 -0.0025504916 0 0)
(0.0034914965 0.0028015485 0 -0.0038776697 0 0)
(0.0046580074 0.00072097108 0 -0.0054029699 0 0)
(0.0035597048 -0.0026299584 0 -0.0036957995 0 0)
(-0.0011163563 0.0015278538 0 0.00096083872 0 0)
(-0.00084524293 -7.2249145e-006 0 0.0009287376 0 0)
(-0.0006582534 -0.00034761603 0 0.00059519286 0 0)