/*--------------------------------*- C++ -*----------------------------------*\
| =========                 |                                                 |
| \\      /  F ield         | OpenFOAM: The Open Source CFD Toolbox           |
|  \\    /   O peration     | Version:  5.x                                   |
|   \\  /    A nd           | Web:      www.OpenFOAM.org                      |
|    \\/     M anipulation  |                                                 |
\*---------------------------------------------------------------------------*/
/*   Windows 32 and 64 bit porting by blueCAPE: http://www.bluecape.com.pt   *\
|  Based on Windows porting (2.0.x v4) by Symscape: http://www.symscape.com   |
\*---------------------------------------------------------------------------*/
FoamFile
{
    version     2.0;
    format      ascii;
    class       volSymmTensorField;
    location    "0.23";
    object      sigma;
}
// * * * * * * * * * * * * * * * * * * * * * * * * * * * * * * * * * * * * * //

dimensions      [0 2 -2 0 0 0 0];

internalField   nonuniform List<symmTensor> 
750
(
(-0.00041110145 2.7527551e-005 0 0.00039921485 0 0)
(-0.00053885242 3.3136317e-006 0 0.00054405789 0 0)
(-0.00056649675 -5.9682117e-006 0 0.00054995106 0 0)
(-0.00049024117 -1.0154511e-005 0 0.00048738475 0 0)
(-0.00041290534 -1.0453328e-005 0 0.0004069301 0 0)
(-0.00033443606 -9.782356e-006 0 0.00033185075 0 0)
(-0.00025978136 -7.7780786e-006 0 0.00025770617 0 0)
(-0.0002084366 -5.7539155e-006 0 0.00020734161 0 0)
(-0.000171231 -3.3983348e-006 0 0.00017045837 0 0)
(-0.00015431083 -1.0678935e-006 0 0.00015365866 0 0)
(-0.000155144 1.0239388e-006 0 0.00015442545 0 0)
(-0.0001766902 3.8592676e-006 0 0.00017586087 0 0)
(-0.00022052306 7.3312521e-006 0 0.00021926961 0 0)
(-0.00029254278 1.1806728e-005 0 0.00028999475 0 0)
(-0.00041373029 1.8588116e-005 0 0.00040904478 0 0)
(-0.00059545348 2.8784849e-005 0 0.0005859814 0 0)
(-0.00087422587 4.4567044e-005 0 0.00085309555 0 0)
(-0.0013222211 7.0016331e-005 0 0.0012753499 0 0)
(-0.0020326073 0.00011302764 0 0.0019284779 0 0)
(-0.0031417332 0.00017437833 0 0.0028795237 0 0)
(-0.0048235878 0.0002749223 0 0.0042874622 0 0)
(-0.0072959766 0.0004089645 0 0.0059961119 0 0)
(-0.01054561 0.00056198833 0 0.008269606 0 0)
(-0.014333656 0.00080649036 0 0.010057641 0 0)
(-0.017727536 0.00058626948 0 0.011888166 0 0)
(-0.00041349654 8.3020095e-005 0 0.00039867021 0 0)
(-0.00053995035 1.0048057e-005 0 0.00055012061 0 0)
(-0.00056829045 -1.8486338e-005 0 0.00054879602 0 0)
(-0.00049038729 -3.0331904e-005 0 0.00048880857 0 0)
(-0.00041330543 -3.1624367e-005 0 0.00040658794 0 0)
(-0.00033298847 -2.9355324e-005 0 0.00033065955 0 0)
(-0.00025831409 -2.3240968e-005 0 0.00025622525 0 0)
(-0.00020790426 -1.7201037e-005 0 0.00020655615 0 0)
(-0.00017022007 -1.0204402e-005 0 0.00016935586 0 0)
(-0.00015320376 -3.1774306e-006 0 0.00015247106 0 0)
(-0.00015385269 3.0846236e-006 0 0.00015304743 0 0)
(-0.00017511345 1.1576007e-005 0 0.00017418407 0 0)
(-0.00021854061 2.1918919e-005 0 0.00021715544 0 0)
(-0.00028953448 3.5250087e-005 0 0.00028675027 0 0)
(-0.00040968586 5.5518065e-005 0 0.00040469109 0 0)
(-0.00058922725 8.5723113e-005 0 0.00057928478 0 0)
(-0.00086390086 0.00013239387 0 0.00084186035 0 0)
(-0.0013055417 0.00020777697 0 0.0012573182 0 0)
(-0.0020054656 0.00033409796 0 0.0018995933 0 0)
(-0.0030900594 0.00050540304 0 0.0028236539 0 0)
(-0.0047535489 0.00082496844 0 0.0042191792 0 0)
(-0.0071483474 0.0011630164 0 0.0058363749 0 0)
(-0.010396551 0.0016778436 0 0.0081539255 0 0)
(-0.014131544 0.0024958581 0 0.009735428 0 0)
(-0.017345709 0.0018080412 0 0.011761316 0 0)
(-0.00041713682 0.00013906401 0 0.00040067676 0 0)
(-0.00054338804 1.622139e-005 0 0.00055534824 0 0)
(-0.00057159711 -3.1867349e-005 0 0.00055075231 0 0)
(-0.00049143421 -5.0761198e-005 0 0.00049016524 0 0)
(-0.00041269086 -5.3395865e-005 0 0.00040582308 0 0)
(-0.0003313426 -4.9492404e-005 0 0.00032905735 0 0)
(-0.0002561211 -3.8975809e-005 0 0.00025407211 0 0)
(-0.00020576778 -2.8900049e-005 0 0.00020449543 0 0)
(-0.00016801948 -1.7372617e-005 0 0.00016722833 0 0)
(-0.00015096093 -5.6955052e-006 0 0.00015030677 0 0)
(-0.00015129763 4.7893005e-006 0 0.0001505734 0 0)
(-0.00017207139 1.8905315e-005 0 0.00017124224 0 0)
(-0.00021453793 3.595012e-005 0 0.00021327997 0 0)
(-0.00028378938 5.7977971e-005 0 0.0002811603 0 0)
(-0.00040147066 9.1562463e-005 0 0.00039672047 0 0)
(-0.00057671621 0.00014126205 0 0.00056716327 0 0)
(-0.00084379308 0.00021794626 0 0.00082233284 0 0)
(-0.001272841 0.00034195874 0 0.0012257452 0 0)
(-0.0019506373 0.00054660464 0 0.0018470579 0 0)
(-0.0029929968 0.00083926601 0 0.0027302591 0 0)
(-0.0046010261 0.0013414515 0 0.0040789993 0 0)
(-0.006892396 0.0019454549 0 0.0055960256 0 0)
(-0.010020962 0.0027882695 0 0.0078366152 0 0)
(-0.013919967 0.004058011 0 0.0093177537 0 0)
(-0.016544444 0.0029466619 0 0.011376903 0 0)
(-0.00042259582 0.00019554537 0 0.00040543374 0 0)
(-0.0005490758 2.1737751e-005 0 0.00056097837 0 0)
(-0.00057655846 -4.6331568e-005 0 0.00055559038 0 0)
(-0.00049312039 -7.253626e-005 0 0.00049158709 0 0)
(-0.00041153999 -7.6266243e-005 0 0.00040477026 0 0)
(-0.00032904673 -7.052756e-005 0 0.00032662803 0 0)
(-0.00025307607 -5.5393632e-005 0 0.00025099654 0 0)
(-0.00020223421 -4.1140788e-005 0 0.00020104509 0 0)
(-0.0001647243 -2.5135324e-005 0 0.0001639361 0 0)
(-0.00014758321 -8.9512754e-006 0 0.00014696072 0 0)
(-0.00014759317 5.8782557e-006 0 0.00014689655 0 0)
(-0.0001673055 2.5311528e-005 0 0.00016649322 0 0)
(-0.00020860049 4.9068736e-005 0 0.00020738985 0 0)
(-0.00027531453 7.9501596e-005 0 0.00027271809 0 0)
(-0.00038915256 0.00012607631 0 0.00038446196 0 0)
(-0.00055791561 0.00019457636 0 0.00054847777 0 0)
(-0.00081394488 0.00030053339 0 0.00079262512 0 0)
(-0.0012237464 0.00047202606 0 0.0011769963 0 0)
(-0.0018659881 0.00075413061 0 0.001763337 0 0)
(-0.0028547975 0.0011528729 0 0.0025950988 0 0)
(-0.0043604295 0.0018448635 0 0.0038475339 0 0)
(-0.0065267713 0.0026795151 0 0.0052498071 0 0)
(-0.0094188701 0.0038765513 0 0.0073099315 0 0)
(-0.013481782 0.0055532499 0 0.0087476157 0 0)
(-0.015707365 0.0041524091 0 0.010850794 0 0)
(-0.00043033511 0.00025205869 0 0.00041222653 0 0)
(-0.00055682875 2.6281527e-005 0 0.00056853842 0 0)
(-0.00058326224 -6.2180931e-005 0 0.00056218814 0 0)
(-0.00049532649 -9.5728654e-005 0 0.00049343605 0 0)
(-0.00040991106 -0.00010027263 0 0.00040320639 0 0)
(-0.00032592434 -9.2450921e-005 0 0.00032338548 0 0)
(-0.00024894921 -7.2685986e-005 0 0.00024687717 0 0)
(-0.00019745288 -5.3945151e-005 0 0.00019633001 0 0)
(-0.00016037509 -3.3385377e-005 0 0.0001595767 0 0)
(-0.00014311512 -1.2945868e-005 0 0.00014254161 0 0)
(-0.00014257897 6.2123333e-006 0 0.00014191737 0 0)
(-0.00016127069 3.0966586e-005 0 0.00016049994 0 0)
(-0.00020064166 6.1055521e-005 0 0.00019949319 0 0)
(-0.00026429362 9.9527085e-005 0 0.00026174714 0 0)
(-0.00037296497 0.00015844922 0 0.00036836249 0 0)
(-0.00053323571 0.0002449014 0 0.00052392882 0 0)
(-0.00077521925 0.00037796658 0 0.00075409827 0 0)
(-0.0011605201 0.00059247621 0 0.0011142639 0 0)
(-0.0017585697 0.00094317164 0 0.0016576279 0 0)
(-0.0026740866 0.0014432489 0 0.0024185454 0 0)
(-0.0040455015 0.0023051475 0 0.0035461755 0 0)
(-0.0060611345 0.0033487157 0 0.0048112811 0 0)
(-0.0086250416 0.0048943714 0 0.0066011703 0 0)
(-0.012744865 0.007191426 0 0.0078904819 0 0)
(-0.014751711 0.0053384624 0 0.010298102 0 0)
(-0.00044080311 0.00030870093 0 0.00042143132 0 0)
(-0.00056682127 2.9734776e-005 0 0.0005783584 0 0)
(-0.00059169624 -7.9498366e-005 0 0.00057037725 0 0)
(-0.00049803928 -0.00012070622 0 0.00049573843 0 0)
(-0.00040771869 -0.0001254989 0 0.00040107033 0 0)
(-0.00032189455 -0.00011529292 0 0.00031921878 0 0)
(-0.00024368251 -9.0846435e-005 0 0.00024162438 0 0)
(-0.00019153052 -6.724589e-005 0 0.00019045031 0 0)
(-0.00015493434 -4.2062911e-005 0 0.00015413363 0 0)
(-0.00013754487 -1.7742003e-005 0 0.0001370295 0 0)
(-0.00013653221 6.1073133e-006 0 0.00013592573 0 0)
(-0.00015345851 3.530554e-005 0 0.00015271975 0 0)
(-0.00019110147 7.2091107e-005 0 0.00019002268 0 0)
(-0.00025083867 0.00011782565 0 0.00024837113 0 0)
(-0.00035309171 0.00018829643 0 0.00034857294 0 0)
(-0.00050337685 0.00029154342 0 0.00049422173 0 0)
(-0.00072811156 0.00044975918 0 0.00070727133 0 0)
(-0.0010837702 0.00070378709 0 0.0010381131 0 0)
(-0.0016269413 0.0011184254 0 0.0015277665 0 0)
(-0.0024527612 0.0017069664 0 0.0022031928 0 0)
(-0.0036552944 0.0027235233 0 0.0031731589 0 0)
(-0.0054902666 0.0039583618 0 0.0042684499 0 0)
(-0.0075750712 0.0058941914 0 0.0056433588 0 0)
(-0.011954141 0.0085361457 0 0.0069386857 0 0)
(-0.012727121 0.0061717749 0 0.0091322516 0 0)
(-0.00045451492 0.00036548464 0 0.00043380418 0 0)
(-0.00057906798 3.1829607e-005 0 0.00059012125 0 0)
(-0.00060192652 -9.8485187e-005 0 0.00058041902 0 0)
(-0.00050122288 -0.00014757035 0 0.00049839228 0 0)
(-0.00040479209 -0.00015178009 0 0.00039815713 0 0)
(-0.00031692044 -0.00013886717 0 0.00031407428 0 0)
(-0.00023729659 -0.00010944565 0 0.00023525924 0 0)
(-0.0001844676 -8.0857527e-005 0 0.00018339483 0 0)
(-0.00014838416 -5.1068097e-005 0 0.00014756983 0 0)
(-0.00013088781 -2.2968061e-005 0 0.00013044051 0 0)
(-0.00012913961 5.1718586e-006 0 0.0001285679 0 0)
(-0.00014477229 3.9349192e-005 0 0.00014407416 0 0)
(-0.00017958502 8.1795405e-005 0 0.0001785988 0 0)
(-0.0002349712 0.00013443728 0 0.00023255722 0 0)
(-0.00032980159 0.00021571495 0 0.00032533664 0 0)
(-0.00046829096 0.00033456882 0 0.00045927901 0 0)
(-0.000673771 0.00051481459 0 0.00065321029 0 0)
(-0.00099543641 0.00080341269 0 0.0009504 0 0)
(-0.0014783626 0.0012710964 0 0.0013811486 0 0)
(-0.0022047083 0.0019303832 0 0.0019625652 0 0)
(-0.0032021709 0.0030834032 0 0.0027407512 0 0)
(-0.0048381569 0.004462581 0 0.0036477317 0 0)
(-0.0063700576 0.0067406448 0 0.0045483514 0 0)
(-0.011129417 0.0094699345 0 0.0060206282 0 0)
(-0.0095053663 0.0075808735 0 0.0065186745 0 0)
(-0.00047224125 0.00042267585 0 0.0004500299 0 0)
(-0.00059320612 3.238802e-005 0 0.00060368603 0 0)
(-0.00061398085 -0.00011902137 0 0.00059229954 0 0)
(-0.0005047753 -0.00017636625 0 0.00050124974 0 0)
(-0.0004008601 -0.00017900745 0 0.00039416939 0 0)
(-0.00031085552 -0.00016302039 0 0.00030776379 0 0)
(-0.00022956162 -0.00012827482 0 0.00022750773 0 0)
(-0.00017630446 -9.4395743e-005 0 0.0001752429 0 0)
(-0.00014081025 -5.9810235e-005 0 0.00013995693 0 0)
(-0.00012318528 -2.8520237e-005 0 0.00012277244 0 0)
(-0.00012090564 4.9816957e-006 0 0.00012040896 0 0)
(-0.00013421272 4.1934241e-005 0 0.00013356599 0 0)
(-0.00016679155 9.108459e-005 0 0.00016585772 0 0)
(-0.00021703523 0.0001496119 0 0.00021469288 0 0)
(-0.00030330485 0.00024054449 0 0.00029901169 0 0)
(-0.0004286813 0.00037340963 0 0.00041989381 0 0)
(-0.00061195 0.00057366358 0 0.00059159636 0 0)
(-0.00089527589 0.00089213882 0 0.0008508832 0 0)
(-0.001308662 0.001406456 0 0.0012135628 0 0)
(-0.0019280836 0.0021159892 0 0.0016909656 0 0)
(-0.0026726437 0.0033902278 0 0.0022339968 0 0)
(-0.0040779407 0.0048587589 0 0.0029190133 0 0)
(-0.0048668764 0.007511179 0 0.003151021 0 0)
(-0.0093279803 0.010730787 0 0.0042788251 0 0)
(-0.0069739226 0.0084819695 0 0.0043845706 0 0)
(-0.00049497986 0.00048027109 0 0.00046905785 0 0)
(-0.00060925331 3.1719827e-005 0 0.00062198094 0 0)
(-0.00062796611 -0.00014091196 0 0.00060466437 0 0)
(-0.0005085074 -0.00020645575 0 0.00050433104 0 0)
(-0.0003955313 -0.00020681547 0 0.0003891124 0 0)
(-0.00030360007 -0.00018602256 0 0.00030006308 0 0)
(-0.00022069204 -0.00014676441 0 0.00021866776 0 0)
(-0.00016676001 -0.00010706337 0 0.00016584272 0 0)
(-0.00013194533 -6.771228e-005 0 0.00013110573 0 0)
(-0.00011454016 -3.3501608e-005 0 0.00011420037 0 0)
(-0.00011126816 4.2994496e-006 0 0.00011083793 0 0)
(-0.00012312406 4.5812586e-005 0 0.00012256223 0 0)
(-0.00015225448 9.9885904e-005 0 0.00015149763 0 0)
(-0.00019691448 0.00016370741 0 0.00019475351 0 0)
(-0.00027352696 0.00026308141 0 0.00026943458 0 0)
(-0.00038438037 0.00040951061 0 0.0003760587 0 0)
(-0.00054455457 0.00062467664 0 0.00052476244 0 0)
(-0.00078569947 0.00096803259 0 0.00074297724 0 0)
(-0.0011263135 0.0015192889 0 0.0010352679 0 0)
(-0.0016383651 0.0022450297 0 0.0014059155 0 0)
(-0.0021128768 0.0036188066 0 0.0017160076 0 0)
(-0.0032348637 0.0050624077 0 0.0021166847 0 0)
(-0.0030659961 0.0080237739 0 0.001560801 0 0)
(-0.0072049357 0.011197006 0 0.0023392736 0 0)
(-0.00091436809 0.011449218 0 -0.0021360601 0 0)
(-0.00052318117 0.0005389848 0 0.00048637356 0 0)
(-0.00062728459 3.050245e-005 0 0.00065124611 0 0)
(-0.00064353373 -0.00016403159 0 0.00061436236 0 0)
(-0.00051207381 -0.00023779849 0 0.00050769316 0 0)
(-0.00038829795 -0.00023378408 0 0.00038259439 0 0)
(-0.00029447373 -0.00020849211 0 0.00029104685 0 0)
(-0.00021045347 -0.00016347945 0 0.00020871768 0 0)
(-0.00015622949 -0.00011754947 0 0.00015571928 0 0)
(-0.00012197078 -7.3546439e-005 0 0.0001214593 0 0)
(-0.00010487532 -3.66158e-005 0 0.00010487945 0 0)
(-0.00010097644 6.8522922e-006 0 0.00010090795 0 0)
(-0.00011030152 4.941028e-005 0 0.00011005371 0 0)
(-0.00013657527 0.00010965215 0 0.00013610035 0 0)
(-0.00017520778 0.00017842263 0 0.00017341985 0 0)
(-0.00024248848 0.00028527342 0 0.00023898955 0 0)
(-0.00033766547 0.00044129777 0 0.00033015047 0 0)
(-0.00047037015 0.00066993334 0 0.00045114368 0 0)
(-0.0006674263 0.0010314106 0 0.00062612276 0 0)
(-0.00093151147 0.0016108528 0 0.00084563252 0 0)
(-0.0013084741 0.0023316212 0 0.0010797754 0 0)
(-0.0014954533 0.003736809 0 0.0011453071 0 0)
(-0.0021514558 0.0051175162 0 0.001090795 0 0)
(-0.00089992881 0.0078303733 0 -0.00023955845 0 0)
(-0.0030274987 0.010228452 0 -0.0010522919 0 0)
(0.0028771525 0.012209774 0 -0.0076493778 0 0)
(-0.013835761 0.00052788444 0 0.0092530507 0 0)
(-0.0079191756 0.00094419828 0 0.0058295939 0 0)
(-0.0030722978 0.0013610551 0 0.0022588972 0 0)
(-0.00097346714 0.001613226 0 0.00074218533 0 0)
(-0.00038318424 0.0017338985 0 0.00023753862 0 0)
(-0.00013856152 0.0017838392 0 3.8171129e-005 0 0)
(-9.197911e-005 0.0017954458 0 -5.8612107e-006 0 0)
(-7.9507669e-005 0.0017967307 0 -1.525111e-005 0 0)
(-8.5481889e-005 0.0017957675 0 -9.1611959e-006 0 0)
(-8.994834e-005 0.001794773 0 -4.3793254e-006 0 0)
(-9.3858657e-005 0.0017941392 0 -4.3743069e-007 0 0)
(-9.4657697e-005 0.0017939999 0 4.3658871e-007 0 0)
(-9.4607132e-005 0.0017940166 0 3.7689714e-007 0 0)
(-9.4279736e-005 0.0017940501 0 5.0683279e-008 0 0)
(-9.4180413e-005 0.0017940587 0 -5.1517719e-008 0 0)
(-9.41924e-005 0.0017940541 0 -4.0338501e-008 0 0)
(-9.4224741e-005 0.0017940486 0 -8.3370665e-009 0 0)
(-9.4234276e-005 0.001794047 0 1.3466585e-009 0 0)
(-9.4235413e-005 0.0017940468 0 2.4253193e-009 0 0)
(-9.4233333e-005 0.0017940471 0 3.2670151e-010 0 0)
(-9.4232848e-005 0.0017940471 0 -1.8568305e-010 0 0)
(-9.4233375e-005 0.0017940471 0 3.0917371e-010 0 0)
(-9.4233552e-005 0.0017940469 0 7.5687842e-010 0 0)
(-9.4233036e-005 0.001794047 0 1.4947786e-010 0 0)
(-9.4233871e-005 0.0017940472 0 6.8649997e-011 0 0)
(-0.013362596 0.0016785788 0 0.0088940626 0 0)
(-0.0076595798 0.0028674538 0 0.005531612 0 0)
(-0.0032929434 0.0040603379 0 0.0021284119 0 0)
(-0.0014538022 0.0049157496 0 0.00065334243 0 0)
(-0.0010456502 0.0052415274 0 0.00020626557 0 0)
(-0.00087884336 0.0053592475 0 3.8394947e-005 0 0)
(-0.00085105564 0.0053845342 0 1.2941497e-006 0 0)
(-0.00083780071 0.0053912747 0 -1.2101632e-005 0 0)
(-0.00084246272 0.0053885669 0 -7.5796505e-006 0 0)
(-0.00084552385 0.0053863525 0 -3.788059e-006 0 0)
(-0.00084877181 0.0053846954 0 -3.2240429e-007 0 0)
(-0.00084951018 0.0053843547 0 4.5882443e-007 0 0)
(-0.00084939862 0.0053844344 0 3.3355175e-007 0 0)
(-0.00084912397 0.0053845336 0 5.5438416e-008 0 0)
(-0.0008490266 0.0053845604 0 -3.8022501e-008 0 0)
(-0.00084902584 0.005384553 0 -3.1922781e-008 0 0)
(-0.00084904859 0.0053845411 0 -6.3124453e-009 0 0)
(-0.00084905668 0.0053845373 0 2.2353752e-009 0 0)
(-0.00084905645 0.0053845374 0 2.0028131e-009 0 0)
(-0.00084905491 0.0053845378 0 3.7771278e-010 0 0)
(-0.00084905442 0.0053845382 0 -2.0446248e-010 0 0)
(-0.00084905498 0.0053845382 0 2.8277614e-010 0 0)
(-0.00084905501 0.0053845378 0 5.9448269e-010 0 0)
(-0.00084905449 0.0053845378 0 -3.0500636e-011 0 0)
(-0.00084905574 0.0053845391 0 -1.1964397e-010 0 0)
(-0.012573674 0.0029015219 0 0.0083686978 0 0)
(-0.0070482329 0.0049016342 0 0.0049355211 0 0)
(-0.0036890358 0.0071591485 0 0.0017091896 0 0)
(-0.0026867936 0.0082234139 0 0.00063585079 0 0)
(-0.0024633855 0.0086986732 0 0.00022751752 0 0)
(-0.002372269 0.0089326703 0 4.5256625e-005 0 0)
(-0.0023647934 0.0089845843 0 -8.8756675e-007 0 0)
(-0.0023590764 0.0089896454 0 -8.2633392e-006 0 0)
(-0.0023600738 0.0089865981 0 -6.3689119e-006 0 0)
(-0.0023622197 0.0089822407 0 -2.3108468e-006 0 0)
(-0.0023637849 0.0089803161 0 -1.0202606e-007 0 0)
(-0.0023641728 0.0089799568 0 3.9665454e-007 0 0)
(-0.0023640585 0.0089800848 0 2.5978826e-007 0 0)
(-0.002363846 0.0089802404 0 2.9642519e-008 0 0)
(-0.0023637811 0.0089802712 0 -3.2352178e-008 0 0)
(-0.0023637794 0.0089802566 0 -2.2774625e-008 0 0)
(-0.0023637932 0.0089802404 0 -3.4473251e-009 0 0)
(-0.0023637976 0.0089802358 0 2.0304446e-009 0 0)
(-0.0023637973 0.0089802359 0 1.5680313e-009 0 0)
(-0.0023637964 0.0089802371 0 1.8962861e-010 0 0)
(-0.0023637963 0.0089802374 0 -7.5251445e-011 0 0)
(-0.0023637962 0.0089802368 0 9.9134698e-011 0 0)
(-0.0023637966 0.008980237 0 4.532282e-010 0 0)
(-0.0023637957 0.0089802367 0 -3.8477288e-010 0 0)
(-0.0023637972 0.0089802381 0 -4.7653837e-010 0 0)
(-0.011399118 0.0042621428 0 0.0074409807 0 0)
(-0.0061050386 0.0078584774 0 0.0035617964 0 0)
(-0.0049152375 0.010013038 0 0.0016143401 0 0)
(-0.0043749525 0.01176497 0 0.00043549815 0 0)
(-0.0045465803 0.012369397 0 0.00010109071 0 0)
(-0.0046277794 0.012551329 0 2.3553515e-005 0 0)
(-0.0046524459 0.012590831 0 -9.1820775e-007 0 0)
(-0.0046501109 0.012592454 0 -4.9044053e-006 0 0)
(-0.0046491664 0.012587549 0 -3.5394529e-006 0 0)
(-0.0046487705 0.0125824 0 -1.0100416e-006 0 0)
(-0.0046490328 0.012580582 0 6.9567371e-008 0 0)
(-0.0046491074 0.012580361 0 2.4840919e-007 0 0)
(-0.0046490492 0.012580542 0 1.3066362e-007 0 0)
(-0.0046489678 0.012580714 0 7.654167e-009 0 0)
(-0.0046489384 0.01258074 0 -1.9002791e-008 0 0)
(-0.004648933 0.01258072 0 -1.0098503e-008 0 0)
(-0.004648936 0.012580704 0 -4.5863696e-010 0 0)
(-0.0046489372 0.012580701 0 1.5377022e-009 0 0)
(-0.004648937 0.012580701 0 7.6690729e-010 0 0)
(-0.0046489367 0.012580702 0 2.4531988e-011 0 0)
(-0.0046489365 0.012580702 0 -5.2590552e-011 0 0)
(-0.0046489367 0.012580702 0 6.4847087e-011 0 0)
(-0.0046489368 0.012580702 0 1.1640012e-010 0 0)
(-0.0046489362 0.012580702 0 -6.1140387e-010 0 0)
(-0.004648938 0.012580703 0 -6.5136327e-010 0 0)
(-0.0094816432 0.0057482708 0 0.0059540018 0 0)
(-0.0062866175 0.010846395 0 0.0024574788 0 0)
(-0.0064129228 0.013514569 0 0.0010114418 0 0)
(-0.0069864185 0.015388956 0 0.00026055317 0 0)
(-0.0075290561 0.015993431 0 5.9717815e-005 0 0)
(-0.0076886715 0.016162624 0 1.6801378e-005 0 0)
(-0.0077283539 0.016194509 0 1.4215528e-006 0 0)
(-0.0077265839 0.016193534 0 -3.0954305e-007 0 0)
(-0.0077227508 0.016187741 0 -3.2081782e-007 0 0)
(-0.0077198017 0.016183357 0 1.3789798e-007 0 0)
(-0.0077189815 0.016182079 0 1.1895518e-007 0 0)
(-0.0077188333 0.01618203 0 1.9996939e-008 0 0)
(-0.0077189035 0.016182221 0 -1.3972604e-008 0 0)
(-0.0077189589 0.016182347 0 -8.5829107e-009 0 0)
(-0.0077189625 0.01618236 0 -1.0156272e-009 0 0)
(-0.0077189503 0.016182342 0 2.3719944e-009 0 0)
(-0.0077189432 0.01618233 0 1.5705382e-009 0 0)
(-0.0077189414 0.016182328 0 3.9635727e-010 0 0)
(-0.0077189414 0.016182328 0 -5.7123101e-011 0 0)
(-0.0077189421 0.016182329 0 -4.6762515e-011 0 0)
(-0.0077189424 0.016182329 0 2.1216311e-011 0 0)
(-0.0077189423 0.016182329 0 -3.4969763e-011 0 0)
(-0.0077189423 0.016182329 0 -4.1105344e-011 0 0)
(-0.0077189418 0.016182329 0 -6.1762628e-010 0 0)
(-0.0077189431 0.016182329 0 -6.942361e-010 0 0)
(-0.0074899084 0.0088214724 0 0.0035961472 0 0)
(-0.0068597327 0.014178242 0 0.0011872411 0 0)
(-0.0090735679 0.017510169 0 0.00033927792 0 0)
(-0.010706049 0.019211371 0 9.1535786e-005 0 0)
(-0.011417396 0.019667685 0 1.559476e-005 0 0)
(-0.011573571 0.019779663 0 5.9675452e-006 0 0)
(-0.011604749 0.019791036 0 3.8681696e-006 0 0)
(-0.011601112 0.019787714 0 4.5283983e-006 0 0)
(-0.011593177 0.019782441 0 2.4187739e-006 0 0)
(-0.011588363 0.019779883 0 9.0060722e-007 0 0)
(-0.011586858 0.019779299 0 1.9254643e-008 0 0)
(-0.0115866 0.019779338 0 -2.2167082e-007 0 0)
(-0.011586818 0.019779444 0 -1.1860836e-007 0 0)
(-0.011586972 0.019779497 0 -8.1489624e-009 0 0)
(-0.011587 0.0197795 0 1.9617924e-008 0 0)
(-0.011586982 0.019779492 0 1.2291345e-008 0 0)
(-0.011586967 0.019779487 0 2.1037292e-009 0 0)
(-0.011586963 0.019779486 0 -9.4200301e-010 0 0)
(-0.011586964 0.019779486 0 -6.8452865e-010 0 0)
(-0.011586965 0.019779486 0 -7.2602288e-011 0 0)
(-0.011586965 0.019779486 0 6.4266795e-011 0 0)
(-0.011586965 0.019779487 0 -1.3624063e-010 0 0)
(-0.011586965 0.019779487 0 -4.5737235e-011 0 0)
(-0.011586965 0.019779487 0 -4.1026668e-010 0 0)
(-0.011586965 0.019779486 0 -4.7701194e-010 0 0)
(-0.0065122321 0.011494265 0 0.0014170804 0 0)
(-0.0089001676 0.018823589 0 -0.00038197111 0 0)
(-0.013594128 0.021823216 0 -0.00014781903 0 0)
(-0.015520911 0.023060415 0 -1.3263998e-005 0 0)
(-0.016154112 0.023312483 0 2.4663312e-006 0 0)
(-0.016254989 0.023368458 0 6.995198e-006 0 0)
(-0.016276229 0.023369767 0 8.8335728e-006 0 0)
(-0.016272127 0.023368526 0 8.5101108e-006 0 0)
(-0.01626427 0.023367217 0 4.0980675e-006 0 0)
(-0.016259345 0.023367092 0 1.1441531e-006 0 0)
(-0.016257615 0.023367057 0 -1.6276424e-007 0 0)
(-0.016257283 0.023367017 0 -3.8225148e-007 0 0)
(-0.016257517 0.023366961 0 -1.8506817e-007 0 0)
(-0.01625774 0.023366938 0 2.8022108e-009 0 0)
(-0.016257786 0.023366943 0 3.5017108e-008 0 0)
(-0.016257768 0.023366949 0 1.8544818e-008 0 0)
(-0.016257748 0.023366952 0 1.6480605e-009 0 0)
(-0.016257742 0.023366951 0 -2.0363677e-009 0 0)
(-0.016257743 0.02336695 0 -9.4598144e-010 0 0)
(-0.016257744 0.02336695 0 -4.3705912e-011 0 0)
(-0.016257745 0.02336695 0 7.0730354e-011 0 0)
(-0.016257744 0.02336695 0 -2.6544427e-010 0 0)
(-0.016257745 0.02336695 0 -1.438906e-010 0 0)
(-0.016257746 0.023366951 0 6.5780603e-011 0 0)
(-0.016257745 0.023366949 0 4.4818252e-011 0 0)
(-0.006516516 0.016206235 0 -0.0018082634 0 0)
(-0.013511632 0.024181367 0 -0.0017671622 0 0)
(-0.019834449 0.026196567 0 -0.00038029747 0 0)
(-0.021206752 0.026834175 0 -6.5068355e-005 0 0)
(-0.021668898 0.026906679 0 3.6437301e-006 0 0)
(-0.021702678 0.026925533 0 1.0562548e-005 0 0)
(-0.021729458 0.026929007 0 1.2121657e-005 0 0)
(-0.021728969 0.026935153 0 8.6784136e-006 0 0)
(-0.021726216 0.026938032 0 4.0936441e-006 0 0)
(-0.021722892 0.026939592 0 1.1403912e-006 0 0)
(-0.02172086 0.02693979 0 -3.1239448e-007 0 0)
(-0.021720385 0.02693949 0 -4.0742761e-007 0 0)
(-0.021720599 0.026939288 0 -1.4577701e-007 0 0)
(-0.021720796 0.026939242 0 1.3186994e-008 0 0)
(-0.02172086 0.026939265 0 3.8982278e-008 0 0)
(-0.021720844 0.026939285 0 1.5585038e-008 0 0)
(-0.021720827 0.02693929 0 6.321548e-010 0 0)
(-0.02172082 0.026939288 0 -2.3785164e-009 0 0)
(-0.021720821 0.026939287 0 -8.2197737e-010 0 0)
(-0.021720823 0.026939287 0 4.7646269e-011 0 0)
(-0.021720823 0.026939287 0 3.1728635e-011 0 0)
(-0.021720823 0.026939287 0 -3.8789585e-010 0 0)
(-0.021720823 0.026939287 0 -3.9625546e-010 0 0)
(-0.021720825 0.026939288 0 5.8582666e-010 0 0)
(-0.021720823 0.026939286 0 6.5693289e-010 0 0)
(-0.011873406 0.025147934 0 -0.005343917 0 0)
(-0.02184825 0.03026076 0 -0.0028080348 0 0)
(-0.027302049 0.030445589 0 -0.00038023285 0 0)
(-0.027602452 0.030464195 0 -7.609945e-005 0 0)
(-0.027861588 0.030432924 0 2.0988547e-005 0 0)
(-0.02789225 0.030455091 0 1.1718644e-005 0 0)
(-0.027943203 0.030469684 0 1.1951254e-005 0 0)
(-0.027952389 0.030482608 0 6.5155884e-006 0 0)
(-0.027956313 0.03048894 0 3.0469259e-006 0 0)
(-0.027953963 0.030491282 0 4.6336587e-007 0 0)
(-0.027952157 0.030491123 0 -3.1952257e-007 0 0)
(-0.027951417 0.030490566 0 -3.0881123e-007 0 0)
(-0.027951491 0.030490276 0 -8.531489e-008 0 0)
(-0.027951653 0.030490243 0 2.374305e-008 0 0)
(-0.027951729 0.03049029 0 3.1453928e-008 0 0)
(-0.027951724 0.030490319 0 1.0208488e-008 0 0)
(-0.02795171 0.030490324 0 -7.2039827e-010 0 0)
(-0.027951704 0.030490321 0 -1.9510124e-009 0 0)
(-0.027951705 0.030490319 0 -5.1383998e-010 0 0)
(-0.027951706 0.030490319 0 9.4493062e-011 0 0)
(-0.027951706 0.030490319 0 -3.2488981e-011 0 0)
(-0.027951706 0.03049032 0 -4.5107707e-010 0 0)
(-0.027951706 0.03049032 0 -7.0830716e-010 0 0)
(-0.027951707 0.03049032 0 3.7576219e-010 0 0)
(-0.027951703 0.030490319 0 7.9310256e-010 0 0)
(-0.035304127 0.042471233 0 -0.0098786816 0 0)
(-0.033522287 0.035637251 0 -0.0018634758 0 0)
(-0.039544451 0.036447683 0 -0.00021736727 0 0)
(-0.037911035 0.03556714 0 -2.7584058e-005 0 0)
(-0.038649408 0.035784746 0 1.9052402e-005 0 0)
(-0.038564342 0.035751188 0 4.8314739e-006 0 0)
(-0.038677955 0.035794281 0 4.7813119e-006 0 0)
(-0.038681703 0.035801504 0 2.2947917e-006 0 0)
(-0.038696072 0.035811374 0 1.1595181e-006 0 0)
(-0.038693423 0.035812658 0 1.2602061e-007 0 0)
(-0.038692416 0.035812536 0 -1.2612275e-007 0 0)
(-0.038691333 0.035811834 0 -1.1172405e-007 0 0)
(-0.038691293 0.035811592 0 -2.6013966e-008 0 0)
(-0.038691412 0.035811592 0 1.3072661e-008 0 0)
(-0.038691515 0.03581166 0 1.2434431e-008 0 0)
(-0.03869153 0.035811689 0 3.3846932e-009 0 0)
(-0.038691522 0.035811691 0 -6.5455722e-010 0 0)
(-0.038691515 0.035811687 0 -8.3422232e-010 0 0)
(-0.038691515 0.035811685 0 -1.8192237e-010 0 0)
(-0.038691516 0.035811685 0 2.9473966e-011 0 0)
(-0.038691516 0.035811685 0 -9.4168502e-011 0 0)
(-0.038691515 0.035811685 0 -3.2861483e-010 0 0)
(-0.038691513 0.035811685 0 -6.8714413e-010 0 0)
(-0.038691511 0.035811684 0 2.069018e-010 0 0)
(-0.038691507 0.035811685 0 8.004625e-010 0 0)
(-0.00059061476 0.00066873858 0 0.00053374679 0 0)
(-0.00066612656 2.8239634e-005 0 0.00071847635 0 0)
(-0.00067609427 -0.00021286441 0 0.00063598485 0 0)
(-0.00051660518 -0.00029170818 0 0.00050859743 0 0)
(-0.00037647226 -0.00027892375 0 0.00036940796 0 0)
(-0.00026990594 -0.00023880513 0 0.00026517051 0 0)
(-0.00018700702 -0.00018155349 0 0.00018387686 0 0)
(-0.00013370596 -0.00012567628 0 0.00013221596 0 0)
(-0.00010033823 -7.2145133e-005 0 9.8891851e-005 0 0)
(-8.388758e-005 -2.9162789e-005 0 8.3294808e-005 0 0)
(-7.8272393e-005 2.2499259e-005 0 7.7798159e-005 0 0)
(-8.4874575e-005 7.1113981e-005 0 8.3538497e-005 0 0)
(-0.00010254755 0.00013732946 0 0.00010139417 0 0)
(-0.00012929328 0.00021211726 0 0.00012622261 0 0)
(-0.0001755708 0.00033159957 0 0.00017075822 0 0)
(-0.00024015882 0.00050528881 0 0.00023164499 0 0)
(-0.00032328649 0.00074441377 0 0.00030071075 0 0)
(-0.00044315508 0.0011211279 0 0.00039913935 0 0)
(-0.00054996995 0.0017232333 0 0.0004721449 0 0)
(-0.00070121935 0.0024140769 0 0.00049438916 0 0)
(-0.00061679489 0.0037064846 0 0.00032587594 0 0)
(-0.00050313509 0.0048840807 0 -0.00036947851 0 0)
(0.0013598796 0.0069616727 0 -0.0020194456 0 0)
(0.001914486 0.0076858717 0 -0.0043977425 0 0)
(0.0098413627 0.0074120998 0 -0.012989611 0 0)
(-0.0007305399 0.00090151619 0 0.00064262638 0 0)
(-0.00074799622 1.7468013e-005 0 0.00081813268 0 0)
(-0.00072072238 -0.00029292451 0 0.00066959607 0 0)
(-0.00050672528 -0.00035784497 0 0.00049526958 0 0)
(-0.00033777679 -0.00032295186 0 0.00033184314 0 0)
(-0.00021732954 -0.0002514913 0 0.00021347776 0 0)
(-0.00013824126 -0.00017353889 0 0.00013635064 0 0)
(-8.71547e-005 -9.844881e-005 0 8.7312712e-005 0 0)
(-5.9514474e-005 -3.3979309e-005 0 5.9259749e-005 0 0)
(-4.519337e-005 1.9284551e-005 0 4.5165243e-005 0 0)
(-3.844717e-005 7.5493321e-005 0 3.8146371e-005 0 0)
(-3.8584418e-005 0.00013467895 0 3.8051212e-005 0 0)
(-4.330819e-005 0.00020300061 0 4.3552605e-005 0 0)
(-5.2830763e-005 0.000288788 0 5.0579377e-005 0 0)
(-6.7127836e-005 0.00040863633 0 6.0504281e-005 0 0)
(-8.1653129e-005 0.00059721761 0 7.5231058e-005 0 0)
(-9.2909276e-005 0.00083609094 0 7.490722e-005 0 0)
(-9.7340337e-005 0.0011892304 0 5.2609072e-005 0 0)
(-3.3410665e-005 0.0017591711 0 -3.701778e-005 0 0)
(9.8309163e-005 0.0023547084 0 -0.0002791714 0 0)
(0.00059358413 0.0032258711 0 -0.00086604648 0 0)
(0.0012073884 0.0037883978 0 -0.001915558 0 0)
(0.003180676 0.0042924531 0 -0.003924939 0 0)
(0.0052091864 0.0020109335 0 -0.0074163028 0 0)
(0.0063119539 -0.0010774114 0 -0.0092025814 0 0)
(-0.00091260828 0.001181413 0 0.00079673909 0 0)
(-0.00082615829 2.8246068e-006 0 0.00090387717 0 0)
(-0.00073133694 -0.00034946833 0 0.00067344299 0 0)
(-0.0004575002 -0.00037163629 0 0.00044468287 0 0)
(-0.0002631514 -0.00028773916 0 0.00025920351 0 0)
(-0.00014258321 -0.00017566936 0 0.00013959935 0 0)
(-7.4255421e-005 -7.57148e-005 0 7.3060975e-005 0 0)
(-3.1769296e-005 1.8467604e-005 0 3.1875431e-005 0 0)
(-1.1983636e-005 9.4111968e-005 0 1.1955381e-005 0 0)
(-2.4088229e-006 0.00015283396 0 1.7575846e-006 0 0)
(4.6117568e-006 0.00021304118 0 -5.3501461e-006 0 0)
(9.3738937e-006 0.00026783177 0 -1.1063297e-005 0 0)
(1.5531721e-005 0.00034196993 0 -1.8453768e-005 0 0)
(2.655904e-005 0.00043046263 0 -2.9214223e-005 0 0)
(3.8775855e-005 0.00053682913 0 -4.8136273e-005 0 0)
(6.8269564e-005 0.00071109062 0 -8.1045155e-005 0 0)
(0.0001265136 0.00095231791 0 -0.00014586009 0 0)
(0.00020543447 0.0012501212 0 -0.00025477643 0 0)
(0.00041019681 0.0017243847 0 -0.00048676245 0 0)
(0.00069488995 0.002195368 0 -0.00085101584 0 0)
(0.0012875623 0.0027562744 0 -0.0015197207 0 0)
(0.0021014662 0.0029758936 0 -0.0025506431 0 0)
(0.0034914377 0.0028019144 0 -0.0038776499 0 0)
(0.0046578741 0.00072152089 0 -0.0054027984 0 0)
(0.003559517 -0.0026287015 0 -0.0036952978 0 0)
(-0.0011165847 0.0015289954 0 0.00096092169 0 0)
(-0.00084518471 -6.9105475e-006 0 0.0009287013 0 0)
(-0.00065817598 -0.00034723258 0 0.00059510372 0 0)