/*--------------------------------*- C++ -*----------------------------------*\
| =========                 |                                                 |
| \\      /  F ield         | OpenFOAM: The Open Source CFD Toolbox           |
|  \\    /   O peration     | Version:  5.x                                   |
|   \\  /    A nd           | Web:      www.OpenFOAM.org                      |
|    \\/     M anipulation  |                                                 |
\*---------------------------------------------------------------------------*/
/*   Windows 32 and 64 bit porting by blueCAPE: http://www.bluecape.com.pt   *\
|  Based on Windows porting (2.0.x v4) by Symscape: http://www.symscape.com   |
\*---------------------------------------------------------------------------*/
FoamFile
{
    version     2.0;
    format      ascii;
    class       volVectorField;
    location    "0.23";
    object      U;
}
// * * * * * * * * * * * * * * * * * * * * * * * * * * * * * * * * * * * * * //

dimensions      [0 1 -1 0 0 0 0];

internalField   nonuniform List<vector> 
750
(
(0.039374682 -0.00015479254 0)
(0.040660945 -0.00019483276 0)
(0.04242994 -0.00019506526 0)
(0.043831872 -0.00016964609 0)
(0.045124878 -0.00014357572 0)
(0.046135315 -0.0001136359 0)
(0.046939103 -8.9346322e-005 0)
(0.047564505 -7.0308931e-005 0)
(0.048059888 -5.7434283e-005 0)
(0.048480562 -5.1335533e-005 0)
(0.048878957 -5.1512892e-005 0)
(0.049302208 -5.8240959e-005 0)
(0.049807181 -7.3027981e-005 0)
(0.050465901 -9.842867e-005 0)
(0.051376975 -0.00013897878 0)
(0.052679564 -0.00020108392 0)
(0.054579155 -0.00029853494 0)
(0.057435908 -0.0004526815 0)
(0.061785843 -0.00068961518 0)
(0.068387267 -0.0010569667 0)
(0.078661667 -0.0015609781 0)
(0.093003729 -0.0023152729 0)
(0.11587616 -0.0031846958 0)
(0.14275776 -0.0041166402 0)
(0.18270438 -0.0046959515 0)
(0.039379268 -0.00046273105 0)
(0.040668988 -0.00059054858 0)
(0.042444747 -0.00058280385 0)
(0.043850294 -0.00051070217 0)
(0.045142404 -0.00042961001 0)
(0.046151025 -0.00034092804 0)
(0.046951995 -0.00026750929 0)
(0.047574066 -0.0002100879 0)
(0.04806602 -0.0001716803 0)
(0.048483888 -0.00015341777 0)
(0.048879051 -0.00015387385 0)
(0.049298619 -0.00017394303 0)
(0.049798656 -0.00021802704 0)
(0.050451217 -0.00029380891 0)
(0.051353174 -0.00041472637 0)
(0.052641826 -0.00059990794 0)
(0.054520294 -0.00089017139 0)
(0.057342555 -0.0013490609 0)
(0.061633467 -0.0020539192 0)
(0.068139487 -0.0031429342 0)
(0.078245272 -0.0046497141 0)
(0.092343492 -0.0068566403 0)
(0.11478986 -0.0095056845 0)
(0.14107292 -0.012201992 0)
(0.18064897 -0.014084513 0)
(0.039387196 -0.00077113325 0)
(0.040685957 -0.00099125868 0)
(0.042475348 -0.00097029129 0)
(0.043887316 -0.0008530802 0)
(0.045178334 -0.00071480598 0)
(0.0461833 -0.00056755559 0)
(0.046978061 -0.00044458417 0)
(0.047593486 -0.00034865471 0)
(0.048078996 -0.00028486167 0)
(0.048491192 -0.00025443443 0)
(0.048879752 -0.00025504056 0)
(0.049292056 -0.00028813124 0)
(0.049782271 -0.00036109598 0)
(0.050422381 -0.00048649475 0)
(0.051306146 -0.0006864732 0)
(0.052567103 -0.00099258994 0)
(0.054402893 -0.0014719133 0)
(0.057155398 -0.0022288972 0)
(0.061328941 -0.0033915233 0)
(0.067640679 -0.0051812687 0)
(0.077420199 -0.0076714892 0)
(0.0910044 -0.011270202 0)
(0.11266695 -0.015670877 0)
(0.13772161 -0.020055326 0)
(0.17646822 -0.023379861 0)
(0.039399043 -0.0010833175 0)
(0.040712755 -0.001395906 0)
(0.042522723 -0.0013607743 0)
(0.043943724 -0.0011962156 0)
(0.045233425 -0.00099942259 0)
(0.046232813 -0.00079249786 0)
(0.04701778 -0.00061958875 0)
(0.047623211 -0.00048524577 0)
(0.048099409 -0.00039616849 0)
(0.048503037 -0.00035353469 0)
(0.04888156 -0.00035401732 0)
(0.049283126 -0.00039966716 0)
(0.049758818 -0.00050067203 0)
(0.050380239 -0.00067438019 0)
(0.051237032 -0.0009510745 0)
(0.052457047 -0.001374283 0)
(0.054229515 -0.0020361291 0)
(0.056878976 -0.0030798617 0)
(0.060881641 -0.0046805625 0)
(0.066904732 -0.0071385425 0)
(0.076205402 -0.010562346 0)
(0.089024433 -0.015482029 0)
(0.10953548 -0.021525374 0)
(0.13269745 -0.027531308 0)
(0.17013541 -0.032351037 0)
(0.039416201 -0.0014012612 0)
(0.040750489 -0.0018057443 0)
(0.042587913 -0.0017557126 0)
(0.044020554 -0.0015402873 0)
(0.045308298 -0.0012831515 0)
(0.046300072 -0.0010150897 0)
(0.047071595 -0.00079168275 0)
(0.04766375 -0.00061907597 0)
(0.048127716 -0.0005048472 0)
(0.048519849 -0.00044992085 0)
(0.048884847 -0.00044999012 0)
(0.049272462 -0.00050750704 0)
(0.049729033 -0.00063545123 0)
(0.050325772 -0.00085564269 0)
(0.051147177 -0.0012058427 0)
(0.052313685 -0.0017409468 0)
(0.05400351 -0.0025762573 0)
(0.056518974 -0.0038912333 0)
(0.060300673 -0.0059031366 0)
(0.06594537 -0.0089842762 0)
(0.074630452 -0.013271739 0)
(0.086417745 -0.019413847 0)
(0.10542038 -0.026948455 0)
(0.12611525 -0.034542074 0)
(0.16170128 -0.040642484 0)
(0.039440181 -0.0017270346 0)
(0.040800425 -0.0022225456 0)
(0.042672103 -0.0021561706 0)
(0.044118947 -0.0018855319 0)
(0.045403559 -0.0015656163 0)
(0.046385395 -0.0012346197 0)
(0.047139745 -0.00096004112 0)
(0.047715448 -0.00074936389 0)
(0.048164167 -0.0006101448 0)
(0.048541838 -0.00054279158 0)
(0.04888983 -0.00054208814 0)
(0.049260367 -0.00061077081 0)
(0.049693635 -0.00076410339 0)
(0.050259824 -0.0010284613 0)
(0.051037789 -0.0014482193 0)
(0.052138819 -0.002088648 0)
(0.053727842 -0.0030863188 0)
(0.056080177 -0.0046534862 0)
(0.059594807 -0.0070428579 0)
(0.064783325 -0.01069304 0)
(0.072718749 -0.015751593 0)
(0.083219117 -0.022994107 0)
(0.10040493 -0.031819926 0)
(0.11786236 -0.040955153 0)
(0.15115059 -0.048104421 0)
(0.03947285 -0.0020632102 0)
(0.040863807 -0.0026477452 0)
(0.042776295 -0.0025633117 0)
(0.044239565 -0.0022320684 0)
(0.045519427 -0.0018463437 0)
(0.04648847 -0.0014502963 0)
(0.047222105 -0.0011237697 0)
(0.04777804 -0.00087530055 0)
(0.048208354 -0.00071134139 0)
(0.048568652 -0.00063133053 0)
(0.048896073 -0.00062956049 0)
(0.049246749 -0.00070849179 0)
(0.049652687 -0.0008854119 0)
(0.050182894 -0.0011912189 0)
(0.050909842 -0.0016757638 0)
(0.051934109 -0.0024136959 0)
(0.053405661 -0.0035604618 0)
(0.055568847 -0.0053573296 0)
(0.058775466 -0.008084577 0)
(0.063438269 -0.012237945 0)
(0.070501028 -0.017952996 0)
(0.079480476 -0.026146107 0)
(0.094523668 -0.035974121 0)
(0.10778846 -0.046477596 0)
(0.13899434 -0.054733814 0)
(0.039516691 -0.0024130118 0)
(0.04094162 -0.003082334 0)
(0.042900774 -0.0029784111 0)
(0.044382394 -0.002579823 0)
(0.045655063 -0.0021246654 0)
(0.046607831 -0.0016612868 0)
(0.047317602 -0.0012820685 0)
(0.047850243 -0.00099602 0)
(0.048259012 -0.0008076207 0)
(0.04859884 -0.00071477773 0)
(0.048902637 -0.00071151446 0)
(0.04923018 -0.00079989487 0)
(0.049605672 -0.00099829794 0)
(0.050094793 -0.0013422559 0)
(0.05076374 -0.0018860784 0)
(0.051700735 -0.0027127605 0)
(0.053040421 -0.0039937723 0)
(0.054992122 -0.0059949162 0)
(0.057854665 -0.0090157522 0)
(0.061931764 -0.013596568 0)
(0.068022915 -0.019835819 0)
(0.075266481 -0.028803947 0)
(0.08784778 -0.039304919 0)
(0.096538007 -0.051085842 0)
(0.12549817 -0.059388274 0)
(0.039574267 -0.0027797748 0)
(0.041034948 -0.00352751 0)
(0.043044825 -0.0034023342 0)
(0.044546813 -0.0029285514 0)
(0.045808104 -0.002399699 0)
(0.046741105 -0.0018666695 0)
(0.047423637 -0.0014340466 0)
(0.047929542 -0.0011107521 0)
(0.048313702 -0.00089819136 0)
(0.048629508 -0.00079226654 0)
(0.048907319 -0.00078731247 0)
(0.049208381 -0.00088423527 0)
(0.049550817 -0.0011016726 0)
(0.049994308 -0.0014801411 0)
(0.050598987 -0.0020774192 0)
(0.051439724 -0.0029831052 0)
(0.052635086 -0.0043816715 0)
(0.054358249 -0.0065593252 0)
(0.056846583 -0.0098248574 0)
(0.060288939 -0.014747402 0)
(0.065343354 -0.021357417 0)
(0.070694019 -0.030880094 0)
(0.08057669 -0.041720624 0)
(0.084291977 -0.054872888 0)
(0.11068846 -0.062483651 0)
(0.039646499 -0.0031647359 0)
(0.041145089 -0.0039882758 0)
(0.043206888 -0.0038333514 0)
(0.044730707 -0.0032783181 0)
(0.04597496 -0.0026709811 0)
(0.046883631 -0.002065364 0)
(0.047536228 -0.0015789265 0)
(0.048011965 -0.0012188183 0)
(0.048368235 -0.00098227634 0)
(0.04865648 -0.00086326902 0)
(0.048907099 -0.00085614853 0)
(0.049177333 -0.00096073791 0)
(0.049484777 -0.0011950175 0)
(0.049878863 -0.001603782 0)
(0.050414393 -0.0022476413 0)
(0.051150263 -0.0032223952 0)
(0.052191531 -0.0047220853 0)
(0.053673085 -0.0070476348 0)
(0.055763528 -0.010505826 0)
(0.058544422 -0.015684387 0)
(0.062518586 -0.022539035 0)
(0.065994043 -0.032345602 0)
(0.072703005 -0.043253516 0)
(0.070753758 -0.057337624 0)
(0.091253906 -0.062644558 0)
(0.21564018 -0.0027081427 0)
(0.22661246 -0.0010342954 0)
(0.23058949 -0.00027146002 0)
(0.23110789 -6.4726694e-005 0)
(0.23156571 -2.773412e-005 0)
(0.23163157 -1.2824734e-005 0)
(0.23173632 -9.5009899e-006 0)
(0.23176187 -2.0925018e-006 0)
(0.23176136 1.0159675e-006 0)
(0.23174393 1.8197641e-006 0)
(0.23173343 9.2566483e-007 0)
(0.23173028 1.52804e-007 0)
(0.23173113 -1.0886817e-007 0)
(0.23173206 -8.3742048e-008 0)
(0.23173234 -1.4320152e-008 0)
(0.23173225 1.1575702e-008 0)
(0.23173215 8.6013499e-009 0)
(0.23173212 1.3582176e-009 0)
(0.23173213 -8.8128012e-010 0)
(0.23173214 -6.1399619e-010 0)
(0.23173214 -1.3507867e-010 0)
(0.23173214 -7.4714667e-011 0)
(0.23173214 9.4648694e-011 0)
(0.23173214 1.4160856e-009 0)
(0.23173211 1.4066012e-009 0)
(0.21271678 -0.0077979925 0)
(0.22232603 -0.0030064955 0)
(0.22613464 -0.00072060391 0)
(0.22651893 -0.00023138332 0)
(0.22687239 -8.8323843e-005 0)
(0.2269094 -3.6804834e-005 0)
(0.22699883 -2.1573436e-005 0)
(0.22701996 -5.6693443e-006 0)
(0.2270167 3.6692593e-006 0)
(0.22700095 5.0070452e-006 0)
(0.22699151 2.5680408e-006 0)
(0.22698902 3.9808972e-007 0)
(0.22698991 -3.2779593e-007 0)
(0.22699074 -2.2515291e-007 0)
(0.22699096 -3.2953984e-008 0)
(0.22699087 3.4122316e-008 0)
(0.22699078 2.3473533e-008 0)
(0.22699076 3.6928005e-009 0)
(0.22699077 -2.6385097e-009 0)
(0.22699078 -1.6835927e-009 0)
(0.22699078 -4.6498279e-010 0)
(0.22699078 -1.4431211e-010 0)
(0.22699078 3.9102647e-010 0)
(0.22699078 4.1431859e-009 0)
(0.22699076 4.23214e-009 0)
(0.20674058 -0.012408229 0)
(0.21370367 -0.0047081647 0)
(0.21735641 -0.0011766789 0)
(0.21724645 -0.00031766022 0)
(0.21741965 -0.00010319722 0)
(0.21746176 -5.8551946e-005 0)
(0.21753592 -3.1996071e-005 0)
(0.21754747 -7.7598796e-006 0)
(0.21754063 6.3923762e-006 0)
(0.21752779 7.8553822e-006 0)
(0.21752076 3.8970152e-006 0)
(0.2175195 5.3085771e-007 0)
(0.2175204 -5.3074406e-007 0)
(0.21752103 -3.4237217e-007 0)
(0.21752116 -4.3184307e-008 0)
(0.21752108 5.4523415e-008 0)
(0.21752102 3.5162393e-008 0)
(0.21752101 5.0560676e-009 0)
(0.21752102 -4.2195542e-009 0)
(0.21752102 -2.5813821e-009 0)
(0.21752102 -6.5486256e-010 0)
(0.21752102 -1.5320653e-010 0)
(0.21752102 7.9533621e-010 0)
(0.21752102 6.7164172e-009 0)
(0.217521 6.8884287e-009 0)
(0.19745457 -0.016280033 0)
(0.20113086 -0.0060809404 0)
(0.20387846 -0.0014261217 0)
(0.20322009 -0.00032893158 0)
(0.20331561 -9.7874274e-005 0)
(0.2033435 -7.1981016e-005 0)
(0.20338327 -3.8853148e-005 0)
(0.20337707 -7.5728292e-006 0)
(0.20336849 8.8901008e-006 0)
(0.20335975 9.9683892e-006 0)
(0.20335672 4.655787e-006 0)
(0.2033569 4.8792682e-007 0)
(0.20335767 -6.9783748e-007 0)
(0.203358 -4.1942081e-007 0)
(0.20335801 -4.3273753e-008 0)
(0.20335794 6.9708213e-008 0)
(0.20335791 4.1539172e-008 0)
(0.20335791 4.8051627e-009 0)
(0.20335792 -5.4156352e-009 0)
(0.20335792 -3.1257303e-009 0)
(0.20335792 -7.2342785e-010 0)
(0.20335792 -1.0351094e-010 0)
(0.20335792 1.2634877e-009 0)
(0.20335792 8.8597475e-009 0)
(0.20335791 8.9649651e-009 0)
(0.18468338 -0.019123131 0)
(0.18437099 -0.0069558425 0)
(0.18535316 -0.0013680499 0)
(0.18457501 -0.00029828172 0)
(0.18465888 -0.00010557339 0)
(0.1846046 -8.0667353e-005 0)
(0.18459855 -3.7822019e-005 0)
(0.18457587 -5.0740724e-006 0)
(0.1845689 1.0979903e-005 0)
(0.18456665 1.0749088e-005 0)
(0.18456847 4.6396122e-006 0)
(0.18456983 2.923801e-007 0)
(0.18457025 -7.9777132e-007 0)
(0.18457018 -4.3206585e-007 0)
(0.18457007 -2.9552003e-008 0)
(0.18457004 7.7441027e-008 0)
(0.18457005 4.1514757e-008 0)
(0.18457007 3.2526863e-009 0)
(0.18457007 -6.0724305e-009 0)
(0.18457007 -3.2232077e-009 0)
(0.18457007 -6.6999798e-010 0)
(0.18457007 4.7654946e-011 0)
(0.18457007 1.6800684e-009 0)
(0.18457006 1.0196944e-008 0)
(0.18457006 1.0069536e-008 0)
(0.16861788 -0.020883822 0)
(0.16238822 -0.0068528508 0)
(0.16221529 -0.0011874306 0)
(0.16140196 -0.00025671229 0)
(0.1614489 -8.3731217e-005 0)
(0.16131438 -6.8690523e-005 0)
(0.16127816 -2.8882077e-005 0)
(0.16124814 -1.3033206e-006 0)
(0.16124693 1.1654689e-005 0)
(0.16125285 9.9245402e-006 0)
(0.16125897 3.893342e-006 0)
(0.16126086 3.4557137e-008 0)
(0.16126073 -7.799858e-007 0)
(0.16126026 -3.7676434e-007 0)
(0.16126008 -8.2272158e-009 0)
(0.1612601 7.4195309e-008 0)
(0.16126015 3.5216454e-008 0)
(0.16126017 1.0145345e-009 0)
(0.16126016 -5.8961317e-009 0)
(0.16126016 -2.7783817e-009 0)
(0.16126016 -5.166156e-010 0)
(0.16126016 1.4342956e-010 0)
(0.16126016 1.9922912e-009 0)
(0.16126016 1.0232977e-008 0)
(0.16126016 9.8180834e-009 0)
(0.14794567 -0.020857934 0)
(0.13504872 -0.0059455823 0)
(0.13473487 -0.0008940305 0)
(0.13374575 -0.00020222987 0)
(0.13376829 -4.963375e-005 0)
(0.13358868 -4.6720357e-005 0)
(0.1335453 -1.737827e-005 0)
(0.13351653 1.8988859e-006 0)
(0.13352432 1.0221815e-005 0)
(0.13353705 7.5708897e-006 0)
(0.13354548 2.6857884e-006 0)
(0.13354716 -1.6322773e-007 0)
(0.13354643 -6.4036501e-007 0)
(0.13354569 -2.6931705e-007 0)
(0.13354551 1.0870056e-008 0)
(0.13354558 6.0290945e-008 0)
(0.13354566 2.4573448e-008 0)
(0.13354567 -9.2186713e-010 0)
(0.13354567 -4.8219235e-009 0)
(0.13354566 -2.0149297e-009 0)
(0.13354566 -3.4432056e-010 0)
(0.13354566 2.4485167e-010 0)
(0.13354566 2.0872006e-009 0)
(0.13354566 8.7189991e-009 0)
(0.13354568 8.1372065e-009 0)
(0.12058908 -0.018178343 0)
(0.10282274 -0.0044138661 0)
(0.10283969 -0.0005569731 0)
(0.10161927 -0.00012825439 0)
(0.10171105 -1.3302227e-005 0)
(0.10153161 -2.3284634e-005 0)
(0.10150493 -6.8522928e-006 0)
(0.10148365 3.0502625e-006 0)
(0.10149972 7.0081454e-006 0)
(0.10151481 4.5260109e-006 0)
(0.10152299 1.4140454e-006 0)
(0.10152396 -2.1983129e-007 0)
(0.10152285 -4.1283062e-007 0)
(0.10152207 -1.4767859e-007 0)
(0.10152196 1.8543522e-008 0)
(0.10152206 3.8579636e-008 0)
(0.10152214 1.3177035e-008 0)
(0.10152215 -1.7239038e-009 0)
(0.10152214 -3.1007063e-009 0)
(0.10152213 -1.1340092e-009 0)
(0.10152213 -1.7602493e-010 0)
(0.10152213 2.4270185e-010 0)
(0.10152213 1.6931613e-009 0)
(0.10152214 5.9809083e-009 0)
(0.10152216 5.4423491e-009 0)
(0.086063182 -0.013043155 0)
(0.065892336 -0.0024998077 0)
(0.066366376 -0.00020945575 0)
(0.065126299 -5.8312206e-005 0)
(0.065349162 1.059968e-005 0)
(0.065206612 -7.1446245e-006 0)
(0.065208612 9.1281233e-008 0)
(0.065196482 2.0260798e-006 0)
(0.065214366 3.1083693e-006 0)
(0.065226177 1.7228963e-006 0)
(0.065231999 4.5097281e-007 0)
(0.065232151 -1.4447214e-007 0)
(0.065231131 -1.6566962e-007 0)
(0.065230547 -4.8667123e-008 0)
(0.065230518 1.3328445e-008 0)
(0.065230616 1.5525229e-008 0)
(0.065230669 4.2237104e-009 0)
(0.065230671 -1.2490119e-009 0)
(0.065230663 -1.2818606e-009 0)
(0.065230659 -3.9738984e-010 0)
(0.065230658 -6.6940158e-011 0)
(0.065230658 1.0116996e-010 0)
(0.065230659 8.3234466e-010 0)
(0.065230664 2.7517465e-009 0)
(0.065230683 2.4734824e-009 0)
(0.040084374 -0.0068286837 0)
(0.024051338 -0.00013183125 0)
(0.025378769 6.8116751e-006 0)
(0.024443871 1.5044307e-005 0)
(0.024735848 1.2400662e-006 0)
(0.024635371 7.5187808e-007 0)
(0.024660681 -4.1904978e-009 0)
(0.024653326 8.037952e-008 0)
(0.024663966 -3.5042218e-008 0)
(0.024668028 1.9546783e-008 0)
(0.024670288 6.7571809e-009 0)
(0.02467007 -3.867133e-009 0)
(0.024669633 -4.1884501e-009 0)
(0.024669413 -1.2884535e-009 0)
(0.024669426 1.9085626e-010 0)
(0.02466947 1.1089484e-010 0)
(0.024669488 -9.2720015e-011 0)
(0.024669487 -1.2182769e-010 0)
(0.024669483 -5.9059719e-011 0)
(0.024669481 -2.1173449e-011 0)
(0.024669481 2.1199409e-012 0)
(0.024669481 4.6837134e-011 0)
(0.024669482 2.1529178e-010 0)
(0.024669484 3.2235993e-010 0)
(0.024669494 2.1095375e-010 0)
(0.039816488 -0.0039635403 0)
(0.041398812 -0.0049628237 0)
(0.043562799 -0.0046994515 0)
(0.045127951 -0.0039811199 0)
(0.04632501 -0.0032037052 0)
(0.047174082 -0.0024495484 0)
(0.047761998 -0.0018538434 0)
(0.048168589 -0.0014202656 0)
(0.048462775 -0.001136564 0)
(0.048690181 -0.00099186265 0)
(0.048885092 -0.00097941979 0)
(0.049085425 -0.0010971151 0)
(0.049317773 -0.0013603761 0)
(0.049605325 -0.0018213158 0)
(0.04999559 -0.0025442776 0)
(0.050510107 -0.0036349132 0)
(0.051226058 -0.0053016301 0)
(0.052202379 -0.0078592818 0)
(0.053477136 -0.011602473 0)
(0.054956731 -0.017093135 0)
(0.056768824 -0.024166789 0)
(0.0569764 -0.033820223 0)
(0.057188827 -0.043915709 0)
(0.043655762 -0.056354206 0)
(0.036477614 -0.04615313 0)
(0.040134712 -0.005366408 0)
(0.041895359 -0.0066344919 0)
(0.044205077 -0.0060401654 0)
(0.045750904 -0.0050157271 0)
(0.04681965 -0.0039329148 0)
(0.047526826 -0.0029467578 0)
(0.04797284 -0.0021827323 0)
(0.048240473 -0.0016409937 0)
(0.048414934 -0.0012926024 0)
(0.048533336 -0.0011142174 0)
(0.048627053 -0.0010904347 0)
(0.048713093 -0.0012135334 0)
(0.048806624 -0.0015000267 0)
(0.048912763 -0.0019970091 0)
(0.049055845 -0.0027763036 0)
(0.049226866 -0.0039381868 0)
(0.049411794 -0.0056799298 0)
(0.049611124 -0.0083162129 0)
(0.04972816 -0.0120743 0)
(0.04942758 -0.01731211 0)
(0.048632644 -0.023714859 0)
(0.045669812 -0.031118361 0)
(0.040641293 -0.036889281 0)
(0.026206364 -0.039674387 0)
(0.010928559 -0.020290545 0)
(0.040528223 -0.0070995339 0)
(0.042439781 -0.0084498977 0)
(0.044782073 -0.0073914989 0)
(0.04616225 -0.0059555242 0)
(0.046996931 -0.0045370894 0)
(0.047486476 -0.0033124803 0)
(0.047729707 -0.0023878941 0)
(0.047833824 -0.0017554768 0)
(0.047866962 -0.0013564047 0)
(0.047867503 -0.0011514132 0)
(0.047848798 -0.0011131591 0)
(0.047814652 -0.001231226 0)
(0.047767416 -0.0015171103 0)
(0.047693767 -0.002004622 0)
(0.047580759 -0.0027728513 0)
(0.047416209 -0.0039185619 0)
(0.047115029 -0.0055865554 0)
(0.046598901 -0.0080700759 0)
(0.045737613 -0.011532174 0)
(0.044068096 -0.016149542 0)
(0.041307696 -0.021511571 0)
(0.036303163 -0.026791945 0)
(0.028775695 -0.029976806 0)
(0.015931677 -0.029300738 0)
(0.0025407782 -0.013823218 0)
(0.040975548 -0.0091890119 0)
(0.042899905 -0.010307894 0)
(0.045009339 -0.0086108406 0)
(0.0460021 -0.0066851628 0)
(0.046444898 -0.0049297715 0)
(0.046617937 -0.0034930916 0)
(0.046598577 -0.0024402786 0)
(0.046518385 -0.0017448044 0)
(0.046402872 -0.0013192085 0)
(0.046282785 -0.0011000374 0)
(0.046155601 -0.0010513439 0)
(0.046009695 -0.0011510699 0)
(0.04583242 -0.0014123577 0)
(0.045601138 -0.0018637383 0)
(0.045267115 -0.0025548822 0)
(0.044797162 -0.0035945587 0)
(0.044105176 -0.005088402 0)
(0.043021227 -0.007251735 0)
(0.04139953 -0.010220733 0)
(0.038793462 -0.013967074 0)
(0.034878594 -0.018066477 0)
(0.029000715 -0.021548518 0)
(0.021087415 -0.022696064 0)
(0.010803181 -0.020030159 0)
(0.00039394022 -0.0084972124 0)
(0.041388534 -0.011599132 0)
(0.043088797 -0.01198798 0)
(0.044525959 -0.0094703918 0)
(0.044851437 -0.0070363363 0)
(0.04472321 -0.0050019437 0)
(0.044478813 -0.0034249326 0)
(0.044164798 -0.0023169286 0)
(0.043883003 -0.001603185 0)
(0.043631945 -0.001182887 0)
(0.043402751 -0.00096628666 0)
(0.043186739 -0.0009102709 0)
(0.042952496 -0.00099001739 0)
(0.042675144 -0.0012067735 0)
(0.042317878 -0.001588866 0)
(0.041828987 -0.0021734504 0)
(0.041133052 -0.0030344128 0)
(0.040156797 -0.00427656 0)
(0.038700869 -0.0060262444 0)
(0.036587822 -0.0083862248 0)
(0.033465102 -0.011246813 0)
(0.029037651 -0.014188025 0)
(0.023039487 -0.016311072 0)
(0.015639604 -0.016382402 0)
(0.0075618632 -0.013298574 0)
(-7.5283144e-005 -0.005346748 0)
(0.041553534 -0.014170779 0)
(0.042737611 -0.013132135 0)
(0.042904856 -0.0096859725 0)
(0.042292393 -0.0068257857 0)
(0.04146136 -0.0046494031 0)
(0.040724545 -0.0030628435 0)
(0.040130429 -0.0020056324 0)
(0.039663395 -0.001341441 0)
(0.039304083 -0.00096029977 0)
(0.038999648 -0.00076769987 0)
(0.038724927 -0.00071278548 0)
(0.038436803 -0.00076935109 0)
(0.038103715 -0.00093618872 0)
(0.037672632 -0.0012261788 0)
(0.037099602 -0.0016778532 0)
(0.036291111 -0.0023329487 0)
(0.035164057 -0.0032725857 0)
(0.033544997 -0.0045765264 0)
(0.03123875 -0.0062981253 0)
(0.027985535 -0.0083222338 0)
(0.02357775 -0.010277979 0)
(0.017997074 -0.011478653 0)
(0.011534169 -0.011028969 0)
(0.0053540362 -0.0082833187 0)
(-0.00016251453 -0.0030423064 0)
(0.041199625 -0.016667095 0)
(0.041359168 -0.013208317 0)
(0.03962383 -0.0089813199 0)
(0.037883941 -0.0059099343 0)
(0.036337898 -0.003830596 0)
(0.03515877 -0.002420709 0)
(0.034343821 -0.0015258771 0)
(0.03376065 -0.00098592649 0)
(0.033341242 -0.00068372377 0)
(0.033009866 -0.00053390534 0)
(0.032718524 -0.00048855162 0)
(0.032422324 -0.00052439295 0)
(0.032080615 -0.0006368787 0)
(0.03164567 -0.00083459936 0)
(0.031065051 -0.0011403436 0)
(0.03025961 -0.0015855946 0)
(0.029136544 -0.0022173512 0)
(0.027555301 -0.003087798 0)
(0.025338724 -0.0042159465 0)
(0.022298945 -0.0055103018 0)
(0.018320228 -0.0066911977 0)
(0.013497961 -0.0072966265 0)
(0.0082136611 -0.00672681 0)
(0.0036232371 -0.0046446117 0)
(-0.00017661108 -0.0014452393 0)
(0.039576855 -0.018346372 0)
(0.038108318 -0.011643588 0)
(0.033828485 -0.0071327048 0)
(0.031117242 -0.004300943 0)
(0.029071153 -0.0026097886 0)
(0.027675216 -0.0015729774 0)
(0.026779856 -0.0009526045 0)
(0.026187845 -0.00059086795 0)
(0.025784879 -0.00039581096 0)
(0.025482684 -0.00030101125 0)
(0.02522444 -0.00027168944 0)
(0.024966539 -0.00029051922 0)
(0.024669429 -0.0003528351 0)
(0.02429403 -0.00046466813 0)
(0.023790829 -0.00063585362 0)
(0.023096564 -0.00088621645 0)
(0.022129699 -0.001240378 0)
(0.020777058 -0.0017256597 0)
(0.018899651 -0.0023475126 0)
(0.016366577 -0.0030498086 0)
(0.013130333 -0.0036636878 0)
(0.0093289165 -0.0039101095 0)
(0.0053478746 -0.0034550161 0)
(0.0021630236 -0.0021201866 0)
(-0.00018587346 -0.00042138936 0)
(0.034477883 -0.016462564 0)
(0.031545597 -0.0077817298 0)
(0.024486296 -0.0043791023 0)
(0.021575028 -0.0023614354 0)
(0.019493104 -0.0013474851 0)
(0.018242808 -0.00076845223 0)
(0.017483588 -0.00044357205 0)
(0.017018627 -0.00026262176 0)
(0.016718651 -0.00016867005 0)
(0.016503322 -0.00012421838 0)
(0.016323873 -0.00011037286 0)
(0.01614642 -0.00011739774 0)
(0.015942315 -0.00014326398 0)
(0.015683024 -0.00018987061 0)
(0.015333831 -0.0002611221 0)
(0.014850555 -0.00036524547 0)
(0.014175108 -0.00051251831 0)
(0.013229354 -0.00071325288 0)
(0.011919301 -0.00097081417 0)
(0.010159344 -0.0012593744 0)
(0.0079303258 -0.0015020629 0)
(0.005372187 -0.001568158 0)
(0.0027774343 -0.0013130901 0)
(0.00089595981 -0.00064910823 0)
(-0.00021025987 4.6445967e-005 0)
(0.02051741 -0.012025716 0)
(0.017337854 -0.0023140695 0)
(0.010536856 -0.00037734998 0)
(0.0091089108 -0.00014831054 0)
(0.0077239562 -4.4238373e-005 0)
(0.0070558263 -1.3702656e-005 0)
(0.0066583217 -2.1114367e-006 0)
(0.0064342994 2.9595737e-006 0)
(0.0062987291 4.8469056e-006 0)
(0.0062076944 5.5729561e-006 0)
(0.0061349109 5.8055925e-006 0)
(0.0060639421 6.1140152e-006 0)
(0.0059821485 6.8809687e-006 0)
(0.0058767754 8.0550809e-006 0)
(0.0057332865 1.0024371e-005 0)
(0.0055329715 1.2631808e-005 0)
(0.0052508769 1.6113756e-005 0)
(0.004854479 2.0863113e-005 0)
(0.0043043936 2.6814818e-005 0)
(0.0035667391 3.460719e-005 0)
(0.002636457 4.3153399e-005 0)
(0.00159498 5.7891648e-005 0)
(0.00057220259 7.0932863e-005 0)
(-4.0963196e-005 0.00011211543 0)
(-0.00018548309 0.00012872838 0)
)
;

boundaryField
{
    inlet
    {
        type            fixedValue;
        value           uniform (0.03876 0 0);
    }
    walls
    {
        type            fixedValue;
        value           uniform (0 0 0);
    }
    outlet
    {
        type            zeroGradient;
    }
    centreline
    {
        type            symmetryPlane;
    }
    frontAndBack
    {
        type            empty;
    }
}


// ************************************************************************* //
