/*--------------------------------*- C++ -*----------------------------------*\
| =========                 |                                                 |
| \\      /  F ield         | OpenFOAM: The Open Source CFD Toolbox           |
|  \\    /   O peration     | Version:  5.x                                   |
|   \\  /    A nd           | Web:      www.OpenFOAM.org                      |
|    \\/     M anipulation  |                                                 |
\*---------------------------------------------------------------------------*/
/*   Windows 32 and 64 bit porting by blueCAPE: http://www.bluecape.com.pt   *\
|  Based on Windows porting (2.0.x v4) by Symscape: http://www.symscape.com   |
\*---------------------------------------------------------------------------*/
FoamFile
{
    version     2.0;
    format      ascii;
    class       volVectorField;
    location    "0.23";
    object      U_0;
}
// * * * * * * * * * * * * * * * * * * * * * * * * * * * * * * * * * * * * * //

dimensions      [0 1 -1 0 0 0 0];

internalField   nonuniform List<vector> 
750
(
(0.039374349 -0.0001547089 0)
(0.040659906 -0.00019471984 0)
(0.042427834 -0.00019494659 0)
(0.043828896 -0.00016953745 0)
(0.045121047 -0.00014348019 0)
(0.046130804 -0.00011355955 0)
(0.046934055 -8.9289047e-005 0)
(0.047559078 -7.0270162e-005 0)
(0.048054222 -5.740937e-005 0)
(0.048474738 -5.1319358e-005 0)
(0.048873034 -5.1503163e-005 0)
(0.049296232 -5.8235924e-005 0)
(0.049801177 -7.3023983e-005 0)
(0.050459861 -9.8423243e-005 0)
(0.051370885 -0.00013896824 0)
(0.05267336 -0.00020106131 0)
(0.054572705 -0.00029848981 0)
(0.057428989 -0.00045261276 0)
(0.061778302 -0.00068954753 0)
(0.068379267 -0.0010569581 0)
(0.078654001 -0.001561089 0)
(0.092997483 -0.0023155241 0)
(0.11587254 -0.0031849941 0)
(0.14275628 -0.0041168544 0)
(0.18270413 -0.0046959696 0)
(0.039378926 -0.00046247926 0)
(0.040667929 -0.00059020426 0)
(0.042442611 -0.00058244851 0)
(0.043847282 -0.00051037462 0)
(0.045138538 -0.0004293243 0)
(0.04614648 -0.00034069885 0)
(0.046946916 -0.00026733811 0)
(0.047568611 -0.00020997213 0)
(0.048060328 -0.00017160595 0)
(0.04847804 -0.0001533698 0)
(0.048873106 -0.00015384529 0)
(0.049292623 -0.0001739276 0)
(0.049792632 -0.00021801555 0)
(0.050445159 -0.00029379276 0)
(0.051347068 -0.00041469528 0)
(0.052635609 -0.00059984113 0)
(0.054513837 -0.00089003742 0)
(0.057335639 -0.0013488568 0)
(0.061625939 -0.0020537174 0)
(0.068131505 -0.0031429071 0)
(0.078237625 -0.0046500483 0)
(0.092337256 -0.0068573909 0)
(0.11478622 -0.0095065836 0)
(0.14107145 -0.012202616 0)
(0.18064871 -0.014084581 0)
(0.039386837 -0.00077070958 0)
(0.04068486 -0.00099067702 0)
(0.042473152 -0.00096969794 0)
(0.043884237 -0.00085253227 0)
(0.045174399 -0.00071433068 0)
(0.046178689 -0.00056717409 0)
(0.046972922 -0.00044430019 0)
(0.047587977 -0.00034846288 0)
(0.048073256 -0.00028473861 0)
(0.0484853 -0.00025435545 0)
(0.048873767 -0.00025499365 0)
(0.049286021 -0.00028810604 0)
(0.049776211 -0.00036107712 0)
(0.050416289 -0.00048646849 0)
(0.05130001 -0.00068642254 0)
(0.052560863 -0.00099248043 0)
(0.054396424 -0.0014716932 0)
(0.057148489 -0.0022285604 0)
(0.06132144 -0.0033911913 0)
(0.067632742 -0.0051812259 0)
(0.077412592 -0.0076720447 0)
(0.090998178 -0.011271444 0)
(0.11266325 -0.01567239 0)
(0.13772028 -0.020056391 0)
(0.17646796 -0.023380034 0)
(0.039398658 -0.0010827135 0)
(0.040711602 -0.0013950802 0)
(0.042520443 -0.0013599388 0)
(0.04394055 -0.0011954461 0)
(0.045229396 -0.00099875793 0)
(0.046228113 -0.00079196551 0)
(0.047012559 -0.00061919386 0)
(0.04761763 -0.00048497965 0)
(0.048093604 -0.00039599803 0)
(0.048497085 -0.0003534258 0)
(0.048875521 -0.00035395308 0)
(0.049277042 -0.00039963296 0)
(0.049752712 -0.00050064655 0)
(0.050374104 -0.00067434485 0)
(0.05123086 -0.00095100572 0)
(0.052450779 -0.0013741337 0)
(0.054223037 -0.0020358278 0)
(0.056872085 -0.0030793988 0)
(0.060874189 -0.0046801058 0)
(0.06689687 -0.0071384862 0)
(0.076197862 -0.010563117 0)
(0.089018226 -0.01548375 0)
(0.10953172 -0.021527493 0)
(0.13269612 -0.027532804 0)
(0.17013515 -0.032351309 0)
(0.039415779 -0.0014004649 0)
(0.040749266 -0.0018046663 0)
(0.04258553 -0.0017546298 0)
(0.044017268 -0.0015392949 0)
(0.045304158 -0.0012822981 0)
(0.046295266 -0.0010144084 0)
(0.04706628 -0.00079117952 0)
(0.047658087 -0.00061873801 0)
(0.048121839 -0.00050463123 0)
(0.048513831 -0.00044978362 0)
(0.048878752 -0.00044990985 0)
(0.049266325 -0.00050746491 0)
(0.04972288 -0.00063542042 0)
(0.050319594 -0.00085559916 0)
(0.051140969 -0.0012057584 0)
(0.052307395 -0.001740762 0)
(0.053997034 -0.0025758811 0)
(0.056512122 -0.0038906522 0)
(0.060293301 -0.0059025625 0)
(0.06593762 -0.0089842067 0)
(0.074623025 -0.013272717 0)
(0.086411569 -0.019416023 0)
(0.10541653 -0.026951187 0)
(0.12611369 -0.034544035 0)
(0.16170099 -0.040642845 0)
(0.039439712 -0.0017260315 0)
(0.040799122 -0.0022212064 0)
(0.042669609 -0.0021548353 0)
(0.044115542 -0.0018843157 0)
(0.045399303 -0.0015645751 0)
(0.046380482 -0.0012337922 0)
(0.047134337 -0.00095943259 0)
(0.047709706 -0.00074895723 0)
(0.048158223 -0.00060988566 0)
(0.048535761 -0.00054262811 0)
(0.048883685 -0.00054199383 0)
(0.049254187 -0.00061072216 0)
(0.049687444 -0.00076406803 0)
(0.050253614 -0.0010284117 0)
(0.05103156 -0.0014481226 0)
(0.052132525 -0.0020884326 0)
(0.053721389 -0.0030858758 0)
(0.056073394 -0.0046527981 0)
(0.059587563 -0.007042178 0)
(0.064775752 -0.010692957 0)
(0.072711497 -0.015752763 0)
(0.083213016 -0.02299671 0)
(0.10040096 -0.0318232 0)
(0.11786047 -0.040957499 0)
(0.1511503 -0.048104988 0)
(0.039472323 -0.0020619834 0)
(0.040862419 -0.0026461372 0)
(0.042773692 -0.0025617197 0)
(0.044236049 -0.0022306283 0)
(0.045515066 -0.0018451163 0)
(0.046483462 -0.0014493255 0)
(0.047216621 -0.0011230598 0)
(0.047772238 -0.00087482863 0)
(0.048202362 -0.00071104152 0)
(0.048562539 -0.00063114367 0)
(0.048889904 -0.00062945409 0)
(0.04924055 -0.0007084375 0)
(0.049646485 -0.00088537441 0)
(0.050176679 -0.0011911656 0)
(0.05090362 -0.0016756577 0)
(0.05192784 -0.002413456 0)
(0.053399268 -0.0035599632 0)
(0.055562181 -0.0053565506 0)
(0.058768411 -0.0080838086 0)
(0.063430971 -0.01223787 0)
(0.070494031 -0.017954341 0)
(0.07947452 -0.026149097 0)
(0.094519602 -0.035977929 0)
(0.1077865 -0.046480469 0)
(0.13899433 -0.054734716 0)
(0.039516097 -0.0024115431 0)
(0.040940151 -0.0030804517 0)
(0.042898076 -0.0029765601 0)
(0.04437879 -0.0025781605 0)
(0.045650627 -0.0021232544 0)
(0.046602761 -0.0016601768 0)
(0.047312076 -0.001281262 0)
(0.047844418 -0.00099548647 0)
(0.048253011 -0.00080728344 0)
(0.048592732 -0.00071457024 0)
(0.048896483 -0.0007113983 0)
(0.049224004 -0.00079983763 0)
(0.049599501 -0.00099825953 0)
(0.050088616 -0.0013422009 0)
(0.050757571 -0.0018859675 0)
(0.05169454 -0.0027125033 0)
(0.053034139 -0.0039932301 0)
(0.054985629 -0.0059940645 0)
(0.057847873 -0.0090149156 0)
(0.061924828 -0.01359651 0)
(0.068016244 -0.019837332 0)
(0.075260745 -0.028807281 0)
(0.087843743 -0.039309204 0)
(0.096536133 -0.051089267 0)
(0.12549849 -0.059389572 0)
(0.039573599 -0.002778046 0)
(0.04103341 -0.0035253517 0)
(0.04304206 -0.0034002247 0)
(0.044543159 -0.0029266702 0)
(0.045803639 -0.0023981081 0)
(0.046736023 -0.0018654257 0)
(0.047418124 -0.0014331485 0)
(0.047923748 -0.0011101609 0)
(0.048307747 -0.00089782057 0)
(0.048623465 -0.00079204197 0)
(0.048901236 -0.00078718924 0)
(0.049202289 -0.00088417668 0)
(0.049544739 -0.0011016355 0)
(0.049988234 -0.0014800877 0)
(0.050592932 -0.0020773078 0)
(0.051433667 -0.0029828383 0)
(0.052628973 -0.0043810994 0)
(0.054351992 -0.0065584161 0)
(0.056840126 -0.0098239776 0)
(0.060282421 -0.014747355 0)
(0.065337095 -0.021359079 0)
(0.070688612 -0.030883735 0)
(0.080572751 -0.041725378 0)
(0.084289928 -0.05487683 0)
(0.11068881 -0.062485237 0)
(0.039645756 -0.003162731 0)
(0.0411435 -0.0039858414 0)
(0.043204098 -0.0038309896 0)
(0.044727058 -0.0032762237 0)
(0.045970529 -0.0026692156 0)
(0.046878606 -0.0020639909 0)
(0.0475308 -0.0015779426 0)
(0.048006276 -0.0012181742 0)
(0.048362402 -0.00098187622 0)
(0.048650578 -0.00086303055 0)
(0.048901166 -0.00085601973 0)
(0.049171399 -0.00096068129 0)
(0.049478869 -0.0011949845 0)
(0.049872968 -0.001603733 0)
(0.050408535 -0.0022475335 0)
(0.051144419 -0.0032221238 0)
(0.052185656 -0.0047214927 0)
(0.053667144 -0.0070466944 0)
(0.055757484 -0.010504923 0)
(0.058538396 -0.015684365 0)
(0.062512857 -0.022540824 0)
(0.06598913 -0.032349515 0)
(0.072699341 -0.043258657 0)
(0.070751686 -0.057342136 0)
(0.09125384 -0.062646657 0)
(0.21563913 -0.0027079831 0)
(0.22660984 -0.0010341956 0)
(0.23058705 -0.00027150498 0)
(0.23110638 -6.4894045e-005 0)
(0.2315657 -2.7892078e-005 0)
(0.23163267 -1.2924697e-005 0)
(0.23173757 -9.4883309e-006 0)
(0.23176286 -2.0577446e-006 0)
(0.23176209 1.0370106e-006 0)
(0.23174457 1.8235157e-006 0)
(0.23173409 9.2064209e-007 0)
(0.23173099 1.4783582e-007 0)
(0.23173187 -1.1038294e-007 0)
(0.2317328 -8.3419438e-008 0)
(0.23173307 -1.3740814e-008 0)
(0.23173298 1.1754481e-008 0)
(0.23173288 8.5737188e-009 0)
(0.23173285 1.3140185e-009 0)
(0.23173286 -8.9264749e-010 0)
(0.23173287 -6.0846315e-010 0)
(0.23173287 -1.3056904e-010 0)
(0.23173287 -7.3878798e-011 0)
(0.23173287 9.2909475e-011 0)
(0.23173287 1.4151794e-009 0)
(0.23173284 1.4070428e-009 0)
(0.21271586 -0.0077975511 0)
(0.22232385 -0.003006263 0)
(0.22613276 -0.00072083734 0)
(0.22651793 -0.00023181259 0)
(0.22687302 -8.881536e-005 0)
(0.22691101 -3.7043366e-005 0)
(0.22700056 -2.1554098e-005 0)
(0.22702139 -5.5692855e-006 0)
(0.22701788 3.7359668e-006 0)
(0.22700202 5.0202894e-006 0)
(0.22699261 2.5529117e-006 0)
(0.22699018 3.8336713e-007 0)
(0.22699109 -3.3225504e-007 0)
(0.22699192 -2.2394555e-007 0)
(0.22699213 -3.1385488e-008 0)
(0.22699204 3.4611232e-008 0)
(0.22699196 2.3388871e-008 0)
(0.22699193 3.5647747e-009 0)
(0.22699194 -2.6689484e-009 0)
(0.22699195 -1.6701498e-009 0)
(0.22699195 -4.5341966e-010 0)
(0.22699195 -1.4370673e-010 0)
(0.22699195 3.8569023e-010 0)
(0.22699195 4.1450772e-009 0)
(0.22699193 4.2389284e-009 0)
(0.20673995 -0.012407579 0)
(0.21370226 -0.0047078239 0)
(0.21735524 -0.0011770309 0)
(0.2172465 -0.000318469 0)
(0.21742125 -0.00010399808 0)
(0.21746403 -5.889863e-005 0)
(0.21753822 -3.1948108e-005 0)
(0.21754943 -7.5911067e-006 0)
(0.21754237 6.5027682e-006 0)
(0.21752944 7.8772295e-006 0)
(0.21752245 3.8715962e-006 0)
(0.21752124 5.0736991e-007 0)
(0.21752215 -5.3748511e-007 0)
(0.21752278 -3.4031602e-007 0)
(0.21752291 -4.0759775e-008 0)
(0.21752282 5.5252697e-008 0)
(0.21752276 3.5014197e-008 0)
(0.21752275 4.857103e-009 0)
(0.21752276 -4.2631913e-009 0)
(0.21752276 -2.5614881e-009 0)
(0.21752277 -6.3812012e-010 0)
(0.21752276 -1.5388149e-010 0)
(0.21752276 7.8737245e-010 0)
(0.21752276 6.7272855e-009 0)
(0.21752274 6.9076064e-009 0)
(0.19745421 -0.016279314 0)
(0.20113023 -0.0060805756 0)
(0.20387833 -0.0014266554 0)
(0.20322129 -0.00033010968 0)
(0.20331783 -9.8903988e-005 0)
(0.20334601 -7.2396399e-005 0)
(0.20338566 -3.8753544e-005 0)
(0.20337919 -7.3353146e-006 0)
(0.20337044 9.0355538e-006 0)
(0.20336166 9.9925766e-006 0)
(0.20335867 4.6208178e-006 0)
(0.20335888 4.5838065e-007 0)
(0.20335965 -7.0562666e-007 0)
(0.20335998 -4.1668552e-007 0)
(0.20335999 -4.0244329e-008 0)
(0.20335992 7.055591e-008 0)
(0.20335989 4.1322069e-008 0)
(0.20335989 4.5621392e-009 0)
(0.2033599 -5.4638387e-009 0)
(0.2033599 -3.0991578e-009 0)
(0.2033599 -7.039731e-010 0)
(0.2033599 -1.0642679e-010 0)
(0.2033599 1.2537599e-009 0)
(0.2033599 8.8862246e-009 0)
(0.20335989 9.001211e-009 0)
(0.18468312 -0.019122378 0)
(0.18437134 -0.0069556365 0)
(0.18535422 -0.0013688377 0)
(0.18457674 -0.00029966399 0)
(0.18466087 -0.00010670477 0)
(0.18460646 -8.1067605e-005 0)
(0.18460021 -3.7669566e-005 0)
(0.1845774 -4.7919129e-006 0)
(0.18457038 1.1141366e-005 0)
(0.18456817 1.0768188e-005 0)
(0.18457002 4.5981919e-006 0)
(0.18457137 2.6095031e-007 0)
(0.18457179 -8.0525073e-007 0)
(0.18457172 -4.2875108e-007 0)
(0.18457161 -2.633913e-008 0)
(0.18457158 7.8247785e-008 0)
(0.18457159 4.1239874e-008 0)
(0.1845716 2.9997029e-009 0)
(0.18457161 -6.1150563e-009 0)
(0.18457161 -3.1926174e-009 0)
(0.18457161 -6.5128089e-010 0)
(0.18457161 4.246258e-011 0)
(0.1845716 1.6694003e-009 0)
(0.1845716 1.0240508e-008 0)
(0.1845716 1.012329e-008 0)
(0.16861808 -0.020883198 0)
(0.16238949 -0.0068528575 0)
(0.16221694 -0.0011883304 0)
(0.16140341 -0.00025810457 0)
(0.16144976 -8.4801e-005 0)
(0.16131471 -6.9019655e-005 0)
(0.16127831 -2.8697686e-005 0)
(0.16124838 -1.0215811e-006 0)
(0.16124728 1.1803774e-005 0)
(0.16125328 9.9336773e-006 0)
(0.1612594 3.851274e-006 0)
(0.16126126 6.0179249e-009 0)
(0.16126112 -7.8572125e-007 0)
(0.16126065 -3.7323973e-007 0)
(0.16126048 -5.3064658e-009 0)
(0.16126049 7.4813757e-008 0)
(0.16126054 3.4920852e-008 0)
(0.16126056 7.8820793e-010 0)
(0.16126056 -5.9240009e-009 0)
(0.16126056 -2.7476812e-009 0)
(0.16126056 -5.021007e-010 0)
(0.16126056 1.362819e-010 0)
(0.16126055 1.9824074e-009 0)
(0.16126055 1.0287542e-008 0)
(0.16126056 9.8821849e-009 0)
(0.14794659 -0.020857605 0)
(0.1350503 -0.0059457141 0)
(0.13473645 -0.00089487668 0)
(0.13374626 -0.0002034196 0)
(0.13376749 -5.0481339e-005 0)
(0.1335871 -4.6941571e-005 0)
(0.13354365 -1.7203428e-005 0)
(0.13351518 2.1301755e-006 0)
(0.13352321 1.0333731e-005 0)
(0.13353604 7.5697765e-006 0)
(0.13354443 2.6504252e-006 0)
(0.13354607 -1.8476452e-007 0)
(0.13354532 -6.436896e-007 0)
(0.13354459 -2.6618064e-007 0)
(0.13354441 1.3087228e-008 0)
(0.13354448 6.0661018e-008 0)
(0.13354456 2.4307246e-008 0)
(0.13354457 -1.0902442e-009 0)
(0.13354457 -4.8340126e-009 0)
(0.13354456 -1.9886827e-009 0)
(0.13354456 -3.3535074e-010 0)
(0.13354456 2.3718396e-010 0)
(0.13354456 2.0787325e-009 0)
(0.13354456 8.7720401e-009 0)
(0.13354458 8.1989239e-009 0)
(0.12059036 -0.018178147 0)
(0.10282422 -0.0044140394 0)
(0.10284069 -0.00055759398 0)
(0.10161861 -0.00012906122 0)
(0.10170877 -1.3809636e-005 0)
(0.10152851 -2.339617e-005 0)
(0.10150191 -6.7299799e-006 0)
(0.10148104 3.1962242e-006 0)
(0.1014974 7.0722154e-006 0)
(0.10151255 4.5193812e-006 0)
(0.10152068 1.3908681e-006 0)
(0.1015216 -2.3231781e-007 0)
(0.10152048 -4.1413476e-007 0)
(0.1015197 -1.4545761e-007 0)
(0.10151959 1.9856295e-008 0)
(0.1015197 3.8734794e-008 0)
(0.10151977 1.2988347e-008 0)
(0.10151978 -1.8209654e-009 0)
(0.10151977 -3.1017048e-009 0)
(0.10151977 -1.1161655e-009 0)
(0.10151977 -1.72263e-010 0)
(0.10151977 2.366015e-010 0)
(0.10151977 1.6864092e-009 0)
(0.10151977 6.0179299e-009 0)
(0.10151979 5.4865301e-009 0)
(0.086064416 -0.013043027 0)
(0.065893426 -0.002499882 0)
(0.06636672 -0.00020972541 0)
(0.065125009 -5.8644756e-005 0)
(0.065346415 1.0416025e-005 0)
(0.06520324 -7.1755279e-006 0)
(0.0652054 1.4049615e-007 0)
(0.065193619 2.0821149e-006 0)
(0.065211731 3.1300028e-006 0)
(0.065223574 1.7172647e-006 0)
(0.065229344 4.4102818e-007 0)
(0.065229455 -1.4889155e-007 0)
(0.065228425 -1.6578208e-007 0)
(0.065227846 -4.7633046e-008 0)
(0.065227821 1.3815562e-008 0)
(0.06522792 1.5545755e-008 0)
(0.065227973 4.1383787e-009 0)
(0.065227974 -1.2834052e-009 0)
(0.065227966 -1.2785953e-009 0)
(0.065227962 -3.8939535e-010 0)
(0.065227961 -6.6255365e-011 0)
(0.065227961 9.750821e-011 0)
(0.065227962 8.2695508e-010 0)
(0.065227967 2.7664658e-009 0)
(0.065227987 2.4929581e-009 0)
(0.040085033 -0.0068287441 0)
(0.024051912 -0.00013188464 0)
(0.025378928 6.7523827e-006 0)
(0.024443193 1.500658e-005 0)
(0.024734443 1.2084234e-006 0)
(0.024633705 7.396835e-007 0)
(0.024659095 -1.2895036e-008 0)
(0.024651878 8.0959007e-008 0)
(0.024662603 -3.3853888e-008 0)
(0.024666669 2.0061898e-008 0)
(0.024668904 6.7159171e-009 0)
(0.024668671 -3.8555622e-009 0)
(0.024668231 -4.1755623e-009 0)
(0.024668013 -1.2597401e-009 0)
(0.024668028 1.9796338e-010 0)
(0.024668072 1.0837462e-010 0)
(0.024668091 -9.49892e-011 0)
(0.024668089 -1.2208813e-010 0)
(0.024668085 -5.8677385e-011 0)
(0.024668083 -2.088945e-011 0)
(0.024668083 1.8216079e-012 0)
(0.024668083 4.6290199e-011 0)
(0.024668084 2.1474163e-010 0)
(0.024668087 3.2680259e-010 0)
(0.024668096 2.1593648e-010 0)
(0.039815603 -0.0039609563 0)
(0.041397171 -0.0049598284 0)
(0.043560058 -0.0046966079 0)
(0.045124442 -0.0039786092 0)
(0.046320798 -0.0032016006 0)
(0.04716934 -0.0024479309 0)
(0.047756915 -0.0018526998 0)
(0.048163285 -0.0014195249 0)
(0.048457365 -0.0011361137 0)
(0.048684742 -0.00099160178 0)
(0.048879636 -0.0009792864 0)
(0.049079997 -0.0010970668 0)
(0.049312381 -0.0013603534 0)
(0.04959997 -0.0018212812 0)
(0.049990302 -0.0025441906 0)
(0.050504878 -0.0036346466 0)
(0.051220838 -0.0053010142 0)
(0.052197247 -0.0078583356 0)
(0.053472078 -0.011601569 0)
(0.054951856 -0.01709321 0)
(0.056764385 -0.024168852 0)
(0.056972764 -0.033824634 0)
(0.057186118 -0.043921485 0)
(0.043654267 -0.056359509 0)
(0.036476964 -0.046155991 0)
(0.040133769 -0.0053629188 0)
(0.041893996 -0.0066307556 0)
(0.044202995 -0.0060367672 0)
(0.045748358 -0.0050127201 0)
(0.04681666 -0.0039304088 0)
(0.047523485 -0.0029448526 0)
(0.047969259 -0.0021814059 0)
(0.048236755 -0.0016401592 0)
(0.048411184 -0.0012921131 0)
(0.048529594 -0.0011139697 0)
(0.048623358 -0.0010903196 0)
(0.048709446 -0.001213504 0)
(0.048803022 -0.0015000588 0)
(0.04890925 -0.0019970303 0)
(0.049052391 -0.0027762696 0)
(0.049223555 -0.0039379873 0)
(0.049408589 -0.0056794121 0)
(0.049608115 -0.0083153987 0)
(0.049725423 -0.012073606 0)
(0.049425255 -0.017312498 0)
(0.048630778 -0.023717422 0)
(0.045668492 -0.031123329 0)
(0.040640428 -0.036895607 0)
(0.02620582 -0.039680172 0)
(0.01092816 -0.020293699 0)
(0.040527496 -0.0070953416 0)
(0.042439151 -0.0084458119 0)
(0.044781317 -0.0073878778 0)
(0.046161491 -0.0059522993 0)
(0.046996102 -0.0045343855 0)
(0.04748555 -0.0033104146 0)
(0.047728705 -0.0023864662 0)
(0.047832779 -0.0017546089 0)
(0.04786597 -0.00135594 0)
(0.047866555 -0.0011511919 0)
(0.047847944 -0.0011130868 0)
(0.047813833 -0.0012312572 0)
(0.047766673 -0.0015171837 0)
(0.047693109 -0.0020047102 0)
(0.047580167 -0.0027728971 0)
(0.047415756 -0.0039184739 0)
(0.047114762 -0.0055862056 0)
(0.046598891 -0.0080694647 0)
(0.045737928 -0.01153176 0)
(0.0440688 -0.016150289 0)
(0.041308783 -0.021514414 0)
(0.036304342 -0.026797093 0)
(0.028776546 -0.029983158 0)
(0.015932151 -0.029306409 0)
(0.0025407273 -0.013826602 0)
(0.040975312 -0.0091845871 0)
(0.042900281 -0.010303995 0)
(0.045010238 -0.0086074308 0)
(0.046003475 -0.0066820821 0)
(0.04644663 -0.0049271366 0)
(0.046619867 -0.0034910417 0)
(0.046600647 -0.0024388791 0)
(0.046520552 -0.0017439782 0)
(0.046405138 -0.0013187911 0)
(0.046285149 -0.0010998812 0)
(0.046158021 -0.0010513241 0)
(0.046012182 -0.001151143 0)
(0.045834959 -0.0014124782 0)
(0.045603718 -0.0018638876 0)
(0.045269766 -0.0025550127 0)
(0.044799901 -0.0035945784 0)
(0.044108097 -0.0050882167 0)
(0.043024379 -0.0072513588 0)
(0.041403013 -0.010220562 0)
(0.038797152 -0.013968013 0)
(0.0348823 -0.018069358 0)
(0.029004019 -0.021553418 0)
(0.021089732 -0.022701859 0)
(0.010804518 -0.020035205 0)
(0.00039405548 -0.0085001774 0)
(0.041388947 -0.011595061 0)
(0.043090072 -0.011984712 0)
(0.044528216 -0.0094675492 0)
(0.04485451 -0.0070337225 0)
(0.044726982 -0.0049996685 0)
(0.044483091 -0.0034231318 0)
(0.044169421 -0.0023156731 0)
(0.043887866 -0.0016024699 0)
(0.043636924 -0.0011825542 0)
(0.043407841 -0.00096619115 0)
(0.043191879 -0.00091029924 0)
(0.042957678 -0.00099012303 0)
(0.042680345 -0.0012069235 0)
(0.042323084 -0.0015890353 0)
(0.041834225 -0.0021736277 0)
(0.041138318 -0.0030345177 0)
(0.040162165 -0.0042765033 0)
(0.038706394 -0.0060260527 0)
(0.03659358 -0.0083862194 0)
(0.033470943 -0.011247712 0)
(0.029043116 -0.014190572 0)
(0.023044041 -0.016315225 0)
(0.015642759 -0.016387217 0)
(0.007563607 -0.013302653 0)
(-7.5148178e-005 -0.0053490033 0)
(0.041554497 -0.014167548 0)
(0.04273935 -0.013129742 0)
(0.042907737 -0.0096838613 0)
(0.042296201 -0.0068238391 0)
(0.041466018 -0.0046476855 0)
(0.040729934 -0.0030614567 0)
(0.040136278 -0.0020046498 0)
(0.039669559 -0.0013408825 0)
(0.039310403 -0.0009600634 0)
(0.039006053 -0.0007676571 0)
(0.038731375 -0.00071284368 0)
(0.038443254 -0.00076946223 0)
(0.038110157 -0.00093633682 0)
(0.037679044 -0.0012263469 0)
(0.037105992 -0.0016780236 0)
(0.036297474 -0.0023330775 0)
(0.035170446 -0.0032725975 0)
(0.033551471 -0.0045764416 0)
(0.03124535 -0.0062981859 0)
(0.027992092 -0.0083229493 0)
(0.023583741 -0.010279909 0)
(0.018001886 -0.011481796 0)
(0.011537337 -0.011032583 0)
(0.0053557323 -0.0082862499 0)
(-0.00016245701 -0.0030438132 0)
(0.041200799 -0.016664915 0)
(0.041360903 -0.013206719 0)
(0.039626627 -0.0089799052 0)
(0.037887594 -0.0059086746 0)
(0.036342364 -0.0038294941 0)
(0.035163962 -0.0024197926 0)
(0.034349514 -0.0015252175 0)
(0.033766664 -0.00098555439 0)
(0.033347421 -0.00068357832 0)
(0.033016106 -0.00053390077 0)
(0.032724777 -0.00048861643 0)
(0.032428557 -0.00052449211 0)
(0.032086809 -0.00063699844 0)
(0.031651813 -0.00083473671 0)
(0.031071137 -0.001140481 0)
(0.030265638 -0.0015857017 0)
(0.029142553 -0.0022173871 0)
(0.027561346 -0.003087763 0)
(0.025344818 -0.0042160028 0)
(0.022304949 -0.0055107821 0)
(0.018325669 -0.0066924439 0)
(0.013502257 -0.0072986969 0)
(0.0082163563 -0.0067292109 0)
(0.003624623 -0.0046464808 0)
(-0.00017664119 -0.0014461269 0)
(0.039577865 -0.018345203 0)
(0.038109753 -0.011642652 0)
(0.033830845 -0.0071319062 0)
(0.03112026 -0.0043002715 0)
(0.029074825 -0.0026092301 0)
(0.02767945 -0.001572502 0)
(0.026784524 -0.00095224877 0)
(0.026192792 -0.00059066986 0)
(0.025789962 -0.00039574244 0)
(0.025487805 -0.00030102404 0)
(0.025229549 -0.00027174086 0)
(0.024971612 -0.00029058751 0)
(0.02467445 -0.0003529132 0)
(0.024298991 -0.0004647552 0)
(0.023795723 -0.00063594106 0)
(0.023101394 -0.00088628295 0)
(0.022134493 -0.0012404047 0)
(0.020781861 -0.0017256412 0)
(0.018904479 -0.0023475351 0)
(0.0163713 -0.0030500431 0)
(0.013134623 -0.0036643276 0)
(0.0093322914 -0.0039112405 0)
(0.005349923 -0.00345635 0)
(0.0021640293 -0.0021211805 0)
(-0.000185936 -0.00042182663 0)
(0.034478477 -0.016462113 0)
(0.031546609 -0.007781306 0)
(0.024487996 -0.0043787347 0)
(0.021577162 -0.0023611674 0)
(0.019495665 -0.0013472761 0)
(0.01824571 -0.00076827545 0)
(0.017486782 -0.00044344125 0)
(0.017022009 -0.00026255456 0)
(0.016722118 -0.00016865529 0)
(0.016506802 -0.00012423582 0)
(0.01632733 -0.00011040509 0)
(0.016149837 -0.00011743497 0)
(0.015945686 -0.00014330472 0)
(0.015686343 -0.00018991561 0)
(0.015337093 -0.00026116591 0)
(0.014853764 -0.00036528147 0)
(0.014178285 -0.00051253478 0)
(0.013232533 -0.00071324576 0)
(0.0119225 -0.00097081297 0)
(0.010162486 -0.0012594497 0)
(0.007933189 -0.0015023092 0)
(0.0053744605 -0.0015686022 0)
(0.0027787973 -0.0013136456 0)
(0.00089657735 -0.00064949547 0)
(-0.00021032474 4.6289054e-005 0)
(0.020517578 -0.012025748 0)
(0.017338287 -0.00231405 0)
(0.010537599 -0.00037735657 0)
(0.0091098248 -0.00014832833 0)
(0.0077250275 -4.4255775e-005 0)
(0.0070570068 -1.3721641e-005 0)
(0.0066596 -2.1241181e-006 0)
(0.0064356391 2.9527203e-006 0)
(0.0063000903 4.8442233e-006 0)
(0.0062090493 5.5717939e-006 0)
(0.0061362453 5.8049468e-006 0)
(0.0060652511 6.113713e-006 0)
(0.0059834303 6.8808307e-006 0)
(0.0058780272 8.055133e-006 0)
(0.0057345066 1.0024887e-005 0)
(0.005534163 1.2633101e-005 0)
(0.0052520493 1.6115925e-005 0)
(0.0048556516 2.0868062e-005 0)
(0.0043055814 2.6823496e-005 0)
(0.0035679256 3.4620522e-005 0)
(0.0026375516 4.3165639e-005 0)
(0.0015958556 5.7904615e-005 0)
(0.00057270059 7.0928141e-005 0)
(-4.0776373e-005 0.00011213532 0)
(-0.00018552588 0.00012874486 0)
)
;

boundaryField
{
    inlet
    {
        type            fixedValue;
        value           uniform (0.03876 0 0);
    }
    walls
    {
        type            fixedValue;
        value           uniform (0 0 0);
    }
    outlet
    {
        type            zeroGradient;
    }
    centreline
    {
        type            symmetryPlane;
    }
    frontAndBack
    {
        type            empty;
    }
}


// ************************************************************************* //
