/*--------------------------------*- C++ -*----------------------------------*\
| =========                 |                                                 |
| \\      /  F ield         | OpenFOAM: The Open Source CFD Toolbox           |
|  \\    /   O peration     | Version:  5.x                                   |
|   \\  /    A nd           | Web:      www.OpenFOAM.org                      |
|    \\/     M anipulation  |                                                 |
\*---------------------------------------------------------------------------*/
/*   Windows 32 and 64 bit porting by blueCAPE: http://www.bluecape.com.pt   *\
|  Based on Windows porting (2.0.x v4) by Symscape: http://www.symscape.com   |
\*---------------------------------------------------------------------------*/
FoamFile
{
    version     2.0;
    format      ascii;
    class       volScalarField;
    location    "1000";
    object      nut;
}
// * * * * * * * * * * * * * * * * * * * * * * * * * * * * * * * * * * * * * //

dimensions      [0 2 -1 0 0 0 0];

internalField   nonuniform List<scalar> 
4000
(
5.01923e-005
4.65757e-005
4.33028e-005
4.03252e-005
3.76104e-005
3.51337e-005
3.2875e-005
3.08165e-005
2.89419e-005
2.72355e-005
2.56826e-005
2.42694e-005
2.29827e-005
2.18105e-005
2.07414e-005
1.97652e-005
1.88726e-005
1.8055e-005
1.73049e-005
1.66158e-005
1.59821e-005
1.53989e-005
1.48621e-005
1.43678e-005
1.39125e-005
1.3493e-005
1.31065e-005
1.27506e-005
1.24232e-005
1.21224e-005
1.18463e-005
1.15928e-005
1.13606e-005
1.11484e-005
1.0955e-005
1.07798e-005
1.06219e-005
1.04801e-005
1.03533e-005
1.02408e-005
1.01419e-005
1.00563e-005
9.98404e-006
9.92492e-006
9.87819e-006
9.8419e-006
9.81417e-006
9.79321e-006
9.77805e-006
9.76785e-006
9.76225e-006
9.76077e-006
9.76331e-006
9.7695e-006
9.77927e-006
9.79223e-006
9.80831e-006
9.82688e-006
9.84765e-006
9.86976e-006
9.89281e-006
9.91611e-006
9.93953e-006
9.96319e-006
9.98755e-006
1.00125e-005
1.00383e-005
1.00643e-005
1.00906e-005
1.01173e-005
1.01444e-005
1.0172e-005
1.02e-005
1.02278e-005
1.02555e-005
1.02824e-005
1.03091e-005
1.03355e-005
1.03623e-005
1.03898e-005
1.04183e-005
1.04477e-005
1.04782e-005
1.05094e-005
1.05414e-005
1.0571e-005
1.0598e-005
1.06232e-005
1.06472e-005
1.06706e-005
1.06936e-005
1.07165e-005
1.07395e-005
1.07626e-005
1.07859e-005
1.08097e-005
1.0834e-005
1.08587e-005
1.08839e-005
1.09094e-005
1.0935e-005
1.09605e-005
1.09859e-005
1.10111e-005
1.10361e-005
1.10608e-005
1.10852e-005
1.11089e-005
1.11315e-005
1.11524e-005
1.11711e-005
1.11871e-005
1.12001e-005
1.12101e-005
1.12172e-005
1.12218e-005
1.12244e-005
1.12256e-005
1.1226e-005
1.1226e-005
1.12262e-005
1.12271e-005
1.12289e-005
1.1232e-005
1.12367e-005
1.12432e-005
1.12515e-005
1.12616e-005
1.12736e-005
1.12874e-005
1.13031e-005
1.13212e-005
1.13423e-005
1.13669e-005
1.13953e-005
1.14274e-005
1.14632e-005
1.15028e-005
1.15462e-005
1.15937e-005
1.16455e-005
1.17018e-005
1.17623e-005
1.18273e-005
1.18968e-005
1.19708e-005
1.20495e-005
1.21328e-005
1.22206e-005
1.23127e-005
1.24092e-005
1.25097e-005
1.26142e-005
1.27224e-005
1.28339e-005
1.29487e-005
1.30668e-005
1.31883e-005
1.33131e-005
1.34409e-005
1.35714e-005
1.37043e-005
1.38392e-005
1.39761e-005
1.4115e-005
1.4256e-005
1.4399e-005
1.45437e-005
1.46899e-005
1.4838e-005
1.49888e-005
1.51424e-005
1.52983e-005
1.54557e-005
1.5613e-005
1.57692e-005
1.59237e-005
1.6075e-005
1.62213e-005
1.63614e-005
1.64938e-005
1.66179e-005
1.67321e-005
1.68348e-005
1.69245e-005
1.69996e-005
1.70579e-005
1.70972e-005
1.71166e-005
1.71139e-005
1.70885e-005
1.7042e-005
1.69757e-005
1.68913e-005
1.67916e-005
1.66804e-005
1.65608e-005
1.64356e-005
1.63089e-005
1.61805e-005
0.00132499
0.000752667
0.000570248
0.000478471
0.000424262
0.00039018
0.00036821
0.000353841
0.000344236
0.00033754
0.000332557
0.000328537
0.000324992
0.000321592
0.000318116
0.0003145
0.000310679
0.000306579
0.000302325
0.000298039
0.000293792
0.000289729
0.000285938
0.000282439
0.00027902
0.000275778
0.000272778
0.000270052
0.000267615
0.000265493
0.000263582
0.000261686
0.000260036
0.00025865
0.000257511
0.00025671
0.000256206
0.000255872
0.000255601
0.000255564
0.000255757
0.000256208
0.000257115
0.000258354
0.000259696
0.000260694
0.000261354
0.000261672
0.000261918
0.000262108
0.000262379
0.00026268
0.000263114
0.000263563
0.000264118
0.000264658
0.000265285
0.000265826
0.000266399
0.00026681
0.000267178
0.000267385
0.000267582
0.000267837
0.000268262
0.00026868
0.00026914
0.00026945
0.000269782
0.00027007
0.000270477
0.000270813
0.000271208
0.000271416
0.000271577
0.000271592
0.000271719
0.000271866
0.000272243
0.000272697
0.000273333
0.000273946
0.000274659
0.000275283
0.000275992
0.000274377
0.000272765
0.000271369
0.000270157
0.000269108
0.000268201
0.000267418
0.000266745
0.000266168
0.000265684
0.000265281
0.000264948
0.000264674
0.000264452
0.000264278
0.00026415
0.000264065
0.000264024
0.000264025
0.000264063
0.000264145
0.000264257
0.000264403
0.000264574
0.000264766
0.00026498
0.000265213
0.000265462
0.000265725
0.000266002
0.000266289
0.000266585
0.000266886
0.000267192
0.0002675
0.00026781
0.000268122
0.000268437
0.000268753
0.000269072
0.000269389
0.000269695
0.000269983
0.000270257
0.000270512
0.000270766
0.000271064
0.000271399
0.000271779
0.000272164
0.000272533
0.000272878
0.000273213
0.000273562
0.000273931
0.000274313
0.0002747
0.000275085
0.000275473
0.000275873
0.000276284
0.000276702
0.000277112
0.000277509
0.000277895
0.000278274
0.000278642
0.00027899
0.000279306
0.000279588
0.000279851
0.000280123
0.000280401
0.000280671
0.000280914
0.000281123
0.000281293
0.000281424
0.000281535
0.000281663
0.000281808
0.000281956
0.000282082
0.000282199
0.000282368
0.000282611
0.000282867
0.00028312
0.000283332
0.000283465
0.000283555
0.000283727
0.000283924
0.000284129
0.000284329
0.000284533
0.000284766
0.000284972
0.000285104
0.000285164
0.000285107
0.000284823
0.000284297
0.00028354
0.000282426
0.000281022
0.000279436
0.000277629
0.00027558
0.00027335
0.000271041
0.000268567
0.000265977
0.000263469
0.000259746
0.00538177
0.00332687
0.00251794
0.00210841
0.00187713
0.001741
0.0016601
0.00161204
0.00158333
0.00156561
0.00155393
0.00154572
0.00153997
0.0015359
0.00153269
0.00152947
0.00152656
0.00152386
0.00152096
0.00151842
0.00151576
0.00151263
0.00150911
0.00150519
0.00150351
0.0015029
0.00150214
0.00149841
0.00149312
0.00148773
0.00148412
0.00148559
0.00148915
0.00149371
0.0014989
0.00150431
0.0015095
0.00150971
0.00151689
0.00152695
0.00153825
0.00155047
0.00156852
0.00159205
0.00161688
0.00163835
0.00165235
0.00165763
0.00165715
0.00165301
0.00164696
0.00164026
0.00163566
0.00163486
0.00163802
0.00164378
0.00165013
0.00165126
0.00164503
0.00163202
0.00161145
0.00158837
0.00156693
0.00154664
0.00152704
0.0015079
0.00148909
0.00147061
0.00145245
0.00143466
0.00141728
0.00140039
0.00138402
0.00136825
0.00135309
0.00133853
0.00132452
0.00131099
0.00129779
0.00128507
0.00127275
0.00126086
0.00124943
0.00123871
0.00122872
0.00121961
0.00121125
0.00120391
0.00119765
0.00119237
0.00118789
0.00118409
0.00118076
0.00117779
0.00117525
0.00117313
0.00117134
0.00116986
0.00116867
0.00116772
0.00116701
0.00116649
0.00116614
0.00116601
0.00116593
0.00116621
0.00116628
0.00116647
0.00116667
0.00116686
0.00116707
0.00116728
0.00116748
0.00116764
0.00116775
0.00116779
0.00116777
0.00116765
0.00116741
0.00116705
0.00116655
0.00116591
0.00116511
0.00116418
0.00116317
0.00116205
0.00116071
0.00115911
0.00115745
0.00115565
0.00115382
0.0011519
0.00114903
0.00114631
0.00114315
0.00113979
0.00113626
0.00113258
0.00112876
0.00112483
0.00112071
0.00111637
0.00111179
0.0011069
0.00110172
0.00109636
0.00109078
0.00108497
0.00107889
0.00107261
0.00106622
0.00105968
0.00105296
0.00104598
0.00103873
0.00103132
0.00102385
0.00101633
0.00100868
0.00100092
0.000993084
0.00098515
0.000977106
0.000968962
0.000960882
0.000952895
0.000944946
0.000936989
0.000929087
0.000921152
0.000913116
0.000905071
0.000897132
0.000889296
0.000881364
0.000873331
0.000867795
0.000863787
0.000859858
0.000855871
0.000851814
0.000847701
0.000843603
0.000839511
0.000835321
0.000831015
0.000826602
0.000821953
0.000816912
0.000811562
0.000805959
0.000800152
0.000794163
0.000788011
0.000781625
0.000774919
0.000768068
0.000759988
0.00075301
0.000742869
0.00820838
0.00655683
0.00558679
0.00500492
0.00465388
0.00444422
0.00432107
0.00424951
0.00420745
0.0041815
0.00416432
0.00415316
0.00414803
0.00414927
0.00415639
0.00416735
0.00418325
0.00420686
0.00423502
0.00426594
0.00430072
0.00433565
0.00436906
0.00440103
0.00443515
0.00446874
0.00450103
0.00453335
0.00456244
0.0045872
0.00461152
0.00464217
0.0046745
0.00470668
0.00473802
0.0047692
0.00480007
0.00484207
0.00486646
0.00488035
0.00489027
0.00490122
0.00491172
0.00491774
0.00492356
0.00493217
0.00495566
0.0049904
0.00503208
0.00507564
0.00512457
0.0051729
0.00521472
0.00516541
0.00509285
0.00501518
0.00493464
0.00485511
0.00477996
0.00471101
0.00464898
0.00459303
0.00454108
0.00449154
0.00444362
0.00439726
0.00435246
0.00430899
0.0042665
0.00422498
0.00418444
0.00414505
0.00410682
0.00406983
0.00403411
0.00399966
0.00396601
0.00393345
0.00390242
0.00387279
0.00384395
0.00381567
0.00378818
0.00376245
0.00373839
0.00371577
0.00369446
0.00367563
0.00365953
0.00364575
0.00363382
0.00362311
0.0036135
0.0036054
0.00359886
0.00359335
0.0035884
0.00358382
0.00357975
0.00357623
0.0035732
0.00357055
0.00356817
0.00356647
0.00356533
0.0035636
0.00356242
0.00356161
0.00356098
0.00356006
0.00355896
0.00355791
0.00355688
0.00355575
0.00355449
0.00355311
0.00355157
0.00354977
0.00354766
0.00354516
0.00354217
0.00353868
0.00353462
0.00353024
0.00352603
0.00352166
0.00351601
0.0035088
0.00350189
0.00349584
0.00348779
0.00347758
0.00346812
0.00345869
0.00344816
0.00343567
0.0034219
0.00340753
0.00339261
0.00337736
0.00336138
0.00334422
0.00332625
0.00330706
0.00328666
0.00326589
0.00324475
0.00322254
0.00319858
0.00317332
0.00314793
0.00312261
0.00309708
0.00307025
0.00304133
0.00301156
0.00298217
0.00295302
0.00292344
0.00289355
0.00286398
0.00283411
0.00280353
0.0027717
0.0027398
0.00270847
0.00267761
0.00264717
0.00261734
0.00258773
0.00255779
0.00252726
0.00249727
0.00246746
0.00243643
0.00240469
0.00237276
0.00234092
0.00230929
0.00227754
0.00224535
0.002213
0.00218148
0.00215099
0.00212125
0.00209233
0.00206412
0.00203561
0.00200642
0.00197751
0.00194993
0.00192369
0.00189796
0.00187155
0.00184494
0.00181651
0.00179024
0.00175599
0.00173058
0.00169389
0.00942219
0.00865923
0.00810668
0.00772322
0.00747318
0.00731803
0.00722482
0.00716895
0.00713393
0.00710987
0.00709177
0.00707837
0.0070707
0.00707033
0.00707752
0.00709039
0.00710927
0.00713653
0.00716875
0.00720313
0.00724053
0.00727778
0.00731315
0.00734655
0.0073787
0.00740903
0.0074385
0.00747103
0.00750349
0.00753477
0.00756367
0.00759132
0.00761745
0.00764252
0.00766766
0.00769446
0.00772439
0.00775925
0.00777732
0.00778324
0.00778465
0.00778014
0.00776337
0.0077442
0.00773059
0.00772526
0.00773541
0.00775807
0.00778839
0.00782187
0.0078581
0.00789183
0.00791907
0.00793708
0.00794729
0.00795379
0.00796637
0.00798954
0.00802711
0.00807317
0.00811312
0.00813705
0.00813483
0.00810488
0.00808403
0.00808453
0.0080986
0.00811572
0.00813451
0.00815635
0.00818146
0.00820706
0.0082302
0.00824748
0.00825932
0.00826621
0.00826249
0.00828647
0.00834531
0.00838609
0.00840805
0.00842451
0.0084381
0.00845097
0.00846395
0.00848068
0.00849417
0.0085005
0.00849726
0.00848069
0.00844903
0.00841429
0.00840955
0.00844062
0.00845988
0.0084552
0.00844879
0.00844087
0.00843156
0.00842176
0.00841178
0.00840173
0.00839232
0.00838497
0.00836928
0.00828837
0.0083256
0.00833873
0.00833073
0.00832209
0.00831431
0.0083075
0.00830106
0.0082943
0.00828734
0.00828071
0.00827446
0.00826883
0.00826394
0.00825944
0.00825457
0.00824884
0.00824123
0.00823242
0.00822706
0.00822177
0.00821028
0.00819694
0.00819244
0.00819195
0.00809614
0.00802402
0.00814269
0.00814246
0.00812854
0.00810899
0.00808573
0.00805901
0.00803085
0.00800019
0.00796785
0.00793365
0.00789768
0.00786114
0.00782487
0.00778636
0.00774825
0.00770246
0.00764729
0.00758811
0.00753136
0.00747895
0.00742534
0.00736272
0.00728736
0.00720879
0.00713655
0.00706579
0.00699194
0.00691544
0.00683975
0.00676282
0.00667978
0.00659161
0.00650207
0.00641559
0.00633071
0.00624633
0.00616507
0.00608644
0.00600374
0.00591787
0.00583499
0.00575523
0.00567053
0.00557765
0.0054828
0.00538878
0.0052936
0.00519539
0.00509214
0.00498648
0.00488624
0.00479296
0.00470547
0.00462536
0.00454981
0.0044707
0.00438561
0.00430198
0.00422793
0.00416114
0.00409547
0.00402536
0.00395396
0.00387786
0.00380468
0.00371292
0.00363269
0.0035522
0.00983759
0.00957625
0.00936803
0.00920936
0.00909876
0.00902609
0.00897917
0.00894773
0.00892461
0.00890556
0.0088886
0.00887338
0.00886061
0.00885126
0.00884561
0.00884286
0.00884272
0.0088456
0.00885038
0.00885603
0.00886257
0.00886927
0.00887565
0.00888174
0.00888776
0.00889368
0.00889986
0.00890765
0.00891678
0.00892695
0.00893685
0.00894602
0.00895456
0.00896298
0.00897206
0.00898253
0.00899466
0.00900639
0.00901455
0.00901917
0.00902187
0.00902123
0.00901491
0.00900788
0.0090036
0.00900254
0.00900542
0.00901146
0.00901987
0.00902999
0.00904115
0.00905169
0.00906071
0.00906676
0.00907034
0.00907338
0.00907806
0.00908783
0.00910329
0.00912122
0.00913887
0.00915063
0.00915345
0.00914596
0.00913109
0.00912381
0.00912822
0.00914282
0.00915855
0.00917322
0.00918786
0.00920113
0.00921303
0.00922276
0.00922871
0.00923157
0.00923792
0.00924781
0.00927541
0.00929927
0.0093143
0.00932628
0.0093365
0.00934626
0.00935649
0.00936781
0.00937788
0.00938458
0.00938673
0.00938315
0.00937598
0.00936937
0.00937089
0.00939822
0.0094512
0.00950068
0.00952119
0.00953264
0.00954031
0.00954752
0.00955462
0.00955908
0.00956375
0.00956756
0.00957835
0.00958846
0.0095814
0.00956667
0.00957153
0.00958341
0.00959928
0.00962176
0.00963745
0.0096467
0.00965414
0.00965874
0.00965203
0.00964645
0.00964808
0.00965339
0.00965976
0.00967231
0.00968824
0.00969602
0.00973908
0.0097111
0.00956727
0.00955099
0.00962459
0.00963921
0.00962504
0.0096566
0.00973128
0.0097553
0.00974397
0.00972951
0.00977674
0.00977273
0.00981342
0.00979324
0.0097094
0.00968597
0.00961415
0.00962685
0.00975358
0.00983108
0.00991222
0.00989265
0.00982939
0.00983581
0.00984828
0.00986873
0.00988398
0.00988635
0.00983596
0.00979605
0.00985448
0.00988408
0.00990758
0.00993469
0.00993267
0.00995136
0.00982391
0.00974186
0.00969759
0.00971751
0.00977722
0.00978805
0.00982435
0.00983554
0.00964194
0.00955471
0.00955026
0.00947872
0.00935855
0.00930559
0.00945648
0.00958141
0.00945803
0.00931606
0.00915811
0.00898342
0.00881366
0.00866101
0.00852385
0.00841008
0.00831059
0.00819216
0.00804438
0.00789809
0.00778473
0.00769678
0.00760747
0.00750672
0.00739861
0.00728548
0.00716845
0.00702436
0.00687348
0.00681251
0.00995672
0.0098814
0.00981803
0.00976552
0.00972544
0.00969593
0.00967371
0.00965569
0.0096397
0.00962447
0.00960942
0.00959454
0.00958013
0.00956658
0.00955404
0.00954242
0.00953159
0.00952164
0.00951239
0.00950369
0.0094956
0.00948803
0.00948094
0.00947438
0.00946846
0.00946318
0.00945864
0.00945509
0.00945256
0.00945095
0.00944998
0.0094494
0.00944921
0.00944948
0.00945038
0.00945206
0.00945447
0.0094571
0.00945959
0.00946193
0.00946415
0.0094659
0.00946669
0.00946724
0.00946833
0.00947
0.00947218
0.00947479
0.00947784
0.00948145
0.00948557
0.00948994
0.0094944
0.00949872
0.00950298
0.00950616
0.0095089
0.00951356
0.00951947
0.00952608
0.00953302
0.00953911
0.00954406
0.00955141
0.00955783
0.00956278
0.00956708
0.00957226
0.00957939
0.00958657
0.00959287
0.00959885
0.0096046
0.00961001
0.00961533
0.00962107
0.00963108
0.0096357
0.00963508
0.00964156
0.00964876
0.00965595
0.00966309
0.0096703
0.00967775
0.00968538
0.00969288
0.0097
0.00970644
0.00971265
0.00972039
0.00972984
0.00973774
0.0097481
0.0097643
0.00978052
0.00979047
0.0097989
0.00980698
0.00981587
0.00982481
0.00983207
0.00984064
0.00984908
0.00985856
0.00986546
0.00986118
0.00985135
0.00984573
0.00985108
0.00987048
0.00988979
0.00990227
0.00991141
0.00991876
0.00992388
0.00992772
0.00992486
0.00992374
0.00992621
0.00993437
0.009955
0.00997565
0.00999413
0.0100119
0.0100302
0.0100244
0.0100251
0.0100411
0.0100499
0.0100608
0.0100714
0.0100831
0.0100846
0.0100929
0.0100935
0.0100916
0.0100713
0.0101009
0.0101182
0.0100853
0.0101084
0.0101271
0.0100713
0.00995933
0.0100754
0.010124
0.0101277
0.0100562
0.0100138
0.0100558
0.010107
0.0101393
0.0100665
0.00997489
0.010042
0.0101332
0.0101438
0.0101721
0.0102252
0.0102317
0.0102134
0.0100947
0.0100407
0.0101501
0.0102333
0.0102979
0.0103291
0.0103278
0.0103033
0.0102396
0.0100598
0.00990073
0.00976025
0.00956308
0.00946276
0.00946902
0.00964661
0.00999068
0.0101337
0.0100182
0.010067
0.0102141
0.0102599
0.0101972
0.0101416
0.0100515
0.00979684
0.00960892
0.00964588
0.00973452
0.00976046
0.00949799
0.00918168
0.0089385
0.00887236
0.00888147
0.00891589
0.0088577
0.00859154
0.00998681
0.00996581
0.00994708
0.00992944
0.00991366
0.00989966
0.00988681
0.00987442
0.00986201
0.00984932
0.00983626
0.00982289
0.00980936
0.00979586
0.0097825
0.00976935
0.0097565
0.00974401
0.00973192
0.00972031
0.00970924
0.00969877
0.00968893
0.00967977
0.00967135
0.00966366
0.00965676
0.00965064
0.00964534
0.00964082
0.009637
0.0096338
0.00963119
0.00962915
0.00962767
0.00962675
0.00962633
0.00962633
0.00962666
0.00962728
0.00962814
0.00962912
0.00963018
0.0096314
0.00963291
0.00963461
0.00963642
0.00963834
0.00964039
0.00964265
0.00964512
0.00964781
0.00965071
0.0096538
0.00965698
0.00966018
0.0096632
0.00966641
0.0096699
0.00967374
0.00967758
0.00968132
0.00968501
0.00968939
0.00969397
0.00969812
0.00970175
0.00970536
0.0097102
0.00971569
0.00972124
0.00972681
0.00973241
0.00973787
0.00974351
0.00974936
0.00975566
0.00976136
0.00976579
0.00977156
0.00977757
0.00978371
0.00978999
0.00979645
0.00980302
0.00980972
0.00981648
0.00982332
0.00983017
0.00983711
0.00984424
0.00985155
0.00985906
0.00986669
0.00987512
0.00988378
0.00989184
0.0098995
0.00990703
0.00991463
0.0099221
0.0099292
0.0099366
0.00994388
0.00995059
0.00995702
0.00996203
0.00996767
0.00997357
0.00997984
0.00998608
0.00998939
0.00999252
0.00999756
0.010003
0.0100105
0.0100232
0.0100331
0.0100393
0.0100445
0.0100509
0.0100597
0.010069
0.0100789
0.0100854
0.0100955
0.010104
0.0101112
0.0101169
0.0101238
0.0101314
0.010138
0.0101426
0.0101455
0.0101396
0.01015
0.0101555
0.0101386
0.010137
0.0101662
0.0101767
0.0101628
0.0101736
0.0101828
0.0101415
0.00997127
0.00990405
0.0097836
0.00975905
0.00978785
0.00979757
0.00975432
0.00970592
0.00966842
0.00977669
0.0100482
0.0102024
0.0102467
0.0102718
0.0103063
0.0103203
0.0103031
0.0103046
0.0103208
0.0103039
0.0103126
0.0103455
0.0103656
0.0103551
0.0102742
0.0100524
0.0100029
0.0099701
0.0098889
0.00976905
0.0097326
0.0097695
0.00975472
0.0099104
0.010157
0.0101287
0.0101096
0.0102925
0.0103434
0.0103309
0.0103358
0.0101181
0.0096705
0.00934894
0.00932552
0.00943969
0.00948979
0.0093741
0.00933248
0.00945537
0.00933331
0.00936221
0.00945793
0.009533
0.00934541
0.00999351
0.0099862
0.00997908
0.00997101
0.00996227
0.00995311
0.00994353
0.00993346
0.00992288
0.00991178
0.00990021
0.00988825
0.00987601
0.00986361
0.00985118
0.00983879
0.00982655
0.00981458
0.00980294
0.00979174
0.00978103
0.00977088
0.00976134
0.00975247
0.00974428
0.0097368
0.00973004
0.00972398
0.00971864
0.00971397
0.00970996
0.00970655
0.00970371
0.00970141
0.00969961
0.00969828
0.00969736
0.00969683
0.00969665
0.00969676
0.00969713
0.00969773
0.00969855
0.00969958
0.00970083
0.00970223
0.00970377
0.00970543
0.00970722
0.00970916
0.00971124
0.00971348
0.00971588
0.00971843
0.00972112
0.00972402
0.00972698
0.00972997
0.00973299
0.00973607
0.0097392
0.00974242
0.0097458
0.00974923
0.00975262
0.00975601
0.00975955
0.00976314
0.00976702
0.00977149
0.00977641
0.00978153
0.00978665
0.00979176
0.00979685
0.00980195
0.00980719
0.00981243
0.00981767
0.00982312
0.00982871
0.0098344
0.00984021
0.00984609
0.00985209
0.0098582
0.0098645
0.00987093
0.00987749
0.00988411
0.00989079
0.0098975
0.00990437
0.00991137
0.00991846
0.00992549
0.00993243
0.00993927
0.00994608
0.00995277
0.00995926
0.00996545
0.00997154
0.00997757
0.00998353
0.0099894
0.00999506
0.0100007
0.0100063
0.0100118
0.0100171
0.0100223
0.0100275
0.0100329
0.0100385
0.0100446
0.0100514
0.0100577
0.0100629
0.0100663
0.0100694
0.0100755
0.0100845
0.0100938
0.0101016
0.0101084
0.0101147
0.0101207
0.0101263
0.0101316
0.0101361
0.0101393
0.0101421
0.010142
0.010121
0.0101221
0.0101268
0.0101108
0.0101074
0.0101373
0.0101682
0.0101809
0.0101871
0.0101941
0.0101796
0.0100953
0.0100905
0.0100833
0.01007
0.0100489
0.0100641
0.0100633
0.010018
0.00992526
0.00980072
0.0100127
0.0101501
0.0101663
0.0101834
0.0102402
0.0102812
0.0102603
0.0102208
0.010298
0.0103288
0.0103011
0.0102515
0.0102497
0.0102382
0.0102358
0.0101577
0.00997818
0.0099295
0.00995847
0.00992049
0.00990863
0.0100027
0.0100703
0.0100629
0.0100899
0.0101404
0.0100621
0.0101081
0.0100737
0.0100837
0.0101129
0.00983996
0.00934702
0.0090043
0.00906037
0.00929685
0.00943827
0.00951541
0.00970388
0.00977579
0.0097081
0.00979476
0.00988918
0.00973487
0.00974599
0.00999465
0.00999037
0.00998594
0.00998017
0.00997326
0.00996546
0.00995694
0.00994776
0.00993798
0.00992766
0.00991689
0.00990574
0.0098943
0.00988269
0.00987101
0.00985936
0.00984784
0.00983657
0.00982561
0.00981505
0.00980498
0.00979544
0.00978649
0.00977817
0.0097705
0.0097635
0.00975717
0.0097515
0.00974648
0.00974209
0.0097383
0.00973508
0.00973239
0.0097302
0.00972847
0.00972717
0.00972624
0.00972566
0.0097254
0.0097254
0.00972565
0.00972614
0.00972686
0.0097278
0.00972892
0.00973021
0.00973164
0.00973321
0.00973491
0.00973674
0.00973872
0.00974083
0.00974309
0.00974549
0.00974801
0.00975065
0.0097534
0.00975624
0.00975916
0.00976215
0.00976521
0.00976833
0.00977154
0.00977484
0.00977823
0.00978173
0.00978534
0.00978906
0.00979289
0.00979696
0.0098012
0.00980559
0.00981008
0.00981464
0.00981926
0.00982397
0.00982882
0.0098338
0.00983887
0.00984403
0.00984927
0.00985451
0.00985976
0.009865
0.00987021
0.00987555
0.00988134
0.00988756
0.00989399
0.00990054
0.00990721
0.00991394
0.00992061
0.0099273
0.00993397
0.00994067
0.00994721
0.00995368
0.00995993
0.00996596
0.00997157
0.0099769
0.00998182
0.00998676
0.00999209
0.00999761
0.0100029
0.0100084
0.0100136
0.0100184
0.0100229
0.0100273
0.0100318
0.0100368
0.0100424
0.0100484
0.0100551
0.0100609
0.0100631
0.0100594
0.010055
0.0100545
0.0100628
0.0100827
0.0100969
0.0101058
0.0101122
0.0101177
0.0101218
0.0101229
0.0101162
0.0101025
0.0100969
0.0100845
0.0100033
0.01
0.0100581
0.0101069
0.0101299
0.0101514
0.0101683
0.0101705
0.0101577
0.0101628
0.0101676
0.0101155
0.00996206
0.00992081
0.0100065
0.0100855
0.0101172
0.0101106
0.0100419
0.00991638
0.00994416
0.0101168
0.0101656
0.0102414
0.0102759
0.0102611
0.0102028
0.0102017
0.0102462
0.0102921
0.0103223
0.0103014
0.0102894
0.0102336
0.0102154
0.0101681
0.0101117
0.0100899
0.0101506
0.0102401
0.0102464
0.0101859
0.010126
0.0101784
0.010131
0.0100188
0.0101119
0.0101777
0.0100475
0.0100344
0.0100945
0.00998664
0.00967635
0.00929047
0.00908734
0.00915451
0.00942756
0.00957558
0.00952264
0.00952361
0.00957182
0.00966932
0.00974346
0.00967648
0.00948197
0.00929164
0.00999432
0.00999008
0.00998578
0.00998009
0.00997323
0.00996546
0.00995694
0.00994778
0.00993802
0.00992775
0.00991703
0.00990595
0.00989461
0.0098831
0.00987153
0.00986
0.00984862
0.00983748
0.00982668
0.00981629
0.00980638
0.00979702
0.00978825
0.0097801
0.0097726
0.00976575
0.00975957
0.00975403
0.00974912
0.00974483
0.00974111
0.00973794
0.0097353
0.00973313
0.00973141
0.0097301
0.00972915
0.00972853
0.00972821
0.00972815
0.00972833
0.00972876
0.00972944
0.00973035
0.00973144
0.0097327
0.00973412
0.00973568
0.00973739
0.00973922
0.00974119
0.0097433
0.00974553
0.00974789
0.00975038
0.00975298
0.0097557
0.00975851
0.00976141
0.00976439
0.00976744
0.00977058
0.00977379
0.0097771
0.0097805
0.00978399
0.00978757
0.00979124
0.009795
0.00979888
0.00980289
0.00980702
0.00981123
0.00981553
0.00981987
0.00982428
0.00982891
0.00983357
0.00983812
0.00984266
0.00984719
0.00985143
0.00985525
0.00985839
0.00986116
0.00986417
0.00986808
0.00987282
0.00987816
0.00988397
0.00989034
0.00989763
0.00990492
0.00991214
0.00992012
0.0099285
0.00993603
0.00994372
0.00995027
0.00995606
0.00996179
0.00996785
0.00997171
0.00997378
0.00997691
0.00998134
0.00998635
0.0099922
0.00999889
0.0100042
0.0100092
0.0100151
0.0100225
0.0100305
0.0100374
0.0100427
0.0100499
0.0100561
0.0100562
0.0100484
0.0100479
0.0100498
0.0100504
0.0100546
0.010071
0.0100915
0.0101044
0.0101108
0.0101113
0.0100984
0.0100703
0.0100353
0.00998061
0.00991484
0.0099627
0.0100442
0.0101085
0.0101367
0.0101437
0.0101542
0.0101659
0.0101542
0.0101046
0.0101104
0.0100985
0.00998931
0.00987872
0.00995138
0.0100818
0.0101517
0.010169
0.0101534
0.0100992
0.0100485
0.0101371
0.0102214
0.0102676
0.0102991
0.0103182
0.0103256
0.0103272
0.0103349
0.0103409
0.0103516
0.0103591
0.0103481
0.0103046
0.0102474
0.0101903
0.0101194
0.0100733
0.0101399
0.0102427
0.0103029
0.0103192
0.0102902
0.010266
0.0102819
0.0102289
0.0101073
0.0100819
0.010184
0.0102379
0.0101811
0.0100973
0.0100175
0.00993781
0.00976215
0.0095842
0.00946847
0.00938239
0.00928727
0.00918732
0.00922583
0.0094135
0.00961525
0.00956035
0.00934571
0.00883588
0.00847975
0.00999255
0.00998552
0.00997899
0.00997135
0.00996293
0.00995397
0.0099445
0.00993454
0.00992409
0.00991317
0.00990185
0.00989019
0.00987828
0.00986625
0.00985416
0.00984214
0.00983029
0.00981872
0.00980752
0.00979677
0.00978654
0.00977688
0.00976785
0.00975947
0.00975177
0.00974475
0.00973841
0.00973274
0.00972772
0.00972332
0.0097195
0.00971624
0.0097135
0.00971125
0.00970945
0.00970806
0.00970705
0.00970636
0.00970596
0.00970581
0.00970593
0.00970635
0.00970705
0.00970798
0.0097091
0.00971042
0.00971191
0.00971358
0.00971539
0.00971734
0.00971944
0.00972166
0.009724
0.00972644
0.009729
0.0097317
0.00973454
0.00973748
0.00974049
0.00974359
0.00974677
0.00975004
0.0097534
0.00975685
0.00976038
0.00976397
0.00976761
0.00977124
0.00977489
0.00977866
0.00978254
0.00978679
0.0097909
0.00979485
0.0097986
0.00980245
0.00980684
0.00981157
0.00981638
0.0098214
0.0098263
0.00983107
0.00983548
0.00983991
0.00984449
0.00985004
0.00985674
0.00986371
0.0098708
0.00987795
0.00988513
0.00989231
0.00989951
0.00990656
0.00991355
0.00992044
0.00992716
0.00993386
0.00994059
0.00994715
0.00995342
0.00995907
0.0099638
0.00996771
0.009972
0.00997748
0.0099834
0.00998919
0.00999464
0.00999874
0.0100003
0.00999943
0.0100022
0.0100085
0.0100147
0.0100227
0.0100315
0.0100396
0.0100419
0.0100312
0.0100334
0.010042
0.0100482
0.0100538
0.0100662
0.0100816
0.0100941
0.0101014
0.0101037
0.0100911
0.0100677
0.0100315
0.00997199
0.00996985
0.0100219
0.0100766
0.0101043
0.0101092
0.010098
0.0100932
0.0101126
0.0100741
0.0100159
0.00996864
0.0098848
0.00978531
0.00983908
0.010044
0.0101422
0.0101782
0.0101645
0.0100894
0.00996318
0.00996644
0.0100824
0.0101931
0.0102568
0.0103046
0.0103306
0.0103244
0.0103179
0.0103315
0.0103109
0.0103246
0.0103429
0.0103602
0.0103417
0.0102016
0.0100184
0.00990477
0.0100126
0.0101654
0.0102489
0.0102896
0.0103258
0.010342
0.0103352
0.0103056
0.0102819
0.0102643
0.0102017
0.0100933
0.0100383
0.0100516
0.00992083
0.00973016
0.00965376
0.00963292
0.00961795
0.00956272
0.00952148
0.00959693
0.00953553
0.0095157
0.00951288
0.00948551
0.00926551
0.00879
0.00831365
0.00866111
0.0099856
0.0099659
0.00994921
0.00993338
0.00991904
0.00990602
0.0098938
0.00988191
0.00987005
0.00985803
0.00984582
0.00983342
0.00982086
0.00980823
0.00979559
0.00978305
0.00977073
0.00975874
0.00974716
0.00973607
0.00972553
0.00971563
0.00970639
0.00969786
0.00969004
0.00968295
0.00967662
0.00967101
0.00966609
0.00966181
0.00965812
0.00965499
0.00965239
0.00965028
0.00964863
0.0096474
0.00964655
0.00964602
0.00964575
0.00964572
0.009646
0.00964658
0.00964744
0.00964852
0.0096498
0.00965134
0.00965318
0.0096553
0.00965761
0.00966014
0.00966281
0.00966556
0.00966839
0.00967126
0.0096742
0.00967744
0.00968074
0.0096842
0.00968763
0.00969123
0.00969492
0.00969863
0.00970244
0.00970638
0.00971046
0.00971452
0.00971826
0.00972148
0.00972445
0.00972775
0.00973103
0.00973474
0.00973774
0.00973989
0.00974272
0.00974629
0.00975053
0.00975489
0.00975927
0.00976414
0.00976898
0.00977351
0.00977739
0.00978099
0.00978452
0.00978897
0.0097947
0.00980112
0.00980804
0.00981541
0.00982295
0.00983103
0.00983885
0.00984648
0.00985362
0.00986069
0.00986754
0.00987448
0.00988146
0.0098887
0.00989575
0.00990139
0.00990526
0.00990651
0.0099095
0.00991496
0.00992161
0.00992853
0.00993485
0.00993789
0.00992457
0.00987074
0.00985249
0.0098589
0.0098721
0.00990898
0.00994625
0.00997345
0.00997287
0.00991765
0.00987735
0.00990394
0.00987459
0.00988446
0.00996118
0.0100202
0.0100493
0.0100639
0.0100566
0.0100212
0.0100269
0.00995496
0.00990873
0.00990066
0.0098699
0.00988173
0.0099447
0.00991535
0.00993634
0.0100423
0.0100766
0.0100437
0.0099395
0.00990355
0.00987006
0.00985085
0.00993422
0.0100431
0.0100821
0.0100563
0.0100641
0.0101375
0.010144
0.0100551
0.0100702
0.0101289
0.010219
0.0102487
0.0102921
0.0103339
0.0103563
0.0103722
0.0103663
0.0103418
0.0102764
0.0102922
0.0103263
0.0103064
0.0102074
0.0101172
0.00998866
0.0099041
0.00991648
0.00997681
0.0101351
0.0102424
0.0101447
0.0100452
0.00992871
0.0098725
0.00986146
0.00984189
0.0097853
0.00976191
0.00970558
0.00972088
0.00975462
0.00986434
0.00997238
0.00995399
0.00978334
0.00964229
0.00965035
0.00970878
0.00938693
0.00910957
0.0087822
0.00890232
0.00908556
0.00931517
0.00995726
0.00988665
0.00983003
0.00978391
0.00974915
0.00972327
0.00970335
0.00968712
0.00967309
0.00966033
0.00964827
0.00963658
0.0096252
0.00961405
0.00960316
0.0095925
0.00958208
0.00957197
0.00956227
0.00955303
0.00954431
0.00953615
0.00952861
0.00952171
0.0095155
0.00951004
0.00950544
0.00950168
0.00949865
0.00949626
0.00949442
0.00949308
0.00949218
0.0094917