/*--------------------------------*- C++ -*----------------------------------*\
| =========                 |                                                 |
| \\      /  F ield         | OpenFOAM: The Open Source CFD Toolbox           |
|  \\    /   O peration     | Version:  5.x                                   |
|   \\  /    A nd           | Web:      www.OpenFOAM.org                      |
|    \\/     M anipulation  |                                                 |
\*---------------------------------------------------------------------------*/
/*   Windows 32 and 64 bit porting by blueCAPE: http://www.bluecape.com.pt   *\
|  Based on Windows porting (2.0.x v4) by Symscape: http://www.symscape.com   |
\*---------------------------------------------------------------------------*/
FoamFile
{
    version     2.0;
    format      ascii;
    class       surfaceScalarField;
    location    "1000";
    object      phi;
}
// * * * * * * * * * * * * * * * * * * * * * * * * * * * * * * * * * * * * * //

dimensions      [0 3 -1 0 0 0 0];

internalField   nonuniform List<scalar> 
7780
(
4.99606e-005
3.94303e-008
4.98409e-005
1.19682e-007
4.96859e-005
1.54944e-007
4.9514e-005
1.71957e-007
4.93339e-005
1.801e-007
4.91507e-005
1.83149e-007
4.89671e-005
1.83666e-007
4.87852e-005
1.81875e-007
4.86059e-005
1.7928e-007
4.84294e-005
1.76465e-007
4.82561e-005
1.73354e-007
4.80862e-005
1.6994e-007
4.79195e-005
1.66626e-007
4.77561e-005
1.6339e-007
4.75959e-005
1.60211e-007
4.74388e-005
1.57134e-007
4.72846e-005
1.5417e-007
4.71333e-005
1.51324e-007
4.69847e-005
1.48634e-007
4.68386e-005
1.4611e-007
4.66949e-005
1.43667e-007
4.65536e-005
1.41252e-007
4.64148e-005
1.38844e-007
4.62783e-005
1.36447e-007
4.61443e-005
1.34065e-007
4.60126e-005
1.31668e-007
4.58834e-005
1.29214e-007
4.57567e-005
1.26686e-007
4.56326e-005
1.24103e-007
4.55111e-005
1.21483e-007
4.53923e-005
1.18867e-007
4.5276e-005
1.16258e-007
4.51624e-005
1.13613e-007
4.50515e-005
1.10913e-007
4.49433e-005
1.08143e-007
4.4838e-005
1.05297e-007
4.47357e-005
1.02374e-007
4.46362e-005
9.9415e-008
4.45398e-005
9.64336e-008
4.44464e-005
9.33816e-008
4.43562e-005
9.02559e-008
4.42691e-005
8.70836e-008
4.41852e-005
8.39096e-008
4.41044e-005
8.07822e-008
4.40266e-005
7.77662e-008
4.39517e-005
7.49099e-008
4.38795e-005
7.22176e-008
4.38098e-005
6.96666e-008
4.37426e-005
6.72269e-008
4.36777e-005
6.48739e-008
4.36151e-005
6.25912e-008
4.35548e-005
6.03747e-008
4.34966e-005
5.81766e-008
4.34406e-005
5.59476e-008
4.33869e-005
5.37591e-008
4.33352e-005
5.16674e-008
4.32855e-005
4.96684e-008
4.32378e-005
4.77357e-008
4.31919e-005
4.58733e-008
4.31478e-005
4.40809e-008
4.31055e-005
4.23627e-008
4.30647e-005
4.07434e-008
4.30255e-005
3.91991e-008
4.29878e-005
3.769e-008
4.29516e-005
3.62229e-008
4.29168e-005
3.48214e-008
4.28833e-005
3.35022e-008
4.2851e-005
3.22635e-008
4.28199e-005
3.10888e-008
4.279e-005
2.9962e-008
4.27611e-005
2.88812e-008
4.27332e-005
2.78532e-008
4.27063e-005
2.68866e-008
4.26804e-005
2.59867e-008
4.26552e-005
2.51422e-008
4.26309e-005
2.43233e-008
4.26074e-005
2.35019e-008
4.25847e-005
2.26655e-008
4.25629e-005
2.18058e-008
4.2542e-005
2.09193e-008
4.2522e-005
2.00258e-008
4.25028e-005
1.91667e-008
4.24844e-005
1.84123e-008
4.24665e-005
1.78584e-008
4.24489e-005
1.76561e-008
4.24311e-005
1.77909e-008
4.2413e-005
1.80334e-008
4.23948e-005
1.82362e-008
4.23765e-005
1.8357e-008
4.23581e-005
1.83745e-008
4.23398e-005
1.82875e-008
4.23217e-005
1.81096e-008
4.23038e-005
1.78668e-008
4.22862e-005
1.75728e-008
4.2269e-005
1.72244e-008
4.22522e-005
1.68182e-008
4.22358e-005
1.63613e-008
4.222e-005
1.58636e-008
4.22046e-005
1.53352e-008
4.21899e-005
1.47838e-008
4.21756e-005
1.42162e-008
4.2162e-005
1.3636e-008
4.2149e-005
1.30475e-008
4.21365e-005
1.24541e-008
4.21247e-005
1.18512e-008
4.21134e-005
1.12484e-008
4.21027e-005
1.06751e-008
4.20926e-005
1.0122e-008
4.2083e-005
9.58372e-009
4.2074e-005
9.06676e-009
4.20654e-005
8.57721e-009
4.20573e-005
8.11649e-009
4.20496e-005
7.6852e-009
4.20423e-005
7.28263e-009
4.20354e-005
6.91116e-009
4.20288e-005
6.57091e-009
4.20226e-005
6.26379e-009
4.20166e-005
5.99081e-009
4.20108e-005
5.75486e-009
4.20053e-005
5.55576e-009
4.19999e-005
5.39427e-009
4.19946e-005
5.2692e-009
4.19894e-005
5.17951e-009
4.19843e-005
5.1238e-009
4.19792e-005
5.10155e-009
4.19741e-005
5.10245e-009
4.1969e-005
5.12525e-009
4.19638e-005
5.18579e-009
4.19585e-005
5.29079e-009
4.19531e-005
5.41509e-009
4.19476e-005
5.53453e-009
4.19419e-005
5.69151e-009
4.1936e-005
5.90447e-009
4.19299e-005
6.11822e-009
4.19235e-005
6.32547e-009
4.1917e-005
6.5433e-009
4.19102e-005
6.77739e-009
4.19032e-005
7.02477e-009
4.18959e-005
7.2831e-009
4.18884e-005
7.5452e-009
4.18806e-005
7.81042e-009
4.18725e-005
8.08652e-009
4.18641e-005
8.37663e-009
4.18554e-005
8.68658e-009
4.18464e-005
9.01613e-009
4.1837e-005
9.35798e-009
4.18273e-005
9.70074e-009
4.18173e-005
1.0034e-008
4.18069e-005
1.03644e-008
4.17962e-005
1.07116e-008
4.17851e-005
1.10851e-008
4.17736e-005
1.14835e-008
4.17617e-005
1.18975e-008
4.17494e-005
1.23181e-008
4.17367e-005
1.27482e-008
4.17234e-005
1.32068e-008
4.17097e-005
1.36972e-008
4.16955e-005
1.42032e-008
4.16808e-005
1.47136e-008
4.16656e-005
1.52237e-008
4.16498e-005
1.57281e-008
4.16336e-005
1.6217e-008
4.16169e-005
1.66852e-008
4.15998e-005
1.71504e-008
4.15821e-005
1.76306e-008
4.1564e-005
1.81266e-008
4.15454e-005
1.86238e-008
4.15263e-005
1.90987e-008
4.15067e-005
1.95326e-008
4.14868e-005
1.98989e-008
4.14666e-005
2.01998e-008
4.14461e-005
2.04727e-008
4.14254e-005
2.07534e-008
4.14043e-005
2.10351e-008
4.1383e-005
2.13178e-008
4.13614e-005
2.16271e-008
4.13394e-005
2.19665e-008
4.13171e-005
2.22794e-008
4.12946e-005
2.25289e-008
4.12719e-005
2.27259e-008
4.1249e-005
2.28996e-008
4.12259e-005
2.30923e-008
4.12025e-005
2.33498e-008
4.11788e-005
2.36916e-008
4.11547e-005
2.41427e-008
4.113e-005
2.47235e-008
4.11045e-005
2.54536e-008
4.10782e-005
2.63444e-008
4.10507e-005
2.74317e-008
4.1022e-005
2.87502e-008
4.09917e-005
3.03038e-008
4.09596e-005
3.20618e-008
4.09257e-005
3.39653e-008
4.08897e-005
3.6032e-008
4.08515e-005
3.81751e-008
4.08109e-005
4.05433e-008
4.07682e-005
4.27553e-008
4.07228e-005
4.53889e-008
4.06756e-005
4.72222e-008
5.05302e-008
5.00493e-005
-9.90348e-009
5.01065e-005
6.25506e-008
5.01548e-005
1.06631e-007
5.0192e-005
1.34748e-007
5.02197e-005
1.52417e-007
5.02394e-005
1.63378e-007
5.0253e-005
1.70137e-007
5.02616e-005
1.73232e-007
5.02658e-005
1.75138e-007
5.02656e-005
1.76603e-007
5.02619e-005
1.77042e-007
5.02556e-005
1.76293e-007
5.02467e-005
1.75461e-007
5.02359e-005
1.74205e-007
5.02236e-005
1.72488e-007
5.02103e-005
1.70455e-007
5.01963e-005
1.68169e-007
5.01819e-005
1.65712e-007
5.01673e-005
1.6327e-007
5.01525e-005
1.60938e-007
5.01376e-005
1.58576e-007
5.01227e-005
1.5614e-007
5.01079e-005
1.53629e-007
5.00933e-005
1.51044e-007
5.0079e-005
1.48402e-007
5.00649e-005
1.45713e-007
5.00512e-005
1.42955e-007
5.00377e-005
1.40128e-007
5.00246e-005
1.37253e-007
5.00117e-005
1.34319e-007
4.99993e-005
1.31316e-007
4.99873e-005
1.28262e-007
4.99757e-005
1.25176e-007
4.99646e-005
1.22062e-007
4.99538e-005
1.1893e-007
4.99433e-005
1.15785e-007
4.99331e-005
1.1262e-007
4.99231e-005
1.09392e-007
4.99135e-005
1.06054e-007
4.99042e-005
1.02623e-007
4.98953e-005
9.91271e-008
4.98868e-005
9.55939e-008
4.98787e-005
9.20684e-008
4.98708e-005
8.8626e-008
4.98632e-005
8.53528e-008
4.98558e-005
8.23274e-008
4.98484e-005
7.95919e-008
4.9841e-005
7.71183e-008
4.98334e-005
7.48417e-008
4.98256e-005
7.26981e-008
4.98175e-005
7.06342e-008
4.98093e-005
6.85971e-008
4.9801e-005
6.64594e-008
4.97928e-005
6.41552e-008
4.97847e-005
6.18635e-008
4.97766e-005
5.97346e-008
4.97684e-005
5.78544e-008
4.97599e-005
5.62609e-008
4.97508e-005
5.49373e-008
4.97411e-005
5.38113e-008
4.97307e-005
5.27851e-008
4.97197e-005
5.17713e-008
4.97081e-005
5.07181e-008
4.96962e-005
4.96241e-008
4.96839e-005
4.85186e-008
4.96713e-005
4.74266e-008
4.96585e-005
4.63524e-008
4.96454e-005
4.52935e-008
4.96323e-005
4.42513e-008
4.9619e-005
4.32267e-008
4.96057e-005
4.22132e-008
4.95923e-005
4.12041e-008
4.9579e-005
4.01898e-008
4.95658e-005
3.91634e-008
4.95528e-005
3.81281e-008
4.95401e-005
3.70913e-008
4.95275e-005
3.60737e-008
4.95151e-005
3.51104e-008
4.95027e-005
3.41926e-008
4.94903e-005
3.32746e-008
4.9478e-005
3.23427e-008
4.94657e-005
3.14168e-008
4.94536e-005
3.05242e-008
4.94418e-005
2.97182e-008
4.94305e-005
2.8884e-008
4.94203e-005
2.80239e-008
4.94111e-005
2.72774e-008
4.94027e-005
2.65799e-008
4.93952e-005
2.58719e-008
4.93885e-005
2.5129e-008
4.93824e-005
2.43526e-008
4.93769e-005
2.3575e-008
4.9372e-005
2.28409e-008
4.93674e-005
2.21525e-008
4.93631e-005
2.14662e-008
4.93592e-005
2.07532e-008
4.93555e-005
2.00154e-008
4.93521e-005
1.9262e-008
4.9349e-005
1.85036e-008
4.9346e-005
1.77495e-008
4.93432e-005
1.7006e-008
4.93406e-005
1.62766e-008
4.93381e-005
1.5564e-008
4.93357e-005
1.48693e-008
4.93333e-005
1.41625e-008
4.93311e-005
1.34827e-008
4.93289e-005
1.28998e-008
4.93267e-005
1.2357e-008
4.93244e-005
1.18362e-008
4.93221e-005
1.13513e-008
4.93198e-005
1.0912e-008
4.93174e-005
1.052e-008
4.93149e-005
1.01722e-008
4.93123e-005
9.8652e-009
4.93096e-005
9.59909e-009
4.93068e-005
9.37318e-009
4.93039e-005
9.18806e-009
4.93008e-005
9.04686e-009
4.92976e-005
8.95406e-009
4.92943e-005
8.91065e-009
4.92908e-005
8.91736e-009
4.92871e-005
8.97352e-009
4.92832e-005
9.07526e-009
4.92791e-005
9.22113e-009
4.92748e-005
9.40527e-009
4.92703e-005
9.5955e-009
4.92656e-005
9.79071e-009
4.92608e-005
1.00385e-008
4.92557e-005
1.03541e-008
4.92505e-005
1.06691e-008
4.9245e-005
1.09571e-008
4.92393e-005
1.14003e-008
4.92332e-005
1.20106e-008
4.92267e-005
1.25897e-008
4.92199e-005
1.31268e-008
4.92128e-005
1.36547e-008
4.92054e-005
1.41953e-008
4.91977e-005
1.47557e-008
4.91896e-005
1.53426e-008
4.91812e-005
1.59359e-008
4.91725e-005
1.65358e-008
4.91634e-005
1.71589e-008
4.9154e-005
1.78145e-008
4.91441e-005
1.85256e-008
4.91339e-005
1.92918e-008
4.91231e-005
2.00869e-008
4.9112e-005
2.08735e-008
4.91004e-005
2.16145e-008
4.90884e-005
2.23288e-008
4.9076e-005
2.30645e-008
4.90633e-005
2.38446e-008
4.90501e-005
2.46596e-008
4.90365e-005
2.54826e-008
4.90225e-005
2.62874e-008
4.90082e-005
2.70915e-008
4.89934e-005
2.79559e-008
4.89782e-005
2.8894e-008
4.89626e-005
2.98591e-008
4.89465e-005
3.08196e-008
4.89299e-005
3.17539e-008
4.8913e-005
3.26473e-008
4.88957e-005
3.3475e-008
4.88782e-005
3.42359e-008
4.88603e-005
3.49961e-008
4.88421e-005
3.58106e-008
4.88236e-005
3.66855e-008
4.88046e-005
3.75829e-008
4.87852e-005
3.84567e-008
4.87655e-005
3.92835e-008
4.87454e-005
4.00146e-008
4.87249e-005
4.06349e-008
4.87042e-005
4.12174e-008
4.86831e-005
4.1802e-008
4.86618e-005
4.23657e-008
4.86402e-005
4.29042e-008
4.86184e-005
4.34071e-008
4.85965e-005
4.38619e-008
4.85745e-005
4.42735e-008
4.85524e-005
4.46522e-008
4.85301e-005
4.50087e-008
4.85076e-005
4.53867e-008
4.84848e-005
4.58556e-008
4.84617e-005
4.64528e-008
4.84383e-005
4.71681e-008
4.84144e-005
4.79922e-008
4.83902e-005
4.89081e-008
4.83658e-005
4.9883e-008
4.83412e-005
5.09194e-008
4.83166e-005
5.20822e-008
4.82918e-005
5.3463e-008
4.8267e-005
5.51065e-008
4.82421e-005
5.69658e-008
4.82172e-005
5.89496e-008
4.81921e-005
6.10889e-008
4.81669e-005
6.33696e-008
4.81415e-005
6.59764e-008
4.81155e-005
6.87255e-008
4.80889e-005
7.19949e-008
4.80599e-005
7.61623e-008
8.15221e-008
5.00363e-005
-4.62507e-008
5.00884e-005
1.04687e-008
5.01414e-005
5.37055e-008
5.01909e-005
8.52157e-008
5.02355e-005
1.07818e-007
5.02748e-005
1.24016e-007
5.03098e-005
1.35201e-007
5.03403e-005
1.42688e-007
5.03668e-005
1.48651e-007
5.03897e-005
1.53679e-007
5.04098e-005
1.57014e-007
5.04275e-005
1.58564e-007
5.0443e-005
1.59947e-007
5.04566e-005
1.60595e-007
5.04687e-005
1.60377e-007
5.04796e-005
1.59597e-007
5.04894e-005
1.5839e-007
5.04982e-005
1.56848e-007
5.05062e-005
1.55298e-007
5.05134e-005
1.53778e-007
5.05199e-005
1.52002e-007
5.05261e-005
1.49994e-007
5.05319e-005
1.47812e-007
5.05374e-005
1.45511e-007
5.05427e-005
1.43118e-007
5.05478e-005
1.40612e-007
5.05528e-005
1.37933e-007
5.05578e-005
1.3514e-007
5.05627e-005
1.32334e-007
5.05676e-005
1.29508e-007
5.05722e-005
1.26666e-007
5.05767e-005
1.238e-007
5.0581e-005
1.20891e-007
5.05851e-005
1.17943e-007
5.0589e-005
1.14964e-007
5.05929e-005
1.11963e-007
5.05965e-005
1.08929e-007
5.06e-005
1.05907e-007
5.06032e-005
1.02887e-007
5.0606e-005
9.98195e-008
5.06084e-005
9.67117e-008
5.06104e-005
9.36144e-008
5.06119e-005
9.05593e-008
5.0613e-005
8.75304e-008
5.06138e-005
8.45108e-008
5.06147e-005
8.15154e-008
5.06157e-005
7.85962e-008
5.0617e-005
7.58177e-008
5.06186e-005
7.32238e-008
5.06204e-005
7.08315e-008
5.06224e-005
6.86579e-008
5.06243e-005
6.67057e-008
5.06258e-005
6.49125e-008
5.06268e-005
6.31694e-008
5.06272e-005
6.14824e-008
5.06271e-005
5.98737e-008
5.06266e-005
5.8325e-008
5.0626e-005
5.68281e-008
5.06256e-005
5.54099e-008
5.06253e-005
5.40636e-008
5.06253e-005
5.27837e-008
5.06255e-005
5.15784e-008
5.06258e-005
5.04079e-008
5.06262e-005
4.92476e-008
5.06266e-005
4.8126e-008
5.0627e-005
4.70575e-008
5.06273e-005
4.60281e-008
5.06276e-005
4.5019e-008
5.06278e-005
4.40225e-008
5.0628e-005
4.30378e-008
5.06281e-005
4.20607e-008
5.06282e-005
4.10825e-008
5.06283e-005
4.00919e-008
5.06284e-005
3.90812e-008
5.06285e-005
3.80518e-008
5.06286e-005
3.70118e-008
5.06287e-005
3.59951e-008
5.06287e-005
3.50579e-008
5.06287e-005
3.41828e-008
5.06287e-005
3.33013e-008
5.06286e-005
3.24007e-008
5.06285e-005
3.15011e-008
5.06285e-005
3.06177e-008
5.06284e-005
2.97603e-008
5.06284e-005
2.88889e-008
5.06284e-005
2.80024e-008
5.06286e-005
2.71477e-008
5.06288e-005
2.63139e-008
5.06292e-005
2.54738e-008
5.06297e-005
2.46105e-008
5.06304e-005
2.37301e-008
5.06311e-005
2.28788e-008
5.06318e-005
2.2117e-008
5.06325e-005
2.14374e-008
5.06332e-005
2.07674e-008
5.06339e-005
2.00681e-008
5.06345e-005
1.93474e-008
5.06352e-005
1.86204e-008
5.06358e-005
1.79007e-008
5.06363e-005
1.7198e-008
5.06368e-005
1.6517e-008
5.06372e-005
1.58603e-008
5.06376e-005
1.5231e-008
5.06378e-005
1.46232e-008
5.0638e-005
1.39882e-008
5.06381e-005
1.33823e-008
5.06381e-005
1.29107e-008
5.0638e-005
1.24617e-008
5.06378e-005
1.20293e-008
5.06375e-005
1.16407e-008
5.06371e-005
1.13073e-008
5.06366e-005
1.10253e-008
5.0636e-005
1.07833e-008
5.06353e-005
1.05755e-008
5.06345e-005
1.04017e-008
5.06336e-005
1.02602e-008
5.06326e-005
1.01508e-008
5.06316e-005
1.008e-008
5.06305e-005
1.00545e-008
5.06293e-005
1.00759e-008
5.06281e-005
1.01462e-008
5.06268e-005
1.02665e-008
5.06255e-005
1.0431e-008
5.0624e-005
1.06401e-008
5.06226e-005
1.08769e-008
5.06211e-005
1.10775e-008
5.06196e-005
1.12644e-008
5.06181e-005
1.15475e-008
5.06165e-005
1.19261e-008
5.0615e-005
1.22603e-008
5.06134e-005
1.25259e-008
5.06118e-005
1.30225e-008
5.061e-005
1.37282e-008
5.06083e-005
1.43165e-008
5.06066e-005
1.48443e-008
5.06049e-005
1.53839e-008
5.06031e-005
1.59669e-008
5.06013e-005
1.65894e-008
5.05994e-005
1.72526e-008
5.05974e-005
1.79078e-008
5.05954e-005
1.85639e-008
5.05933e-005
1.92541e-008
5.05911e-005
1.99879e-008
5.05888e-005
2.08091e-008
5.05864e-005
2.17077e-008
5.05838e-005
2.26311e-008
5.05812e-005
2.35112e-008
5.05785e-005
2.42966e-008
5.05758e-005
2.50538e-008
5.0573e-005
2.58746e-008
5.057e-005
2.67721e-008
5.0567e-005
2.77082e-008
5.05638e-005
2.86269e-008
5.05606e-005
2.9496e-008
5.05573e-005
3.0379e-008
5.05539e-005
3.13956e-008
5.05503e-005
3.25315e-008
5.05464e-005
3.36817e-008
5.05424e-005
3.48065e-008
5.05383e-005
3.58804e-008
5.05341e-005
3.68836e-008
5.05298e-005
3.77745e-008
5.05254e-005
3.85735e-008
5.0521e-005
3.94323e-008
5.05164e-005
4.04318e-008
5.05115e-005
4.15569e-008
5.05063e-005
4.27207e-008
5.05009e-005
4.38498e-008
5.04953e-005
4.49073e-008
5.04895e-005
4.57921e-008
5.04836e-005
4.65211e-008
5.04776e-005
4.72791e-008
5.04713e-005
4.81132e-008
5.04647e-005
4.89671e-008
5.04577e-005
4.9888e-008
5.04501e-005
5.10223e-008
5.04416e-005
5.23391e-008
5.04322e-005
5.36175e-008
5.04221e-005
5.47775e-008
5.04113e-005
5.58516e-008
5.03997e-005
5.68988e-008
5.03876e-005
5.8035e-008
5.03747e-005
5.929e-008
5.03613e-005
6.05963e-008
5.03474e-005
6.19051e-008
5.03331e-005
6.31776e-008
5.03186e-005
6.43384e-008
5.03042e-005
6.53893e-008
5.02897e-005
6.65066e-008
5.02753e-005
6.78908e-008
5.02609e-005
6.95718e-008
5.02464e-005
7.14118e-008
5.02321e-005
7.32936e-008
5.02179e-005
7.52612e-008
5.02038e-005
7.74486e-008
5.01899e-005
7.99291e-008
5.01757e-005
8.28793e-008
5.01616e-005
8.60549e-008
5.0147e-005
9.07892e-008
9.69461e-008
5.00315e-005
-7.7706e-008
5.00738e-005
-3.18577e-008
5.01203e-005
7.14794e-009
5.0167e-005
3.85114e-008
5.02117e-005
6.31605e-008
5.02534e-005
8.23123e-008
5.02916e-005
9.70029e-008
5.03261e-005
1.08211e-007
5.03575e-005
1.17235e-007
5.03864e-005
1.24811e-007
5.04129e-005
1.30457e-007
5.04372e-005
1.34267e-007
5.04597e-005
1.37443e-007
5.04805e-005
1.39811e-007
5.04998e-005
1.41118e-007
5.05177e-005
1.41674e-007
5.05344e-005
1.41727e-007
5.05499e-005
1.41329e-007
5.05644e-005
1.40764e-007
5.05781e-005
1.40043e-007
5.05912e-005
1.38975e-007
5.06036e-005
1.37591e-007
5.06154e-005
1.35965e-007
5.06268e-005
1.34157e-007
5.06377e-005
1.32194e-007
5.06482e-005
1.30064e-007
5.06584e-005
1.27733e-007
5.06683e-005
1.2527e-007
5.06779e-005
1.22766e-007
5.06872e-005
1.20236e-007
5.06961e-005
1.17688e-007
5.07048e-005
1.15113e-007
5.07132e-005
1.12493e-007
5.07213e-005
1.09829e-007
5.07292e-005
1.07129e-007
5.07367e-005
1.04404e-007
5.0744e-005
1.01665e-007
5.0751e-005
9.89182e-008
5.07577e-005
9.61675e-008
5.07641e-005
9.34192e-008
5.07701e-005
9.06817e-008
5.07758e-005
8.79669e-008
5.07811e-005
8.52724e-008
5.0786e-005
8.25838e-008
5.07906e-005
7.98852e-008
5.0795e-005
7.71811e-008
5.07991e-005
7.44953e-008
5.0803e-005
7.18668e-008
5.08069e-005
6.93468e-008
5.08107e-005
6.69829e-008
5.08146e-005
6.48018e-008
5.08185e-005
6.27893e-008
5.08226e-005
6.08622e-008
5.08267e-005
5.90537e-008
5.08307e-005
5.74194e-008
5.08347e-005
5.58973e-008
5.08386e-005
5.44309e-008
5.08424e-005
5.29982e-008
5.08462e-005
5.16084e-008
5.085e-005
5.02669e-008
5.08538e-005
4.89796e-008
5.08577e-005
4.77499e-008
5.08615e-005
4.65546e-008
5.08654e-005
4.53821e-008
5.08693e-005
4.42546e-008
5.08731e-005
4.31835e-008
5.0877e-005
4.21561e-008
5.08809e-005
4.11546e-008
5.08847e-005
4.01698e-008
5.08886e-005
3.92009e-008
5.08924e-005
3.82459e-008
5.08962e-005
3.72982e-008
5.08999e-005
3.63484e-008
5.09036e-005
3.53878e-008
5.09072e-005
3.44125e-008
5.09108e-005
3.34255e-008
5.09144e-005
3.24564e-008
5.09179e-005
3.15554e-008
5.09213e-005
3.07167e-008
5.09247e-005
2.98847e-008
5.09281e-005
2.90483e-008
5.09314e-005
2.82237e-008
5.09346e-005
2.74196e-008
5.09377e-005
2.6637e-008
5.09407e-005
2.58601e-008
5.09436e-005
2.50876e-008
5.09464e-005
2.4337e-008
5.09492e-005
2.36036e-008
5.09518e-005
2.28671e-008
5.09543e-005
2.21083e-008
5.09567e-005
2.13274e-008
5.0959e-005
2.05626e-008
5.09612e-005
1.98738e-008
5.09634e-005
1.92713e-008
5.09655e-005
1.86978e-008
5.09674e-005
1.81055e-008
5.09693e-005
1.74922e-008
5.0971e-005
1.68772e-008
5.09726e-005
1.62747e-008
5.09742e-005
1.5693e-008
5.09755e-005
1.5135e-008
5.09768e-005
1.46029e-008
5.09779e-005
1.41018e-008
5.09789e-005
1.36221e-008
5.09798e-005
1.31229e-008
5.09805e-005
1.26363e-008
5.09812e-005
1.22432e-008
5.09818e-005
1.18729e-008
5.09823e-005
1.15323e-008
5.09827e-005
1.1244e-008
5.0983e-005
1.10137e-008
5.09832e-005
1.08284e-008
5.09833e-005
1.06702e-008
5.09833e-005
1.05346e-008
5.09833e-005
1.04229e-008
5.09832e-005
1.03317e-008
5.09831e-005
1.02584e-008
5.0983e-005
1.02115e-008
5.09829e-005
1.01996e-008
5.09827e-005
1.02247e-008
5.09826e-005
1.02916e-008
5.09824e-005
1.04056e-008
5.09823e-005
1.05606e-008
5.09822e-005
1.07592e-008
5.09821e-005
1.0974e-008
5.09821e-005
1.11045e-008
5.09821e-005
1.12025e-008
5.09822e-005
1.14505e-008
5.09823e-005
1.18066e-008
5.09825e-005
1.2083e-008
5.09828e-005
1.22766e-008
5.09831e-005
1.26483e-008
5.09837e-005
1.31963e-008
5.09843e-005
1.36407e-008
5.09852e-005
1.40323e-008
5.09861e-005
1.44788e-008
5.0987e-005
1.50011e-008
5.0988e-005
1.55731e-008
5.09891e-005
1.6199e-008
5.09902e-005
1.67915e-008
5.09914e-005
1.73697e-008
5.09927e-005
1.7987e-008
5.0994e-005
1.86331e-008
5.09955e-005
1.93757e-008
5.0997e-005
2.02122e-008
5.09985e-005
2.1066e-008
5.10002e-005
2.18442e-008
5.1002e-005
2.24932e-008
5.10039e-005
2.31398e-008
5.10059e-005
2.39085e-008
5.10079e-005
2.47705e-008
5.10099e-005
2.56459e-008
5.10121e-005
2.64605e-008
5.10144e-005
2.7205e-008
5.10168e-005
2.80146e-008
5.10191e-005
2.90428e-008
5.10215e-005
3.0203e-008
5.10238e-005
3.13346e-008
5.10262e-005
3.24261e-008
5.10286e-005
3.34606e-008
5.10311e-005
3.44089e-008
5.10336e-005
3.52186e-008
5.10363e-005
3.59398e-008
5.10389e-005
3.68115e-008
5.10414e-005
3.7901e-008
5.10438e-005
3.91506e-008
5.10461e-005
4.04358e-008
5.10483e-005
4.16726e-008
5.10504e-005
4.28289e-008
5.10524e-005
4.37621e-008
5.10544e-005
4.45259e-008
5.10562e-005
4.54145e-008
5.10579e-005
4.64364e-008
5.10594e-005
4.74854e-008
5.10606e-005
4.8679e-008
5.10613e-005
5.02989e-008
5.10614e-005
5.22906e-008
5.10607e-005
5.42731e-008
5.10594e-005
5.60979e-008
5.10575e-005
5.77891e-008
5.10549e-005
5.94168e-008
5.10518e-005
6.11553e-008
5.10481e-005
6.29846e-008
5.1044e-005
6.47491e-008
5.10395e-005
6.63821e-008
5.10348e-005
6.78308e-008
5.10302e-005
6.89808e-008
5.10257e-005
6.99058e-008
5.10212e-005
7.09752e-008
5.10167e-005
7.2458e-008
5.1012e-005
7.42507e-008
5.10074e-005
7.60338e-008
5.1003e-005
7.76587e-008
5.0999e-005
7.92914e-008
5.09952e-005
8.11685e-008
5.09918e-005
8.33721e-008
5.09887e-005
8.60122e-008
5.09858e-005
8.88895e-008
5.09834e-005
9.31603e-008
9.85514e-008
5.00292e-005
-1.0694e-007
5.00664e-005
-6.90396e-008
5.01078e-005
-3.41867e-008
5.01504e-005
-4.09188e-009
5.01924e-005
2.11567e-008
5.02327e-005
4.19825e-008
5.02707e-005
5.89634e-008
5.03062e-005
7.27528e-008
5.03393e-005
8.41465e-008
5.03704e-005
9.36575e-008
5.03996e-005
1.01298e-007
5.04266e-005
1.07255e-007
5.0452e-005
1.12056e-007
5.04759e-005
1.15884e-007
5.04984e-005
1.18655e-007
5.05195e-005
1.20543e-007
5.05394e-005
1.21835e-007
5.05581e-005
1.22582e-007
5.0576e-005
1.22948e-007
5.0593e-005
1.22983e-007
5.06093e-005
1.22654e-007
5.0625e-005
1.2198e-007
5.06399e-005
1.21009e-007
5.06543e-005
1.19792e-007
5.06681e-005
1.18359e-007
5.06815e-005
1.16721e-007
5.06943e-005
1.14883e-007
5.07067e-005
1.12891e-007
5.07186e-005
1.10803e-007
5.07302e-005
1.08655e-007
5.07414e-005
1.06466e-007
5.07523e-005
1.04237e-007
5.07629e-005
1.0196e-007
5.0773e-005
9.9637e-008
5.07829e-005
9.72742e-008
5.07924e-005
9.48803e-008
5.08016e-005
9.2461e-008
5.08105e-005
9.00171e-008
5.08191e-005
8.7568e-008
5.08274e-005
8.51345e-008
5.08354e-005
8.2724e-008
5.0843e-005
8.03395e-008
5.08503e-005
7.79813e-008
5.08572e-005
7.56404e-008
5.08638e-005
7.33e-008
5.087e-005
7.0954e-008
5.08759e-005
6.8604e-008
5.08815e-005
6.6268e-008
5.08869e-005
6.39824e-008
5.08921e-005
6.1786e-008
5.08972e-005
5.96972e-008
5.09023e-005
5.7707e-008
5.09074e-005
5.5783e-008
5.09124e-005
5.39793e-008
5.09175e-005
5.23444e-008
5.09226e-005
5.08447e-008
5.09276e-005
4.94318e-008
5.09325e-005
4.80705e-008
5.09374e-005
4.67437e-008
5.09422e-005
4.54435e-008
5.0947e-005
4.41751e-008
5.09518e-005
4.29482e-008
5.09566e-005
4.17682e-008
5.09613e-005
4.0647e-008
5.0966e-005
3.95856e-008
5.09706e-005
3.85679e-008
5.09752e-005
3.75784e-008
5.09797e-005
3.66104e-008
5.09842e-005
3.5662e-008
5.09887e-005
3.47314e-008
5.09931e-005
3.38148e-008
5.09975e-005
3.29067e-008
5.10019e-005
3.20017e-008
5.10061e-005
3.10965e-008
5.10104e-005
3.01902e-008
5.10145e-005
2.92918e-008
5.10185e-005
2.84323e-008
5.10225e-005
2.76213e-008
5.10264e-005
2.68248e-008
5.10302e-005
2.6029e-008
5.1034e-005
2.52525e-008
5.10377e-005
2.45054e-008
5.10414e-005
2.37866e-008
5.10449e-005
2.30927e-008
5.10483e-005
2.24139e-008
5.10517e-005
2.17435e-008
5.10549e-005
2.10853e-008
5.10581e-005
2.04387e-008
5.10612e-005
1.97942e-008
5.10641e-005
1.91463e-008
5.1067e-005
1.85078e-008
5.10696e-005
1.79074e-008
5.10721e-005
1.73578e-008
5.10746e-005
1.68385e-008
5.10769e-005
1.63299e-008
5.10792e-005
1.58256e-008
5.10814e-005
1.53211e-008
5.10834e-005
1.48252e-008
5.10854e-005
1.43472e-008
5.10872e-005
1.38912e-008
5.10888e-005
1.34572e-008
5.10904e-005
1.30456e-008
5.10918e-005
1.26577e-008
5.10932e-005
1.22815e-008
5.10944e-005
1.19111e-008
5.10954e-005
1.16159e-008
5.10963e-005
1.1338e-008
5.10972e-005
1.10344e-008
5.10979e-005
1.07765e-008
5.10986e-005
1.05788e-008
5.10992e-005
1.04336e-008
5.10997e-005
1.03226e-008
5.11001e-005
1.02282e-008
5.11005e-005
1.01491e-008
5.11008e-005
1.00867e-008
5.11011e-005
1.00359e-008
5.11014e-005
9.99196e-009
5.11016e-005
9.95913e-009
5.11019e-005
9.94375e-009
5.11022e-005
9.94824e-009
5.11025e-005
9.98174e-009
5.11028e-005
1.00537e-008
5.11032e-005
1.01609e-008
5.11037e-005
1.03079e-008
5.11042e-005
1.04603e-008
5.11048e-005
1.05233e-008
5.11054e-005
1.05556e-008
5.11062e-005
1.07183e-008
5.1107e-005
1.09354e-008
5.11081e-005
1.10561e-008
5.11091e-005
1.12116e-008
5.11102e-005
1.15614e-008
5.11115e-005
1.18783e-008
5.11131e-005
1.20748e-008
5.11148e-005
1.22941e-008
5.11167e-005
1.25952e-008
5.11188e-005
1.29791e-008
5.11209e-005
1.3423e-008
5.11232e-005
1.39381e-008
5.11255e-005
1.44276e-008
5.1128e-005
1.49005e-008
5.11306e-005
1.54061e-008
5.11333e-005
1.59136e-008
5.11362e-005
1.64677e-008
5.11393e-005
1.7088e-008
5.11427e-005
1.77476e-008
5.11462e-005
1.83363e-008
5.11498e-005
1.88172e-008
5.11537e-005
1.9329e-008
5.11576e-005
1.99839e-008
5.11616e-005
2.0718e-008
5.11659e-005
2.14195e-008
5.11703e-005
2.20188e-008
5.1175e-005
2.2547e-008
5.11798e-005
2.32135e-008
5.11847e-005
2.41594e-008
5.11897e-005
2.51955e-008
5.11948e-005
2.61582e-008
5.12002e-005
2.70919e-008
5.12056e-005
2.79949e-008
5.12112e-005
2.88189e-008
5.12169e-005
2.95135e-008
5.12227e-005
3.01503e-008
5.12286e-005
3.09827e-008
5.12344e-005
3.2053e-008
5.12403e-005
3.32694e-008
5.12462e-005
3.45324e-008
5.12521e-005
3.57846e-008
5.12579e-005
3.69901e-008
5.12637e-005
3.80018e-008
5.12693e-005
3.88774e-008
5.12748e-005
3.98985e-008
5.12802e-005
4.10604e-008
5.12855e-005
4.22298e-008
5.12906e-005
4.3539e-008
5.12956e-005
4.53116e-008
5.13003e-005
4.75442e-008
5.13047e-005
4.99304e-008
5.13085e-005
5.22757e-008
5.13119e-005
5.44414e-008
5.13148e-005
5.6497e-008
5.13172e-005
5.87157e-008
5.13192e-005
6.10111e-008
5.13208e-005
6.3125e-008
5.13222e-005
6.49872e-008
5.13235e-005
6.65189e-008
5.1325e-005
6.7557e-008
5.13266e-005
6.8301e-008
5.13282e-005
6.93474e-008
5.13297e-005
7.09675e-008
5.13311e-005
7.28344e-008
5.13327e-005
7.44346e-008
5.13347e-005
7.56357e-008
5.13372e-005
7.67775e-008
5.13403e-005
7.81139e-008
5.13439e-005
7.97189e-008
5.13483e-005
8.16483e-008
5.13534e-005
8.37999e-008
5.13596e-005
8.69187e-008
9.08987e-008
5.00279e-005
-1.34814e-007
5.00614e-005
-1.02597e-007
5.00987e-005
-7.14433e-008
5.01377e-005
-4.30766e-008
5.01769e-005
-1.80739e-008
5.02154e-005
3.51399e-009
5.02524e-005
2.1901e-008
5.02877e-005
3.74461e-008
5.03213e-005
5.0622e-008
5.03531e-005
6.17959e-008
5.03833e-005
7.11088e-008
5.04118e-005
7.87438e-008
5.04388e-005
8.50487e-008
5.04645e-005
9.02132e-008
5.04889e-005
9.42939e-008
5.0512e-005
9.74347e-008
5.0534e-005
9.98521e-008
5.05549e-005
1.01644e-007
5.05749e-005
1.0293e-007
5.05941e-005
1.03779e-007
5.06126e-005
1.0421e-007
5.06303e-005
1.04256e-007
5.06473e-005
1.03961e-007
5.06638e-005
1.0337e-007
5.06796e-005
1.02521e-007
5.06949e-005
1.01436e-007
5.07096e-005
1.00135e-007
5.07239e-005
9.86576e-008
5.07376e-005
9.70488e-008
5.07509e-005
9.53447e-008
5.07638e-005
9.35698e-008
5.07763e-005
9.17348e-008
5.07884e-005
8.98426e-008
5.08002e-005
8.78975e-008
5.08115e-005
8.59057e-008
5.08226e-005
8.38737e-008
5.08332e-005
8.18064e-008
5.08435e-005
7.97078e-008
5.08535e-005
7.75974e-008
5.08631e-005
7.54967e-008
5.08724e-005
7.34163e-008
5.08814e-005
7.13615e-008
5.08901e-005
6.93365e-008
5.08984e-005
6.7335e-008
5.09063e-005
6.53426e-008
5.09139e-005
6.33491e-008
5.09212e-005
6.13482e-008
5.09281e-005
5.9345e-008
5.09347e-005
5.73589e-008
5.09411e-005
5.54142e-008
5.09473e-005
5.35249e-008
5.09533e-005
5.16924e-008
5.09592e-005
4.99114e-008
5.09649e-005
4.82219e-008
5.09706e-005
4.66667e-008
5.09762e-005
4.52377e-008
5.09817e-005
4.39028e-008
5.09872e-005
4.2627e-008
5.09925e-005
4.13823e-008
5.09978e-005
4.01528e-008
5.10031e-005
3.89388e-008
5.10083e-005
3.77537e-008
5.10134e-005
3.66175e-008
5.10185e-005
3.55527e-008
5.10235e-005
3.45594e-008
5.10285e-005
3.36132e-008
5.10334e-005
3.26908e-008
5.10382e-005
3.17833e-008
5.1043e-005
3.0892e-008
5.10477e-005
3.00174e-008
5.10523e-005
2.9156e-008
5.10569e-005
2.83039e-008
5.10615e-005
2.74585e-008
5.1066e-005
2.66207e-008
5.10703e-005
2.57962e-008
5.10746e-005
2.49975e-008
5.10788e-005
2.4242e-008
5.10829e-005
2.35198e-008
5.1087e-005
2.27947e-008
5.10909e-005
2.20685e-008
5.10948e-005
2.13661e-008
5.10986e-005
2.06975e-008
5.11023e-005
2.00617e-008
5.1106e-005
1.94542e-008
5.11095e-005
1.88662e-008
5.1113e-005
1.82882e-008
5.11164e-005
1.77195e-008
5.11196e-005
1.71616e-008
5.11228e-005
1.6615e-008
5.11259e-005
1.60861e-008
5.11288e-005
1.55917e-008
5.11315e-005
1.51476e-008
5.11342e-005
1.47438e-008
5.11367e-005
1.4342e-008
5.11391e-005
1.39208e-008
5.11414e-005
1.34938e-008
5.11436e-005
1.30837e-008
5.11458e-005
1.26993e-008
5.11478e-005
1.23392e-008
5.11497e-005
1.20015e-008
5.11514e-005
1.16838e-008
5.11531e-005
1.13865e-008
5.11546e-005
1.11095e-008
5.11561e-005
1.08471e-008
5.11574e-005
1.06021e-008
5.11586e-005
1.04195e-008
5.11597e-005
1.02514e-008
5.11606e-005
1.00796e-008
5.11615e-005
9.93424e-009
5.11622e-005
9.825e-009
5.11629e-005
9.74861e-009
5.11635e-005
9.68773e-009
5.11641e-005
9.63601e-009
5.11647e-005
9.59634e-009
5.11652e-005
9.56588e-009
5.11657e-005
9.54109e-009
5.11662e-005
9.52312e-009
5.11666e-005
9.50687e-009
5.11671e-005
9.48764e-009
5.11676e-005
9.46746e-009
5.11681e-005
9.4584e-009
5.11687e-005
9.4673e-009
5.11693e-005