/*--------------------------------*- C++ -*----------------------------------*\
| =========                 |                                                 |
| \\      /  F ield         | OpenFOAM: The Open Source CFD Toolbox           |
|  \\    /   O peration     | Version:  5.x                                   |
|   \\  /    A nd           | Web:      www.OpenFOAM.org                      |
|    \\/     M anipulation  |                                                 |
\*---------------------------------------------------------------------------*/
/*   Windows 32 and 64 bit porting by blueCAPE: http://www.bluecape.com.pt   *\
|  Based on Windows porting (2.0.x v4) by Symscape: http://www.symscape.com   |
\*---------------------------------------------------------------------------*/
FoamFile
{
    version     2.0;
    format      ascii;
    class       volScalarField;
    location    "1000";
    object      yPlus;
}
// * * * * * * * * * * * * * * * * * * * * * * * * * * * * * * * * * * * * * //

dimensions      [0 0 0 0 0 0 0];

internalField   uniform 0;

boundaryField
{
    walls
    {
        type            calculated;
        value           nonuniform List<scalar> 
400
(
8.96146
8.63256
8.32372
8.03245
7.75736
7.49759
7.25259
7.02186
6.80493
6.60127
6.41032
6.23146
6.06402
5.90734
5.76075
5.62355
5.49509
5.37475
5.26192
5.1561
5.05682
4.9637
4.8764
4.79463
4.71806
4.64637
4.57934
4.51674
4.45838
4.40407
4.35364
4.3068
4.26344
4.22343
4.18666
4.15304
4.12251
4.0949
4.07005
4.04786
4.02829
4.01125
3.99681
3.98496
3.97556
3.96825
3.96266
3.95843
3.95536
3.9533
3.95217
3.95187
3.95238
3.95363
3.95561
3.95823
3.96148
3.96523
3.96941
3.97387
3.97851
3.98319
3.98789
3.99263
3.99751
4.00251
4.00765
4.01284
4.01809
4.02338
4.02878
4.03424
4.03979
4.04531
4.05077
4.0561
4.06135
4.06654
4.07183
4.07721
4.0828
4.08856
4.09451
4.1006
4.10686
4.11262
4.11787
4.12276
4.12742
4.13194
4.13639
4.14082
4.14525
4.14971
4.15422
4.15879
4.16346
4.16822
4.17304
4.17792
4.18282
4.1877
4.19255
4.19736
4.20211
4.20682
4.21144
4.21594
4.22024
4.2242
4.22774
4.23077
4.23322
4.23511
4.23645
4.23732
4.23781
4.23804
4.23811
4.23812
4.23816
4.23831
4.23866
4.23925
4.24014
4.24136
4.24292
4.24484
4.24709
4.24968
4.25264
4.25604
4.26001
4.26463
4.26994
4.27597
4.28266
4.29004
4.29812
4.30697
4.31658
4.32699
4.33817
4.35014
4.3629
4.37645
4.39081
4.40596
4.42187
4.43851
4.45586
4.47388
4.49252
4.51174
4.53148
4.55169
4.5724
4.59361
4.61529
4.63739
4.65985
4.68261
4.70561
4.72882
4.75226
4.77594
4.79984
4.82389
4.84807
4.87245
4.89715
4.92217
4.94746
4.97284
4.99808
5.02302
5.04757
5.07148
5.09452
5.11646
5.13713
5.15641
5.17412
5.18996
5.20376
5.21531
5.22423
5.23025
5.23322
5.2328
5.22893
5.2218
5.21163
5.19866
5.1833
5.16611
5.14755
5.12807
5.10825
5.08809
8.87842
8.55495
8.24802
7.9573
7.68238
7.42281
7.17819
6.94807
6.73195
6.52929
6.33945
6.16178
5.99558
5.84014
5.69478
5.55884
5.43171
5.31286
5.20181
5.0981
5.00128
4.91095
4.82675
4.74837
4.67549
4.60774
4.54477
4.48632
4.43214
4.38199
4.33559
4.29275
4.25328
4.2171
4.18405
4.15402
4.12695
4.10261
4.08092
4.06174
4.04506
4.03079
4.01888
4.00921
4.00166
3.99599
3.99191
3.98896
3.98686
3.9854
3.98447
3.98402
3.98405
3.98457
3.98559
3.98709
3.98907
3.99146
3.99427
3.99743
4.00094
4.00476
4.0089
4.01328
4.01797
4.02288
4.02806
4.03347
4.03818
4.04193
4.04503
4.04769
4.05012
4.05242
4.0547
4.05703
4.05945
4.062
4.0647
4.06755
4.0706
4.07383
4.07727
4.08091
4.08476
4.08882
4.09307
4.09753
4.10217
4.10697
4.11193
4.11702
4.12222
4.12751
4.13286
4.13828
4.14374
4.14922
4.1547
4.16017
4.16561
4.17103
4.1764
4.1817
4.18693
4.19207
4.19708
4.20196
4.20667
4.2112
4.21552
4.21964
4.22351
4.22712
4.23043
4.23341
4.23605
4.23835
4.24032
4.24198
4.24337
4.2445
4.24543
4.2462
4.24685
4.24743
4.24799
4.24854
4.24915
4.24986
4.25069
4.25165
4.25272
4.25389
4.2551
4.25638
4.25774
4.25917
4.26071
4.26235
4.2642
4.26633
4.26883
4.27182
4.27537
4.27955
4.28443
4.29009
4.29661
4.30405
4.31241
4.32164
4.3318
4.3429
4.35498
4.36801
4.38192
4.39666
4.41207
4.42806
4.44455
4.46152
4.47892
4.4967
4.51473
4.53286
4.55092
4.56873
4.58618
4.60312
4.61942
4.63494
4.64956
4.66315
4.67556
4.68671
4.6966
4.70525
4.71269
4.71895
4.72408
4.72812
4.73111
4.73315
4.7343
4.73465
4.73423
4.73311
4.7313
4.72873
4.72525
4.72078
4.71531
4.70893
4.7018
4.69411
4.68601
4.67764
4.66932
4.66052
)
;
    }
    inlet
    {
        type            calculated;
        value           uniform 0;
    }
    outlet
    {
        type            calculated;
        value           uniform 0;
    }
    frontAndBack
    {
        type            empty;
    }
}


// ************************************************************************* //
