# vtk DataFile Version 2.0
track0
ASCII
DATASET POLYDATA
POINTS 11930 float
-0.0205 0.001 1e-005
-0.0203851 0.00100536 1.50243e-005
-0.0202701 0.00101047 1.9664e-005
-0.0201551 0.00101535 2.39718e-005
-0.0200401 0.00102 2.79432e-005
-0.0198624 0.00102682 3.35511e-005
-0.0196933 0.00103276 3.80975e-005
-0.0195242 0.00103809 4.16124e-005
-0.0193551 0.00104281 4.41048e-005
-0.019186 0.00104692 4.55839e-005
-0.0190172 0.00105042 4.60583e-005
-0.0187132 0.00105593 4.60583e-005
-0.0184093 0.00106079 4.60583e-005
-0.0181054 0.00106514 4.60583e-005
-0.0178014 0.00106896 4.60583e-005
-0.0174976 0.00107225 4.60583e-005
-0.0172058 0.00107513 4.60583e-005
-0.016914 0.00107793 4.60583e-005
-0.0166222 0.00108065 4.60583e-005
-0.0163305 0.00108331 4.60583e-005
-0.0160387 0.00108591 4.60583e-005
-0.0157586 0.0010883 4.60583e-005
-0.0154784 0.00109062 4.60583e-005
-0.0151983 0.00109285 4.60583e-005
-0.0149182 0.00109501 4.60583e-005
-0.0146381 0.00109708 4.60583e-005
-0.0143692 0.00109895 4.60583e-005
-0.0141002 0.00110071 4.60583e-005
-0.0138313 0.00110241 4.60583e-005
-0.0135624 0.00110403 4.60583e-005
-0.0132934 0.00110558 4.60583e-005
-0.0130353 0.001107 4.60583e-005
-0.0127771 0.00110837 4.60583e-005
-0.0125189 0.00110969 4.60583e-005
-0.0122607 0.00111098 4.60583e-005
-0.0120025 0.00111224 4.60583e-005
-0.0117547 0.00111341 4.60583e-005
-0.0115068 0.00111456 4.60583e-005
-0.0112589 0.00111569 4.60583e-005
-0.0110111 0.0011168 4.60583e-005
-0.0107632 0.00111788 4.60583e-005
-0.0105252 0.00111891 4.60583e-005
-0.0102873 0.00111992 4.60583e-005
-0.0100493 0.00112091 4.60583e-005
-0.00981133 0.0011219 4.60583e-005
-0.00957337 0.00112287 4.60583e-005
-0.00934491 0.00112378 4.60583e-005
-0.00911645 0.00112469 4.60583e-005
-0.00888799 0.00112558 4.60583e-005
-0.00865954 0.00112647 4.60583e-005
-0.00843108 0.00112735 4.60583e-005
-0.00821175 0.00112818 4.60583e-005
-0.00799242 0.00112901 4.60583e-005
-0.00777309 0.00112983 4.60583e-005
-0.00755376 0.00113065 4.60583e-005
-0.00733443 0.00113146 4.60583e-005
-0.00712387 0.00113224 4.60583e-005
-0.0069133 0.00113301 4.60583e-005
-0.00670273 0.00113378 4.60583e-005
-0.00649216 0.00113455 4.60583e-005
-0.0062816 0.00113532 4.60583e-005
-0.00607944 0.00113605 4.60583e-005
-0.00587729 0.00113679 4.60583e-005
-0.00567514 0.00113752 4.60583e-005
-0.00547298 0.00113825 4.60583e-005
-0.00527083 0.00113898 4.60583e-005
-0.00507675 0.00113968 4.60583e-005
-0.00488267 0.00114038 4.60583e-005
-0.0046886 0.00114108 4.60583e-005
-0.00449452 0.00114178 4.60583e-005
-0.00430044 0.00114248 4.60583e-005
-0.00411412 0.00114316 4.60583e-005
-0.0039278 0.00114383 4.60583e-005
-0.00374147 0.0011445 4.60583e-005
-0.00355515 0.00114517 4.60583e-005
-0.00336883 0.00114584 4.60583e-005
-0.00318995 0.00114649 4.60583e-005
-0.00301107 0.00114714 4.60583e-005
-0.00283219 0.00114778 4.60583e-005
-0.00265331 0.00114843 4.60583e-005
-0.00247443 0.00114908 4.60583e-005
-0.0023027 0.00114971 4.60583e-005
-0.00213097 0.00115033 4.60583e-005
-0.00195924 0.00115096 4.60583e-005
-0.0017875 0.00115158 4.60583e-005
-0.00161577 0.00115221 4.60583e-005
-0.0014509 0.00115282 4.60583e-005
-0.00128603 0.00115343 4.60583e-005
-0.00112116 0.00115403 4.60583e-005
-0.000956289 0.00115463 4.60583e-005
-0.000791418 0.00115525 4.60583e-005
-0.000633135 0.00115585 4.60583e-005
-0.000474851 0.00115645 4.60583e-005
-0.000316567 0.00115704 4.60583e-005
-0.000158284 0.00115764 4.60583e-005
0 0.00115825 4.60583e-005
0.000105677 0.00115867 4.60583e-005
0.000211355 0.00115908 4.60583e-005
0.000317032 0.00115949 4.60583e-005
0.00042271 0.0011599 4.60583e-005
0.000528387 0.00116032 4.60583e-005
0.000634886 0.00116076 4.60583e-005
0.000741385 0.00116119 4.60583e-005
0.000847885 0.00116162 4.60583e-005
0.000954384 0.00116206 4.60583e-005
0.00106088 0.00116251 4.60583e-005
0.00116821 0.00116297 4.60583e-005
0.00127554 0.00116343 4.60583e-005
0.00138286 0.00116389 4.60583e-005
0.00149019 0.00116436 4.60583e-005
0.00159752 0.00116483 4.60583e-005
0.00170568 0.00116532 4.60583e-005
0.00181384 0.00116581 4.60583e-005
0.001922 0.0011663 4.60583e-005
0.00203016 0.00116679 4.60583e-005
0.00213833 0.00116728 4.60583e-005
0.00224733 0.00116779 4.60583e-005
0.00235633 0.0011683 4.60583e-005
0.00246533 0.00116881 4.60583e-005
0.00257434 0.00116932 4.60583e-005
0.00268334 0.00116983 4.60583e-005
0.00279319 0.00117035 4.60583e-005
0.00290304 0.00117087 4.60583e-005
0.00301289 0.0011714 4.60583e-005
0.00312274 0.00117192 4.60583e-005
0.00323259 0.00117244 4.60583e-005
0.00334329 0.00117296 4.60583e-005
0.003454 0.0011735 4.60583e-005
0.0035647 0.00117403 4.60583e-005
0.0036754 0.00117457 4.60583e-005
0.00378611 0.0011751 4.60583e-005
0.00389767 0.00117562 4.60583e-005
0.00400924 0.00117616 4.60583e-005
0.0041208 0.00117671 4.60583e-005
0.00423237 0.00117725 4.60583e-005
0.00434393 0.00117779 4.60583e-005
0.00445636 0.00117831 4.60583e-005
0.00456879 0.00117885 4.60583e-005
0.00468123 0.0011794 4.60583e-005
0.00479366 0.00117995 4.60583e-005
0.00490609 0.00118049 4.60583e-005
0.0050194 0.00118101 4.60583e-005
0.0051327 0.00118156 4.60583e-005
0.00524601 0.00118211 4.60583e-005
0.00535931 0.00118265 4.60583e-005
0.00547262 0.0011832 4.60583e-005
0.00558681 0.00118372 4.60583e-005
0.005701 0.00118427 4.60583e-005
0.00581518 0.00118482 4.60583e-005
0.00592937 0.00118537 4.60583e-005
0.00604356 0.00118591 4.60583e-005
0.00615863 0.00118644 4.60583e-005
0.00627371 0.00118698 4.60583e-005
0.00638878 0.00118753 4.60583e-005
0.00650386 0.00118808 4.60583e-005
0.00661893 0.00118862 4.60583e-005
0.0067349 0.00118915 4.60583e-005
0.00685087 0.00118969 4.60583e-005
0.00696684 0.00119023 4.60583e-005
0.00708281 0.00119077 4.60583e-005
0.00719878 0.00119131 4.60583e-005
0.00731565 0.00119184 4.60583e-005
0.00743252 0.00119238 4.60583e-005
0.00754939 0.00119291 4.60583e-005
0.00766626 0.00119345 4.60583e-005
0.00778313 0.00119398 4.60583e-005
0.00790091 0.0011945 4.60583e-005
0.00801869 0.00119503 4.60583e-005
0.00813647 0.00119556 4.60583e-005
0.00825425 0.00119609 4.60583e-005
0.00837203 0.00119662 4.60583e-005
0.00849073 0.00119714 4.60583e-005
0.00860942 0.00119767 4.60583e-005
0.00872812 0.00119819 4.60583e-005
0.00884682 0.00119871 4.60583e-005
0.00896551 0.00119923 4.60583e-005
0.00908513 0.00119975 4.60583e-005
0.00920475 0.00120027 4.60583e-005
0.00932437 0.00120079 4.60583e-005
0.00944398 0.0012013 4.60583e-005
0.0095636 0.00120181 4.60583e-005
0.00968415 0.00120232 4.60583e-005
0.0098047 0.00120283 4.60583e-005
0.00992525 0.00120334 4.60583e-005
0.0100458 0.00120385 4.60583e-005
0.0101663 0.00120435 4.60583e-005
0.0102878 0.00120485 4.60583e-005
0.0104093 0.00120535 4.60583e-005
0.0105308 0.00120585 4.60583e-005
0.0106523 0.00120635 4.60583e-005
0.0107738 0.00120685 4.60583e-005
0.0108962 0.00120734 4.60583e-005
0.0110186 0.00120783 4.60583e-005
0.0111411 0.00120832 4.60583e-005
0.0112635 0.00120881 4.60583e-005
0.0113859 0.0012093 4.60583e-005
0.0115093 0.00120978 4.60583e-005
0.0116327 0.00121026 4.60583e-005
0.0117561 0.00121075 4.60583e-005
0.0118795 0.00121123 4.60583e-005
0.0120028 0.0012117 4.60583e-005
0.0121272 0.00121217 4.60583e-005
0.0122515 0.00121265 4.60583e-005
0.0123759 0.00121312 4.60583e-005
0.0125002 0.00121359 4.60583e-005
0.0126245 0.00121405 4.60583e-005
0.0127498 0.00121451 4.60583e-005
0.0128752 0.00121498 4.60583e-005
0.0130005 0.00121544 4.60583e-005
0.0131258 0.00121589 4.60583e-005
0.0132511 0.00121634 4.60583e-005
0.0133774 0.00121679 4.60583e-005
0.0135036 0.00121724 4.60583e-005
0.0136299 0.00121769 4.60583e-005
0.0137562 0.00121813 4.60583e-005
0.0138825 0.00121857 4.60583e-005
0.0140098 0.001219 4.60583e-005
0.014137 0.00121943 4.60583e-005
0.0142643 0.00121986 4.60583e-005
0.0143915 0.00122029 4.60583e-005
0.0145188 0.00122071 4.60583e-005
0.0146471 0.00122112 4.60583e-005
0.0147753 0.00122154 4.60583e-005
0.0149036 0.00122196 4.60583e-005
0.0150318 0.00122236 4.60583e-005
0.0151601 0.00122277 4.60583e-005
0.0152893 0.00122316 4.60583e-005
0.0154186 0.00122356 4.60583e-005
0.0155478 0.00122395 4.60583e-005
0.0156771 0.00122434 4.60583e-005
0.0158063 0.00122472 4.60583e-005
0.0159366 0.00122509 4.60583e-005
0.0160668 0.00122547 4.60583e-005
0.0161971 0.00122584 4.60583e-005
0.0163274 0.0012262 4.60583e-005
0.0164576 0.00122656 4.60583e-005
0.0165889 0.00122691 4.60583e-005
0.0167201 0.00122726 4.60583e-005
0.0168514 0.0012276 4.60583e-005
0.0169827 0.00122794 4.60583e-005
0.0171139 0.00122827 4.60583e-005
0.0172339 0.00122856 4.60583e-005
0.0173539 0.00122885 4.60583e-005
0.0174739 0.00122914 4.60583e-005
0.0175939 0.00122942 4.60583e-005
0.017709 0.00122968 4.60583e-005
0.0177223 0.00122971 4.60583e-005
0.0177356 0.00122974 4.60583e-005
0.0177489 0.00122977 4.60583e-005
0.0177621 0.0012298 4.60583e-005
0.0177754 0.00122983 4.60583e-005
0.0179087 0.00123013 4.60583e-005
0.018042 0.00123042 4.60583e-005
0.0181753 0.0012307 4.60583e-005
0.0183087 0.00123098 4.60583e-005
0.018442 0.00123124 4.60583e-005
0.0185763 0.0012315 4.60583e-005
0.0187107 0.00123176 4.60583e-005
0.018845 0.001232 4.60583e-005
0.0189794 0.00123224 4.60583e-005
0.0191137 0.00123247 4.60583e-005
0.0192491 0.00123269 4.60583e-005
0.0193845 0.00123291 4.60583e-005
0.0195199 0.00123312 4.60583e-005
0.0196553 0.00123332 4.60583e-005
0.0197907 0.00123351 4.60583e-005
0.0199272 0.00123369 4.60583e-005
0.0200636 0.00123386 4.60583e-005
0.0202001 0.00123403 4.60583e-005
0.0203365 0.00123419 4.60583e-005
0.020473 0.00123433 4.60583e-005
0.0206105 0.00123447 4.60583e-005
0.020748 0.0012346 4.60583e-005
0.0208855 0.00123472 4.60583e-005
0.021023 0.00123483 4.60583e-005
0.0211606 0.00123493 4.60583e-005
0.0212991 0.00123503 4.60583e-005
0.0214377 0.00123511 4.60583e-005
0.0215763 0.00123518 4.60583e-005
0.0217149 0.00123524 4.60583e-005
0.0218535 0.00123529 4.60583e-005
0.0219931 0.00123534 4.60583e-005
0.0221328 0.00123537 4.60583e-005
0.0222724 0.00123539 4.60583e-005
0.0224121 0.0012354 4.60583e-005
0.0225517 0.0012354 4.60583e-005
0.0226925 0.0012354 4.60583e-005
[...]
POINT_DATA 11930
 FIELD attributes 2
p 1 11930 float
-1546.63 -1534.02 -1520.2 -1506.52 -1493 -1472.35 -1457.67 -1442.91 -1428.08 -1413.17 -1392.37 -1344.21 -1296.16 -1248.17 -1200.25 -1157.82 -1126.25 -1100.89 -1075.54 -1050.2 -1033.49 -1021.77 -1012.29 -1002.82 -993.35 -985.694 -978.833 -970.854 -962.875 -954.895 -945.838 -937.318 -928.658 -919.995 -911.353 -902.989 -895.026 -887.848 -880.762 -873.83 -867.816 -862.044 -856.832 -851.739 -846.8 -842.444 -838.261 -834.294 -830.394 -826.583 -823.016 -819.594 -816.298 -813.056 -809.886 -806.871 -803.976 -801.207 -798.504 -795.882 -793.4 -791.007 -788.725 -786.517 -784.39 -782.379 -780.423 -778.551 -776.744 -775.007 -773.355 -771.725 -770.157 -768.649 -767.206 -765.826 -764.434 -763.091 -761.802 -760.576 -759.403 -758.185 -757.01 -755.895 -754.852 -753.861 -752.788 -751.746 -750.752 -749.836 -748.967 -747.986 -747.057 -746.222 -745.513 -744.87 -744.117 -743.428 -742.861 -742.445 -742.118 -741.583 -741.093 -740.67 -740.359 -740.128 -739.688 -739.359 -739.161 -739.095 -739.152 -739.004 -738.951 -738.987 -739.098 -739.294 -739.424 -739.549 -739.67 -739.784 -739.887 -740.179 -740.372 -740.504 -740.576 -740.538 -740.938 -741.173 -741.327 -741.393 -741.261 -741.736 -741.995 -742.171 -742.255 -742.067 -742.564 -742.803 -742.966 -743.048 -742.81 -743.263 -743.442 -743.563 -743.628 -743.367 -743.739 -743.867 -743.961 -744.023 -743.794 -744.087 -744.187 -744.271 -744.344 -744.18 -744.398 -744.473 -744.545 -744.617 -744.519 -744.659 -744.712 -744.765 -744.818 -744.78 -744.859 -744.902 -744.945 -744.989 -745.003 -745.051 -745.098 -745.145 -745.192 -745.248 -745.287 -745.34 -745.393 -745.446 -745.525 -745.567 -745.624 -745.68 -745.737 -745.824 -745.877 -745.939 -746 -746.062 -746.148 -746.222 -746.292 -746.362 -746.432 -746.516 -746.616 -746.7 -746.783 -746.866 -746.947 -747.076 -747.174 -747.273 -747.371 -747.452 -747.606 -747.718 -747.831 -747.943 -748.026 -748.2 -748.326 -748.451 -748.577 -748.665 -748.854 -748.993 -749.132 -749.27 -749.369 -749.57 -749.722 -749.875 -750.027 -750.143 -750.35 -750.516 -750.682 -750.848 -750.984 -751.196 -751.378 -751.56 -751.742 -751.902 -752.12 -752.318 -752.516 -752.715 -752.903 -753.103 -753.295 -753.487 -753.679 -753.863 -753.884 -753.906 -753.927 -753.948 -753.973 -754.193 -754.416 -754.639 -754.862 -755.123 -755.324 -755.56 -755.796 -756.031 -756.338 -756.525 -756.774 -757.023 -757.271 -757.616 -757.796 -758.057 -758.318 -758.579 -758.954 -759.133 -759.407 -759.68 -759.953 -760.352 -760.538 -760.824 -761.11 -761.395 -761.808 -762.01 -762.307 -762.605 -762.903 -763.32 -763.545 -763.855 -764.164 -764.474 -764.888 -765.143 -765.464 -765.785 -766.106 -766.508 -766.798 -767.13 -767.462 -767.795 -768.179 -768.508 -768.85 -769.193 -769.536 -769.897 -770.266 -770.618 -770.971 -771.323 -771.658 -772.067 -772.43 -772.791 -773.148 -773.461 -773.9 -774.28 -774.651 -775.006 -775.304 -775.768 -776.167 -776.545 -776.896 -777.183 -777.665 -778.085 -778.471 -778.815 -779.097 -779.592 -780.033 -780.428 -780.764 -781.047 -781.553 -782.015 -782.416 -782.745 -783.029 -783.542 -784.023 -784.428 -784.744 -785.028 -785.543 -786.038 -786.444 -786.746 -787.03 -787.539 -788.042 -788.447 -788.74 -789.029 -789.528 -790.027 -790.427 -790.726 -791.024 -791.51 -791.996 -792.395 -792.704 -793.012 -793.483 -793.954 -794.349 -794.668 -794.987 -795.44 -795.894 -796.285 -796.614 -796.943 -797.377 -797.812 -798.198 -798.535 -798.873 -799.289 -799.705 -800.084 -800.428 -800.772 -801.17 -801.567 -801.94 -802.288 -802.637 -803.016 -803.396 -803.76 -804.111 -804.462 -804.824 -805.186 -805.542 -805.894 -806.244 -806.59 -806.936 -807.284 -807.631 -807.979 -808.309 -808.642 -808.979 -809.318 -809.66 -809.975 -810.295 -810.621 -810.949 -811.283 -811.582 -811.891 -812.203 -812.518 -812.841 -813.124 -813.421 -813.72 -814.019 -814.33 -814.597 -814.88 -815.164 -815.448 -815.742 -815.993 -816.26 -816.526 -816.792 -817.068 -817.303 -817.55 -817.798 -818.046 -818.303 -818.519 -818.747 -818.975 -819.203 -819.438 -819.636 -819.843 -820.049 -820.256 -820.466 -820.645 -820.829 -821.012 -821.195 -821.379 -821.392 -821.404 -821.417 -821.43 -821.443 -821.588 -821.733 -821.879 -822.025 -822.169 -822.299 -822.427 -822.555 -822.683 -822.807 -822.908 -823.004 -823.1 -823.195 -823.285 -823.357 -823.419 -823.482 -823.545 -823.598 -823.64 -823.668 -823.695 -823.723 -823.738 -823.748 -823.738 -823.728 -823.717 -823.691 -823.663 -823.618 -823.569 -823.514 -823.447 -823.378 -823.296 -823.204 -823.103 -822.992 -822.88 -822.76 -822.623 -822.472 -822.315 -822.157 -821.997 -821.813 -821.609 -821.403 -821.197 -820.991 -820.758 -820.501 -820.244 -819.987 -819.731 -819.447 -819.136 -818.826 -818.516 -818.206 -817.869 -817.502 -817.135 -816.769 -816.403 -816.01 -815.584 -815.159 -814.734 -814.307 -813.853 -813.371 -812.884 -812.398 -811.902 -811.385 -810.848 -810.298 -809.748 -809.179 -808.597 -808.005 -807.388 -806.773 -806.128 -805.479 -804.829 -804.145 -803.457 -802.738 -802.019 -801.3 -800.555 -799.787 -798.995 -798.204 -797.413 -796.607 -795.754 -794.888 -794.022 -793.156 -792.287 -792.035 -791.779 -791.523 -791.268 -791.017 -790.332 -789.648 -788.964 -788.28 -787.585 -786.58 -785.563 -784.547 -783.53 -782.487 -781.418 -780.32 -779.222 -778.125 -776.983 -775.848 -774.668 -773.487 -772.299 -771.062 -769.847 -768.596 -767.331 -766.039 -764.715 -763.413 -762.095 -760.744 -759.345 -757.933 -756.543 -755.153 -753.709 -752.208 -750.707 -749.227 -747.748 -746.213 -744.621 -743.029 -741.459 -739.889 -738.261 -736.577 -734.893 -733.231 -731.558 -729.832 -728.07 -726.293 -724.538 -722.748 -720.928 -719.094 -717.223 -715.374 -713.465 -711.55 -709.635 -707.678 -705.715 -703.705 -701.695 -699.685 -697.656 -695.967 -694.256 -692.545 -690.835 -689.215 -688.804 -688.393 -687.983 -687.572 -687.156 -684.972 -682.783 -680.595 -678.408 -676.187 -673.931 -671.647 -669.364 -667.081 -664.735 -662.399 -660.029 -657.65 -655.243 -652.8 -650.369 -647.929 -645.455 -642.922 -640.383 -637.857 -635.332 -632.754 -630.12 -627.486 -624.865 -622.245 -619.567 -616.84 -614.112 -611.397 -608.658 -605.879 -603.084 -600.264 -597.456 -594.59 -591.718 -588.847 -585.945 -583.018 -580.053 -577.09 -574.127 -571.162 -570.981 -570.797 -570.614 -570.431 -570.249 -567.383 -564.518 -561.654 -558.79 -555.903 -552.781 -549.645 -546.509 -543.372 -540.191 -536.99 -533.774 -530.551 -527.302 -524.034 -520.746 -517.458 -514.144 -510.791 -507.439 -504.065 -500.692 -497.283 -493.848 -490.412 -486.955 -483.485 -479.986 -476.481 -472.964 -469.426 -465.85 -462.272 -458.694 -455.105 -452.331 -449.539 -446.747 -443.955 -441.28 -440.394 -439.508 -438.621 -437.735 -436.843 -433.119 -429.392 -425.666 -421.941 -418.182 -414.398 -410.599 -406.799 -402.984 -399.142 -395.286 -391.429 -387.558 -383.647 -379.736 -375.81 -371.886 -367.931 -363.954 -359.977 -355.984 -351.98 -347.951 -343.919 -339.878 -335.821 -331.729 -327.639 -323.549 -319.453 -317.692 -315.921 -314.15 -312.379 -310.647 -308.263 -305.878 -303.494 -301.109 -298.71 -294.513 -290.31 -286.108 -281.903 -277.666 -273.418 -269.167 -264.911 -260.63 -256.342 -252.042 -247.743 -243.426 -239.091 -234.754 -230.406 -226.053 -221.678 -217.301 -212.92 -208.527 -204.11 -199.693 -195.277 -190.857 -189.295 -187.728 -186.16 -184.593 -183.052 -180.158 -177.264 -174.371 -171.478 -168.571 -164.082 -159.59 -155.099 -150.603 -146.087 -141.564 -137.042 -132.518 -127.975 -123.429 -118.876 -114.324 -109.757 -105.185 -100.612 -96.0304 -91.4406 -86.8455 -82.2509 -77.6562 -74.3591 -71.0567 -67.7546 -64.4528 -61.2555 -59.9231 -58.5908 -57.2584 -55.9262 -54.5907 -49.9586 -45.328 -40.6979 -36.0677 -31.4233 -26.7743 -22.1276 -17.484 -12.8318 -8.17637 -3.51549 1.1448 5.80829 10.4678 15.1296 19.7974 24.4668 29.1372 33.8072 38.4726 41.4169 44.3615 47.306 50.2502 53.1188 54.8634 56.6079 58.3524 60.0968 61.8426 66.5233 71.1992 75.8746 80.5496 85.2273 89.9083 94.5873 99.2569 103.924 108.594 113.267 117.94 122.608 127.267 131.925 136.587 141.243 145.898 150.552 155.205 156.059 156.911 157.763 158.615 159.462 163.258 167.054 170.85 174.646 178.437 183.081 187.715 192.345 196.968 201.59 206.214 210.837 215.448 220.044 224.643 229.243 233.835 238.42 243.005 247.582 249.601 251.613 253.624 255.636 257.618 260.177 262.737 265.296 267.856 270.408 274.963 279.505 284.046 288.579 293.106 297.631 302.155 306.663 311.154 315.648 320.139 324.619 329.09 333.561 338.022 339.993 341.954 343.915 345.876 347.811 350.298 352.785 355.272 357.759 360.236 364.662 369.072 373.483 377.881 382.273 386.659 391.044 395.411 399.759 404.109 408.452 412.778 417.097 421.416 425.731 426.666 427.597 428.528 429.458 430.383 433.742 437.102 440.461 443.819 447.161 451.422 455.675 459.92 464.143 468.367 472.579 476.791 480.978 485.156 489.329 492.628 495.908 499.186 502.464 505.682 506.556 507.43 508.305 509.179 510.048 514.158 518.262 522.366 526.461 530.541 534.606 538.67 542.713 546.736 550.76 554.769 558.759 562.739 566.719 570.695 571.385 572.071 572.756 573.441 574.123 577.38 580.636 583.893 587.145 590.377 594.278 598.177 602.055 605.908 609.762 613.599 617.423 621.228 625.032 628.823 630.095 631.357 632.617 633.877 635.133 637.629 640.125 642.621 645.111 647.585 651.299 655.005 658.696 662.353 666.011 669.651 673.279 676.877 680.475 684.049 685.395 686.732 688.066 689.4 690.74 692.945 695.15 697.355 699.556 701.742 705.244 708.721 712.166 715.522 718.876 722.209 725.581 729.057 732.532 736.065 737.464 738.599 739.651 740.703 741.776 743.63 745.484 747.337 749.076 750.425 752.637 755.337 758.419 763.107 767.866 772.508 776.401 778.83 781.263 783.495 783.587 783.699 783.844 783.989 784.134 786.022 787.911 789.802 792.204 794.94 797.873 800.787 803.572 806.356 809.088 809.525 809.954 810.366 810.777 811.195 813.482 815.769 818.054 820.263 822.425 825.01 827.593 830.076 832.554 834.972 835.505 836.026 836.524 837.021 837.534 839.417 841.297 843.176 844.981 846.739 848.982 851.221 853.291 855.298 857.244 857.859 858.446 858.986 859.526 860.097 861.373 862.645 863.913 865.097 866.215 867.815 869.408 870.806 871.992 873.169 873.788 874.322 874.757 875.191 875.679 876.112 876.543 876.972 877.341 877.641 878.24 878.736 879.101 879.13 879.15 879.033 878.704 878.151 877.591 876.946 876.83 876.676 876.501 876.326 876.146 875.158 874.159 873.147 872.001 870.568 868.718 866.855 864.555 861.842 859.117 856.134 852.753 849.123 845.487 841.679 840.775 839.753 838.713 837.672 836.56 832.903 829.234 825.555 821.826 817.655 811.959 805.968 799.701 792.691 785.579 777.997 770.403 762.235 753.592 744.888 735.659 725.26 714.569 703.876 692.681 687.957 683.225 678.492 673.757 668.379 660.916 653.449 645.977 638.502 630.986 617.136 601.418 585.669 568.972 549.635 529.326 509.619 492.058 478.075 464.168 449.514 434.861 407.404 367.613 327.789 286.171 253.224 236.83 228.275 231.216 233.968 177.52 120.144 62.4732 0