# vtk DataFile Version 2.0
track0
ASCII
DATASET POLYDATA
POINTS 11930 float
-0.0205 0.001 1e-005
-0.0203849 0.00100536 1.50302e-005
-0.0202698 0.00101047 1.96749e-005
-0.0201547 0.00101536 2.3987e-005
-0.0200395 0.00102 2.79618e-005
-0.0198618 0.00102682 3.35695e-005
-0.0196928 0.00103275 3.81103e-005
-0.0195239 0.00103808 4.1621e-005
-0.0193549 0.00104279 4.41105e-005
-0.0191858 0.0010469 4.55881e-005
-0.0190172 0.00105039 4.60621e-005
-0.0187132 0.0010559 4.60621e-005
-0.0184093 0.00106079 4.60621e-005
-0.0181054 0.00106517 4.60621e-005
-0.0178014 0.00106905 4.60621e-005
-0.0174976 0.00107242 4.60621e-005
-0.0172058 0.00107538 4.60621e-005
-0.016914 0.00107825 4.60621e-005
-0.0166222 0.00108106 4.60621e-005
-0.0163305 0.00108378 4.60621e-005
-0.0160387 0.00108644 4.60621e-005
-0.0157586 0.00108887 4.60621e-005
-0.0154784 0.00109122 4.60621e-005
-0.0151983 0.00109349 4.60621e-005
-0.0149182 0.00109566 4.60621e-005
-0.0146381 0.00109774 4.60621e-005
-0.0143692 0.00109961 4.60621e-005
-0.0141002 0.00110138 4.60621e-005
-0.0138313 0.00110308 4.60621e-005
-0.0135624 0.00110471 4.60621e-005
-0.0132934 0.00110626 4.60621e-005
-0.0130353 0.00110767 4.60621e-005
-0.0127771 0.00110903 4.60621e-005
-0.0125189 0.00111034 4.60621e-005
-0.0122607 0.00111162 4.60621e-005
-0.0120025 0.00111286 4.60621e-005
-0.0117547 0.00111402 4.60621e-005
-0.0115068 0.00111515 4.60621e-005
-0.0112589 0.00111626 4.60621e-005
-0.0110111 0.00111736 4.60621e-005
-0.0107632 0.00111843 4.60621e-005
-0.0105252 0.00111945 4.60621e-005
-0.0102873 0.00112045 4.60621e-005
-0.0100493 0.00112143 4.60621e-005
-0.00981133 0.00112241 4.60621e-005
-0.00957337 0.00112337 4.60621e-005
-0.00934491 0.00112428 4.60621e-005
-0.00911645 0.00112518 4.60621e-005
-0.00888799 0.00112607 4.60621e-005
-0.00865954 0.00112695 4.60621e-005
-0.00843108 0.00112782 4.60621e-005
-0.00821175 0.00112865 4.60621e-005
-0.00799242 0.00112947 4.60621e-005
-0.00777309 0.00113029 4.60621e-005
-0.00755376 0.0011311 4.60621e-005
-0.00733443 0.0011319 4.60621e-005
-0.00712387 0.00113267 4.60621e-005
-0.0069133 0.00113343 4.60621e-005
-0.00670273 0.00113419 4.60621e-005
-0.00649216 0.00113495 4.60621e-005
-0.0062816 0.00113571 4.60621e-005
-0.00607944 0.00113643 4.60621e-005
-0.00587729 0.00113715 4.60621e-005
-0.00567514 0.00113786 4.60621e-005
-0.00547298 0.00113858 4.60621e-005
-0.00527083 0.0011393 4.60621e-005
-0.00507675 0.00113998 4.60621e-005
-0.00488267 0.00114067 4.60621e-005
-0.0046886 0.00114135 4.60621e-005
-0.00449452 0.00114203 4.60621e-005
-0.00430044 0.00114271 4.60621e-005
-0.00411412 0.00114337 4.60621e-005
-0.0039278 0.00114402 4.60621e-005
-0.00374147 0.00114468 4.60621e-005
-0.00355515 0.00114533 4.60621e-005
-0.00336883 0.00114598 4.60621e-005
-0.00318995 0.00114662 4.60621e-005
-0.00301107 0.00114725 4.60621e-005
-0.00283219 0.00114788 4.60621e-005
-0.00265331 0.0011485 4.60621e-005
-0.00247443 0.00114914 4.60621e-005
-0.0023027 0.00114975 4.60621e-005
-0.00213097 0.00115036 4.60621e-005
-0.00195924 0.00115097 4.60621e-005
-0.0017875 0.00115158 4.60621e-005
-0.00161577 0.0011522 4.60621e-005
-0.0014509 0.0011528 4.60621e-005
-0.00128603 0.00115339 4.60621e-005
-0.00112116 0.00115398 4.60621e-005
-0.000956289 0.00115458 4.60621e-005
-0.000791418 0.00115518 4.60621e-005
-0.000633135 0.00115577 4.60621e-005
-0.000474851 0.00115636 4.60621e-005
-0.000316567 0.00115695 4.60621e-005
-0.000158284 0.00115754 4.60621e-005
0 0.00115815 4.60621e-005
0.000105677 0.00115856 4.60621e-005
0.000211355 0.00115897 4.60621e-005
0.000317032 0.00115938 4.60621e-005
0.00042271 0.00115979 4.60621e-005
0.000528387 0.00116021 4.60621e-005
0.000634886 0.00116064 4.60621e-005
0.000741385 0.00116106 4.60621e-005
0.000847885 0.00116149 4.60621e-005
0.000954384 0.00116192 4.60621e-005
0.00106088 0.00116236 4.60621e-005
0.00116821 0.00116282 4.60621e-005
0.00127554 0.00116327 4.60621e-005
0.00138286 0.00116372 4.60621e-005
0.00149019 0.00116417 4.60621e-005
0.00159752 0.00116463 4.60621e-005
0.00170568 0.00116511 4.60621e-005
0.00181384 0.00116558 4.60621e-005
0.001922 0.00116605 4.60621e-005
0.00203016 0.00116653 4.60621e-005
0.00213833 0.001167 4.60621e-005
0.00224733 0.00116749 4.60621e-005
0.00235633 0.00116798 4.60621e-005
0.00246533 0.00116847 4.60621e-005
0.00257434 0.00116897 4.60621e-005
0.00268334 0.00116946 4.60621e-005
0.00279319 0.00116995 4.60621e-005
0.00290304 0.00117046 4.60621e-005
0.00301289 0.00117096 4.60621e-005
0.00312274 0.00117147 4.60621e-005
0.00323259 0.00117197 4.60621e-005
0.00334329 0.00117247 4.60621e-005
0.003454 0.00117299 4.60621e-005
0.0035647 0.00117351 4.60621e-005
0.0036754 0.00117403 4.60621e-005
0.00378611 0.00117454 4.60621e-005
0.00389767 0.00117505 4.60621e-005
0.00400924 0.00117557 4.60621e-005
0.0041208 0.0011761 4.60621e-005
0.00423237 0.00117663 4.60621e-005
0.00434393 0.00117715 4.60621e-005
0.00445636 0.00117767 4.60621e-005
0.00456879 0.0011782 4.60621e-005
0.00468123 0.00117873 4.60621e-005
0.00479366 0.00117927 4.60621e-005
0.00490609 0.0011798 4.60621e-005
0.0050194 0.00118031 4.60621e-005
0.0051327 0.00118085 4.60621e-005
0.00524601 0.00118139 4.60621e-005
0.00535931 0.00118193 4.60621e-005
0.00547262 0.00118246 4.60621e-005
0.00558681 0.00118298 4.60621e-005
0.005701 0.00118352 4.60621e-005
0.00581518 0.00118406 4.60621e-005
0.00592937 0.0011846 4.60621e-005
0.00604356 0.00118514 4.60621e-005
0.00615863 0.00118566 4.60621e-005
0.00627371 0.0011862 4.60621e-005
0.00638878 0.00118674 4.60621e-005
0.00650386 0.00118728 4.60621e-005
0.00661893 0.00118782 4.60621e-005
0.0067349 0.00118834 4.60621e-005
0.00685087 0.00118888 4.60621e-005
0.00696684 0.00118942 4.60621e-005
0.00708281 0.00118996 4.60621e-005
0.00719878 0.0011905 4.60621e-005
0.00731565 0.00119102 4.60621e-005
0.00743252 0.00119156 4.60621e-005
0.00754939 0.00119209 4.60621e-005
0.00766626 0.00119263 4.60621e-005
0.00778313 0.00119316 4.60621e-005
0.00790091 0.00119368 4.60621e-005
0.00801869 0.00119421 4.60621e-005
0.00813647 0.00119474 4.60621e-005
0.00825425 0.00119527 4.60621e-005
0.00837203 0.0011958 4.60621e-005
0.00849073 0.00119632 4.60621e-005
0.00860942 0.00119684 4.60621e-005
0.00872812 0.00119737 4.60621e-005
0.00884682 0.00119789 4.60621e-005
0.00896551 0.00119841 4.60621e-005
0.00908513 0.00119892 4.60621e-005
0.00920475 0.00119944 4.60621e-005
0.00932437 0.00119996 4.60621e-005
0.00944398 0.00120048 4.60621e-005
0.0095636 0.00120099 4.60621e-005
0.00968415 0.0012015 4.60621e-005
0.0098047 0.00120202 4.60621e-005
0.00992525 0.00120253 4.60621e-005
0.0100458 0.00120304 4.60621e-005
0.0101663 0.00120354 4.60621e-005
0.0102878 0.00120405 4.60621e-005
0.0104093 0.00120455 4.60621e-005
0.0105308 0.00120506 4.60621e-005
0.0106523 0.00120556 4.60621e-005
0.0107738 0.00120606 4.60621e-005
0.0108962 0.00120655 4.60621e-005
0.0110186 0.00120705 4.60621e-005
0.0111411 0.00120754 4.60621e-005
0.0112635 0.00120804 4.60621e-005
0.0113859 0.00120852 4.60621e-005
0.0115093 0.00120901 4.60621e-005
0.0116327 0.0012095 4.60621e-005
0.0117561 0.00120998 4.60621e-005
0.0118795 0.00121047 4.60621e-005
0.0120028 0.00121095 4.60621e-005
0.0121272 0.00121142 4.60621e-005
0.0122515 0.0012119 4.60621e-005
0.0123759 0.00121238 4.60621e-005
0.0125002 0.00121285 4.60621e-005
0.0126245 0.00121332 4.60621e-005
0.0127498 0.00121378 4.60621e-005
0.0128752 0.00121425 4.60621e-005
0.0130005 0.00121471 4.60621e-005
0.0131258 0.00121517 4.60621e-005
0.0132511 0.00121562 4.60621e-005
0.0133774 0.00121607 4.60621e-005
0.0135036 0.00121653 4.60621e-005
0.0136299 0.00121698 4.60621e-005
0.0137562 0.00121742 4.60621e-005
0.0138825 0.00121787 4.60621e-005
0.0140098 0.0012183 4.60621e-005
0.014137 0.00121874 4.60621e-005
0.0142643 0.00121917 4.60621e-005
0.0143915 0.0012196 4.60621e-005
0.0145188 0.00122003 4.60621e-005
0.0146471 0.00122044 4.60621e-005
0.0147753 0.00122087 4.60621e-005
0.0149036 0.00122128 4.60621e-005
0.0150318 0.00122169 4.60621e-005
0.0151601 0.0012221 4.60621e-005
0.0152893 0.0012225 4.60621e-005
0.0154186 0.0012229 4.60621e-005
0.0155478 0.00122329 4.60621e-005
0.0156771 0.00122369 4.60621e-005
0.0158063 0.00122407 4.60621e-005
0.0159366 0.00122445 4.60621e-005
0.0160668 0.00122483 4.60621e-005
0.0161971 0.0012252 4.60621e-005
0.0163274 0.00122557 4.60621e-005
0.0164576 0.00122593 4.60621e-005
0.0165889 0.00122628 4.60621e-005
0.0167201 0.00122663 4.60621e-005
0.0168514 0.00122698 4.60621e-005
0.0169827 0.00122732 4.60621e-005
0.0171139 0.00122766 4.60621e-005
0.0172207 0.00122792 4.60621e-005
0.0173274 0.00122818 4.60621e-005
0.0174341 0.00122844 4.60621e-005
0.0175408 0.0012287 4.60621e-005
0.0176437 0.00122894 4.60621e-005
0.01767 0.001229 4.60621e-005
0.0176964 0.00122906 4.60621e-005
0.0177227 0.00122912 4.60621e-005
0.017749 0.00122918 4.60621e-005
0.0177754 0.00122924 4.60621e-005
0.0179087 0.00122954 4.60621e-005
0.018042 0.00122983 4.60621e-005
0.0181753 0.00123011 4.60621e-005
0.0183087 0.00123039 4.60621e-005
0.018442 0.00123066 4.60621e-005
0.0185763 0.00123093 4.60621e-005
0.0187107 0.00123118 4.60621e-005
0.018845 0.00123143 4.60621e-005
0.0189794 0.00123167 4.60621e-005
0.0191137 0.00123191 4.60621e-005
0.0192491 0.00123213 4.60621e-005
0.0193845 0.00123235 4.60621e-005
0.0195199 0.00123256 4.60621e-005
0.0196553 0.00123276 4.60621e-005
0.0197907 0.00123296 4.60621e-005
0.0199272 0.00123314 4.60621e-005
0.0200636 0.00123332 4.60621e-005
0.0202001 0.00123349 4.60621e-005
0.0203365 0.00123364 4.60621e-005
0.020473 0.00123379 4.60621e-005
0.0206105 0.00123393 4.60621e-005
0.020748 0.00123407 4.60621e-005
0.0208855 0.00123419 4.60621e-005
0.021023 0.0012343 4.60621e-005
0.0211606 0.0012344 4.60621e-005
0.0212991 0.0012345 4.60621e-005
0.0214377 0.00123458 4.60621e-005
0.0215763 0.00123465 4.60621e-005
0.0217149 0.00123472 4.60621e-005
0.0218535 0.00123477 4.60621e-005
0.0219931 0.00123481 4.60621e-005
0.0221328 0.00123485 4.60621e-005
0.0222724 0.00123487 4.60621e-005
0.0224121 0.00123488 4.60621e-005
0.0225517 0.00123488 4.60621e-005
0.0226925 0.00123487 4.60621e-005
[...]
POINT_DATA 11930
 FIELD attributes 2
p 1 11930 float
-1547.59 -1534.9 -1520.99 -1507.24 -1493.63 -1472.86 -1458.12 -1443.29 -1428.39 -1413.41 -1392.51 -1344.16 -1295.93 -1247.76 -1199.67 -1157.15 -1125.56 -1100.2 -1074.84 -1049.5 -1032.85 -1021.17 -1011.76 -1002.35 -992.947 -985.364 -978.626 -970.73 -962.834 -954.938 -945.899 -937.454 -928.815 -920.17 -911.544 -903.141 -895.175 -887.976 -880.874 -873.932 -867.89 -862.115 -856.901 -851.813 -846.884 -842.536 -838.371 -834.42 -830.539 -826.748 -823.195 -819.787 -816.502 -813.268 -810.107 -807.096 -804.2 -801.424 -798.711 -796.079 -793.582 -791.171 -788.866 -786.631 -784.478 -782.438 -780.457 -778.554 -776.713 -774.943 -773.256 -771.6 -770.002 -768.461 -766.983 -765.568 -764.156 -762.789 -761.473 -760.217 -759.012 -757.783 -756.595 -755.461 -754.393 -753.374 -752.3 -751.252 -750.245 -749.308 -748.413 -747.437 -746.51 -745.671 -744.949 -744.287 -743.552 -742.876 -742.313 -741.887 -741.54 -741.021 -740.541 -740.119 -739.794 -739.54 -739.103 -738.77 -738.558 -738.468 -738.49 -738.329 -738.253 -738.257 -738.328 -738.477 -738.577 -738.668 -738.751 -738.825 -738.887 -739.151 -739.313 -739.413 -739.454 -739.385 -739.764 -739.972 -740.097 -740.137 -739.977 -740.436 -740.672 -740.825 -740.888 -740.675 -741.164 -741.388 -741.539 -741.612 -741.361 -741.815 -741.99 -742.11 -742.176 -741.911 -742.293 -742.423 -742.521 -742.59 -742.359 -742.665 -742.769 -742.859 -742.94 -742.775 -743.007 -743.087 -743.165 -743.244 -743.146 -743.3 -743.36 -743.42 -743.48 -743.443 -743.535 -743.585 -743.636 -743.686 -743.701 -743.759 -743.811 -743.864 -743.916 -743.972 -744.017 -744.074 -744.131 -744.188 -744.269 -744.313 -744.375 -744.436 -744.498 -744.591 -744.647 -744.715 -744.783 -744.851 -744.946 -745.024 -745.101 -745.179 -745.256 -745.349 -745.454 -745.544 -745.635 -745.725 -745.816 -745.949 -746.054 -746.16 -746.265 -746.354 -746.513 -746.632 -746.751 -746.871 -746.962 -747.14 -747.272 -747.404 -747.536 -747.632 -747.825 -747.969 -748.114 -748.258 -748.365 -748.568 -748.725 -748.883 -749.04 -749.162 -749.37 -749.54 -749.71 -749.88 -750.021 -750.234 -750.418 -750.603 -750.787 -750.952 -751.171 -751.371 -751.572 -751.773 -751.965 -752.146 -752.319 -752.492 -752.665 -752.833 -752.875 -752.918 -752.961 -753.003 -753.053 -753.273 -753.5 -753.726 -753.953 -754.22 -754.423 -754.661 -754.9 -755.139 -755.451 -755.64 -755.891 -756.143 -756.394 -756.743 -756.924 -757.187 -757.45 -757.714 -758.092 -758.272 -758.547 -758.822 -759.097 -759.496 -759.684 -759.97 -760.256 -760.542 -760.954 -761.156 -761.453 -761.75 -762.046 -762.462 -762.686 -762.993 -763.3 -763.607 -764.017 -764.269 -764.586 -764.903 -765.22 -765.616 -765.902 -766.228 -766.554 -766.88 -767.257 -767.579 -767.914 -768.249 -768.583 -768.936 -769.297 -769.64 -769.982 -770.325 -770.65 -771.049 -771.401 -771.752 -772.098 -772.4 -772.827 -773.196 -773.554 -773.897 -774.183 -774.633 -775.02 -775.386 -775.723 -775.997 -776.464 -776.871 -777.243 -777.573 -777.841 -778.321 -778.748 -779.128 -779.45 -779.72 -780.209 -780.658 -781.045 -781.36 -781.632 -782.13 -782.597 -782.991 -783.296 -783.57 -784.071 -784.555 -784.952 -785.245 -785.521 -786.019 -786.512 -786.909 -787.193 -787.476 -787.965 -788.454 -788.847 -789.138 -789.43 -789.907 -790.385 -790.776 -791.079 -791.382 -791.846 -792.309 -792.7 -793.015 -793.33 -793.778 -794.226 -794.614 -794.941 -795.268 -795.7 -796.133 -796.518 -796.855 -797.193 -797.609 -798.025 -798.406 -798.753 -799.099 -799.499 -799.899 -800.276 -800.629 -800.982 -801.367 -801.751 -802.122 -802.48 -802.837 -803.206 -803.575 -803.94 -804.299 -804.658 -805.013 -805.368 -805.725 -806.082 -806.44 -806.78 -807.123 -807.472 -807.822 -808.176 -808.501 -808.834 -809.172 -809.513 -809.859 -810.17 -810.492 -810.818 -811.147 -811.483 -811.78 -812.09 -812.403 -812.716 -813.04 -813.321 -813.618 -813.916 -814.213 -814.52 -814.785 -815.065 -815.344 -815.624 -815.913 -816.16 -816.421 -816.681 -816.942 -817.211 -817.44 -817.681 -817.921 -818.161 -818.408 -818.618 -818.837 -819.055 -819.273 -819.496 -819.686 -819.88 -820.075 -820.27 -820.465 -820.483 -820.501 -820.519 -820.538 -820.556 -820.707 -820.858 -821.009 -821.161 -821.311 -821.453 -821.593 -821.733 -821.873 -822.009 -822.123 -822.231 -822.339 -822.447 -822.549 -822.633 -822.707 -822.782 -822.856 -822.921 -822.974 -823.012 -823.051 -823.089 -823.113 -823.133 -823.132 -823.131 -823.128 -823.111 -823.091 -823.052 -823.01 -822.962 -822.901 -822.838 -822.762 -822.675 -822.578 -822.471 -822.364 -822.247 -822.114 -821.965 -821.81 -821.655 -821.498 -821.316 -821.111 -820.905 -820.701 -820.496 -820.263 -820.004 -819.745 -819.487 -819.23 -818.944 -818.63 -818.315 -818.003 -817.691 -817.35 -816.977 -816.605 -816.235 -815.865 -815.467 -815.034 -814.601 -814.171 -813.739 -813.278 -812.788 -812.293 -811.8 -811.297 -810.772 -810.227 -809.667 -809.11 -808.533 -807.941 -807.339 -806.712 -806.088 -805.433 -804.773 -804.113 -803.417 -802.719 -801.987 -801.256 -800.525 -799.768 -798.988 -798.183 -797.379 -796.575 -795.756 -794.89 -794.01 -793.13 -792.251 -791.368 -791.083 -790.795 -790.507 -790.219 -789.936 -789.27 -788.604 -787.938 -787.272 -786.596 -785.576 -784.545 -783.514 -782.484 -781.427 -780.343 -779.231 -778.12 -777.009 -775.853 -774.704 -773.51 -772.316 -771.115 -769.865 -768.636 -767.372 -766.094 -764.791 -763.455 -762.14 -760.81 -759.446 -758.036 -756.613 -755.211 -753.81 -752.356 -750.844 -749.333 -747.843 -746.354 -744.809 -743.208 -741.607 -740.028 -738.449 -736.812 -735.121 -733.429 -731.759 -730.078 -728.345 -726.576 -724.793 -723.031 -721.234 -719.408 -717.569 -715.693 -713.838 -711.924 -710.005 -708.085 -706.124 -704.157 -702.143 -700.129 -698.115 -696.083 -694.414 -692.723 -691.033 -689.343 -687.74 -687.307 -686.874 -686.441 -686.008 -685.57 -683.384 -681.193 -679.003 -676.814 -674.591 -672.334 -670.049 -667.764 -665.48 -663.133 -660.796 -658.425 -656.046 -653.638 -651.194 -648.763 -646.322 -643.848 -641.315 -638.776 -636.249 -633.724 -631.145 -628.512 -625.878 -623.257 -620.637 -617.958 -615.23 -612.502 -609.788 -607.047 -604.268 -601.473 -598.652 -595.844 -592.977 -590.104 -587.232 -584.33 -581.401 -578.436 -575.471 -572.507 -569.541 -569.408 -569.273 -569.138 -569.003 -568.868 -565.953 -563.039 -560.125 -557.212 -554.274 -551.151 -548.012 -544.875 -541.735 -538.552 -535.348 -532.13 -528.905 -525.653 -522.383 -519.092 -515.801 -512.484 -509.129 -505.774 -502.397 -499.021 -495.61 -492.172 -488.733 -485.273 -481.8 -478.299 -474.791 -471.272 -467.731 -464.153 -460.572 -456.992 -453.401 -450.693 -447.967 -445.241 -442.516 -439.901 -438.948 -437.995 -437.042 -436.088 -435.128 -431.404 -427.676 -423.949 -420.222 -416.462 -412.677 -408.878 -405.078 -401.262 -397.421 -393.565 -389.708 -385.837 -381.929 -378.019 -374.095 -370.172 -366.22 -362.246 -358.272 -354.282 -350.28 -346.256 -342.228 -338.192 -334.139 -330.054 -325.969 -321.885 -317.796 -316.106 -314.408 -312.71 -311.012 -309.349 -306.9 -304.451 -302.002 -299.554 -297.091 -292.902 -288.709 -284.517 -280.322 -276.096 -271.859 -267.619 -263.375 -259.108 -254.833 -250.546 -246.261 -241.958 -237.639 -233.319 -228.987 -224.649 -220.292 -215.934 -211.572 -207.198 -202.801 -198.404 -194.008 -189.609 -188.081 -186.547 -185.013 -183.48 -181.971 -179.066 -176.162 -173.257 -170.353 -167.437 -162.971 -158.504 -154.038 -149.567 -145.078 -140.581 -136.084 -131.588 -127.073 -122.556 -118.03 -113.506 -108.967 -104.426 -99.8826 -95.3305 -90.7708 -86.2061 -81.6419 -77.0785 -73.7333 -70.3831 -67.0332 -63.6836 -60.4403 -59.187 -57.9336 -56.6804 -55.4271 -54.171 -49.5711 -44.9726 -40.3746 -35.7768 -31.1649 -26.5481 -21.9339 -17.3228 -12.7034 -8.08058 -3.4522 1.17561 5.80639 10.4337 15.0631 19.6986 24.3359 28.9746 33.6128 38.246 41.3677 44.4903 47.6126 50.7347 53.7721 55.3093 56.8464 58.3835 59.9205 61.459 66.1088 70.7546 75.3998 80.0449 84.6934 89.3452 93.9943 98.6354 103.275 107.917 112.563 117.208 121.85 126.483 131.115 135.752 140.384 145.014 149.644 154.272 155.44 156.606 157.772 158.938 160.093 163.554 167.014 170.475 173.935 177.392 182.015 186.627 191.237 195.842 200.447 205.052 209.657 214.251 218.832 223.416 228.001 232.579 237.151 241.723 246.286 248.716 251.139 253.562 255.984 258.363 260.502 262.642 264.782 266.921 269.056 273.6 278.134 282.667 287.194 291.716 296.235 300.754 305.257 309.746 314.237 318.725 323.206 327.677 332.148 336.607 339.05 341.483 343.915 346.348 348.739 350.758 352.778 354.798 356.817 358.83 363.258 367.674 372.09 376.497 380.897 385.291 389.684 394.06 398.419 402.78 407.134 411.476 415.808 420.14 424.466 425.883 427.294 428.704 430.114 431.51 434.406 437.301 440.196 443.09 445.972 450.251 454.52 458.784 463.031 467.276 471.509 475.742 479.955 484.153 488.351 492.124 495.878 499.629 503.379 507.048 507.478 507.907 508.336 508.766 509.193 513.328 517.46 521.592 525.719 529.829 533.924 538.018 542.093 546.149 550.206 554.247 558.274 562.289 566.303 570.311 571.391 572.465 573.537 574.609 575.676 578.58 581.484 584.388 587.288 590.172 594.11 598.043 601.964 605.856 609.751 613.628 617.496 621.342 625.188 629.017 630.61 632.191 633.769 635.348 636.92 639.138 641.356 643.575 645.788 647.988 651.746 655.491 659.228 662.933 666.636 670.32 673.997 677.641 681.282 684.9 686.485 688.06 689.63 691.201 692.779 694.792 696.804 698.817 700.826 702.821 706.37 709.886 713.38 716.787 720.189 723.569 726.98 730.502 734.03 737.611 739.175 740.45 741.63 742.811 744.016 745.77 747.523 749.275 750.919 752.201 754.46 757.278 760.404 765.069 769.872 774.558 778.561 781.031 783.505 785.722 785.842 785.988 786.174 786.361 786.549 788.447 790.346 792.246 794.653 797.384 800.36 803.32 806.148 808.975 811.747 812.206 812.655 813.087 813.519 813.957 816.266 818.574 820.881 823.111 825.294 827.921 830.545 833.066 835.584 838.039 838.573 839.095 839.593 840.091 840.604 842.525 844.443 846.358 848.199 849.991 852.269 854.544 856.643 858.684 860.659 861.265 861.843 862.375 862.906 863.468 864.782 866.093 867.4 868.619 869.771 871.396 873.015 874.435 875.638 876.832 877.444 877.972 878.403 878.832 879.314 879.77 880.224 880.676 881.065 881.38 881.99 882.507 882.871 882.9 882.92 882.803 882.462 881.905 881.341 880.704 880.606 880.475 880.327 880.178 880.026 879.01 877.981 876.939 875.757 874.278 872.41 870.529 868.208 865.468 862.716 859.703 856.274 852.61 848.939 845.112 844.292 843.366 842.422 841.478 840.476 836.685 832.882 829.068 825.202 820.878 815.131 809.108 802.788 795.702 788.532 780.89 773.235 764.989 756.294 747.521 738.223 727.726 716.962 706.197 694.953 690.411 685.86 681.309 676.755 671.611 663.879 656.141 648.4 640.653 632.865 618.977 603.173 587.337 570.517 551.096 530.7 510.873 493.228 479.186 465.19 450.443 435.698 408.165 368.311 328.423 286.74 253.77 237.271 228.583 231.416 234.055 177.679 120.326 62.6783 0