# vtk DataFile Version 2.0
track0
ASCII
DATASET POLYDATA
POINTS 12075 float
-0.0205 0.001 1e-005
-0.020385 0.00100536 1.50246e-005
-0.0202701 0.00101048 1.96645e-005
-0.0201551 0.00101536 2.39725e-005
-0.02004 0.00102001 2.79441e-005
-0.0198626 0.00102682 3.3544e-005
-0.0196935 0.00103277 3.80929e-005
-0.0195244 0.00103811 4.16096e-005
-0.0193552 0.00104284 4.4103e-005
-0.019186 0.00104697 4.55823e-005
-0.0190172 0.00105048 4.60561e-005
-0.0187132 0.00105601 4.60561e-005
-0.0184093 0.00106092 4.60561e-005
-0.0181054 0.00106531 4.60561e-005
-0.0178014 0.00106919 4.60561e-005
-0.0174976 0.00107256 4.60561e-005
-0.0172058 0.0010755 4.60561e-005
-0.016914 0.00107836 4.60561e-005
-0.0166222 0.00108116 4.60561e-005
-0.0163305 0.00108389 4.60561e-005
-0.0160387 0.00108656 4.60561e-005
-0.0157586 0.00108903 4.60561e-005
-0.0154784 0.0010914 4.60561e-005
-0.0151983 0.00109368 4.60561e-005
-0.0149182 0.00109586 4.60561e-005
-0.0146381 0.00109795 4.60561e-005
-0.0143692 0.00109984 4.60561e-005
-0.0141002 0.00110163 4.60561e-005
-0.0138313 0.00110333 4.60561e-005
-0.0135624 0.00110496 4.60561e-005
-0.0132934 0.0011065 4.60561e-005
-0.0130353 0.00110793 4.60561e-005
-0.0127771 0.00110935 4.60561e-005
-0.0125189 0.00111075 4.60561e-005
-0.0122607 0.00111214 4.60561e-005
-0.0120025 0.00111352 4.60561e-005
-0.0117547 0.00111479 4.60561e-005
-0.0115068 0.0011161 4.60561e-005
-0.0112589 0.00111742 4.60561e-005
-0.0110111 0.00111875 4.60561e-005
-0.0107632 0.00112009 4.60561e-005
-0.0105252 0.00112132 4.60561e-005
-0.0102873 0.00112254 4.60561e-005
-0.0100493 0.00112376 4.60561e-005
-0.00981133 0.00112496 4.60561e-005
-0.00957337 0.00112614 4.60561e-005
-0.00934491 0.00112724 4.60561e-005
-0.00911645 0.00112828 4.60561e-005
-0.00888799 0.00112929 4.60561e-005
-0.00865954 0.00113026 4.60561e-005
-0.00843108 0.00113121 4.60561e-005
-0.00821175 0.00113213 4.60561e-005
-0.00799242 0.00113299 4.60561e-005
-0.00777309 0.00113382 4.60561e-005
-0.00755376 0.00113463 4.60561e-005
-0.00733443 0.00113544 4.60561e-005
-0.00712387 0.00113626 4.60561e-005
-0.0069133 0.00113705 4.60561e-005
-0.00670273 0.00113784 4.60561e-005
-0.00649216 0.00113865 4.60561e-005
-0.0062816 0.00113947 4.60561e-005
-0.00607944 0.00114032 4.60561e-005
-0.00587729 0.00114118 4.60561e-005
-0.00567514 0.00114207 4.60561e-005
-0.00547298 0.00114298 4.60561e-005
-0.00527083 0.00114392 4.60561e-005
-0.00507675 0.00114487 4.60561e-005
-0.00488267 0.00114585 4.60561e-005
-0.0046886 0.00114687 4.60561e-005
-0.00449452 0.00114792 4.60561e-005
-0.00430044 0.00114899 4.60561e-005
-0.00411412 0.00115005 4.60561e-005
-0.0039278 0.00115115 4.60561e-005
-0.00374147 0.00115228 4.60561e-005
-0.00355515 0.00115345 4.60561e-005
-0.00336883 0.00115462 4.60561e-005
-0.00318995 0.00115575 4.60561e-005
-0.00301107 0.00115691 4.60561e-005
-0.00283219 0.00115809 4.60561e-005
-0.00265331 0.00115929 4.60561e-005
-0.00247443 0.00116049 4.60561e-005
-0.0023027 0.00116164 4.60561e-005
-0.00213097 0.0011628 4.60561e-005
-0.00195924 0.00116397 4.60561e-005
-0.00178751 0.00116516 4.60561e-005
-0.00161577 0.00116634 4.60561e-005
-0.0014509 0.00116748 4.60561e-005
-0.00128603 0.00116861 4.60561e-005
-0.00112116 0.00116972 4.60561e-005
-0.000956289 0.00117081 4.60561e-005
-0.000791418 0.00117187 4.60561e-005
-0.000633135 0.00117287 4.60561e-005
-0.000474851 0.0011738 4.60561e-005
-0.000316566 0.00117467 4.60561e-005
-0.000158281 0.00117543 4.60561e-005
0 0.00117608 4.60561e-005
0.000105677 0.00117643 4.60561e-005
0.000211355 0.00117669 4.60561e-005
0.000317033 0.00117685 4.60561e-005
0.000422711 0.00117684 4.60561e-005
0.000528387 0.00117672 4.60561e-005
0.000634886 0.00117646 4.60561e-005
0.000741385 0.00117608 4.60561e-005
0.000847883 0.00117556 4.60561e-005
0.00095438 0.00117489 4.60561e-005
0.00106088 0.00117415 4.60561e-005
0.00116821 0.00117333 4.60561e-005
0.00127554 0.0011725 4.60561e-005
0.00138286 0.00117171 4.60561e-005
0.00149019 0.00117102 4.60561e-005
0.00159752 0.00117051 4.60561e-005
0.00170568 0.00117023 4.60561e-005
0.00181384 0.00117026 4.60561e-005
0.001922 0.00117067 4.60561e-005
0.00203016 0.00117152 4.60561e-005
0.00213833 0.00117284 4.60561e-005
0.00224733 0.00117464 4.60561e-005
0.00235632 0.00117699 4.60561e-005
0.0024653 0.0011799 4.60561e-005
0.00257426 0.00118343 4.60561e-005
0.00268334 0.00118751 4.60561e-005
0.00279319 0.00119214 4.60561e-005
0.00290301 0.00119732 4.60561e-005
0.00301281 0.00120303 4.60561e-005
0.00312258 0.0012093 4.60561e-005
0.00323259 0.00121606 4.60561e-005
0.00334329 0.00122333 4.60561e-005
0.00345396 0.00123105 4.60561e-005
0.00356461 0.00123921 4.60561e-005
0.00367521 0.00124781 4.60561e-005
0.00378611 0.00125679 4.60561e-005
0.00389767 0.00126619 4.60561e-005
0.0040092 0.00127599 4.60561e-005
0.00412069 0.0012862 4.60561e-005
0.00423216 0.00129671 4.60561e-005
0.00434393 0.00130745 4.60561e-005
0.00445636 0.00131847 4.60561e-005
0.00456876 0.00132984 4.60561e-005
0.00468112 0.00134155 4.60561e-005
0.00479347 0.00135343 4.60561e-005
0.00490609 0.00136541 4.60561e-005
0.0050194 0.00137752 4.60561e-005
0.00513268 0.00138988 4.60561e-005
0.00524594 0.00140238 4.60561e-005
0.00535919 0.00141495 4.60561e-005
0.00547262 0.00142761 4.60561e-005
0.00558681 0.00144028 4.60561e-005
0.00570098 0.00145306 4.60561e-005
0.00581516 0.00146582 4.60561e-005
0.00592934 0.00147856 4.60561e-005
0.00604356 0.00149129 4.60561e-005
0.00608292 0.00149566 4.60561e-005
0.00612228 0.00150003 4.60561e-005
0.00616165 0.00150439 4.60561e-005
0.00620101 0.00150874 4.60561e-005
0.00624115 0.00151316 4.60561e-005
0.00631671 0.00152147 4.60561e-005
0.00639227 0.00152974 4.60561e-005
0.00646783 0.00153798 4.60561e-005
0.0065434 0.00154619 4.60561e-005
0.00661893 0.00155436 4.60561e-005
0.0067349 0.00156684 4.60561e-005
0.00685088 0.0015792 4.60561e-005
0.00696688 0.00159143 4.60561e-005
0.00708289 0.00160353 4.60561e-005
0.00719878 0.00161547 4.60561e-005
0.00731565 0.00162731 4.60561e-005
0.00743253 0.00163902 4.60561e-005
0.00754944 0.00165055 4.60561e-005
0.00766636 0.00166188 4.60561e-005
0.00778313 0.00167297 4.60561e-005
0.00790091 0.0016839 4.60561e-005
0.00801871 0.00169463 4.60561e-005
0.00813653 0.00170515 4.60561e-005
0.00825437 0.00171543 4.60561e-005
0.00837203 0.00172541 4.60561e-005
0.00849073 0.00173516 4.60561e-005
0.00860944 0.00174465 4.60561e-005
0.00872818 0.0017539 4.60561e-005
0.00884694 0.00176286 4.60561e-005
0.00896551 0.00177147 4.60561e-005
0.00908513 0.0017798 4.60561e-005
0.00920477 0.00178783 4.60561e-005
0.00932443 0.00179556 4.60561e-005
0.00944411 0.00180295 4.60561e-005
0.0095636 0.00180996 4.60561e-005
0.00968415 0.00181666 4.60561e-005
0.00980472 0.001823 4.60561e-005
0.0099253 0.001829 4.60561e-005
0.0100459 0.00183462 4.60561e-005
0.0101663 0.00183983 4.60561e-005
0.0102878 0.00184468 4.60561e-005
0.0104093 0.00184913 4.60561e-005
0.0105308 0.00185318 4.60561e-005
0.0106524 0.00185682 4.60561e-005
0.0107738 0.00186002 4.60561e-005
0.0108962 0.00186279 4.60561e-005
0.0110186 0.00186512 4.60561e-005
0.0111411 0.00186699 4.60561e-005
0.0112635 0.00186842 4.60561e-005
0.0113859 0.00186937 4.60561e-005
0.0115093 0.00186985 4.60561e-005
0.0116327 0.00186983 4.60561e-005
0.0117561 0.00186932 4.60561e-005
0.0118794 0.00186833 4.60561e-005
0.0120028 0.00186684 4.60561e-005
0.0121272 0.00186482 4.60561e-005
0.0122515 0.00186227 4.60561e-005
0.0123758 0.00185918 4.60561e-005
0.0125001 0.00185558 4.60561e-005
0.0126245 0.00185144 4.60561e-005
0.0127498 0.00184674 4.60561e-005
0.0128751 0.00184147 4.60561e-005
0.0130004 0.00183563 4.60561e-005
0.0131256 0.00182922 4.60561e-005
0.0132511 0.00182226 4.60561e-005
0.0133774 0.00181468 4.60561e-005
0.0135036 0.00180651 4.60561e-005
0.0136298 0.00179774 4.60561e-005
0.013756 0.00178836 4.60561e-005
0.0138825 0.00177838 4.60561e-005
0.0140098 0.00176774 4.60561e-005
0.014137 0.00175648 4.60561e-005
0.0142641 0.0017446 4.60561e-005
0.0143912 0.00173209 4.60561e-005
0.0145188 0.0017189 4.60561e-005
0.0146471 0.00170502 4.60561e-005
0.0147752 0.0016905 4.60561e-005
0.0149034 0.00167534 4.60561e-005
0.0150314 0.00165953 4.60561e-005
0.0151306 0.00164677 4.60561e-005
0.0151365 0.00164599 4.60561e-005
0.0151424 0.00164521 4.60561e-005
0.0151483 0.00164442 4.60561e-005
0.0151542 0.00164364 4.60561e-005
0.0151601 0.00164285 4.60561e-005
0.0152893 0.00162555 4.60561e-005
0.0154185 0.00160759 4.60561e-005
0.0155476 0.00158897 4.60561e-005
0.0156765 0.00156968 4.60561e-005
0.0158063 0.00154957 4.60561e-005
0.0159366 0.00152871 4.60561e-005
0.0160667 0.00150713 4.60561e-005
0.0161967 0.00148484 4.60561e-005
0.0163266 0.00146187 4.60561e-005
0.0164576 0.00143801 4.60561e-005
0.0165889 0.00141338 4.60561e-005
0.01672 0.00138803 4.60561e-005
0.016851 0.00136195 4.60561e-005
0.0169818 0.00133514 4.60561e-005
0.0171139 0.00130732 4.60561e-005
0.0171881 0.00129128 4.60561e-005
0.0172623 0.00127501 4.60561e-005
0.0173363 0.00125851 4.60561e-005
0.0174104 0.00124178 4.60561e-005
0.0174748 0.001227 4.60561e-005
0.0175349 0.00121305 4.60561e-005
0.017595 0.00119893 4.60561e-005
0.017655 0.00118466 4.60561e-005
0.0177151 0.00117023 4.60561e-005
0.0177754 0.00115554 4.60561e-005
0.0179087 0.00112273 4.60561e-005
0.0180418 0.00108911 4.60561e-005
0.0181747 0.00105471 4.60561e-005
0.0183075 0.00101953 4.60561e-005
0.018442 0.000983028 4.60561e-005
0.0185677 0.000948108 4.60561e-005
0.0186932 0.00091247 4.60561e-005
0.0188185 0.000876115 4.60561e-005
0.0189436 0.000839044 4.60561e-005
0.0190454 0.000808234 4.60561e-005
0.0190591 0.000804029 4.60561e-005
0.0190728 0.000799815 4.60561e-005
0.0190864 0.000795592 4.60561e-005
0.0191001 0.000791359 4.60561e-005
0.0191137 0.000787109 4.60561e-005
0.0192491 0.000744932 4.60561e-005
0.0193843 0.000701865 4.60561e-005
0.0195191 0.000657912 4.60561e-005
0.0196536 0.000613062 4.60561e-005
0.0197907 0.000566348 4.60561e-005
0.0198871 0.00053279 4.60561e-005
0.0199832 0.000498758 4.60561e-005
0.0200792 0.00046425 4.60561e-005
0.0201751 0.000429273 4.60561e-005
0.0202581 0.000398501 4.60561e-005
[...]
POINT_DATA 12075
 FIELD attributes 1
U 3 12075 float
99.9354 	4.66282 	4.36822 99.8182 	4.43762 	4.02811 99.6957 	4.23203 	3.73469 99.5735 	4.02507 	3.43806 99.4517 	3.81674 	3.13819 99.2643 	3.49322 	2.67057 99.1045 	3.12985 	2.06067 98.9438 	2.76821 	1.45837 98.7822 	2.40833 	0.863719 98.6196 	2.05022 	0.276718 98.4354 	1.79377 	0 98.0539 	1.58157 	0 97.6929 	1.41209 	0 97.3319 	1.24292 	0 96.9711 	1.07406 	0 96.6651 	0.976028 	0 96.3644 	0.944673 	0 96.1519 	0.921507 	0 95.9394 	0.898293 	0 95.727 	0.87503 	0 95.6142 	0.84302 	0 95.4208 	0.808669 	0 95.3184 	0.77509 	0 95.2161 	0.741453 	0 95.114 	0.707759 	0 95.0974 	0.668875 	0 94.9387 	0.631113 	0 94.8581 	0.602115 	0 94.7776 	0.573085 	0 94.6972 	0.544023 	0 94.6952 	0.522574 	0 94.5429 	0.519257 	0 94.4583 	0.514137 	0 94.3762 	0.508947 	0 94.3003 	0.502574 	0 94.2922 	0.483586 	0 94.1562 	0.495685 	0 94.0707 	0.501185 	0 93.9922 	0.505768 	0 93.9249 	0.506058 	0 93.9122 	0.48508 	0 93.7961 	0.482942 	0 93.7157 	0.478323 	0 93.6447 	0.473055 	0 93.5877 	0.465176 	0 93.5738 	0.449312 	0 93.4788 	0.427678 	0 93.407 	0.411579 	0 93.3444 	0.397666 	0 93.2969 	0.388255 	0 93.2826 	0.388682 	0 93.2086 	0.366002 	0 93.1472 	0.352508 	0 93.0926 	0.343861 	0 93.0513 	0.344432 	0 93.033 	0.360732 	0 92.9767 	0.351352 	0 92.926 	0.349709 	0 92.8791 	0.353184 	0 92.8421 	0.365041 	0 92.8188 	0.388474 	0 92.7771 	0.39548 	0 92.7372 	0.405551 	0 92.6988 	0.418137 	0 92.6664 	0.433709 	0 92.6405 	0.452599 	0 92.6115 	0.468184 	0 92.581 	0.483942 	0 92.549 	0.499879 	0 92.518 	0.513748 	0 92.4879 	0.525823 	0 92.4643 	0.5454 	0 92.4386 	0.562373 	0 92.4101 	0.575781 	0 92.3793 	0.58206 	0 92.3471 	0.583662 	0 92.3262 	0.597696 	0 92.3029 	0.609818 	0 92.2754 	0.618356 	0 92.2439 	0.619597 	0 92.2106 	0.617356 	0 92.1887 	0.623545 	0 92.1683 	0.629365 	0 92.152 	0.634193 	0 92.1371 	0.635593 	0 92.1227 	0.635854 	0 92.1113 	0.629872 	0 92.1 	0.622172 	0 92.0888 	0.60746 	0 92.0744 	0.593397 	0 92.0593 	0.579469 	0 92.0426 	0.54361 	0 92.0265 	0.504221 	8.78682e-021 92.0145 	0.441121 	7.67927e-020 91.9892 	0.376691 	3.89007e-020 91.962 	0.312034 	-1.25811e-020 91.9155 	0.225086 	1.10356e-018 91.8667 	0.132446 	2.07377e-018 91.8019 	-0.000381053 	2.00336e-018 91.7081 	-0.11198 	9.45678e-019 91.6093 	-0.220182 	-2.76671e-019 91.4573 	-0.329437 	-5.69235e-019 91.2857 	-0.442424 	-8.11322e-019 91.0428 	-0.568647 	-8.68511e-019 90.7805 	-0.638584 	-5.4147e-019 90.5119 	-0.689983 	-8.72623e-020 90.2099 	-0.69375 	-9.01436e-020 89.876 	-0.665415 	-7.39228e-020 89.4804 	-0.574761 	-2.06278e-020 89.1129 	-0.422674 	6.72819e-020 88.7635 	-0.231484 	1.77208e-019 88.4485 	0.0259666 	6.23113e-020 88.1314 	0.331693 	-7.41203e-020 87.8118 	0.694624 	-2.36062e-019 87.5468 	1.06608 	-4.59265e-019 87.3323 	1.44553 	-7.39097e-019 87.1917 	1.87578 	-1.35032e-018 87.0803 	2.33064 	-1.62535e-018 87.0012 	2.81285 	-1.5263e-018 86.9736 	3.25595 	-1.00692e-018 86.9864 	3.66928 	-1.60827e-019 87.0774 	4.10006 	8.05567e-019 87.1736 	4.53683 	1.51949e-018 87.2782 	4.98665 	1.6807e-018 87.3989 	5.3737 	1.10267e-018 87.5262 	5.74233 	2.99653e-019 87.8094 	6.12288 	-1.14222e-018 88.0948 	6.50286 	-2.58377e-018 88.2444 	6.8611 	-2.65124e-018 88.3263 	7.15354 	-1.33396e-018 88.4106 	7.44615 	-1.33621e-020 88.9035 	7.81484 	1.14606e-018 89.3987 	8.18275 	2.30503e-018 89.6216 	8.44797 	2.38672e-018 89.5506 	8.6099 	1.36111e-018 89.4812 	8.77192 	3.33145e-019 90.2022 	9.12512 	-4.74355e-019 90.9014 	9.46759 	-1.22453e-018 91.2038 	9.64528 	-1.05351e-018 91.083 	9.69417 	-4.33786e-019 90.8438 	9.70709 	3.13178e-019 91.7356 	10.0089 	-3.21115e-019 92.266 	10.182 	-4.63411e-019 92.5753 	10.2766 	-3.04974e-019 92.8611 	10.364 	-1.21214e-019 92.5132 	10.2665 	7.13438e-019 93.3126 	10.4402 	6.73356e-019 93.6149 	10.4608 	6.19995e-019 93.917 	10.4815 	5.66574e-019 94.219 	10.5022 	5.13093e-019 94.3516 	10.4789 	5.05386e-019 94.5647 	10.4954 	4.74055e-019 94.6669 	10.4817 	4.4264e-019 94.7691 	10.4681 	4.11212e-019 94.8711 	10.4544 	3.79769e-019 94.975 	10.4405 	3.47694e-019 95.169 	10.4204 	2.69581e-019 95.3627 	10.4003 	1.91503e-019 95.556 	10.3803 	1.1346e-019 95.749 	10.3603 	3.54529e-020 95.8084 	10.3059 	-4.99238e-020 96.3297 	10.2719 	-7.13338e-020 96.6287 	10.1878 	-2.02387e-019 96.9259 	10.1038 	-3.33691e-019 97.2214 	10.0199 	-4.65242e-019 97.098 	9.83738 	-3.09167e-019 97.9267 	9.81058 	-4.71466e-019 98.2935 	9.68893 	-4.7628e-019 98.6002 	9.55556 	-4.61918e-019 98.701 	9.37922 	-5.06366e-019 98.4741 	9.13449 	-6.44396e-019 99.2986 	9.04583 	-1.7902e-018 99.9677 	8.92949 	-2.58162e-018 100.282 	8.74909 	-2.55759e-018 100.141 	8.48595 	-2.26672e-018 99.9095 	8.20761 	-1.92222e-018 100.699 	8.05653 	-2.58669e-018 101.485 	7.90583 	-3.24871e-018 101.767 	7.67591 	-3.11846e-018 101.56 	7.36984 	-1.75838e-018 101.35 	7.06479 	-3.99861e-019 102.082 	6.85016 	-2.4493e-019 102.812 	6.63598 	-8.94598e-020 103.089 	6.36558 	2.5808e-019 102.91 	6.03799 	7.10087e-019 102.728 	5.71147 	1.15966e-018 103.391 	5.44107 	7.55821e-019 104.05 	5.17117 	3.50235e-019 104.299 	4.86075 	2.37142e-019 104.15 	4.50587 	5.34051e-019 103.997 	4.15206 	8.29401e-019 104.599 	3.83039 	2.72177e-018 105.197 	3.50927 	4.61323e-018 105.401 	3.15793 	4.06651e-018 105.269 	2.77039 	1.9687e-018 105.127 	2.3833 	-1.48913e-019 105.675 	2.005 	-2.14874e-019 106.199 	1.62669 	-2.9067e-019 106.366 	1.23815 	-5.83488e-019 106.234 	0.826546 	-1.11463e-018 106.082 	0.414479 	-1.65595e-018 106.579 	-0.0146136 	-3.48869e-018 107.072 	-0.443088 	-5.31853e-018 107.19 	-0.863439 	-4.81099e-018 107.013 	-1.2967 	-2.7419e-018 106.833 	-1.72948 	-6.7427e-019 107.275 	-2.20226 	-3.73034e-019 107.712 	-2.67446 	-7.34804e-020 107.795 	-3.12699 	0 107.578 	-3.57659 	0 107.358 	-4.02622 	0 107.733 	-4.53437 	0 108.104 	-5.04204 	0 108.168 	-5.5305 	-2.41873e-019 107.904 	-5.99279 	-6.64388e-019 107.636 	-6.45578 	-1.08995e-018 107.922 	-6.98711 	-7.43316e-019 108.198 	-7.51796 	-4.0991e-019 108.21 	-8.04095 	-4.97287e-019 107.953 	-8.52216 	-1.29092e-018 107.64 	-8.99666 	-2.22566e-018 107.812 	-9.53956 	-1.24551e-018 107.841 	-10.0758 	-1.34432e-018 107.769 	-10.6072 	-2.20638e-018 107.684 	-11.137 	-3.10152e-018 107.336 	-11.6174 	-4.83945e-018 107.332 	-12.1544 	-7.24349e-018 107.175 	-12.6836 	-6.25453e-018 107.015 	-13.2129 	-5.24193e-018 106.851 	-13.7425 	-4.20565e-018 106.721 	-14.1533 	-3.38362e-018 106.714 	-14.1779 	-3.38031e-018 106.707 	-14.2026 	-3.37702e-018 106.7 	-14.2272 	-3.37376e-018 106.693 	-14.2519 	-3.37052e-018 106.681 	-14.2752 	-3.26447e-018 106.468 	-14.805 	-1.10232e-018 106.243 	-15.3312 	9.67931e-019 106.017 	-15.8583 	3.05913e-018 105.788 	-16.3861 	5.17131e-018 105.436 	-16.887 	2.54415e-018 105.27 	-17.4581 	4.73216e-018 105.051 	-18.0067 	6.08739e-018 104.754 	-18.521 	6.19143e-018 104.338 	-19.0074 	3.29862e-018 103.914 	-19.4985 	3.09138e-019 103.652 	-20.0421 	1.31505e-021 103.379 	-20.5842 	-2.65941e-019 103.004 	-21.1021 	-1.02467e-019 102.593 	-21.6037 	-1.38544e-019 102.115 	-22.082 	-5.17322e-019 101.924 	-22.3718 	-1.01631e-019 101.689 	-22.6501 	0 101.439 	-22.9249 	0 101.189 	-23.2001 	0 100.97 	-23.4402 	0 100.775 	-23.6751 	0 100.579 	-23.9104 	0 100.383 	-24.146 	0 100.173 	-24.3764 	2.16537e-020 99.9374 	-24.599 	8.03391e-020 99.5012 	-25.126 	2.4314e-020 99.0332 	-25.6325 	0 98.5363 	-26.1217 	6.87044e-021 97.9612 	-26.5798 	1.38194e-019 97.3756 	-27.0468 	2.72203e-019 96.8991 	-27.5123 	2.24053e-019 96.3849 	-27.9626 	3.50628e-019 95.8288 	-28.3957 	6.73179e-019 95.2706 	-28.8305 	9.98434e-019 94.8139 	-29.1862 	1.26582e-018 94.7549 	-29.2381 	1.26499e-018 94.696 	-29.29 	1.26411e-018 94.637 	-29.342 	1.26319e-018 94.5732 	-29.3911 	1.25666e-018 94.5071 	-29.4391 	1.24763e-018 93.8869 	-29.925 	1.8257e-020 93.2484 	-30.3972 	-8.90931e-019 92.6084 	-30.8727 	-1.81839e-018 91.9023 	-31.3123 	-9.58829e-019 91.1716 	-31.7599 	1.2106e-019 90.6876 	-32.0929 	-1.40437e-019 90.1937 	-32.4216 	-3.49492e-019 89.658 	-32.7245 	-3.07962e-019 89.1211 	-33.0288 	-2.67436e-019 88.654 	-33.2941 	-2.33141e-019 88.421 	-33.45 	-1.56929e-019 88.1878 	-33.6062 	-8.05673e-020 87.9544 	-33.7629 	-4.05607e-021 87.6991 	-33.907 	-3.49314e-020 87.4405 	-34.0524 	-6.89069e-020 86.6524 	-34.5247 	-5.60697e-019 85.8616 	-35.001 	-1.05196e-018 85.0291 	-35.4525 	-1.12267e-018 84.1637 	-35.8813 	-8.92969e-019 83.2634 	-36.3223 	-6.19878e-019 83.1598 	-36.3758 	-5.93349e-019 83.0562 	-36.4295 	-5.66836e-019 82.9461 	-36.4799 	-5.70895e-019 82.8349 	-36.5299 	-5.80056e-019 82.7262 	-36.5787 	-5.89051e-019 81.9493 	-36.98 	-7.26582e-019 81.1712 	-37.3856 	-8.67627e-019 80.3833 	-37.7953 	-9.22098e-019 79.5319 	-38.2067 	-3.16448e-019 78.6484 	-38.6377 	3.11152e-019 78.255 	-38.8316 	3.47123e-019 77.8612 	-39.0266 	3.83646e-019 77.434 	-39.2233 	3.85236e-019 76.9964 	-39.4215 	3.76695e-019 76.5936 	-39.6048 	3.69276e-019 76.0062 	-39.9115 	2.37795e-019 75.4184 	-40.2209 	1.05849e-019 74.8193 	-40.5322 	0 74.1761 	-40.8434 	0 73.5103 	-41.1682 	0 72.8484 	-41.4898 	0 72.1859 	-41.8147 	0 71.5111 	-42.0793 	-1.73063e-020 70.8309 	-42.3214 	-4.16003e-020 70.2331 	-42.5362 	-6.30068e-020 69.7957 	-42.7614 	-6.43814e-020 69.3582 	-42.9884 	-6.56676e-020 68.9194 	-43.1941 	-9.03837e-020 68.4773 	-43.3437 	-1.73711e-019 68.0213 	-43.4995 	-2.59724e-019 67.2224 	-43.7775 	-2.21584e-019 66.4232 	-44.0605 	-1.84713e-019 65.6596 	-44.1923 	-2.69129e-019 64.9149 	-44.2449 	-4.18536e-019 64.2578 	-44.2938 	-5.51554e-019 63.9506 	-44.3944 	-7.21599e-019 63.6434 	-44.4961 	-8.9247e-019 63.3419 	-44.5637 	-8.96935e-019 63.0511 	-44.564 	-5.75578e-019 62.7541 	-44.5648 	-2.47401e-019 61.955 	-44.5722 	2.61631e-019 61.1559 	-44.5845 	7.70751e-019 60.3976 	-44.462 	9.27132e-019 59.6638 	-44.2593 	8.71729e-019 58.9876 	-44.075 	8.20132e-019 58.7963 	-44.0632 	8.83054e-019 58.605 	-44.0517 	9.46069e-019 58.4168 	-44.0221 	9.56521e-019 58.235 	-43.9554 	8.60816e-019 58.0513 	-43.8883 	7.64179e-019 57.2602 	-43.5874 	7.94812e-019 56.469 	-43.2899 	8.24696e-019 55.7041 	-42.9172 	6.97959e-019 54.9534 	-42.5047 	4.87023e-019 54.2327 	-42.1105 	2.84036e-019 54.1616 	-42.0773 	2.81817e-019 54.0906 	-42.0441 	2.79598e-019 54.0198 	-42.0079 	2.79648e-019 53.9499 	-41.9635 	2.85779e-019 53.8798 	-41.919 	2.91921e-019 53.1225 	-41.4026 	4.24492e-019 52.3652 	-40.8871 	5.57008e-019 51.6105 	-40.3627 	6.11554e-019 50.862 	-39.8253 	5.97339e-019 50.1087 	-39.2851 	5.8317e-019 50.0373 	-39.2296 	5.81042e-019 49.9659 	-39.1742 	5.78914e-019 49.8955 	-39.1209 	5.79435e-019 49.8254 	-39.0686 	5.81077e-019 49.7553 	-39.0163 	5.82719e-019 49.1353 	-38.4907 	3.83001e-019 48.5153 	-37.9647 	1.83313e-019 47.8941 	-37.441 	2.83293e-020 47.267 	-36.9296 	7.03666e-020 46.6424 	-36.4199 	1.12254e-019 46.3968 	-36.1992 	1.71178e-019 46.1511 	-35.9784 	2.30119e-019 45.9052 	-35.7724 	1.6518e-019 45.6593 	-35.5697 	7.18694e-020 45.4123 	-35.3661 	-2.1834e-020 45.0297 	-35.0001 	-5.51678e-020 44.6472 	-34.6335 	-8.85464e-020 44.264 	-34.2677 	-1.12111e-019 43.8706 	-33.9178 	-5.69677e-021 43.4801 	-33.5701 	9.99148e-020 43.023 	-33.1188 	1.01073e-019 42.5662 	-32.6665 	1.01957e-019 42.1008 	-32.246 	3.12313e-019 41.6349 	-31.8272 	5.37702e-019 41.1611 	-31.4004 	7.66842e-019 41.057 	-31.2914 	8.55524e-019 40.953 	-31.1824 	9.4416e-019 40.8489 	-31.0733 	1.03275e-018 40.7407 	-30.9684 	9.14796e-019 40.6325 	-30.864 	7.84367e-019 40.1313 	-30.3275 	8.86766e-019 39.6237 	-29.7974 	9.58322e-019 39.1013 	-29.2867 	8.9135e-019 38.5672 	-28.7968 	6.02856e-019 38.0424 	-28.3142 	3.18955e-019 37.8601 	-28.1276 	3.87472e-019 37.6775 	-27.9416 	4.42773e-019 37.4904 	-27.7671 	3.25277e-019 37.3033 	-27.5924 	2.07835e-019 37.1143 	-27.4157 	8.91514e-020 36.8414 	-27.1207 	-9.17418e-020 36.5689 	-26.8253 	-2.72406e-019 36.2967 	-26.5292 	-4.52834e-019 36.0147 	-26.2409 	-3.25768e-019 35.7341 	-25.9575 	-1.28884e-019 35.3414 	-25.5163 	2.32791e-019 34.9499 	-25.0737 	5.95124e-019 34.545 	-24.6447 	5.047e-019 34.1346 	-24.2207 	3.13237e-019 33.7185 	-23.8185 	7.35123e-021 33.6491 	-23.7436 	-3.35348e-020 33.5791 	-23.6693 	-6.13632e-020 33.507 	-23.5973 	-4.39301e-020 33.4349 	-23.5253 	-2.65148e-020 33.3624 	-23.4527 	-8.99461e-021 33.077 	-23.1278 	-2.89945e-020 32.7924 	-22.8022 	-4.9088e-020 32.5085 	-22.4759 	-6.92779e-020 32.216 	-22.1514 	-6.31866e-020 31.9248 	-21.8332 	-4.41931e-020 31.6293 	-21.4741 	-9.82309e-021 31.3352 	-21.1139 	2.4409e-020 31.0275 	-20.757 	5.14732e-020 30.7169 	-20.4018 	8.07919e-020 30.3976 	-20.0649 	1.20862e-019 30.3306 	-19.9858 	1.17137e-019 30.2622 	-19.9069 	1.16035e-019 30.1915 	-19.8285 	1.19081e-019 30.121 	-19.75 	1.2212e-019 30.0497 	-19.6706 	1.25188e-019 29.8536 	-19.4254 	1.03538e-019 29.6583 	-19.1798 	8.19374e-020 29.4639 	-18.9338 	6.03879e-020 29.2716 	-18.6858 	5.21157e-020 29.085 	-18.4405 	5.69429e-020 28.8654 	-18.1512 	1.7957e-019 28.6473 	-17.8613 	3.02557e-019 28.428 	-17.571 	2.81844e-019 28.2015 	-17.2836 	1.23043e-019 27.9818 	-17.0025 	-3.22469e-020 27.8526 	-16.8358 	-2.04767e-019 27.7246 	-16.6677 	-2.48136e-019 27.5978 	-16.4985 	-1.89056e-019 27.4716 	-16.3291 	-1.30214e-019 27.341 	-16.1524 	-6.91887e-020 27.2794 	-16.0669 	-4.70342e-020 27.2181 	-15.9813 	-2.49281e-020 27.1569 	-15.8957 	-2.871e-021 27.0979 	-15.8105 	-5.92219e-021 27.042 	-15.7267 	-3.73402e-020 26.8737 	-15.4916 	-3.54811e-020 26.7008 	-15.2603 	-2.31376e-020 26.5285 	-15.0294 	-9.41416e-021 26.3687 	-14.801 	1.41872e-020 26.215 	-14.5775 	3.80231e-020 26.0679 	-14.3764 	1.07486e-019 25.9256 	-14.1759 	1.4636e-019 25.7912 	-13.9765 	1.26445e-019 25.6584 	-13.7769 	1.06621e-019 25.5258 	-13.5833 	6.64421e-020 25.5014 	-13.5506 	7.51922e-020 25.478 	-13.5181 	7.6395e-020 25.4551 	-13.4856 	7.28561e-020 25.4324 	-13.4531 	6.9319e-020 25.4094 	-13.4202 	6.57414e-020 25.3119 	-13.2734 	5.22115e-020 25.2154 	-13.1266 	3.87076e-020 25.12 	-12.9799 	2.52304e-020 25.0266 	-12.8338 	1.82103e-020 24.9376 	-12.6912 	2.18184e-020 24.8387 	-12.5348 	3.66107e-020 24.7413 	-12.3784 	5.14461e-020 24.641 	-12.2224 	4.85842e-020 24.5396 	-12.0668 	2.92246e-020 24.4414 	-11.914 	1.01563e-020 24.3607 	-11.7881 	8.08244e-021 24.2813 	-11.662 	4.65576e-021 24.203 	-11.5358 	6.0033e-022 24.1259 	-11.4097 	-3.46372e-021 24.0451 	-11.2757 	-7.79558e-021 24.0409 	-11.2682 	-8.06941e-021 24.0366 	-11.2608 	-8.34326e-021 24.0324 	-11.2533 	-8.61712e-021 24.0282 	-11.2458 	-8.83269e-021 24.024 	-11.2384 	-8.8965e-021 23.9483 	-11.1148 	-7.47185e-021 23.8727 	-10.991 	-6.22135e-021 23.7983 	-10.8674 	-4.97927e-021 23.7249 	-10.7441 	-4.59342e-021 23.6536 	-10.6228 	-5.78228e-021 23.5931 	-10.5161 	-3.37808e-021 23.5337 	-10.4095 	-9.75504e-022 23.4716 	-10.3015 	2.65067e-021 23.404 	-10.1909 	7.11173e-021 23.3384 	-10.0819 	1.15135e-020 23.2867 	-9.99017 	9.32782e-021 23.2337 	-9.89706 	6.27708e-021 23.1811 	-9.80365 	2.96961e-021 23.1294 	-9.71042 	-3.47164e-022 23.0756 	-9.61155 	-3.88156e-021 23.0745 	-9.60948 	-3.80932e-021 23.0735 	-9.60741 	-3.73711e-021 23.0724 	-9.60534 	-3.66493e-021 23.0713 	-9.60327 	-3.69724e-021 23.0702 	-9.60118 	-4.1744e-021 23.0199 	-9.51093 	-2.06804e-020 22.9702 	-9.42066 	-3.61812e-020 22.9215 	-9.33059 	-5.16405e-020 22.8729 	-9.24036 	-5.75423e-020 22.8227 	-9.15 	-2.96783e-020 22.7856 	-9.07133 	2.25902e-020 22.7494 	-8.99285 	7.48902e-020 22.7056 	-8.91016 	7.28779e-020 22.6571 	-8.82482 	1.20261e-020 22.6101 	-8.7405 	-4.82796e-020 22.5774 	-8.66767 	-1.27893e-019 22.5425 	-8.5934 	-1.62629e-019 22.5058 	-8.51787 	-1.57271e-019 22.47 	-8.44253 	-1.52035e-019 22.4295 	-8.3649 	-1.17142e-019 22.4206 	-8.34392 	-1.71862e-019 22.4101 	-8.32203 	-1.61746e-019 22.3995 	-8.30002 	-1.42704e-019 22.3889 	-8.27804 	-1.23691e-019 22.3782 	-8.25563 	-1.04338e-019 22.3555 	-8.20601 	-6.62162e-020 22.3332 	-8.15647 	-2.82299e-020 22.3113 	-8.10703 	9.62093e-021 22.2893 	-8.05749 	3.34937e-020 22.2639 	-8.00676 	-5.56161e-020 22.2426 	-7.94313 	-1.6827e-019 22.2158 	-7.87653 	-2.26822e-019 22.1864 	-7.80833 	-2.54719e-019 22.1515 	-7.73779 	-1.9025e-019 22.1168 	-7.66758 	-1.11082e-019 22.099 	-7.60701 	-2.88366e-019 22.082 	-7.54661 	-4.65742e-019 22.0585 	-7.48345 	-4.30661e-019 22.0275 	-7.41646 	-2.89494e-019 21.9952 	-7.34898 	-1.21214e-019 21.981 	-7.29263 	-3.06145e-019 21.96 	-7.23338 	-2.63291e-019 21.9394 	-7.17415 	-2.08957e-019 21.9195 	-7.1151 	-1.5495e-019 21.8992 	-7.05224 	-9.763e-020 21.899 	-7.05142 	-9.67958e-020 21.8987 	-7.05061 	-9.59616e-020 21.8985 	-7.04979 	-9.51275e-020 21.8982 	-7.04897 	-9.43563e-020 21.8979 	-7.04812 	-9.69649e-020 21.8788 	-6.98909 	-1.07389e-019 21.8603 	-6.93014 	-1.16289e-019 21.8426 	-6.87138 	-1.25067e-019 21.8254 	-6.8127 	-1.31051e-019 21.8005 	-6.75199 	-6.00449e-020 21.7948 	-6.69937 	-3.59926e-020 21.7868 	-6.64568 	-1.50481e-020 21.7717 	-6.58897 	-3.73574e-021 21.7481 	-6.52975 	-5.87748e-020 21.7255 	-6.47109 	-1.13407e-019 21.723 	-6.4204 	-2.96019e-019 21.7213 	-6.3699 	-4.78295e-019 21.7105 	-6.3168 	-3.90109e-019 21.6929 	-6.26097 	-2.10092e-019 21.6727 	-6.20436 	1.03274e-020 21.6734 	-6.15559 	2.40634e-019 21.6651 	-6.10437 	2.29924e-019 21.6572 	-6.0532 	2.08556e-019 21.6501 	-6.00222 	1.87561e-019 21.6418 	-5.95101 	1.36984e-019 21.6422 	-5.94552 	1.33538e-019 21.6414 	-5.93973 	1.23798e-019 21.6407 	-5.93395 	1.14058e-019 21.6399 	-5.92817 	1.04317e-019 21.6392 	-5.92234 	9.44888e-020 21.6341 	-5.87858 	1.66979e-021 21.6297 	-5.83496 	-9.10208e-020 21.6258 	-5.79147 	-1.83582e-019 21.6226 	-5.74812 	-2.76015e-019 21.6113 	-5.70333 	-2.205e-019 21.6195 	-5.65912 	-1.44385e-019 21.62 	-5.6125 	-7.81363e-020 21.6182 	-5.56514 	-1.54466e-020 21.6094 	-5.51639 	-1.41603e-020 21.5981 	-5.46743 	-3.8323e-020 21.6096 	-5.42507 	-2.39079e-020 21.6217 	-5.38288 	-9.44381e-021 21.6236 	-5.33834 	1.79323e-021 21.614 	-5.29097 	1.80822e-020 21.6052 	-5.24399 	3.44179e-020 21.6198 	-5.20351 	-3.36903e-019 21.63 	-5.16226 	-5.3233e-019 21.6344 	-5.11999 	-4.99433e-019 21.6384 	-5.07757 	-4.44001e-019 21.632 	-5.03259 	-1.71443e-019 21.6458 	-4.99827 	-2.61268e-019 21.6514 	-4.96256 	-2.26233e-019 21.6576 	-4.92696 	-1.91334e-019 21.6643 	-4.89149 	-1.5657e-019 21.6721 	-4.8535 	-1.19353e-019 21.673 	-4.84928 	-1.16298e-019 21.674 	-4.84507 	-1.13245e-019 21.675 	-4.84085 	-1.10192e-019 21.676 	-4.83664 	-1.0714e-019 21.676 	-4.83229 	-1.05e-019 21.6862 	-4.79369 	-8.15558e-020 21.6957 	-4.7549 	-5.53628e-020 21.7058 	-4.71626 	-2.91963e-020 21.7166 	-4.67778 	-3.0565e-021 21.7173 	-4.63815 	3.23146e-020 21.7412 	-4.6038 	7.09269e-021 21.7568 	-4.56765 	-2.68375e-020 21.7696 	-4.53087 	-6.42282e-020 21.7747 	-4.49316 	-5.59281e-020 21.7762 	-4.45517 	-2.41394e-020 21.803 	-4.4226 	2.02443e-019 21.8305 	-4.39017 	4.28937e-019 21.8453 	-4.35553 	4.44954e-019 21.8484 	-4.31907 	2.38268e-019 21.8521 	-4.28287 	3.21483e-020 21.8817 	-4.25202 	2.64693e-019 21.9099 	-4.22105 	4.5117e-019 21.9276 	-4.18884 	3.81146e-019 21.9383 	-4.15522 	2.00127e-019 21.9441 	-4.12074 	-5.96893e-020 21.9763 	-4.09154 	2.0959e-019 21.9976 	-4.06105 	2.42594e-019 22.0177 	-4.03047 	2.40917e-019 22.0384 	-4.00002 	2.39559e-019 22.0516 	-3.96824 	9.29669e-020 22.0704 	-3.95089 	2.00256e-019 22.0837 	-3.93288 	1.61732e-019 22.0972 	-3.91492 	1.2332e-019 22.1109 	-3.89701 	8.50196e-020 22.1256 	-3.87819 	4.48043e-020 22.1342 	-3.86729 	3.32715e-020 22.143 	-3.85639 	2.17423e-020 22.1519 	-3.84552 	1.02169e-020 22.1608 	-3.83467 	-1.30487e-021 22.1664 	-3.82351 	-5.28249e-021 22.1946 	-3.79643 	-2.15463e-020 22.2186 	-3.76863 	-4.72209e-020 22.2431 	-3.74096 	-7.2946e-020 22.2682 	-3.71341 	-9.87214e-020 22.281 	-3.68481 	-7.77645e-020 22.3204 	-3.66068 	-7.94996e-020 22.3499 	-3.63485 	-2.68885e-020 22.3764 	-3.60854 	4.35039e-020 22.3954 	-3.58155 	1.18756e-019 22.4088 	-3.55413 	1.97494e-019 22.4504 	-3.53128 	4.36572e-019 22.4925 	-3.50855 	6.75699e-019 22.5194 	-3.48342 	6.9481e-019 22.5339 	-3.457 	4.31114e-019 22.5489 	-3.43074 	1.68006e-019 22.5926 	-3.40902 	4.14507e-019 22.6368 	-3.38741 	6.61167e-019 22.6684 	-3.36448 	6.47639e-019 22.6844 	-3.339