/*--------------------------------*- C++ -*----------------------------------*\
| =========                 |                                                 |
| \\      /  F ield         | OpenFOAM: The Open Source CFD Toolbox           |
|  \\    /   O peration     | Version:  5.x                                   |
|   \\  /    A nd           | Web:      www.OpenFOAM.org                      |
|    \\/     M anipulation  |                                                 |
\*---------------------------------------------------------------------------*/
/*   Windows 32 and 64 bit porting by blueCAPE: http://www.bluecape.com.pt   *\
|  Based on Windows porting (2.0.x v4) by Symscape: http://www.symscape.com   |
\*---------------------------------------------------------------------------*/
FoamFile
{
    version     2.0;
    format      ascii;
    class       surfaceScalarField;
    location    "4000";
    object      phi;
}
// * * * * * * * * * * * * * * * * * * * * * * * * * * * * * * * * * * * * * //

dimensions      [0 3 -1 0 0 0 0];

internalField   nonuniform List<scalar> 
7780
(
0.00686551
-0.00681551
0.0180275
-0.011162
0.0262909
-0.00826341
0.0301493
-0.00385833
0.0295231
0.000626142
0.0250407
0.0044824
0.0175806
0.00746012
0.00771983
0.00986078
-0.0042532
0.011973
-0.017938
0.0136848
-0.0330678
0.0151298
-0.0492617
0.0161939
-0.0659466
0.0166848
-0.0826216
0.0166751
-0.0988435
0.0162219
-0.114194
0.0153501
-0.128284
0.0140901
-0.140765
0.0124817
-0.15134
0.0105748
-0.159767
0.00842682
-0.165871
0.00610379
-0.169528
0.00365756
-0.170605
0.00107616
-0.169057
-0.001548
-0.165048
-0.00400832
-0.158783
-0.0062655
-0.150437
-0.00834589
-0.140225
-0.0102115
-0.128396
-0.0118293
-0.115217
-0.0131786
-0.100967
-0.0142506
-0.0859194
-0.0150474
-0.0703385
-0.0155809
-0.0544711
-0.0158674
-0.0385907
-0.0158804
-0.0230621
-0.0155286
-0.00800625
-0.0150558
0.00663528
-0.0146415
0.0207705
-0.0141352
0.0345137
-0.0137432
0.0478647
-0.013351
0.0606479
-0.0127832
0.0728253
-0.0121775
0.0844244
-0.011599
0.0954767
-0.0110523
0.106004
-0.0105274
0.11601
-0.0100057
0.125471
-0.00946111
0.134332
-0.00886079
0.142498
-0.00816654
0.149836
-0.00733729
0.156164
-0.0063282
0.161268
-0.00510432
0.16489
-0.00362179
0.166657
-0.0017676
0.166135
0.000522401
0.162976
0.00315901
0.156862
0.00611454
0.147424
0.00943712
0.134284
0.01314
0.117091
0.0171937
0.095566
0.0215247
0.0697199
0.0258461
0.0398246
0.0298953
0.00576016
0.0340644
-0.0327206
0.0384807
-0.075414
0.0426934
-0.122532
0.0471183
-0.173655
0.051123
-0.227669
0.0540137
-0.283739
0.0560701
-0.340978
0.0572391
-0.398376
0.0573974
-0.454808
0.0564321
-0.509057
0.0542493
-0.559837
0.0507798
-0.605821
0.0459846
-0.645669
0.0398478
-0.678076
0.032407
-0.701784
0.0237082
-0.715393
0.0136082
-0.717357
0.00196448
-0.706558
-0.0107995
-0.682509
-0.0240489
-0.644735
-0.0377735
-0.592667
-0.052068
-0.525911
-0.0667565
-0.444289
-0.0816219
-0.348082
-0.0962064
-0.239269
-0.108813
-0.119184
-0.120086
0.0125712
-0.131755
0.155358
-0.142787
0.308791
-0.153433
0.472203
-0.163412
0.642696
-0.170493
0.816952
-0.174256
0.992407
-0.175455
1.16643
-0.174025
1.33623
-0.169799
1.49889
-0.162662
1.65145
-0.152562
1.79097
-0.139512
1.91458
-0.123614
2.01959
-0.10501
2.10357
-0.0839837
2.1644
-0.0608224
2.19995
-0.0355508
2.2076
-0.00765555
2.18571
0.0218967
2.13435
0.0513517
2.05394
0.0804116
1.94461
0.109336
1.80679
0.137815
1.64134
0.165451
1.44945
0.19189
1.23264
0.216807
0.992915
0.239729
0.733886
0.259029
0.461473
0.272413
0.177976
0.283497
-0.116788
0.294764
-0.420496
0.303708
-0.734535
0.314039
-1.05563
0.321097
-1.37673
0.321094
-1.69425
0.317524
-2.00538
0.311135
-2.3074
0.302016
-2.59768
0.290284
-2.87371
0.276028
-3.13304
0.25933
-3.37333
0.240289
-3.59234
0.219007
-3.78793
0.195589
-3.95807
0.17014
-4.10084
0.14277
-4.21442
0.113585
-4.29708
0.0826606
-4.34685
0.0497644
-4.36085
0.0139982
-4.33689
-0.0239523
-4.2748
-0.0620968
-4.17408
-0.100714
-4.03346
-0.140626
-3.85179
-0.18167
-3.62817
-0.223613
-3.36196
-0.266219
-3.05272
-0.309234
-2.70033
-0.35239
-2.30496
-0.395373
-1.86734
-0.437617
-1.39042
-0.476925
-0.884043
-0.506374
-0.350918
-0.533125
0.213101
-0.56402
0.804289
-0.591188
1.42492
-0.620632
2.07146
-0.64654
2.7316
-0.66014
3.39621
-0.664613
4.05803
-0.661814
4.70945
-0.65142
5.34232
-0.632868
5.94801
-0.605692
6.51756
-0.569555
7.04183
-0.524268
7.51163
-0.469804
7.91796
-0.406329
8.25215
-0.334189
8.50617
-0.254013
8.67264
-0.166478
8.74209
-0.0694487
8.70458
0.037517
8.55716
0.14741
8.3004
0.25677
7.93381
0.366586
7.45761
0.476195
6.87369
0.58392
6.18576
0.687935
5.39927
0.786487
4.52137
0.877899
3.56095
0.960427
2.53254
1.02841
1.46455
1.06799
0.374811
1.08974
-0.73616
1.11097
-1.85703
1.12087
-2.97882
1.1218
-4.08001
1.10119
-5.12374
1.04372
-6.0768
0.953062
-6.90616
0.829354
-7.57057
0.664413
-8.01416
0.443595
-8.16392
0.149756
-7.95166
-0.212263
-7.39198
-0.559678
-6.58127
-0.810703
-0.69792
0.00992139
-0.0166869
0.014039
-0.0152797
0.0157116
-0.00993599
0.0152631
-0.00340979
0.0128257
0.00306351
0.00838203
0.00892608
0.00187377
0.0139684
-0.0065455
0.0182801
-0.0165308
0.0219583
-0.0278149
0.024969
-0.0400053
0.0273202
-0.0527599
0.0289485
-0.0658215
0.0297463
-0.0788606
0.0297142
-0.0915264
0.0288877
-0.103485
0.0273082
-0.114425
0.0250308
-0.12407
0.0221269
-0.132179
0.0186839
-0.138554
0.0148012
-0.143037
0.0105871
-0.145526
0.00614658
-0.146022
0.00157236
-0.144572
-0.00299861
-0.14118
-0.00739994
-0.135916
-0.0115299
-0.128933
-0.0153286
-0.120412
-0.0187326
-0.110552
-0.0216894
-0.0995671
-0.0241633
-0.087681
-0.0261367
-0.0751197
-0.0276088
-0.0621075
-0.0285931
-0.0488627
-0.0291122
-0.0355616
-0.0291814
-0.0222583
-0.0288319
-0.00909033
-0.0282238
0.00373669
-0.0274686
0.0161868
-0.0265853
0.0281109
-0.0256673
0.0394734
-0.0247135
0.0503586
-0.0236683
0.0607667
-0.0225857
0.0706805
-0.0215128
0.080089
-0.0204608
0.0889806
-0.019419
0.0973335
-0.0183586
0.105109
-0.0172361
0.112243
-0.0159953
0.118646
-0.0145695
0.124194
-0.0128856
0.128732
-0.0108654
0.13206
-0.00843328
0.133945
-0.00550676
0.134165
-0.00198719
0.132508
0.00217948
0.12868
0.00698684
0.122365
0.0124294
0.113293
0.0185098
0.101231
0.025202
0.0859907
0.0324335
0.0674408
0.0400746
0.0453833
0.0479036
0.0195299
0.0557487
-0.0100725
0.0636669
-0.0431468
0.071555
-0.0795897
0.0791364
-0.118777
0.086306
-0.160314
0.0926591
-0.203975
0.0976752
-0.249098
0.101193
-0.294894
0.103035
-0.340494
0.102998
-0.384955
0.100893
-0.427264
0.0965583
-0.466353
0.0898691
-0.501115
0.080746
-0.530421
0.0691539
-0.553127
0.0551129
-0.568088
0.038669
-0.574324
0.0198441
-0.571128
-0.00123168
-0.557736
-0.024191
-0.53322
-0.0485651
-0.496936
-0.0740569
-0.448599
-0.100405
-0.388128
-0.127228
-0.315706
-0.154044
-0.231718
-0.180195
-0.135759
-0.204772
-0.0280257
-0.227819
0.0898546
-0.249635
0.216671
-0.269604
0.350579
-0.287341
0.489423
-0.302256
0.631967
-0.313037
0.776681
-0.31897
0.921206
-0.31998
1.06307
-0.315887
1.19976
-0.306495
1.32878
-0.291682
1.44765
-0.271424
1.55394
-0.24581
1.64538
-0.215047
1.71981
-0.179444
1.77526
-0.139438
1.80995
-0.0955118
1.82247
-0.0480622
1.81233
0.00248109
1.77912
0.0551071
1.72195
0.108519
1.64046
0.161902
1.53507
0.214725
1.40654
0.266341
1.25595
0.31605
1.08469
0.363151
0.894555
0.406937
0.687683
0.446601
0.465707
0.481005
0.22869
0.509429
-0.0211832
0.53337
-0.279963
0.553543
-0.545533
0.569278
-0.812751
0.581257
-1.07965
0.587996
-1.34616
0.587607
-1.60962
0.580982
-1.86727
0.568786
-2.11659
0.551337
-2.3552
0.528892
-2.58084
0.501669
-2.79139
0.469877
-2.98482
0.433717
-3.15919
0.393385
-3.31268
0.34907
-3.44348
0.300949
-3.5499
0.249187
-3.63024
0.193924
-3.68284
0.135258
-3.70623
0.0731575
-3.69979
0.00755681
-3.66273
-0.0610145
-3.59314
-0.131685
-3.4896
-0.204251
-3.35146
-0.278763
-3.17816
-0.354976
-2.96926
-0.432507
-2.7246
-0.510882
-2.44431
-0.589527
-2.12895
-0.667747
-1.77968
-0.744647
-1.39828
-0.81901
-0.986411
-0.888797
-0.541298
-0.951487
-0.064726
-1.0097
0.436021
-1.06477
0.95886
-1.11403
1.49588
-1.15765
2.04202
-1.19268
2.59611
-1.21423
3.1532
-1.2217
3.7065
-1.21512
4.24899
-1.19391
4.7735
-1.15737
5.27268
-1.10488
5.7391
-1.03597
6.16523
-0.950404
6.54365
-0.84822
6.86705
-0.729736
7.12843
-0.595561
7.32101
-0.4466
7.43841
-0.283876
7.4769
-0.107934
7.43485
0.0795667
7.30815
0.274109
7.09298
0.471937
6.78878
0.670791
6.39685
0.86812
5.91989
1.06088
5.36204
1.24579
4.72911
1.41942
4.02883
1.57817
3.27111
1.71815
2.46567
1.83385
1.61405
1.91961
0.724734
1.97906
-0.179477
2.01518
-1.0825
2.02389
-1.96438
2.00367
-2.81112
1.94793
-3.61448
1.84709
-4.35908
1.69766
-5.02568
1.49596
-5.59562
1.23435
-6.05446
0.902436
-6.39616
0.491456
-6.61802
0.00959983
-6.68143
-0.496272
-6.54103
-0.951101
-1.01484
0.00737641
-0.0240133
0.00898668
-0.0168899
0.00837161
-0.00932092
0.00641409
-0.00145226
0.00323984
0.00623776
-0.00122789
0.0133938
-0.00707924
0.0198197
-0.0142646
0.0254654
-0.0226132
0.0303069
-0.0319245
0.0342802
-0.0419388
0.0373346
-0.0523873
0.039397
-0.0630341
0.0403931
-0.0736233
0.0403034
-0.0838832
0.0391476
-0.0935476
0.0369726
-0.102366
0.0338492
-0.110112
0.0298728
-0.116588
0.0251604
-0.121634
0.0198463
-0.125124
0.0140774
-0.126983
0.00800562
-0.127195
0.00178444
-0.125777
-0.00441662
-0.122753
-0.0104237
-0.118186
-0.0160969
-0.112188
-0.0213272
-0.104898
-0.0260218
-0.0964792
-0.0301086
-0.0871042
-0.0335383
-0.0769556
-0.0362853
-0.0662175
-0.0383469
-0.0550697
-0.0397409
-0.0436792
-0.0405027
-0.0321792
-0.0406814
-0.0206626
-0.0403485
-0.00925954
-0.0396269
0.00189786
-0.0386259
0.0127296
-0.037417
0.0231457
-0.0360835
0.0330963
-0.0346641
0.0425984
-0.0331704
0.051655
-0.0316422
0.0602535
-0.0301114
0.0683781
-0.0285854
0.0760079
-0.0270488
0.0831129
-0.0254636
0.0896492
-0.0237724
0.0955546
-0.0219006
0.100745
-0.0197599
0.105112
-0.0172528
0.108522
-0.0142757
0.110815
-0.0107256
0.111808
-0.00650012
0.111323
-0.00150255
0.109171
0.00433214
0.105129
0.0110289
0.0989671
0.018591
0.0904756
0.0270013
0.0794716
0.0362061
0.0658008
0.0461043
0.0493311
0.0565444
0.0299115
0.0673232
0.00741584
0.0782443
-0.0180877
0.0891704
-0.0464203
0.0998876
-0.0773737
0.11009
-0.110556
0.119488
-0.145565
0.127668
-0.182057
0.134168
-0.219523
0.138658
-0.257321
0.140833
-0.294729
0.140406
-0.330953
0.137117
-0.365137
0.130743
-0.39638
0.121112
-0.423746
0.108112
-0.446285
0.0916931
-0.463044
0.0718719
-0.473101
0.048726
-0.475646
0.0223894
-0.469981
-0.00689696
-0.455427
-0.0387448
-0.431315
-0.0726779
-0.397137
-0.108235
-0.352614
-0.144928
-0.297658
-0.182184
-0.232353
-0.219349
-0.156864
-0.255683
-0.0712397
-0.290396
0.0239913
-0.32305
0.127648
-0.353292
0.238464
-0.38042
0.354872
-0.403748
0.475074
-0.422458
0.597553
-0.435516
0.720734
-0.442151
0.842677
-0.441923
0.961288
-0.434497
1.07442
-0.419625
1.17993
-0.397191
1.27572
-0.367219
1.3598
-0.329886
1.43028
-0.285525
1.48544
-0.234611
1.52376
-0.177756
1.54392
-0.11567
1.54498
-0.0491178
1.52644
0.0210213
1.48795
0.0935887
1.42917
0.167299
1.35004
0.241036
1.25094
0.313821
1.13261
0.384674
0.996036
0.452625
0.84246
0.516727
0.673339
0.576058
0.490208
0.629732
0.294321
0.676892
0.0866894
0.717061
-0.130552
0.750611
-0.354726
0.777717
-0.583503
0.798055
-0.813874
0.811628
-1.04357
0.817691
-1.27144
0.815473
-1.49568
0.805225
-1.71421
0.787312
-1.92494
0.762071
-2.12587
0.729822
-2.31507
0.690867
-2.49069
0.645502
-2.65099
0.594011
-2.79427
0.536668
-2.91894
0.473736
-3.02345
0.40546
-3.10633
0.332068
-3.16617
0.25377
-3.20167
0.170749
-3.21168
0.0831736
-3.19539
-0.00873605
-3.15188
-0.104523
-3.07997
-0.203593
-2.97867
-0.305557
-2.84733
-0.410099
-2.68554
-0.516771
-2.49305
-0.624996
-2.26986
-0.734068
-2.01625
-0.843139
-1.73281
-0.951192
-1.42044
-1.05701
-1.08031
-1.15914
-0.713223
-1.25589
-0.319111
-1.3456
0.0995389
-1.42835
0.538522
-1.50375
0.99436
-1.56986
1.46201
-1.6253
1.93676
-1.66742
2.41553
-1.69301
2.89423
-1.7004
3.3676
-1.68848
3.82988
-1.6562
4.27506
-1.60255
4.69693
-1.52675
5.08923
-1.42827
5.4457
-1.30687
5.76019
-1.16271
6.02677
-0.996311
6.23981
-0.8086
6.39411
-0.600903
6.48514
-0.374906
6.50976
-0.132551
6.46597
0.123352
6.35145
0.388626
6.16436
0.659036
5.90446
0.930691
5.57305
1.19952
5.17274
1.46119
4.70742
1.71112
4.18223
1.9446
3.60358
2.15683
2.97883
2.34289
2.31493
2.49776
1.61737
2.61717
0.896109
2.70032
0.16472
2.74657
-0.56437
2.75298
-1.27769
2.71699
-1.96375
2.63399
-2.61486
2.4982
-3.22294
2.30574
-3.77969
2.05271
-4.27919
1.73385
-4.72018
1.34343
-5.10679
0.87806
-5.44105
0.343863
-5.70371
-0.233609
-5.83901
-0.815801
-1.069
0.00382598
-0.0277893
0.00404411
-0.0171081
0.00267965
-0.00795646
0.000331529
0.000895857
-0.00289017
0.00945946
-0.00703306
0.0175367
-0.0121578
0.0249444
-0.0182501
0.0315577
-0.0252153
0.0372721
-0.032913
0.041978
-0.0411584
0.04558
-0.0497487
0.0479873
-0.0584841
0.0491284
-0.0671529
0.0489723
-0.0755358
0.0475305
-0.0834174
0.0448542
-0.090593
0.0410248
-0.0968765
0.0361564
-0.102106
0.0303898
-0.106148
0.0238885
-0.108903
0.0168322
-0.110307
0.0094101
-0.110339
0.00181608
-0.109004
-0.0057513
-0.106329
-0.0130986
-0.102369
-0.0200569
-0.0972123
-0.0264844
-0.0909701
-0.0322639
-0.0837732
-0.0373055
-0.0757638
-0.0415477
-0.067091
-0.0449581
-0.0579054
-0.0475326
-0.0483531
-0.0492932
-0.0385698
-0.050286
-0.028672
-0.0505792
-0.0187577
-0.0502628
-0.00893334
-0.0494513
0.000698597
-0.0482579
0.0100603
-0.0467787
0.0190822
-0.0451053
0.0277205
-0.0433025
0.0359639
-0.0414138
0.0438031
-0.0394815
0.0512242
-0.0375324
0.0582092
-0.0355704
0.0647346
-0.0335742
0.0707688
-0.0314978
0.0762683
-0.0292719
0.0811752
-0.0268075
0.0854145
-0.0239992
0.0888925
-0.0207308
0.0914967
-0.0168799
0.0930957
-0.0123246
0.0935444
-0.00694884
0.0926921
-0.000650193
0.0903786
0.00664562
0.0864301
0.0149773
0.0806699
0.0243513
0.0729322
0.034739
0.0630698
0.0460685
0.0509558
0.0582183
0.0364832
0.071017
0.0195595
0.0842469
0.00013595
0.0976679
-0.0217289
0.111035
-0.0458897
0.124048
-0.0721435
0.136344
-0.100189
0.147533
-0.129686
0.157165
-0.160282
0.164764
-0.19153
0.169906
-0.222894
0.172197
-0.25377
0.171282
-0.283488
0.166835
-0.311327
0.158582
-0.336526
0.146311
-0.358296
0.129883
-0.375838
0.109235
-0.388359
0.084392
-0.395094
0.0554612
-0.395346
0.0226417
-0.388487
-0.0137557
-0.373935
-0.0532972
-0.35116
-0.0954527
-0.319756
-0.139639
-0.279475
-0.185209
-0.230221
-0.231438
-0.172045
-0.277524
-0.105117
-0.322611
-0.0296974
-0.365816
0.0536326
-0.40638
0.143905
-0.443564
0.239966
-0.47648
0.340443
-0.504225
0.443824
-0.525839
0.548643
-0.540335
0.653364
-0.546872
0.756291
-0.54485
0.855632
-0.533838
0.949555
-0.513548
1.03624
-0.48388
1.11394
-0.444917
1.18099
-0.39693
1.23584
-0.340377
1.27712
-0.275893
1.30363
-0.20427
1.3144
-0.126437
1.30872
-0.0434384
1.28618
0.0435604
1.24654
0.133229
1.18968
0.224161
1.1157
0.315011
1.02502
0.404506
0.918283
0.491411
0.796372
0.574536
0.660348
0.652752
0.511404
0.725002
0.350799
0.790337
0.179746
0.847946
-0.000490654
0.897298
-0.188148
0.938269
-0.38116
0.970729
-0.577494
0.99439
-0.77496
1.00909
-0.971694
1.01443
-1.16626
1.01004
-1.35709
0.996052
-1.54248
0.972702
-1.72072
0.940311
-1.89012
0.899227
-2.04906
0.849803
-2.19595
0.792396
-2.32929
0.727352
-2.44764
0.655011
-2.5496
0.575697
-2.63385
0.489718
-2.69915
0.397367
-2.74431
0.298929
-2.76825
0.194682
-2.76999
0.084921
-2.74872
-0.0300051
-2.70362
-0.149628
-2.63382
-0.273395
-2.53858
-0.400792
-2.41739
-0.53129
-2.26991
-0.664251
-2.096
-0.798908
-1.89572
-0.934348
-1.66936
-1.06949
-1.41746
-1.2031
-1.14076
-1.33371
-0.840172
-1.45973
-0.516632
-1.57942
-0.171115
-1.69112
0.194221
-1.79368
0.576234
-1.88576
0.971661
-1.96529
1.37657
-2.03021
1.78708
-2.07793
2.19977
-2.1057
2.61079
-2.11143
3.01576
-2.09345
3.40987
-2.05031
3.78806
-1.98074
4.14511
-1.8838
4.47577
-1.75892
4.77482
-1.60592
5.03718
-1.42508
5.25801
-1.21714
5.43281
-0.983392
5.5575
-0.725599
5.62867
-0.44607
5.64377
-0.147651
5.60105
0.166063
5.49908
0.490597
5.337
0.821115
5.11503
1.15266
4.83452
1.48004
4.49791
1.79781
4.10867
2.10036
3.67128
2.38199
3.1911
2.63701
2.6741
2.85988
2.12646
3.0454
1.55447
3.18915
0.966368
3.28842
0.371997
3.34094
-0.218909
3.34389
-0.796629
3.29471
-1.35291
3.19027
-1.88183
3.02712
-2.37876
2.80267
-2.84067
2.51462
-3.26733
2.16051
-3.66213
1.73823
-4.03148
1.24741
-4.37984
0.692228
-4.69922
0.0857656
-4.9619
-0.553116
-0.926773
0.000785424
-0.0285247
0.000198078
-0.0165207
-0.00138499
-0.00637338
-0.00368544
0.0031963
-0.00663536
0.0124094
-0.010263
0.0211644
-0.0146076
0.029289
-0.0196659
0.0366161
-0.0253813
0.0429875
-0.031656
0.0482526
-0.0383561
0.0522801
-0.0453271
0.0549583
-0.0524076
0.0562089
-0.0594248
0.0559895
-0.066201
0.0543066
-0.0725627
0.0512159
-0.0783439
0.046806
-0.083393
0.0412055
-0.0875779
0.0345747
-0.09079
0.0271007
-0.0929475
0.0189896
-0.0939974
0.01046
-0.0939169
0.00173558
-0.092708
-0.00696016
-0.0903937
-0.015413
-0.0870201
-0.0234304
-0.0826576
-0.0308469
-0.0773957
-0.0375258
-0.0713391
-0.0433621
-0.0646027
-0.0482841
-0.0573072
-0.0522536
-0.0495748
-0.055265
-0.0415244
-0.0573436
-0.0332679
-0.0585425
-0.0249052
-0.0589419
-0.0165246
-0.0586434
-0.00821476
-0.0577611
-5.80287e-005
-0.0564146
0.0078784
-0.0547151
0.015538
-0.0527649
0.0228814
-0.0506459
0.0298876
-0.0484199
0.0365406
-0.0461345
0.0428242
-0.043816
0.0487195
-0.0414658
0.0542031
-0.0390578
0.0592443
-0.036539
0.0638032
-0.0338308
0.0678283
-0.0308325
0.0712548
-0.0274257
0.0740036
-0.0234797
0.0759816
-0.0188578
0.0770817
-0.0134247
0.0771869
-0.00705395
0.0761728
0.000363844
0.0739088
0.00890964
0.0702574
0.0186287
0.0650809
0.0295277
0.0582497
0.0415702
0.0496474
0.0546708
0.0391746
0.0686911
0.026752
0.0834396
0.0123245
0.0986744
-0.00412166
0.114114
-0.0225303
0.129444
-0.0427798
0.144298
-0.0646938
0.158258
-0.0880296
0.170869
-0.112502
0.181637
-0.137789
0.190051
-0.163508
0.195624
-0.189208
0.197898
-0.21439
0.196463
-0.238498
0.190943
-0.260931
0.181015
-0.281058
0.166437
-0.298224
0.147048
-0.311767
0.122778
-0.32103
0.0936551
-0.325381
0.059812
-0.32423
0.0214908
-0.317038
-0.0209474
-0.303316
-0.0670189
-0.282638
-0.116131
-0.254672
-0.167604
-0.219212
-0.22067
-0.176175
-0.274475
-0.125612
-0.328087
-0.0677063
-0.380517
-0.0027808
-0.430741
0.0686042
-0.477765
0.145625
-0.520586
0.227277
-0.558132
0.312384
-0.589332
0.399652
-0.613107
0.487762
-0.628445
0.575326
-0.634436
0.66087
-0.630395
0.74288
-0.615847
0.819811
-0.590479
0.890149
-0.554219
0.952444
-0.507212
1.00534
-0.449822
1.04759
-0.382628
1.0781
-0.30641
1.09596
-0.222129
1.10043
-0.130903
1.09098
-0.0339884
1.0673
0.067235
1.02926
0.171273
0.976849
0.276573
0.910254
0.381606
0.829871
0.484889
0.736285
0.584996
0.630253
0.680569
0.512666
0.770338
0.384523
0.853145
0.24689
0.92797
0.100873
0.993962
-0.0523201
1.05049
-0.211229
1.09718
-0.374221
1.13372
-0.539636
1.1598
-0.70579
1.17525
-0.871142
1.17978
-1.03434
1.17324
-1.19402
1.15574
-1.34878
1.12746
-1.49721
1.08873
-1.6379
1.03992
-1.7695
0.981405
-1.89069
0.913588
-2.00021
0.836865
-2.09682
0.751623
-2.17936
0.658239
-2.24672
0.557076
-2.29784
0.448486
-2.33173
0.33282
-2.34748
0.210433
-2.34427
0.0817081
-2.32135
-0.0529251
-2.27802
-0.192954
-2.21362
-0.337796
-2.12758
-0.486832
-2.01949
-0.639382
-1.88909
-0.794651
-1.73629
-0.951708
-1.56117
-1.10946
-1.36402
-1.26665
-1.1453
-1.42182
-0.905652
-1.57335
-0.645912
-1.71947
-0.367065
-1.85827
-0.0703416
-1.98784
0.242356
-2.10638
0.568519
-2.21193
0.905357
-2.30213
1.24969
-2.37454
1.59823
-2.42647
1.94778
-2.45525
2.2949
-2.45854
2.63586
-2.43441
2.96668
-2.38112
3.2831
-2.29716
3.58079
-2.1815
3.85542
-2.03355
4.10269
-1.8532
4.31849
-1.64087
4.4989
-1.39756
4.64036
-1.12485
4.73972
-0.824958
4.79437
-0.500714
4.80233
-0.155618
4.76228
0.206114
4.67334
0.579535
4.53524
0.959219
4.3485
1.33941
4.11449
1.71404
3.83548
2.07682
3.51452
2.42131
3.15547
2.74104
2.76284
3.02964
2.34167
3.28105
1.89737
3.48971
1.43571
3.65081
0.963444
3.76069
0.487983
3.8164
0.0167438
3.81513
-0.443213
3.75467
-0.886078
3.63314
-1.30784
3.44888
-1.70627
3.2011
-2.08134
2.88968
-2.43584
2.51502
-2.77584
2.07823
-3.11007
1.58164
-3.44711
1.02927
-3.78991
0.428562
-4.12768
-0.215344
-0.658739
-0.00111021
-0.0273645
-0.00216808
-0.0154628
-0.00375114
-0.00479033
-0.00582102
0.00526618
-0.00835949
0.0149478
-0.0113899
0.0241948
-0.0149404
0.0328395
-0.0190129
0.0406886
-0.0235731
0.0475477
-0.0285535
0.053233
-0.0338578
0.0575844
-0.0393692
0.0604697
-0.0449633
0.0618029
-0.0505028
0.0615291
-0.0558458
0.0596496
-0.0608567
0.0562269
-0.0654034
0.0513526
-0.0693651
0.0451672
-0.0726366
0.0378462
-0.0751311
0.0295952
-0.0767828
0.0206414
-0.0775486
0.0112258
-0.077408
0.00159492
-0.0763609
-0.00800725
-0.0744258
-0.0173481
-0.0716398
-0.0262164
-0.0680581
-0.0344286
-0.0637511
-0.0418328
-0.0588012
-0.0483121
-0.053299
-0.0537863
-0.0473401
-0.0582125
-0.0410214
-0.0615837
-0.0344379
-0.0639271
-0.0276806
-0.0652998
-0.0208318
-0.0657906
-0.0139647
-0.0655105
-0.00715191
-0.0645739
-0.000459546
-0.063107
0.00605719
-0.0612319
0.0123525
-0.0590602
0.0183925
-0.0566858
0.0241543
-0.0541817
0.02962
-0.0516002
0.034773
-0.048969
0.039595
-0.0462878
0.0440641
-0.0435269
0.0481529
-0.0406278
0.0518266
-0.0375045
0.0550415
-0.0340475
0.0577438
-0.030128
0.0598688
-0.0256047
0.0613414
-0.0203304
0.0620764
-0.0141597
0.0619806
-0.00695822
0.0609553
0.00138921
0.0588966
0.0109683
0.055698
0.0218274
0.0512535
0.0339722
0.0454638
0.04736
0.0382398
0.0618947
0.0295072
0.0774237
0.0192102
0.0937366
0.00731696
0.110568
-0.00616948
0.1276
-0.0211974
0.144472
-0.0376659
0.160766
-0.0554286
0.17602
-0.0742907
0.189731
-0.0940184
0.201365
-0.114341
0.210374
-0.13494
0.216223
-0.155445
0.218404
-0.175456
0.216474
-0.194524
0.210011
-0.212162
0.198653
-0.227859
0.182134
-0.241087
0.160276
-0.251312
0.133003
-0.258004
0.100347
-0.260651
0.0624588
-0.25877
0.0196098
-0.251917
-0.0277999
-0.239694
-0.0792418
-0.221759
-0.134066
-0.197848
-0.191515
-0.167795
-0.250724
-0.131537
-0.310733
-0.0891299
-0.370495
-0.0407511
-0.428896
0.0132816
-0.484774
0.0724694
-0.536953
0.136121
-0.584238
0.203391
-0.625402
0.273294
-0.659236
0.344742
-0.684555
0.416617
-0.70032
0.487725
-0.705543
0.556828
-0.699498
0.622683
-0.681702
0.684019
-0.651814
0.739608
-0.609808
0.788284
-0.555888
0.828971
-0.490508
0.860698
-0.414355
0.882624
-0.328337
0.894052
-0.233556
0.894441
-0.131292
0.883418
-0.0229654
0.860773
0.0898796
0.82644
0.205606
0.780483
0.32253
0.723115
0.438974
0.654697
0.553307
0.575737
0.663956
0.486866
0.76944
0.38882
0.868384
0.282418
0.959547
0.168544
1.04184
0.0481434
1.11436
-0.0777541
1.17639
-0.207974
1.2274
-0.341239
1.26699
-0.476228
1.29479
-0.611656
1.31068
-0.746276
1.3144
-0.878947
1.30591
-1.00855
1.28534
-1.13393
1.25284
-1.25395
1.20875
-1.36749
1.15345
-1.47344
1.08736
-1.57073
1.01089
-1.65834
0.92447
-1.73525
0.828537
-1.80052
0.723502
-1.85321
0.609773
-1.89248
0.487751
-1.9175
0.35784
-1.92752
0.220454
-1.92185
0.0760399
-1.89986
-0.0749113
-1.86098
-0.231838
-1.80467
-0.394103
-1.7305
-0.561004
-1.63814
-0.731744
-1.52739
-0.905401
-1.39819
-1.08091
-1.25063
-1.25702
-1.08495
-1.43233
-0.901554
-1.60522
-0.701009
-1.7739
-0.484058
-1.93642
-0.251635
-2.09069
-0.00493244
-2.23454
0.254429
-2.36574
0.52442
-2.48192
0.802739
-2.58045
1.08681
-2.65862
1.37389
-2.71355
1.6612
-2.74256
1.9458
-2.74314
2.22462
-2.71323
2.4944
-2.6509
2.75165
-2.5544
2.99283
-2.42268
3.21445
-2.25517
3.41308
-2.05183
3.58547
-1.81326
3.72856
-1.54065
3.83959
-1.23589
3.9162
-0.901562
3.95644
-0.540952
3.95888
-0.158066
3.92263
0.242371
3.84721
0.654947
3.73273
1.07371
3.57987
1.49227
3.39
1.90391
3.16515
2.30167
2.90798
2.67848
2.62175
3.02727
2.31022
3.34118
1.97757
3.6137
1.62834
3.83894
1.26737
4.01177
0.900006
4.12805
0.531771
4.18464
0.168158
4.17874
-0.185842
4.10867
-0.526415
3.97371
-0.851258
3.77372
-1.1599
3.50974
-1.45413
3.18391
-1.73852
2.79941
-2.02081
2.36052
-2.31176
1.87259
-2.62398
1.34148
-2.96937
0.773958
-3.35244
0.167721
-0.312464
-0.00183734
-0.0254772
-0.00310847
-0.0141917
-0.00456172
-0.00333708
-0.00630708
0.00701154
-0.00836565
0.0170064
-0.0107634
0.0265925
-0.0135242
0.0356003
-0.0166535
0.0438179
-0.0201317
0.0510259
-0.023914
0.0570153
-0.0279329
0.0616033
-0.0321025
0.0646393
-0.0363325
0.066033
-0.0405188
0.0657154
-0.044552
0.0636828
-0.0483318
0.0600067
-0.0517568
0.0547776
-0.0547348
0.0481452
-0.0571854
0.0402969
-0.0590424
0.0314522
-0.0602552
0.0218542
-0.0607901
0.0117607
-0.0606304
0.00143519
-0.0597752
-0.0088624
-0.0582386
-0.0188848
-0.0560488
-0.0284063
-0.0532474
-0.0372299
-0.0498878
-0.0451924
-0.0460322
-0.0521677
-0.0417492
-0.0580693
-0.0371114
-0.0628503
-0.0321923
-0.0665028
-0.0270644
-0.069055
-0.0217992
-0.070565
-0.0164612
-0.0711286
-0.0111062
-0.0708655
-0.00579202
-0.0698881
-0.000569691
-0.0683293
0.00451806
-0.0663196
0.00943577
-0.0639779
0.0141559
-0.061406
0.018658
-0.0586838
0.0229255
-0.0558677
0.0269431
-0.0529867
0.0306948
-0.0500394
0.0341619
-0.046994
0.0373214
-0.0437874
0.0401452
-0.0403283
0.0425981
-0.0365004
0.0446377
-0.0321677
0.0462138
-0.0271809
0.0472685
-0.021385
0.0477366
-0.0146278
0.0475472
-0.00676886
0.0466251
0.00231128
0.044892
0.0127014
0.0422682
0.0244513
0.0386752
0.0375651
0.0340401
0.0519951
0.0282981
0.0676368
0.0213962
0.0843256
0.0132971
0.101836
0.0039839
0.119881
-0.00653333
0.138118
-0.0182101
0.156149
-0.030966
0.173522
-0.0446857
0.18974
-0.0592186
0.204264
-0.0743828
0.216529
-0.0899659
0.225957
-0.105717
0.231974
-0.121344
0.23403
-0.136543
0.231673
-0.15097
0.224438
-0.164243
0.211927
-0.17597
0.193861
-0.185745
0.170051
-0.193156
0.140414
-0.197793
0.104985
-0.19926
0.0639257
-0.19718
0.0175298
-0.191206
-0.0337742
-0.181026
-0.0894213
-0.166377
-0.148715
-0.147056
-0.210836
-0.122935
-0.274845
-0.0939703
-0.339697
-0.0602145
-0.404251
-0.0218253
-0.467285
0.0209221
-0.527521
0.0676144
-0.583645
0.117697
-0.63432
0.17049
-0.678195
0.225209
-0.713955
0.280971
-0.740316
0.336883
-0.756232
0.391971
-0.760631
0.445251
-0.752779
0.495751
-0.732202
0.542466
-0.698529
0.584444
-0.651787
0.620795
-0.592239
0.650702
-0.520416
0.673444
-0.437097
0.688401
-0.343295
0.695076
-0.240231
0.693093
-0.129309
0.682205
-0.0120771
0.662289
0.109796
0.633334
0.23456
0.59544
0.360424
0.548811
0.485603
0.493763
0.608354
0.430712
0.727007
0.360163
0.839989
0.282695
0.945852
0.198953
1.04329
0.109631
1.13117
0.0154755
1.20852
-0.0827033
1.27457
-0.184015
1.32871
-0.287508
1.37048
-0.392174
1.39946
-0.497071
1.41557
-0.601237
1.41856
-0.703786
1.40846
-0.803865
1.38542
-0.900557
1.34953
-0.992995
1.30119
-1.08032
1.24078
-1.16169
1.16873
-1.23628
1.08547
-1.30327
0.991463
-1.36189
0.887156
-1.41138
0.772995
-1.45103
0.64942
-1.48015
0.516869
-1.49809
0.375783
-1.50426
0.226623
-1.4981
0.069878
-1.4791
-0.0939116
-1.44679
-0.26414
-1.40078
-0.44012
-1.3407
-0.621078
-1.26632
-0.806128
-1.17747
-0.994252
-1.07411
-1.18427
-0.956302
-1.37482
-0.824258
-1.56437
-0.678301
-1.75117
-0.518907
-1.93329
-0.346701
-2.10863
-0.162491
-2.2749
0.0326974
-2.42973
0.23755
-2.57059
0.450468
-2.69483
0.669637
-2.79962
0.893038
-2.88202
1.11845
-2.93896
1.34361
-2.96773
1.56611
-2.96565
1.78357
-2.93069
1.99343
-2.86076
2.19287
-2.75383
2.37913
-2.60895
2.54952
-2.42556
2.70144
-2.20375
2.83242
-1.94423
2.94018
-1.64841
3.02272
-1.31843
3.07834
-0.957178
3.10569
-0.568305
3.10384
-0.156219
3.07227
0.273942
3.01086
0.716364
2.91991
1.16466
2.80021
1.61196
2.65306
2.05106
2.48021
2.47451
2.28392
2.87477
2.06685
3.24434
1.83201
3.57601
1.58275
3.86296
1.32266
4.09904
1.05551
4.27892
0.785309
4.39825
0.515961
4.45399
0.251295
4.44341
-0.00542167
4.36538
-0.252018
4.22031
-0.487571
4.00927
-0.712831
3.735
-0.930621
3.4017
-1.14632
3.01511
-1.36834
2.58254
-1.60843
2.11269
-1.88185
1.61489
-2.20654
1.09865
-2.60093
0.562115
0.0886673
-0.00170645
-0.0237207
-0.00291537
-0.0129828
-0.00411837
-0.00213408
-0.00546468
0.00835785
-0.00699535
0.0185371
-0.00873893
0.0283361
-0.0107167
0.0375781
-0.0129364
0.0460376
-0.015388
0.0534775
-0.018044
0.0596713
-0.0208606
0.0644199
-0.0237778
0.0675565
-0.0267305
0.0689856
-0.0296518
0.0686367
-0.0324669
0.0664979
-0.0351033
0.0626431
-0.0374883
0.0571626
-0.0395573
0.0502142
-0.0412539
0.0419935
-0.0425315
0.0327298
-0.0433544
0.0226771
-0.0436985
0.0121048
-0.0435517
0.0012883
-0.0429128
-0.00950123
-0.0417918
-0.0200058
-0.0402084
-0.0299896
-0.038192
-0.0392463
-0.0357799
-0.0476045
-0.0330159
-0.0549318
-0.0299481
-0.0611371
-0.0266274
-0.066171
-0.023105
-0.0700251
-0.0194312
-0.0727289
-0.0156581
-0.0743381
-0.0118359
-0.0749507
-0.00799898
-0.0747025
-0.00419181
-0.0736953
-0.000450568
-0.0720705
0.00319481
-0.069965
0.00671941
-0.0675025
0.010103
-0.0647895
0.0133297
-0.0619105
0.0163864
-0.0589244
0.0192609
-0.0558611
0.0219406
-0.0527192
0.0244113
-0.0494646
0.0266557
-0.0460318
0.0286529
-0.0423254
0.0303772
-0.0382247
0.0317979
-0.0335884
0.0328791
-0.028262
0.0335795
-0.0220854
0.0338531
-0.0149014
0.0336501
-0.0065658
0.0329175
0.0030438
0.0316009
0.014018
0.0296451
0.0264071
0.0269966
0.0402136
0.0236056
0.0553861
0.0194287
0.0718137
0.0144314
0.0893229
0.00859088
0.107676
0.00189944
0.126572
-0.00563147
0.145649
-0.0139671
0.164484
-0.0230482
0.182603
-0.032791
0.199483
-0.0430877
0.214561
-0.0538091
0.227251
-0.0648052
0.236953
-0.0758951
0.243064
-0.0868605
0.244996
-0.0975095
0.242322
-0.107581
0.234509
-0.116801
0.221146
-0.124892
0.201953
-0.131568
0.176728
-0.136538
0.145383
-0.139509
0.107955
-0.140196
0.0646127
-0.138328
0.015662
-0.133654
-0.0384481
-0.125949
-0.0971264
-0.115022
-0.159642
-0.100727
-0.22513
-0.0829727
-0.292599
-0.0617295
-0.36094
-0.0370407
-0.428939
-0.00902953
-0.495296
0.0220912
-0.558642
0.0560103
-0.617565
0.0923165
-0.670626
0.130511
-0.71639
0.170015
-0.753459
0.210164
-0.780465
0.250256
-0.796324
0.289582
-0.799957
0.327483
-0.790679
0.363203
-0.767923
0.396001
-0.731327
0.425202
-0.680988
0.45018
-0.617217
0.470369
-0.540605
0.485276
-0.452003
0.494489
-0.352507
0.497683
-0.243426
0.49463
-0.126255
0.48519
-0.00263691
0.469313
0.125673
0.447031
0.256842
0.418452
0.389003
0.383757
0.520298