# vtk DataFile Version 2.0
track0
ASCII
DATASET POLYDATA
POINTS 12000 float
-0.0205 0.001 1e-005
-0.020385 0.00100536 1.50261e-005
-0.02027 0.00101047 1.96673e-005
-0.020155 0.00101535 2.39766e-005
-0.0200399 0.00102 2.7949e-005
-0.0198621 0.00102682 3.35579e-005
-0.0196931 0.00103276 3.81026e-005
-0.0195241 0.00103808 4.16162e-005
-0.019355 0.0010428 4.41077e-005
-0.0191859 0.00104691 4.55864e-005
-0.0190172 0.00105041 4.60607e-005
-0.0187132 0.00105592 4.60607e-005
-0.0184093 0.00106078 4.60607e-005
-0.0181054 0.00106513 4.60607e-005
-0.0178014 0.00106895 4.60607e-005
-0.0174976 0.00107225 4.60607e-005
-0.0172058 0.00107512 4.60607e-005
-0.016914 0.00107792 4.60607e-005
-0.0166222 0.00108064 4.60607e-005
-0.0163305 0.0010833 4.60607e-005
-0.0160387 0.00108589 4.60607e-005
-0.0157586 0.00108828 4.60607e-005
-0.0154784 0.00109061 4.60607e-005
-0.0151983 0.00109285 4.60607e-005
-0.0149182 0.001095 4.60607e-005
-0.0146381 0.00109708 4.60607e-005
-0.0143692 0.00109895 4.60607e-005
-0.0141002 0.00110072 4.60607e-005
-0.0138313 0.00110242 4.60607e-005
-0.0135624 0.00110404 4.60607e-005
-0.0132934 0.00110558 4.60607e-005
-0.0130353 0.00110699 4.60607e-005
-0.0127771 0.00110834 4.60607e-005
-0.0125189 0.00110965 4.60607e-005
-0.0122607 0.00111092 4.60607e-005
-0.0120025 0.00111216 4.60607e-005
-0.0117547 0.00111331 4.60607e-005
-0.0115068 0.00111443 4.60607e-005
-0.0112589 0.00111555 4.60607e-005
-0.0110111 0.00111664 4.60607e-005
-0.0107632 0.00111772 4.60607e-005
-0.0105252 0.00111873 4.60607e-005
-0.0102873 0.00111973 4.60607e-005
-0.0100493 0.00112071 4.60607e-005
-0.00981133 0.00112169 4.60607e-005
-0.00957337 0.00112265 4.60607e-005
-0.00934491 0.00112356 4.60607e-005
-0.00911645 0.00112445 4.60607e-005
-0.00888799 0.00112534 4.60607e-005
-0.00865954 0.00112622 4.60607e-005
-0.00843108 0.00112709 4.60607e-005
-0.00821175 0.00112791 4.60607e-005
-0.00799242 0.00112873 4.60607e-005
-0.00777309 0.00112954 4.60607e-005
-0.00755376 0.00113035 4.60607e-005
-0.00733443 0.00113115 4.60607e-005
-0.00712387 0.00113191 4.60607e-005
-0.0069133 0.00113266 4.60607e-005
-0.00670273 0.00113342 4.60607e-005
-0.00649216 0.00113417 4.60607e-005
-0.0062816 0.00113491 4.60607e-005
-0.00607944 0.00113563 4.60607e-005
-0.00587729 0.00113634 4.60607e-005
-0.00567514 0.00113704 4.60607e-005
-0.00547298 0.00113775 4.60607e-005
-0.00527083 0.00113845 4.60607e-005
-0.00507675 0.00113912 4.60607e-005
-0.00488267 0.00113979 4.60607e-005
-0.0046886 0.00114046 4.60607e-005
-0.00449452 0.00114113 4.60607e-005
-0.00430044 0.0011418 4.60607e-005
-0.00411412 0.00114244 4.60607e-005
-0.0039278 0.00114308 4.60607e-005
-0.00374147 0.00114371 4.60607e-005
-0.00355515 0.00114435 4.60607e-005
-0.00336883 0.00114499 4.60607e-005
-0.00318995 0.0011456 4.60607e-005
-0.00301107 0.00114621 4.60607e-005
-0.00283219 0.00114682 4.60607e-005
-0.00265331 0.00114742 4.60607e-005
-0.00247443 0.00114803 4.60607e-005
-0.0023027 0.00114862 4.60607e-005
-0.00213097 0.0011492 4.60607e-005
-0.00195924 0.00114979 4.60607e-005
-0.0017875 0.00115037 4.60607e-005
-0.00161577 0.00115095 4.60607e-005
-0.0014509 0.00115152 4.60607e-005
-0.00128603 0.00115208 4.60607e-005
-0.00112116 0.00115263 4.60607e-005
-0.000956289 0.00115319 4.60607e-005
-0.000791418 0.00115376 4.60607e-005
-0.000633135 0.00115431 4.60607e-005
-0.000474851 0.00115485 4.60607e-005
-0.000316567 0.0011554 4.60607e-005
-0.000158284 0.00115594 4.60607e-005
0 0.00115649 4.60607e-005
0.000105677 0.00115686 4.60607e-005
0.000211355 0.00115723 4.60607e-005
0.000317032 0.00115759 4.60607e-005
0.00042271 0.00115796 4.60607e-005
0.000528387 0.00115833 4.60607e-005
0.000634886 0.00115871 4.60607e-005
0.000741385 0.00115909 4.60607e-005
0.000847885 0.00115946 4.60607e-005
0.000954384 0.00115984 4.60607e-005
0.00106088 0.00116022 4.60607e-005
0.00116821 0.00116062 4.60607e-005
0.00127554 0.00116101 4.60607e-005
0.00138286 0.00116139 4.60607e-005
0.00149019 0.00116177 4.60607e-005
0.00159752 0.00116216 4.60607e-005
0.00170568 0.00116255 4.60607e-005
0.00181384 0.00116294 4.60607e-005
0.001922 0.00116333 4.60607e-005
0.00203016 0.00116371 4.60607e-005
0.00213833 0.00116409 4.60607e-005
0.00224733 0.00116447 4.60607e-005
0.00235633 0.00116485 4.60607e-005
0.00246533 0.00116523 4.60607e-005
0.00257434 0.00116561 4.60607e-005
0.00268334 0.00116599 4.60607e-005
0.00279319 0.00116636 4.60607e-005
0.00290304 0.00116674 4.60607e-005
0.00301289 0.00116713 4.60607e-005
0.00312274 0.00116752 4.60607e-005
0.00323259 0.0011679 4.60607e-005
0.00334329 0.00116827 4.60607e-005
0.003454 0.00116866 4.60607e-005
0.0035647 0.00116906 4.60607e-005
0.0036754 0.00116945 4.60607e-005
0.00378611 0.00116985 4.60607e-005
0.00389767 0.00117022 4.60607e-005
0.00400924 0.00117062 4.60607e-005
0.0041208 0.00117103 4.60607e-005
0.00423237 0.00117144 4.60607e-005
0.00434393 0.00117184 4.60607e-005
0.00445636 0.00117223 4.60607e-005
0.00456879 0.00117264 4.60607e-005
0.00468123 0.00117306 4.60607e-005
0.00479366 0.00117348 4.60607e-005
0.00490609 0.0011739 4.60607e-005
0.0050194 0.00117429 4.60607e-005
0.0051327 0.00117472 4.60607e-005
0.00524601 0.00117515 4.60607e-005
0.00535931 0.00117558 4.60607e-005
0.00547262 0.00117602 4.60607e-005
0.00558681 0.00117643 4.60607e-005
0.005701 0.00117687 4.60607e-005
0.00581518 0.00117731 4.60607e-005
0.00592937 0.00117776 4.60607e-005
0.00604356 0.00117821 4.60607e-005
0.00615863 0.00117864 4.60607e-005
0.00627371 0.00117909 4.60607e-005
0.00638878 0.00117955 4.60607e-005
0.00650386 0.00118 4.60607e-005
0.00661893 0.00118046 4.60607e-005
0.0067349 0.00118091 4.60607e-005
0.00685087 0.00118138 4.60607e-005
0.00696684 0.00118184 4.60607e-005
0.00708281 0.00118231 4.60607e-005
0.00719878 0.00118279 4.60607e-005
0.00731565 0.00118325 4.60607e-005
0.00743252 0.00118373 4.60607e-005
0.00754939 0.00118421 4.60607e-005
0.00766626 0.00118469 4.60607e-005
0.00778313 0.00118517 4.60607e-005
0.00790091 0.00118565 4.60607e-005
0.00801869 0.00118614 4.60607e-005
0.00813647 0.00118663 4.60607e-005
0.00825425 0.00118713 4.60607e-005
0.00837203 0.00118762 4.60607e-005
0.00849073 0.00118811 4.60607e-005
0.00860942 0.00118861 4.60607e-005
0.00872812 0.00118912 4.60607e-005
0.00884682 0.00118962 4.60607e-005
0.00896551 0.00119013 4.60607e-005
0.00908513 0.00119063 4.60607e-005
0.00920475 0.00119114 4.60607e-005
0.00932437 0.00119166 4.60607e-005
0.00944398 0.00119217 4.60607e-005
0.0095636 0.00119268 4.60607e-005
0.00968415 0.0011932 4.60607e-005
0.0098047 0.00119372 4.60607e-005
0.00992525 0.00119424 4.60607e-005
0.0100458 0.00119476 4.60607e-005
0.0101663 0.00119528 4.60607e-005
0.0102878 0.0011958 4.60607e-005
0.0104093 0.00119633 4.60607e-005
0.0105308 0.00119685 4.60607e-005
0.0106523 0.00119738 4.60607e-005
0.0107738 0.00119791 4.60607e-005
0.0108962 0.00119843 4.60607e-005
0.0110186 0.00119896 4.60607e-005
0.0111411 0.00119948 4.60607e-005
0.0112635 0.00120001 4.60607e-005
0.0113859 0.00120053 4.60607e-005
0.0115093 0.00120105 4.60607e-005
0.0116327 0.00120158 4.60607e-005
0.0117561 0.00120211 4.60607e-005
0.0118795 0.00120263 4.60607e-005
0.0120028 0.00120315 4.60607e-005
0.0121272 0.00120366 4.60607e-005
0.0122515 0.00120418 4.60607e-005
0.0123759 0.00120469 4.60607e-005
0.0125002 0.00120521 4.60607e-005
0.0126245 0.00120571 4.60607e-005
0.0127498 0.00120621 4.60607e-005
0.0128752 0.00120671 4.60607e-005
0.0130005 0.00120721 4.60607e-005
0.0131258 0.00120771 4.60607e-005
0.0132511 0.0012082 4.60607e-005
0.0133774 0.00120867 4.60607e-005
0.0135036 0.00120915 4.60607e-005
0.0136299 0.00120963 4.60607e-005
0.0137562 0.00121009 4.60607e-005
0.0138825 0.00121056 4.60607e-005
0.0140098 0.001211 4.60607e-005
0.014137 0.00121145 4.60607e-005
0.0142643 0.00121189 4.60607e-005
0.0143915 0.00121233 4.60607e-005
0.0145188 0.00121275 4.60607e-005
0.0146471 0.00121316 4.60607e-005
0.0147753 0.00121357 4.60607e-005
0.0149036 0.00121397 4.60607e-005
0.0150318 0.00121435 4.60607e-005
0.0151601 0.00121473 4.60607e-005
0.0152893 0.00121509 4.60607e-005
0.0154186 0.00121545 4.60607e-005
0.0155478 0.00121579 4.60607e-005
0.0156771 0.00121612 4.60607e-005
0.0158063 0.00121644 4.60607e-005
0.0159366 0.00121675 4.60607e-005
0.0160668 0.00121704 4.60607e-005
0.0161971 0.00121732 4.60607e-005
0.0163274 0.00121758 4.60607e-005
0.0164576 0.00121783 4.60607e-005
0.0165088 0.00121792 4.60607e-005
0.0165599 0.00121801 4.60607e-005
0.0166111 0.00121809 4.60607e-005
0.0166623 0.00121818 4.60607e-005
0.0167111 0.00121825 4.60607e-005
0.0167916 0.00121837 4.60607e-005
0.0168722 0.00121849 4.60607e-005
0.0169528 0.0012186 4.60607e-005
0.0170334 0.0012187 4.60607e-005
0.0171139 0.0012188 4.60607e-005
0.0172462 0.00121895 4.60607e-005
0.0173785 0.00121907 4.60607e-005
0.0175108 0.00121918 4.60607e-005
0.0176431 0.00121926 4.60607e-005
0.0177754 0.00121933 4.60607e-005
0.0179087 0.00121937 4.60607e-005
0.018042 0.0012194 4.60607e-005
0.0181753 0.00121939 4.60607e-005
0.0183087 0.00121937 4.60607e-005
0.018442 0.00121932 4.60607e-005
0.0185763 0.00121926 4.60607e-005
0.0187107 0.00121916 4.60607e-005
0.018845 0.00121904 4.60607e-005
0.0189794 0.00121889 4.60607e-005
0.0191137 0.00121872 4.60607e-005
0.0192491 0.00121852 4.60607e-005
0.0193845 0.0012183 4.60607e-005
0.0195199 0.00121804 4.60607e-005
0.0196553 0.00121776 4.60607e-005
0.0197907 0.00121745 4.60607e-005
0.0199272 0.00121712 4.60607e-005
0.0200636 0.00121674 4.60607e-005
0.0202001 0.00121634 4.60607e-005
0.0203365 0.00121591 4.60607e-005
0.020473 0.00121545 4.60607e-005
0.0206105 0.00121497 4.60607e-005
0.020748 0.00121444 4.60607e-005
0.0208855 0.00121389 4.60607e-005
0.021023 0.00121329 4.60607e-005
0.0211606 0.00121267 4.60607e-005
0.0212991 0.00121203 4.60607e-005
0.0214377 0.00121134 4.60607e-005
0.0215763 0.00121061 4.60607e-005
0.0217149 0.00120985 4.60607e-005
0.0218535 0.00120905 4.60607e-005
0.0219931 0.00120825 4.60607e-005
0.0221328 0.00120737 4.60607e-005
0.0222724 0.00120647 4.60607e-005
0.0224121 0.00120552 4.60607e-005
0.0225517 0.00120454 4.60607e-005
0.0226925 0.00120355 4.60607e-005
[...]
POINT_DATA 12000
 FIELD attributes 1
U 3 12000 float
99.934 	4.66141 	4.36822 99.8155 	4.43548 	4.02801 99.6918 	4.22927 	3.73447 99.5685 	4.02169 	3.43771 99.4455 	3.81272 	3.1377 99.2559 	3.48774 	2.6692 99.0945 	3.12376 	2.05972 98.9321 	2.7615 	1.45787 98.7687 	2.40097 	0.863653 98.6044 	2.04219 	0.277107 98.419 	1.78398 	0 98.0379 	1.56918 	0 97.6774 	1.39666 	0 97.3171 	1.22444 	0 96.9568 	1.05252 	0 96.6517 	0.951253 	0 96.3548 	0.921858 	0 96.1462 	0.898192 	0 95.9377 	0.87447 	0 95.7292 	0.850693 	0 95.6196 	0.815949 	0 95.4348 	0.790847 	0 95.3332 	0.762346 	0 95.2317 	0.733789 	0 95.1302 	0.705173 	0 95.1084 	0.660346 	0 94.9606 	0.625833 	0 94.8744 	0.598605 	0 94.7882 	0.571349 	0 94.702 	0.544065 	0 94.683 	0.515256 	0 94.5413 	0.493808 	0 94.451 	0.479499 	0 94.3619 	0.465337 	0 94.2773 	0.451206 	0 94.2526 	0.4376 	0 94.1335 	0.428419 	0 94.0512 	0.421457 	0 93.9731 	0.414748 	0 93.9029 	0.407781 	0 93.8798 	0.399288 	0 93.7915 	0.393286 	0 93.7249 	0.388269 	0 93.6629 	0.383455 	0 93.6089 	0.378333 	0 93.5865 	0.372028 	0 93.5242 	0.366903 	0 93.4716 	0.362963 	0 93.422 	0.359386 	0 93.3788 	0.355652 	0 93.3537 	0.351482 	0 93.3087 	0.347379 	0 93.2665 	0.344535 	0 93.2254 	0.342208 	0 93.1886 	0.339879 	0 93.1615 	0.337548 	0 93.1295 	0.334357 	0 93.0961 	0.332382 	0 93.0621 	0.331039 	0 93.0304 	0.329816 	0 93.0026 	0.328803 	0 92.9807 	0.32602 	0 92.9551 	0.324499 	0 92.9273 	0.323784 	0 92.8996 	0.323374 	0 92.8724 	0.323407 	0 92.8586 	0.320697 	0 92.8397 	0.319366 	0 92.8171 	0.319094 	0 92.7928 	0.319384 	0 92.7666 	0.320353 	0 92.7588 	0.317483 	0 92.7453 	0.316091 	0 92.7267 	0.316046 	0 92.7049 	0.316883 	0 92.6798 	0.318627 	0 92.6764 	0.315347 	0 92.6672 	0.313751 	0 92.6518 	0.313956 	0 92.6319 	0.315536 	0 92.608 	0.318324 	0 92.608 	0.314832 	0 92.6022 	0.313003 	0 92.5893 	0.313256 	0 92.5708 	0.315253 	0 92.548 	0.318571 	0 92.5507 	0.314386 	0 92.5479 	0.312276 	0 92.5369 	0.313187 	0 92.5191 	0.316736 	0 92.4969 	0.322007 	0 92.5011 	0.318627 	0 92.5006 	0.316838 	3.3229e-020 92.4922 	0.317737 	1.22628e-019 92.4773 	0.321097 	1.08865e-019 92.4588 	0.32584 	3.71239e-020 92.4655 	0.320998 	1.62068e-018 92.467 	0.318632 	2.57973e-018 92.4598 	0.320509 	2.46789e-018 92.4454 	0.32554 	1.34743e-018 92.4264 	0.332586 	-4.17541e-019 92.4355 	0.32645 	-9.09187e-019 92.4381 	0.323936 	-1.2243e-018 92.4324 	0.326247 	-1.3043e-018 92.4199 	0.332452 	-9.39965e-019 92.402 	0.34186 	-2.09934e-019 92.4131 	0.334768 	-1.93391e-019 92.4168 	0.330352 	-1.39773e-019 92.4126 	0.328735 	-4.73529e-020 92.4021 	0.331159 	8.18526e-020 92.385 	0.33783 	2.49718e-019 92.4001 	0.333235 	7.77023e-020 92.4049 	0.328673 	-1.58004e-019 92.4012 	0.324138 	-4.46184e-019 92.3908 	0.321905 	-8.13217e-019 92.3713 	0.322767 	-1.28619e-018 92.39 	0.325496 	-2.29787e-018 92.3947 	0.3245 	-2.57602e-018 92.3904 	0.321106 	-2.38186e-018 92.3789 	0.316968 	-1.75496e-018 92.3549 	0.311537 	-3.75978e-019 92.3762 	0.323215 	1.20089e-018 92.38 	0.32631 	1.85523e-018 92.3752 	0.325151 	2.05243e-018 92.3634 	0.320647 	1.79726e-018 92.3357 	0.308471 	5.04788e-019 92.3594 	0.326477 	-1.88111e-018 92.362 	0.331493 	-2.59193e-018 92.3568 	0.331673 	-2.6793e-018 92.3454 	0.327564 	-2.21084e-018 92.3145 	0.310051 	-5.7588e-021 92.3404 	0.331528 	2.18793e-018 92.3411 	0.337055 	2.55132e-018 92.3351 	0.338301 	2.42345e-018 92.324 	0.335651 	1.94585e-018 92.2899 	0.315465 	-1.05986e-019 92.3184 	0.338123 	-1.7168e-018 92.3166 	0.343323 	-2.25574e-018 92.3094 	0.345379 	-2.60168e-018 92.2986 	0.34468 	-2.74932e-018 92.2609 	0.324098 	-1.46639e-018 92.2929 	0.345927 	-2.76121e-018 92.2882 	0.350245 	-2.71237e-018 92.2797 	0.352743 	-2.52375e-018 92.2691 	0.353886 	-2.25463e-018 92.2269 	0.334696 	-7.76957e-019 92.2638 	0.354274 	-8.17105e-019 92.2554 	0.357484 	-5.5212e-019 92.2452 	0.360073 	-2.75518e-019 92.2349 	0.362585 	6.44184e-022 92.1864 	0.345924 	1.63282e-019 92.2292 	0.362059 	0 92.2168 	0.364459 	0 92.2044 	0.36686 	0 92.192 	0.369262 	0 92.1372 	0.356664 	0 92.1854 	0.368969 	-2.11391e-020 92.17 	0.371079 	-2.97914e-019 92.1547 	0.37319 	-5.74681e-019 92.1394 	0.375301 	-8.51438e-019 92.0761 	0.36649 	-1.28707e-018 92.1311 	0.375709 	-2.13753e-018 92.1122 	0.377484 	-2.14375e-018 92.0932 	0.379259 	-2.14999e-018 92.0743 	0.381033 	-2.15626e-018 92.0002 	0.375172 	-1.34051e-018 92.0632 	0.382251 	2.66873e-019 92.0399 	0.383633 	7.04126e-019 92.0166 	0.385016 	1.14141e-018 91.9934 	0.386398 	1.57874e-018 91.9061 	0.382407 	7.20241e-019 91.9778 	0.388318 	1.65185e-018 91.9496 	0.389229 	1.65483e-018 91.9213 	0.39014 	1.65783e-018 91.893 	0.391051 	1.66084e-018 91.7905 	0.387761 	7.74271e-019 91.8714 	0.393296 	5.87069e-019 91.8373 	0.393656 	4.109e-019 91.8033 	0.394016 	2.3473e-019 91.7692 	0.394376 	5.85592e-020 91.6497 	0.39079 	0 91.7395 	0.396589 	-6.1607e-020 91.6991 	0.396336 	-2.3866e-019 91.6586 	0.396083 	-4.15713e-019 91.6182 	0.39583 	-5.92766e-019 91.4805 	0.39114 	-7.80497e-019 91.5781 	0.397586 	-1.55001e-018 91.5308 	0.39666 	-1.64557e-018 91.4835 	0.395734 	-1.74111e-018 91.4361 	0.394808 	-1.83664e-018 91.2801 	0.388469 	-1.15788e-018 91.3836 	0.395691 	-2.55027e-019 91.329 	0.394012 	-9.52301e-020 91.2744 	0.392333 	6.4527e-020 91.2198 	0.390653 	2.24244e-019 91.0465 	0.38234 	-4.53394e-019 91.1526 	0.390166 	-3.60304e-019 91.0906 	0.387647 	-2.58769e-019 91.0285 	0.385127 	-1.57237e-019 90.9664 	0.382606 	-5.57094e-020 90.778 	0.372275 	-7.18881e-020 90.8826 	0.380301 	0 90.8129 	0.376845 	0 90.7432 	0.373387 	0 90.6734 	0.369927 	0 90.4734 	0.357762 	0 90.5711 	0.365383 	6.15886e-020 90.4939 	0.360888 	1.62005e-019 90.4166 	0.356389 	2.62428e-019 90.3392 	0.351887 	3.62858e-019 90.1325 	0.338269 	4.0478e-019 90.2169 	0.344823 	-1.88444e-020 90.1322 	0.33925 	-2.94065e-021 90.0474 	0.333671 	1.30953e-020 89.9625 	0.328089 	2.92638e-020 89.7554 	0.313586 	4.13719e-019 89.8189 	0.31838 	3.70895e-019 89.7268 	0.311683 	2.81376e-019 89.6345 	0.304979 	1.91867e-019 89.5421 	0.298268 	1.02369e-019 89.3417 	0.28345 	-7.40173e-020 89.3766 	0.285585 	-2.5952e-019 89.2774 	0.277686 	-2.50921e-019 89.178 	0.269778 	-2.42154e-019 89.0784 	0.261861 	-2.33216e-019 88.8928 	0.247412 	-5.43671e-020 88.8909 	0.245983 	1.14155e-019 88.7849 	0.236771 	-2.21686e-021 88.6786 	0.227546 	-1.18801e-019 88.5722 	0.21831 	-2.35599e-019 88.4099 	0.204859 	-4.50849e-019 88.3634 	0.199111 	-3.59404e-019 88.251 	0.188504 	-3.73512e-019 88.1384 	0.177881 	-3.87884e-019 88.0255 	0.167244 	-4.0252e-019 87.8952 	0.155325 	-4.52924e-019 87.8689 	0.152092 	-4.2225e-019 87.823 	0.147435 	-3.86885e-019 87.777 	0.142775 	-3.51523e-019 87.7309 	0.138112 	-3.16164e-019 87.6869 	0.133663 	-2.82447e-019 87.6135 	0.12628 	-2.25099e-019 87.54 	0.118889 	-1.67744e-019 87.4663 	0.111491 	-1.10381e-019 87.3924 	0.104086 	-5.30114e-020 87.3 	0.0963368 	0 87.1904 	0.0830924 	0 87.0656 	0.0697088 	0 86.9403 	0.0563018 	0 86.8147 	0.0428714 	0 86.6489 	0.0293841 	5.59853e-021 86.5513 	0.0142069 	0 86.4216 	-0.000569283 	0 86.2914 	-0.0153728 	0 86.1606 	-0.0302037 	0 85.9787 	-0.0437193 	9.39944e-021 85.8862 	-0.0615828 	6.54633e-020 85.752 	-0.0776045 	1.49306e-019 85.6172 	-0.0936573 	2.33124e-019 85.4818 	-0.109741 	3.16917e-019 85.2925 	-0.122109 	4.5085e-019 85.2 	-0.143345 	1.01939e-018 85.0616 	-0.160464 	1.05463e-018 84.9226 	-0.177617 	1.09043e-018 84.783 	-0.194805 	1.1268e-018 84.5931 	-0.204972 	4.52586e-019 84.4974 	-0.230183 	2.99915e-019 84.3553 	-0.248269 	2.14054e-019 84.2125 	-0.266393 	1.28164e-019 84.069 	-0.284554 	4.22457e-020 83.8832 	-0.291626 	2.1179e-020 83.7829 	-0.321088 	3.61291e-020 83.6373 	-0.340051 	1.1303e-019 83.4911 	-0.359053 	1.89902e-019 83.3441 	-0.378096 	2.66746e-019 83.1654 	-0.381661 	2.69745e-019 83.0603 	-0.415737 	-1.20399e-019 82.912 	-0.435608 	-1.3662e-019 82.7628 	-0.45552 	-1.53145e-019 82.6129 	-0.475475 	-1.69975e-019 82.4428 	-0.475281 	2.29477e-019 82.3343 	-0.514194 	1.28097e-018 82.1838 	-0.535008 	1.37947e-018 82.0325 	-0.555865 	1.47839e-018 81.8804 	-0.576765 	1.57773e-018 81.719 	-0.572701 	6.2866e-019 81.6086 	-0.616173 	4.83371e-019 81.4565 	-0.637751 	4.74222e-019 81.3035 	-0.659374 	4.6494e-019 81.1497 	-0.680705 	4.5645e-019 80.9964 	-0.673055 	5.27562e-019 80.8826 	-0.718084 	4.43766e-019 80.7318 	-0.741853 	-1.05752e-019 80.5773 	-0.764015 	-6.91244e-019 80.4235 	-0.781678 	-1.28809e-018 80.2766 	-0.775353 	-1.94556e-018 80.1577 	-0.819256 	-3.63264e-018 80.011 	-0.846954 	-4.06721e-018 79.8554 	-0.869738 	-4.12038e-018 79.7035 	-0.884117 	-3.54905e-018 79.5613 	-0.880211 	-1.6232e-018 79.4382 	-0.923336 	-1.25691e-020 79.2954 	-0.954793 	9.40186e-019 79.139 	-0.978257 	1.44207e-018 78.9909 	-0.989648 	1.14994e-018 78.8523 	-0.98803 	3.42161e-021 78.7253 	-1.03028 	-1.12167e-018 78.5857 	-1.06511 	-1.80411e-018 78.429 	-1.08914 	-1.84442e-018 78.286 	-1.09778 	-1.21291e-018 78.1503 	-1.09841 	-2.31539e-019 78.0195 	-1.13983 	-9.96751e-020 77.8822 	-1.17772 	5.82911e-020 77.7252 	-1.20219 	3.14728e-019 77.5885 	-1.20824 	5.74658e-019 77.4554 	-1.21088 	8.35236e-019 77.3208 	-1.25133 	5.53651e-019 77.1847 	-1.29184 	2.71831e-019 77.0285 	-1.31603 	2.58185e-019 76.8979 	-1.32094 	4.52008e-019 76.767 	-1.32586 	6.45796e-019 76.6283 	-1.36593 	4.23709e-019 76.4881 	-1.40605 	2.01327e-019 76.3414 	-1.43008 	-1.28506e-019 76.2127 	-1.43648 	-3.85433e-019 76.0836 	-1.44289 	-6.42379e-019 75.9404 	-1.482 	6.44125e-019 75.7956 	-1.52117 	1.93062e-018 75.6579 	-1.54492 	2.03212e-018 75.531 	-1.55293 	9.32939e-019 75.4036 	-1.56096 	-1.66346e-019 75.2557 	-1.59943 	8.97989e-019 75.1062 	-1.63793 	1.96227e-018 74.9772 	-1.6618 	2.04426e-018 74.8515 	-1.67157 	1.1629e-018 74.7254 	-1.68136 	2.81414e-019 74.5729 	-1.72042 	1.46505e-019 74.419 	-1.75952 	1.14865e-020 74.2981 	-1.78351 	3.51321e-021 74.1727 	-1.79345 	2.3044e-019 74.0469 	-1.8034 	4.57325e-019 73.8902 	-1.84208 	2.05104e-019 73.7392 	-1.87794 	0 73.6183 	-1.90142 	0 73.4936 	-1.91556 	1.66998e-019 73.3671 	-1.92628 	3.95101e-019 73.2063 	-1.96511 	1.39939e-019 73.062 	-1.99723 	0 72.9382 	-2.02118 	0 72.8125 	-2.0397 	0 72.6847 	-2.05105 	0 72.5198 	-2.0901 	0 72.3829 	-2.11833 	0 72.2559 	-2.14253 	0 72.1279 	-2.1653 	-2.34511e-020 71.998 	-2.17681 	-2.28314e-019 71.8299 	-2.21542 	0 71.7005 	-2.23958 	0 71.5702 	-2.26376 	0 71.4389 	-2.28797 	0 71.3067 	-2.30235 	-3.14202e-019 71.147 	-2.33619 	0 71.0141 	-2.3602 	0 70.8802 	-2.38422 	0 70.7454 	-2.40827 	0 70.6098 	-2.42706 	-1.65066e-019 70.459 	-2.45606 	-6.36396e-020 70.3223 	-2.48004 	-1.64743e-019 70.1846 	-2.50403 	-2.65906e-019 70.046 	-2.52805 	-3.67131e-019 69.9066 	-2.55147 	-4.68706e-019 69.8856 	-2.55535 	-4.95483e-019 69.8664 	-2.55862 	-4.89994e-019 69.8472 	-2.56189 	-4.84497e-019 69.828 	-2.56516 	-4.78994e-019 69.809 	-2.56839 	-4.73558e-019 69.6846 	-2.58914 	-4.61897e-019 69.5594 	-2.60992 	-4.50136e-019 69.4335 	-2.63071 	-4.38274e-019 69.3068 	-2.65152 	-4.26312e-019 69.2 	-2.66872 	-4.45401e-019 69.0437 	-2.69612 	-3.42803e-019 68.8948 	-2.71973 	-2.39995e-019 68.745 	-2.74336 	-1.37121e-019 68.5942 	-2.76701 	-3.41792e-020 68.4864 	-2.78278 	0 68.3157 	-2.81402 	-8.17674e-021 68.1627 	-2.83708 	-4.58294e-020 68.0086 	-2.86017 	-8.34516e-020 67.8565 	-2.88276 	-1.21137e-019 67.7658 	-2.89433 	-1.60824e-019 67.5869 	-2.92709 	-4.42104e-019 67.4244 	-2.95199 	-6.35765e-019 67.2662 	-2.97453 	-8.02887e-019 67.1345 	-2.99211 	-8.36379e-019 67.0378 	-3.00318 	-6.94397e-019 66.8546 	-3.03488 	-4.74927e-019 66.677 	-3.06359 	-2.87883e-019 66.5149 	-3.08518 	-1.78153e-019 66.4045 	-3.09725 	-3.15526e-019 66.304 	-3.10742 	-5.0264e-019 66.1181 	-3.13769 	-5.95983e-019 65.931 	-3.16799 	-6.89274e-019 65.7759 	-3.18773 	-5.67574e-019 65.6711 	-3.19718 	-3.18715e-019 65.5658 	-3.20665 	-6.98388e-020 65.3758 	-3.23582 	-5.02615e-020 65.1846 	-3.26503 	-3.07974e-020 65.04 	-3.28392 	0 64.9314 	-3.29212 	0 64.8223 	-3.30032 	0 64.6293 	-3.32811 	0 64.4415 	-3.35475 	0 64.307 	-3.37136 	0 64.1891 	-3.38041 	0 64.0761 	-3.38715 	0 63.8803 	-3.41344 	0 63.7166 	-3.43344 	0 63.5791 	-3.44831 	0 63.4458 	-3.46105 	-2.36703e-020 63.3292 	-3.46604 	-1.32977e-019 63.1316 	-3.49036 	1.2927e-023 62.9922 	-3.50323 	1.72008e-021 62.8521 	-3.51611 	3.42806e-021 62.7115 	-3.52899 	5.13688e-021 62.5844 	-3.53552 	1.82505e-020 62.4125 	-3.55233 	1.12763e-019 62.2711 	-3.56304 	9.01627e-020 62.1291 	-3.57377 	6.74506e-020 61.9866 	-3.5845 	4.46258e-020 61.8449 	-3.59459 	1.68792e-020 61.8253 	-3.5962 	1.11386e-020 61.8089 	-3.59717 	1.7037e-020 61.7925 	-3.59814 	2.29356e-020 61.7761 	-3.59911 	2.88346e-020 61.7597 	-3.60008 	3.46993e-020 61.6306 	-3.60785 	7.05912e-020 61.501 	-3.61563 	1.06464e-019 61.371 	-3.62341 	1.42316e-019 61.2407 	-3.63121 	1.78149e-019 61.1366 	-3.63448 	2.15687e-019 60.9775 	-3.64546 	1.81265e-019 60.8305 	-3.65184 	1.7082e-019 60.6831 	-3.65822 	1.60333e-019 60.5353 	-3.66461 	1.49803e-019 60.4435 	-3.6612 	1.44245e-019 60.2742 	-3.67325 	1.29385e-019 60.1231 	-3.67854 	1.12886e-019 59.9757 	-3.68237 	9.60034e-020 59.8546 	-3.68153 	9.27529e-020 59.766 	-3.67496 	1.06252e-019 59.5977 	-3.68418 	7.88434e-020 59.4329 	-3.69198 	5.46438e-020 59.2863 	-3.69328 	4.52285e-020 59.1957 	-3.68474 	6.09412e-020 59.1076 	-3.67576 	7.77497e-020 58.941 	-3.68226 	4.74524e-020 58.774 	-3.68876 	1.71254e-020 58.6457 	-3.6864 	-9.49261e-021 58.5586 	-3.67503 	-2.97216e-020 58.4715 	-3.66366 	-4.99501e-020 58.3075 	-3.6674 	-3.39193e-020 58.1432 	-3.67114 	-1.78964e-020 58.0341 	-3.66504 	-1.78925e-021 57.946 	-3.65209 	0 57.8607 	-3.63831 	0 57.7 	-3.63924 	0 57.5666 	-3.63529 	-8.03253e-021 57.461 	-3.62641 	-2.41803e-020 57.3609 	-3.61574 	-4.03418e-020 57.2777 	-3.59963 	-5.65474e-020 57.1214 	-3.59772 	-4.38425e-020 57.0186 	-3.58635 	-4.71246e-020 56.9159 	-3.57499 	-5.04024e-020 56.8134 	-3.56363 	-5.36757e-020 56.7244 	-3.54805 	-4.90467e-020 56.602 	-3.53924 	-1.05898e-019 56.5051 	-3.526 	-9.50898e-020 56.4085 	-3.51275 	-8.42999e-020 56.312 	-3.4995 	-7.35278e-020 56.2144 	-3.48608 	-6.26277e-020 56.212 	-3.48576 	-6.22097e-020 56.2096 	-3.48544 	-6.17918e-020 56.2072 	-3.48512 	-6.13739e-020 56.2047 	-3.4848 	-6.0956e-020 56.2027 	-3.48439 	-6.18663e-020 56.1039 	-3.46913 	-5.9276e-020 56.0054 	-3.45379 	-5.65199e-020 55.9072 	-3.43844 	-5.37714e-020 55.8091 	-3.4231 	-5.10306e-020 55.727 	-3.40426 	-2.80735e-020 55.6276 	-3.39025 	-3.82121e-020 55.5329 	-3.37321 	-1.45036e-020 55.4385 	-3.35616 	9.20464e-021 55.3451 	-3.33896 	3.26521e-020 55.2798 	-3.31567 	4.48835e-020 55.1822 	-3.30146 	1.18403e-019 55.0897 	-3.28411 	1.50328e-019 54.9993 	-3.26558 	1.66566e-019 54.9232 	-3.24407 	1.15513e-019 54.8607 	-3.21975 	1.14075e-021 54.7675 	-3.20393 	1.44939e-020 54.6752 	-3.18763 	2.45074e-020 54.589 	-3.16784 	1.0176e-020 54.5287 	-3.14275 	-3.12418e-021 54.4691 	-3.11766 	-1.63975e-020 54.3802 	-3.10049 	-9.4441e-021 54.2916 	-3.08332 	-2.47804e-021 54.218 	-3.06197 	9.18533e-021 54.1607 	-3.03639 	2.88302e-020 54.1039 	-3.01081 	4.8459e-020 54.0193 	-2.99262 	3.24669e-020 53.9351 	-2.97442 	1.64663e-020 53.8724 	-2.95223 	3.6231e-020 53.8178 	-2.92655 	8.20328e-020 53.7639 	-2.90079 	1.28392e-019 53.6837 	-2.88188 	1.55447e-019 53.6119 	-2.86152 	1.65226e-019 53.5539 	-2.83876 	1.4635e-019 53.4991 	-2.81471 	1.20967e-019 53.448 	-2.78901 	8.7254e-020 53.372 	-2.76967 	1.17382e-019 53.3127 	-2.74754 	1.19318e-019 53.2578 	-2.72475 	1.14648e-019 53.2033 	-2.70196 	1.1e-019 53.1546 	-2.67674 	7.92786e-020 53.087 	-2.6565 	1.01282e-019 53.0346 	-2.63389 	9.83534e-020 52.9826 	-2.61129 	9.54457e-020 52.931 	-2.5887 	9.25589e-020 52.8824 	-2.56508 	6.91637e-020 52.8294 	-2.54551 	5.8504e-020 52.7834 	-2.52496 	4.53185e-020 52.7378 	-2.50442 	3.21234e-020 52.6926 	-2.48388 	1.89186e-020 52.6444 	-2.46178 	4.70033e-021 52.6416 	-2.46044 	3.68665e-021 52.6389 	-2.45909 	2.67301e-021 52.6361 	-2.45775 	1.65941e-021 52.6333 	-2.45641 	6.45841e-022 52.6306 	-2.45501 	6.60847e-022 52.5857 	-2.43344 	-1.15567e-020 52.5411 	-2.41181 	-2.3425e-020 52.4968 	-2.39019 	-3.53022e-020 52.453 	-2.36856 	-4.71881e-020 52.4098 	-2.34609 	-3.93712e-020 52.3705 	-2.3261 	-1.27663e-019 52.3283 	-2.30527 	-1.37545e-019 52.2864 	-2.28445 	-1.47342e-019 52.245 	-2.26364 	-1.57054e-019 52.2037 	-2.24141 	-1.89723e-020 52.1699 	-2.22297 	-4.09116e-020 52.1299 	-2.20314 	-2.70173e-020 52.0903 	-2.18333 	-1.31309e-020 52.051 	-2.16342 	1.49795e-021 52.011 	-2.14194 	2.9288e-020 51.9808 	-2.12475 	5.03061e-021 51.9445 	-2.10644 	0 51.9069 	-2.08784 	0 51.8689 	-2.06873 	0 51.8302 	-2.04876 	0 51.802 	-2.03281 	0 51.7705 	-2.01632 	9.52845e-023 51.7347 	-1.99917 	3.12521e-022 51.6975 	-1.98128 	-3.44589e-021 51.6599 	-1.96303 	-9.12231e-021 51.6335 	-1.94855 	-4.83966e-020 51.6066 	-1.93396 	-8.49961e-020 51.5723 	-1.91848 	-9.82392e-020 51.5354 	-1.90217 	-4.84623e-020 51.4987 	-1.88584 	3.52397e-021 51.4738 	-1.87305 	-9.02705e-020 51.4492 	-1.86025 	-1.84078e-019 51.4172 	-1.84667 	-1.73367e-019 51.381 	-1.83242 	-5.98167e-020 51.345 	-1.81818 	5.37147e-020 51.3214 	-1.80728 	1.19823e-019 51.298 	-1.79638 	1.85923e-019 51.2687 	-1.78491 	1.65423e-019 51.2331 	-1.77287 	6.01312e-020 51.1977 	-1.76083 	-4.51395e-020 51.1752 	-1.75197 	-7.31047e-020 51.1528 	-1.74311 	-1.01059e-019 51.1257 	-1.73383 	-1.29084e-019 51.0907 	-1.72402 	-1.5383e-019 51.0558 	-1.71421 	-1.78561e-019 51.0341 	-1.70744 	-2.42177e-019 51.0125 	-1.70066 	-3.02322e-019 50.9866 	-1.6935 	-2.73034e-019 50.9528 	-1.68589 	-1.91528e-019 50.9182 	-1.67823 	-1.04311e-019 50.8973 	-1.67351 	-6.80818e-020 50.8752 	-1.66865 	-3.49065e-020 50.8497 	-1.66348 	-9.28392e-021 50.8186 	-1.658 	6.46045e-021 50.7843 	-1.65233 	1.62901e-020 50.764 	-1.64951 	8.72047e-020 50.741 	-1.6464 	1.18014e-019 50.7158 	-1.64304 	1.13886e-019 50.6873 	-1.6395 	8.56773e-020 50.6531 	-1.6356 	1.36076e-020 50.6332 	-1.63448 	2.73068e-021 50.6092 	-1.63286 	-1.61961e-020 50.5841 	-1.63111 	-3.74204e-020 50.5582 	-1.6293 	-5.86393e-020 50.5239 	-1.62693 	-7.98068e-020 50.5042 	-1.62728 	-6.11873e-020 50.4791 	-1.62689 	-6.33576e-020 50.454 	-1.62649 	-6.55285e-020 50.4289 	-1.6261 	-6.77001e-020 50.3961 	-1.62512 	-8.55773e-020 50.3751 	-1.62649 	-6.09647e-020 50.35 	-1.6272 	-2.09783e-020 50.3248 	-1.62792 	1.9008e-020 50.2995 	-1.62863 	5.89943e-020 50.269 	-1.6289 	9.34602e-020 50.2467 	-1.63098 	1.19455e-019 50.2213 	-1.63256 	1.22609e-019 50.1959 	-1.63414 	1.25759e-019 50.1705 	-1.63572 	1.28907e-019 50.1423 	-1.63703 	1.18966e-019 50.1183 	-1.63954 	1.04912e-019 50.0927 	-1.64177 	8.44912e-020 50.0671 	-1.644 	6.40692e-020 50.0413 	-1.64622 	4.36461e-020 50.0154 	-1.64844 	2.29593e-020 50.0144 	-1.64857 	2.15254e-020 50.0132 	-1.64869 	2.06352e-020 50.0121 	-1.64881 	1.9745e-020 50.011 	-1.64892 	1.88549e-020 50.0098 	-1.64904 	1.79657e-020 49.9863 	-1.65161 	-1.8967e-022 49.9626 	-1.65418 	-1.83347e-020 49.9389 	-1.65675 	-3.64692e-020 49.9151 	-1.65931 	-5.45934e-020 49.8898 	-1.66162 	-8.96026e-020 49.8674 	-1.66489 	-1.48822e-019 49.8424 	-1.66789 	-1.58742e-019 49.8173 	-1.67088 	-1.68688e-019 49.7921 	-1.67388 	-1.78661e-019 49.7637 	-1.67629 	-9.16235e-020 49.7438 	-1.68002 	2.18657e-020 49.7185 	-1.68316 	6.69855e-020 49.6931 	-1.68629 	1.12127e-019 49.6676 	-1.68942 	1.5729e-019 49.6373 	-1.6916 	9.17161e-020 49.6198 	-1.69568 	1.81894e-019 49.5943 	-1.69877 	1.96587e-019 49.5686 	-1.70186 	2.11294e-019 49.5429 	-1.70495 	2.26017e-019 49.5103 	-1.70668 	1.10439e-019 49.495 	-1.7109 	8.13644e-020 49.4697 	-1.71387 	7.64585e-020 49.4437 	-1.71678 	7.29715e-020 49.4162 	-1.71939 	7.53635e-020 49.3828 	-1.72084 	1.01275e-019 49.3672 	-1.72486 	2.17197e-019 49.3445 	-1.72797 	2.64736e-019 49.3181 	-1.73064 	2.7823e-019 49.2883 	-1.73266 	2.19149e-019 49.2543 	-1.73391 	7.14733e-020 49.2385 	-1.73772 	6.79498e-020 49.2183 	-1.74103 	6.09762e-020 49.1914 	-1.74354 	4.85479e-020 49.1591 	-1.74512 	2.26358e-020 49.1244 	-1.7463 	-8.97775e-021 49.1082 	-1.75009 	-1.27751e-019 49.0907 	-1.75374 	-2.38883e-019 49.0632 	-1.75629 	-2.83353e-019 49.0282 	-1.75766 	-2.1