/*--------------------------------*- C++ -*----------------------------------*\
| =========                 |                                                 |
| \\      /  F ield         | OpenFOAM: The Open Source CFD Toolbox           |
|  \\    /   O peration     | Version:  5.x                                   |
|   \\  /    A nd           | Web:      www.OpenFOAM.org                      |
|    \\/     M anipulation  |                                                 |
\*---------------------------------------------------------------------------*/
/*   Windows 32 and 64 bit porting by blueCAPE: http://www.bluecape.com.pt   *\
|  Based on Windows porting (2.0.x v4) by Symscape: http://www.symscape.com   |
\*---------------------------------------------------------------------------*/
FoamFile
{
    version     2.0;
    format      ascii;
    class       volScalarField;
    location    "0.16";
    object      p;
}
// * * * * * * * * * * * * * * * * * * * * * * * * * * * * * * * * * * * * * //

dimensions      [0 2 -2 0 0 0 0];

internalField   nonuniform List<scalar> 
750
(
0.39726098
0.3974898
0.39720149
0.39706186
0.39678794
0.39651051
0.39619755
0.39586738
0.39552497
0.39517418
0.39481382
0.39445095
0.39408003
0.39369257
0.39329666
0.39287552
0.39240104
0.39188164
0.39123881
0.39034006
0.38941711
0.38686173
0.38569884
0.37688211
0.37285956
0.39726712
0.39749001
0.39720865
0.39706346
0.39679049
0.39651208
0.39619871
0.39586812
0.39552546
0.39517449
0.39481424
0.39445131
0.39408034
0.39369349
0.39329794
0.39287714
0.39240465
0.39188662
0.3912453
0.39036164
0.38941723
0.38695022
0.38566902
0.37711937
0.37303573
0.3972751
0.39749786
0.39721738
0.3970687
0.39679515
0.39651518
0.39620101
0.39586972
0.39552656
0.39517537
0.39481512
0.39445222
0.39408153
0.39369555
0.39330104
0.39288192
0.39241277
0.39189937
0.39126582
0.39039985
0.38946899
0.38706929
0.38577004
0.37737097
0.37361705
0.39728633
0.39751125
0.39722935
0.39707695
0.39680217
0.39651971
0.39620442
0.39587214
0.3955282
0.39517671
0.39481638
0.3944536
0.39408351
0.39369854
0.39330567
0.39288945
0.3924247
0.39191873
0.39129836
0.39045322
0.38955826
0.38722296
0.38599422
0.37769017
0.37440066
0.39730144
0.39752923
0.39724535
0.39708796
0.39681151
0.39652571
0.3962089
0.39587531
0.39553037
0.39517847
0.394818
0.39445541
0.39408614
0.39370235
0.39331166
0.39289929
0.39244011
0.39194408
0.39134137
0.39052212
0.38967603
0.38741607
0.38632249
0.37812974
0.37547936
0.39732049
0.3975518
0.39726548
0.39710168
0.39682311
0.39653316
0.39621444
0.3958792
0.39553304
0.39518061
0.39482002
0.39445761
0.39408927
0.39370703
0.39331898
0.39291118
0.39245871
0.3919746
0.39139276
0.39060784
0.38982408
0.38764443
0.38675458
0.37864168
0.37717908
0.39734341
0.39757932
0.39728971
0.39711804
0.39683696
0.39654203
0.39622097
0.39588381
0.39553615
0.39518311
0.39482241
0.39446016
0.3940929
0.39371256
0.39332754
0.39292508
0.39248043
0.39201006
0.3914517
0.39070888
0.39000742
0.38791213
0.38733975
0.37928674
0.37969271
0.39737002
0.39761205
0.39731803
0.39713701
0.39685299
0.39655234
0.39622845
0.39588914
0.39553968
0.39518592
0.39482518
0.3944631
0.39409706
0.39371887
0.39333731
0.39294098
0.39250504
0.39205075
0.39151777
0.39081972
0.39022498
0.38822765
0.38808437
0.38025517
0.38357025
0.39740123
0.39764842
0.39735128
0.39715849
0.39687099
0.39656433
0.39623678
0.39589512
0.39554365
0.39518898
0.39482827
0.39446635
0.39410153
0.39372591
0.39334824
0.39295847
0.39253215
0.39209577
0.39159157
0.39093669
0.3904626
0.38862909
0.38895213
0.38152874
0.38840253
0.39744169
0.39768271
0.39739283
0.39718224
0.39689078
0.39657781
0.39624573
0.3959015
0.39554799
0.39519212
0.39483141
0.39446966
0.39410611
0.39373339
0.39335964
0.39297656
0.39256148
0.39214234
0.39167046
0.3910664
0.39066611
0.38915464
0.38974
0.38331608
0.39334799
0.35123199
0.34054832
0.32462642
0.31108399
0.29644148
0.28205701
0.26753385
0.25307195
0.23860104
0.22413928
0.20967779
0.19521758
0.18075699
0.16629644
0.15183587
0.13737531
0.12291475
0.10845419
0.093993635
0.079533078
0.065072519
0.050611962
0.036151405
0.021690843
0.0072302859
0.35109198
0.34042515
0.32458913
0.31101926
0.29641899
0.28204292
0.26753277
0.25307096
0.23860095
0.22413888
0.2096777
0.19521751
0.18075699
0.16629644
0.15183587
0.13737531
0.12291475
0.10845419
0.093993635
0.079533077
0.065072519
0.050611962
0.036151405
0.021690844
0.0072302863
0.35069091
0.34049031
0.32440515
0.31092209
0.29637558
0.28201704
0.26752721
0.25306902
0.23860053
0.22413882
0.20967777
0.19521752
0.180757
0.16629644
0.15183587
0.13737531
0.12291475
0.10845419
0.093993635
0.079533077
0.065072519
0.050611962
0.036151405
0.021690844
0.007230286
0.35014689
0.34058553
0.32414919
0.31085848
0.29634324
0.2819989
0.26752263
0.25306713
0.23859979
0.22413881
0.20967791
0.19521759
0.18075701
0.16629644
0.15183586
0.13737531
0.12291475
0.10845419
0.093993635
0.079533077
0.065072519
0.050611962
0.036151405
0.021690844
0.0072302853
0.349629
0.34053303
0.32401097
0.31078203
0.2963115
0.28199147
0.26751916
0.25306557
0.23859901
0.22413876
0.20967804
0.19521765
0.18075702
0.16629644
0.15183586
0.13737531
0.12291475
0.10845419
0.093993635
0.079533077
0.065072519
0.050611962
0.036151405
0.021690845
0.0072302843
0.3489542
0.34053212
0.32392623
0.31069472
0.29627101
0.28198545
0.26751533
0.25306425
0.23859846
0.22413879
0.20967814
0.1952177
0.18075703
0.16629644
0.15183586
0.13737531
0.12291475
0.10845419
0.093993635
0.079533077
0.065072519
0.050611962
0.036151404
0.021690847
0.0072302832
0.34799962
0.3406149
0.3237454
0.31064347
0.29624206
0.28198112
0.26751138
0.25306319
0.23859829
0.22413891
0.20967822
0.19521772
0.18075702
0.16629643
0.15183586
0.13737531
0.12291475
0.10845419
0.093993635
0.079533077
0.06507252
0.050611963
0.036151404
0.021690849
0.0072302822
0.34723449
0.3405515
0.32350054
0.31063801
0.29622908
0.28198017
0.26750809
0.25306251
0.23859841
0.22413913
0.20967829
0.19521773
0.18075701
0.16629642
0.15183586
0.13737531
0.12291475
0.10845419
0.093993635
0.079533077
0.06507252
0.050611963
0.036151404
0.02169085
0.0072302819
0.34606568
0.34047445
0.32348122
0.31067607
0.2962279
0.28198202
0.26750562
0.25306204
0.23859855
0.22413945
0.20967838
0.19521773
0.18075699
0.16629642
0.15183586
0.13737531
0.12291475
0.10845419
0.093993635
0.079533077
0.06507252
0.050611963
0.036151404
0.021690851
0.0072302817
0.34177648
0.3410275
0.32347301
0.31076108
0.29620856
0.28198399
0.26750114
0.25306181
0.23859837
0.22413974
0.20967846
0.19521775
0.18075698
0.16629641
0.15183586
0.13737531
0.12291475
0.10845419
0.093993635
0.079533077
0.06507252
0.050611963
0.036151404
0.021690848
0.0072302797
0.3975455
0.39774725
0.39749335
0.3972353
0.39693341
0.39660625
0.39626462
0.39591444
0.39555686
0.39519813
0.39483737
0.39447619
0.39411536
0.39374852
0.39338168
0.39301248
0.39262364
0.39223567
0.39183047
0.39135425
0.3909949
0.39029815
0.39098669
0.3883358
0.40618796
0.39771036
0.39793913
0.39765387
0.39734553
0.3970123
0.39665957
0.39630025
0.39593807
0.39557278
0.39520989
0.39484882
0.39448845
0.39413192
0.39377553
0.39341883
0.39307364
0.39272539
0.39238108
0.39206396
0.3917184
0.3914699
0.39114483
0.39135012
0.38975378
0.39560161
0.39792773
0.39820484
0.39784502
0.39747685
0.39710167
0.39671802
0.39633785
0.39596143
0.39558873
0.39522158
0.3948592
0.39449952
0.39414629
0.39380171
0.39345718
0.39312897
0.39281762
0.39251543
0.3922651
0.39203108
0.39190996
0.39184776
0.39212248
0.39200747
0.39466286
0.39823293
0.39853534
0.39806737
0.39762176
0.39719448
0.39677662
0.39637399
0.39598174
0.39560148
0.39523052
0.39486645
0.39450841
0.39415878
0.39382023
0.39349074
0.39317502
0.39289029
0.39262687
0.39242413
0.39226859
0.39221426
0.39227196
0.39257946
0.39303305
0.39396415
0.39868948
0.39891484
0.39831536
0.39777124
0.39728202
0.39682777
0.39640385
0.39599689
0.39560943
0.3952345
0.39486941
0.39451273
0.39416619
0.3938297
0.39351091
0.39320815
0.39293818
0.39270313
0.39252931
0.39242491
0.39240983
0.39252153
0.39285915
0.39347814
0.39378119
0.39940441
0.39931246
0.39857729
0.39791263
0.39735467
0.3968646
0.396422
0.3960048
0.39561125
0.39523284
0.39486625
0.39451001
0.39416447
0.39383075
0.39351448
0.39321927
0.39295532
0.39273318
0.39256932
0.39248376
0.39248679
0.39261881
0.392923
0.39355099
0.39362875
0.4005188
0.39970162
0.39881574
0.39802342
0.39740192
0.39688305
0.39642429
0.39600206
0.39560472
0.39522464
0.39485651
0.39449949
0.39415255
0.39381816
0.3934995
0.39320256
0.39293578
0.3927108
0.39254126
0.39244898
0.39244678
0.39256647
0.39282643
0.39341293
0.39343107
0.40242116
0.39992819
0.39896092
0.39805817
0.39740122
0.39687191
0.39640765
0.39598604
0.39558915
0.39520886
0.39483986
0.39448066
0.39413044
0.39379073
0.3934649
0.39315804
0.39287815
0.3926363
0.39244563
0.39232529
0.39229612
0.3923871
0.39261444
0.39314567
0.39318457
0.40602691
0.39967651
0.39899924
0.39797691
0.39732507
0.39681209
0.39636334
0.39595092
0.3955598
0.39518193
0.39481276
0.39445045
0.39409432
0.39374495
0.39340525
0.39307933
0.39277401
0.39249926
0.39226832
0.39210041
0.39202255
0.39207669
0.39229045
0.39278719
0.39288978
0.40761886
0.3986582
0.39944729
0.39805011
0.39738881
0.39683725
0.39637395
0.39595467
0.39556033
0.3951805
0.39480989
0.39444624
0.39408858
0.39373724
0.3933949
0.3930652
0.3927546
0.39247193
0.39222978
0.39204825
0.39195372
0.39199057
0.39216364
0.39261638
0.39275319
)
;

boundaryField
{
    inlet
    {
        type            zeroGradient;
    }
    walls
    {
        type            zeroGradient;
    }
    outlet
    {
        type            fixedValue;
        value           uniform 0;
    }
    centreline
    {
        type            symmetryPlane;
    }
    frontAndBack
    {
        type            empty;
    }
}


// ************************************************************************* //
