/*--------------------------------*- C++ -*----------------------------------*\
| =========                 |                                                 |
| \\      /  F ield         | OpenFOAM: The Open Source CFD Toolbox           |
|  \\    /   O peration     | Version:  5.x                                   |
|   \\  /    A nd           | Web:      www.OpenFOAM.org                      |
|    \\/     M anipulation  |                                                 |
\*---------------------------------------------------------------------------*/
/*   Windows 32 and 64 bit porting by blueCAPE: http://www.bluecape.com.pt   *\
|  Based on Windows porting (2.0.x v4) by Symscape: http://www.symscape.com   |
\*---------------------------------------------------------------------------*/
FoamFile
{
    version     2.0;
    format      ascii;
    class       surfaceScalarField;
    location    "0.16";
    object      phi;
}
// * * * * * * * * * * * * * * * * * * * * * * * * * * * * * * * * * * * * * //

dimensions      [0 3 -1 0 0 0 0];

internalField   nonuniform List<scalar> 
1430
(
5.1284002e-006
-1.2711986e-007
5.287889e-006
-1.5948879e-007
5.4440883e-006
-1.561993e-007
5.577473e-006
-1.3338477e-007
5.6884498e-006
-1.1097679e-007
5.7766222e-006
-8.8172439e-008
5.847268e-006
-7.0645719e-008
5.9051019e-006
-5.7833963e-008
5.9550583e-006
-4.9956374e-008
6.0020075e-006
-4.6949248e-008
6.051162e-006
-4.9154484e-008
6.1087389e-006
-5.7576876e-008
6.1819674e-006
-7.3228491e-008
6.2807831e-006
-9.8815778e-008
6.4194699e-006
-1.3868681e-007
6.6179241e-006
-1.9845414e-007
6.9074107e-006
-2.8948658e-007
7.339409e-006
-4.3199831e-007
7.9997039e-006
-6.6029489e-007
9.0425937e-006
-1.0428898e-006
1.0649428e-005
-1.6068346e-006
1.3115193e-005
-2.4657644e-006
1.6554772e-005
-3.4395797e-006
2.094497e-005
-4.3901971e-006
-4.8776098e-006
2.5822579e-005
5.1275485e-006
-2.5338802e-007
5.2900387e-006
-3.2197899e-007
5.444878e-006
-3.1103861e-007
5.5790353e-006
-2.675421e-007
5.6895785e-006
-2.2152e-007
5.7776374e-006
-1.7623134e-007
5.8479968e-006
-1.4100517e-007
5.9055306e-006
-1.1536775e-007
5.9551622e-006
-9.9587927e-008
6.0017914e-006
-9.3578457e-008
6.050545e-006
-9.7908157e-008
6.1076254e-006
-1.1465727e-007
6.1802186e-006
-1.4582168e-007
6.2780735e-006
-1.9667064e-007
6.4153672e-006
-2.7598052e-007
6.6117899e-006
-3.9487686e-007
6.8978899e-006
-5.7558658e-007
7.3245087e-006
-8.586171e-007
7.9762459e-006
-1.3120321e-006
9.0002399e-006
-2.0668839e-006
1.0587457e-005
-3.1940521e-006
1.2988022e-005
-4.8663292e-006
1.6390848e-005
-6.8424054e-006
2.0654461e-005
-8.6538101e-006
-9.773094e-006
2.5549945e-005
5.1285862e-006
-3.8069393e-007
5.2918752e-006
-4.8526797e-007
5.4474733e-006
-4.6663666e-007
5.5816924e-006
-4.0176127e-007
5.6919956e-006
-3.3182319e-007
5.7796253e-006
-2.6386101e-007
5.8494494e-006
-2.1082932e-007
5.9063979e-006
-1.7231627e-007
5.9554023e-006
-1.4859229e-007
6.0013593e-006
-1.3953545e-007
6.0493562e-006
-1.4590503e-007
6.1054664e-006
-1.7076749e-007
6.1767382e-006
-2.1709353e-007
6.272754e-006
-2.926864e-007
6.4073107e-006
-4.1053722e-007
6.5995411e-006
-5.8710727e-007
6.879141e-006
-8.5518651e-007
7.29512e-006
-1.2745961e-006
7.9288408e-006
-1.9457529e-006
8.9211784e-006
-3.0592214e-006
1.0451926e-005
-4.7247995e-006
1.2765529e-005
-7.1799323e-006
1.6031677e-005
-1.0108554e-005
2.0151558e-005
-1.2773691e-005
-1.4517909e-005
2.4896372e-005
5.1300742e-006
-5.0948778e-007
5.2946806e-006
-6.4987441e-007
5.451331e-006
-6.2328709e-007
5.5856919e-006
-5.3612217e-007
5.6956509e-006
-4.4178213e-007
5.7826173e-006
-3.5082748e-007
5.8516228e-006
-2.7983478e-007
5.9076959e-006
-2.2838945e-007
5.9557659e-006
-1.9666224e-007
6.0007198e-006
-1.8448934e-007
6.0475782e-006
-1.9276343e-007
6.1022505e-006
-2.2543983e-007
6.1715742e-006
-2.8641726e-007
6.2648439e-006
-3.8595607e-007
6.3953479e-006
-5.4104128e-007
6.5813906e-006
-7.7314992e-007
6.8513467e-006
-1.1251427e-006
7.2516994e-006
-1.6749488e-006
7.8586711e-006
-2.5527246e-006
8.8037032e-006
-4.0042535e-006
1.0252806e-005
-6.1739027e-006
1.2437037e-005
-9.364163e-006
1.5496764e-005
-1.316828e-005
1.9388072e-005
-1.6664998e-005
-1.9012768e-005
2.3882931e-005
5.1320654e-006
-6.402729e-007
5.2984286e-006
-8.1623752e-007
5.4564955e-006
-7.8135408e-007
5.5910546e-006
-6.7068119e-007
5.7005541e-006
-5.5128169e-007
5.7866148e-006
-4.3688819e-007
5.8545097e-006
-3.4772965e-007
5.9094132e-006
-2.8329302e-007
5.9562475e-006
-2.434965e-007
5.999873e-006
-2.2811483e-007
6.0452198e-006
-2.3811028e-007
6.0979972e-006
-2.7821721e-007
6.1647709e-006
-3.5319101e-007
6.2544382e-006
-4.7562329e-007
6.3796462e-006
-6.6624932e-007
6.5576125e-006
-9.5111621e-007
6.8149455e-006
-1.3824757e-006
7.1948966e-006
-2.0548999e-006
7.7667145e-006
-3.1245425e-006
8.6512467e-006
-4.8887857e-006
9.9943619e-006
-7.5170179e-006
1.2006326e-005
-1.1376127e-005
1.4790498e-005
-1.5952453e-005
1.8370409e-005
-2.0244909e-005
-2.3152127e-005
2.2509768e-005
5.1346177e-006
-7.7361033e-007
5.3031705e-006
-9.847903e-007
5.4630557e-006
-9.4123927e-007
5.5978734e-006
-8.0549891e-007
5.7067703e-006
-6.6017851e-007
5.7916666e-006
-5.2178453e-007
5.8581526e-006
-4.1421567e-007
5.9115912e-006
-3.3673156e-007
5.9568899e-006
-2.8879525e-007
5.9988663e-006
-2.7009122e-007
6.0423444e-006
-2.8158836e-007
6.0927883e-006
-3.2866115e-007
6.1564308e-006
-4.1683356e-007
6.241667e-006
-5.6085944e-007
6.3603831e-006
-7.849654e-007
6.5285042e-006
-1.1192373e-006
6.7704511e-006
-1.6244226e-006
7.1256558e-006
-2.4101046e-006
7.6551738e-006
-3.6540605e-006
8.466537e-006
-5.7001488e-006
9.6797858e-006
-8.7302667e-006
1.1480407e-005
-1.3176748e-005
1.3922953e-005
-1.8394999e-005
1.7108136e-005
-2.3430093e-005
-2.6850964e-005
2.0806973e-005
5.1378209e-006
-9.1015091e-007
5.3090243e-006
-1.1559937e-006
5.4711689e-006
-1.1033839e-006
5.6063183e-006
-9.4064829e-007
5.7144298e-006
-7.6829001e-007
5.7978804e-006
-6.0523511e-007
5.8626553e-006
-4.7899064e-007
5.9143219e-006
-3.8839811e-007
5.9577929e-006
-3.3226625e-007
5.9978111e-006
-3.1010944e-007
6.0390699e-006
-3.2284716e-007
6.0867628e-006
-3.7635406e-007
6.1467141e-006
-4.7678486e-007
6.2267476e-006
-6.4089294e-007
6.3378598e-006
-8.9607761e-007
6.4945302e-006
-1.2759078e-006
6.7186415e-006
-1.8485339e-006
7.0451694e-006
-2.7366326e-006
7.5260833e-006
-4.1349743e-006
8.2528156e-006
-6.4268812e-006
9.3148935e-006
-9.7923445e-006
1.0867828e-005
-1.4729682e-005
1.2898388e-005
-2.0425559e-005
1.5638004e-005
-2.6169708e-005
-2.9930073e-005
1.8717113e-005
5.1418516e-006
-1.0507222e-006
5.3161984e-006
-1.3303405e-006
5.4811041e-006
-1.2682896e-006
5.61665e-006
-1.0761941e-006
5.7237366e-006
-8.7537666e-007
5.8054458e-006
-6.8694424e-007
5.8681926e-006
-5.4173748e-007
5.9177602e-006
-4.3796574e-007
5.959125e-006
-3.7363103e-007
5.996899e-006
-3.4788343e-007
6.0355894e-006
-3.615376e-007
6.080119e-006
-4.2088361e-007
6.1358744e-006
-5.3254027e-007
6.2100273e-006
-7.1504583e-007
6.3125136e-006
-9.9856397e-007
6.4563112e-006
-1.4197054e-006
6.660467e-006
-2.0526896e-006
6.9549476e-006
-3.0311132e-006
7.3823136e-006
-4.5623404e-006
8.0146458e-006
-7.0592133e-006
8.9070964e-006
-1.0684795e-005
1.0180558e-005
-1.6003144e-005
1.1760145e-005
-2.2005146e-005
1.4010026e-005
-2.841959e-005
-3.2040762e-005
1.6120715e-005
5.1470207e-006
-1.1964626e-006
5.3249597e-006
-1.5082795e-006
5.4932244e-006
-1.4365543e-006
5.629194e-006
-1.2121638e-006
5.734956e-006
-9.8113861e-007
5.8146234e-006
-7.6661166e-007
5.8749937e-006
-6.0210773e-007
5.9221292e-006
-4.8510131e-007
5.9610996e-006
-4.1260138e-007
5.9963494e-006
-3.8313327e-007
6.0321607e-006
-3.9734894e-007
6.073154e-006
-4.6187684e-007
6.1242547e-006
-5.83641e-007
6.1919296e-006
-7.8272072e-007
6.2849028e-006
-1.0915372e-006
6.4145661e-006
-1.5493687e-006
6.5970505e-006
-2.235174e-006
6.8568481e-006
-3.2909108e-006
7.2261657e-006
-4.931658e-006
7.7569499e-006
-7.5899975e-006
8.4659317e-006
-1.1393777e-005
9.4370723e-006
-1.6974284e-005
1.0523257e-005
-2.309133e-005
1.2228323e-005
-3.0124656e-005
-3.2789834e-005
1.2977395e-005
5.1527462e-006
-1.3479285e-006
5.3364256e-006
-1.6919588e-006
5.5077681e-006
-1.6078969e-006
5.6443754e-006
-1.3487711e-006
5.7484098e-006
-1.085173e-006
5.8256906e-006
-8.4389248e-007
5.8832955e-006
-6.5971262e-007
5.9276813e-006
-5.2948715e-007
5.9639383e-006
-4.4885834e-007
5.9963901e-006
-4.1558513e-007
6.029054e-006
-4.300128e-007
6.0661927e-006
-4.9901558e-007
6.112226e-006
-6.2967422e-007
6.1728792e-006
-8.4337401e-007
6.2555983e-006
-1.1742562e-006
6.3699832e-006
-1.6637537e-006
6.5292826e-006
-2.3944734e-006
6.7524048e-006
-3.5140329e-006
7.0603407e-006
-5.239594e-006
7.4844616e-006
-8.0141184e-006
8.0118105e-006
-1.1921126e-005
8.647506e-006
-1.760998e-005
9.1889329e-006
-2.3632757e-005
1.0020262e-005
-3.0955985e-005
8.7674213e-006
-3.1536993e-005
2.8407408e-005
-2.5848287e-006
2.9231707e-005
-8.2429897e-007
2.9293877e-005
-6.2170372e-008
2.9191839e-005
1.0203867e-007
2.9090012e-005
1.0182613e-007
2.9029433e-005
6.0579467e-008
2.9014005e-005
1.5427505e-008
2.9016878e-005
-2.8728614e-009
2.9021301e-005
-4.422685e-009
2.9022888e-005
-1.5869171e-009
2.9022855e-005
3.3374231e-011
2.9022579e-005
2.7525839e-010
2.9022496e-005
8.3699028e-011
2.9022513e-005
-1.7399531e-011
2.9022533e-005
-1.9991531e-011
2.9022537e-005
-4.1065697e-012
2.9022535e-005
1.6257557e-012
2.9022534e-005
1.3380519e-012
2.9022534e-005
4.6793955e-013
2.9022534e-005
1.6603622e-013
2.9022533e-005
6.3812718e-014
2.9022534e-005
-3.0104591e-013
2.9022535e-005
-8.6783229e-013
2.9022537e-005
-2.2985609e-012
-2.0492768e-012
2.7923148e-005
-4.9580311e-006
2.8721386e-005
-1.6225368e-006
2.8769031e-005
-1.0981552e-007
2.8681361e-005
1.8970797e-007
2.8586626e-005
1.96561e-007
2.8539767e-005
1.0743902e-007
2.8529474e-005
2.5720024e-008
2.8533045e-005
-6.4437841e-009
2.85367e-005
-8.0770385e-009
2.8537834e-005
-2.7212853e-009
2.8537697e-005
1.7028343e-010
2.8537458e-005
5.1461734e-010
2.8537399e-005
1.4237418e-010
2.8537421e-005
-3.9088024e-011
2.8537437e-005
-3.6752533e-011
2.853744e-005
-6.7997198e-012
2.8537439e-005
3.1990805e-012
2.8537438e-005
2.4151623e-012
2.8537437e-005
6.9318259e-013
2.8537437e-005
1.9569958e-013
2.8537437e-005
1.9544761e-013
2.8537437e-005
-5.599919e-013
2.8537438e-005
-1.7958689e-012
2.8537441e-005
-4.9582243e-012
-4.6133942e-012
2.6997288e-005
-7.0589467e-006
2.7679374e-005
-2.304623e-006
2.7720692e-005
-1.5113358e-007
2.7632055e-005
2.7834464e-007
2.756466e-005
2.6395635e-007
2.7543711e-005
1.2838768e-007
2.754252e-005
2.6911257e-008
2.7546452e-005
-1.0376092e-008
2.7548745e-005
-1.0369279e-008
2.7549129e-005
-3.1052488e-009
2.7548867e-005
4.3136034e-010
2.75487e-005
6.8255862e-010
2.7548685e-005
1.5716171e-010
2.7548709e-005
-6.3370256e-011
2.754872e-005
-4.7544704e-011
2.754872e-005
-7.3201327e-012
2.7548719e-005
4.6142354e-012
2.7548718e-005
2.9893906e-012
2.7548718e-005
6.3275317e-013
2.7548719e-005
9.0375314e-014
2.7548718e-005
2.810044e-013
2.7548718e-005
-5.0632782e-013
2.7548719e-005
-2.4859817e-012
2.7548722e-005
-8.2108938e-012
-7.6793241e-012
2.5605291e-005
-8.7813068e-006
2.610581e-005
-2.8051417e-006
2.609682e-005
-1.4214385e-007
2.6030951e-005
3.4421386e-007
2.6008771e-005
2.8613586e-007
2.6013665e-005
1.2349375e-007
2.6019841e-005
2.0735631e-008
2.60231e-005
-1.3634888e-008
2.6023673e-005
-1.0942611e-008
2.6023304e-005
-2.7364896e-009
2.6022987e-005
7.4869198e-010
2.6022925e-005
7.4431435e-010
2.6022954e-005
1.284266e-010
2.6022974e-005
-8.3757771e-011
2.6022977e-005
-5.0417585e-011
2.6022976e-005
-5.6848881e-012
2.6022975e-005
5.4996499e-012
2.6022975e-005
2.966532e-012
2.6022975e-005
5.2246008e-013
2.6022975e-005
2.4824962e-014
2.6022975e-005
1.9003681e-013
2.6022975e-005
-2.3951557e-013
2.6022975e-005
-2.7874789e-012
2.6022978e-005
-1.1535476e-011
-1.0771848e-011
2.3717838e-005
-9.9893762e-006
2.3926576e-005
-3.0138802e-006
2.3868564e-005
-8.4131084e-008
2.3865247e-005
3.4753027e-007
2.3887059e-005
2.6432423e-007
2.3908975e-005
1.0157774e-007
2.3918394e-005
1.1316002e-008
2.3919798e-005
-1.5038558e-008
2.3918686e-005
-9.8307688e-009
2.3917816e-005
-1.8667723e-009
2.3917585e-005
9.7978356e-010
2.3917645e-005
6.8503965e-010
2.39177e-005
7.2969201e-011
2.3917709e-005
-9.255377e-011
2.3917704e-005
-4.5066065e-011
2.3917701e-005
-2.7128674e-012
2.3917701e-005
5.549182e-012
2.3917701e-005
2.4644068e-012
2.3917701e-005
3.9569433e-013
2.3917701e-005
4.5261137e-014
2.3917701e-005
1.4206252e-013
2.3917701e-005
3.6507898e-015
2.3917701e-005
-2.8214906e-012
2.3917703e-005
-1.3842298e-011
-1.2911058e-011
2.1270927e-005
-1.045333e-005
2.1096222e-005
-2.839175e-006
2.1042266e-005
-3.0175512e-008
2.1100612e-005
2.8918469e-007
2.1153261e-005
2.1167447e-007
2.1183662e-005
7.1177512e-008
2.1192346e-005
2.6310633e-009
2.1191209e-005
-1.3900788e-008
2.1188845e-005
-7.4665968e-009
2.1187877e-005
-8.9922573e-010
2.1187856e-005
1.0010834e-009
2.1188014e-005
5.2678975e-010
2.118807e-005
1.686002e-011
2.1188062e-005
-8.4938033e-011
2.1188051e-005
-3.3573949e-011
2.1188048e-005
2.0344469e-013
2.1188049e-005
4.7744874e-012
2.118805e-005
1.7283973e-012
2.118805e-005
1.9256652e-013
2.118805e-005
3.6660209e-014
2.118805e-005
1.766239e-013
2.1188049e-005
2.3151951e-013
2.1188049e-005
-2.5301898e-012
2.1188049e-005
-1.4066323e-011
-1.3123548e-011
1.8166415e-005
-9.9026327e-006
1.7631822e-005
-2.3045818e-006
1.7606264e-005
-4.6172713e-009
1.769715e-005
1.982986e-007
1.7764434e-005
1.4439036e-007
1.7795056e-005
4.0555261e-008
1.7800271e-005
-2.583194e-009
1.7796841e-005
-1.0470972e-008
1.7793984e-005
-4.6100616e-009
1.7793283e-005
-1.9838435e-010
1.7793491e-005
7.9348276e-010
1.7793693e-005
3.2520252e-010
1.7793727e-005
-1.7809006e-011
1.7793705e-005
-6.2572451e-011
1.7793691e-005
-1.9943697e-011
1.779369e-005
1.8542706e-012
1.7793691e-005
3.3816078e-012
1.7793692e-005
9.8646306e-013
1.7793692e-005
3.7284276e-014
1.7793692e-005
9.4326626e-015
1.7793692e-005
1.9675228e-013
1.7793692e-005
3.6472715e-013
1.7793691e-005
-1.9117082e-012
1.7793689e-005
-1.1691858e-011
-1.0960766e-011
1.4307514e-005
-8.0894314e-006
1.353408e-005
-1.5311478e-006
1.3526846e-005
2.6164668e-009
1.3620482e-005
1.0466268e-007
1.3687692e-005
7.7179977e-008
1.3711706e-005
1.6541706e-008
1.371272e-005
-3.5976603e-009
1.3708165e-005
-5.9158158e-009
1.3705655e-005
-2.1002775e-009
1.3705363e-005
9.3717726e-011
1.3705705e-005
4.519397e-010
1.3705885e-005
1.4465904e-010
1.3705891e-005
-2.4036629e-011
1.3705863e-005
-3.3771735e-011
1.3705851e-005
-8.4088343e-012
1.3705851e-005
1.8583777e-012
1.3705853e-005
1.7909674e-012
1.3705853e-005
4.1205004e-013
1.3705853e-005
-1.9243307e-014
1.3705853e-005
5.1464153e-015
1.3705853e-005
1.61041e-013
1.3705853e-005
3.3251245e-013
1.3705852e-005
-1.0628681e-012
1.3705848e-005
-7.2173625e-012
-6.8876919e-012
9.6685495e-006
-4.7805855e-006
8.7845347e-006
-6.4713292e-007
8.7781074e-006
9.0437118e-009
8.8520787e-006
3.0691365e-008
8.9045276e-006
2.4731038e-008
8.9183207e-006
2.7486094e-009
8.9164441e-006
-1.721076e-009
8.9124431e-006
-1.9148207e-009
8.9108457e-006
-5.0284807e-010
8.9108653e-006
7.4127885e-011
8.9111805e-006
1.3670248e-010
8.9112938e-006
3.1386081e-011
8.9112811e-006
-1.1335185e-011
8.9112571e-006
-9.7391393e-012
8.9112503e-006
-1.6391028e-012
8.9112513e-006
8.1873213e-013
8.9112526e-006
5.1851587e-013
8.9112529e-006
9.2466844e-014
8.9112529e-006
-1.2153566e-014
8.9112529e-006
6.8673109e-015
8.911253e-006
7.6694773e-014
8.9112531e-006
1.7200504e-013
8.9112523e-006
-2.7642441e-013
8.9112475e-006
-2.4336564e-012
-2.4400414e-012
3.9868358e-006
3.3397028e-006
3.3487465e-006
3.3794379e-006
3.4041689e-006
3.4069175e-006
3.4051964e-006
3.4032816e-006
3.4027788e-006
3.4028529e-006
3.4029896e-006
3.403021e-006
3.4030097e-006
3.4029999e-006
3.4029983e-006
3.4029991e-006
3.4029996e-006
3.4029997e-006
3.4029997e-006
3.4029997e-006
3.4029997e-006
3.4029999e-006
3.4029996e-006
3.4029972e-006
1.5483897e-005
-1.8279845e-006
1.6107025e-005
-2.3150871e-006
1.6629067e-005
-2.1299389e-006
1.704195e-005
-1.7616542e-006
1.734182e-005
-1.3850423e-006
1.7556256e-005
-1.0583291e-006
1.7709822e-005
-8.1327865e-007
1.7824689e-005
-6.4435397e-007
1.7915251e-005
-5.3941978e-007
1.7994373e-005
-4.9470794e-007
1.8072e-005
-5.0763929e-007
1.8158122e-005
-5.8513805e-007
1.8263853e-005
-7.3540464e-007
1.8400515e-005
-9.8003636e-007
1.8582929e-005
-1.35667e-006
1.883064e-005
-1.9114649e-006
1.9161336e-005
-2.7251691e-006
1.9601082e-005
-3.9537788e-006
2.0160044e-005
-5.7985561e-006
2.0790989e-005
-8.6450633e-006
2.1405756e-005
-1.2535893e-005
2.1333373e-005
-1.7537596e-005
1.9781238e-005
-2.2080623e-005
1.4585219e-005
-2.5759966e-005
-1.6951774e-005
1.5599697e-005
-2.4238405e-006
1.631868e-005
-3.0340702e-006
1.6885053e-005
-2.6963115e-006
1.729035e-005
-2.1669517e-006
1.7559789e-005
-1.654481e-006
1.7734353e-005
-1.2328932e-006
1.784835e-005
-9.2727634e-007
1.7926567e-005
-7.2257081e-007
1.7983179e-005
-5.9603182e-007
1.8028313e-005
-5.3984172e-007
1.8069186e-005
-5.4851196e-007
1.8111228e-005
-6.2718065e-007
1.8160233e-005
-7.8440944e-007
1.8220508e-005
-1.0403108e-006
1.8294577e-005
-1.4307392e-006
1.8386173e-005
-2.0030608e-006
1.8488587e-005
-2.8275833e-006
1.8585534e-005
-4.050726e-006
1.8626824e-005
-5.8398464e-006
1.8474374e-005
-8.4926125e-006
1.7912312e-005
-1.1973831e-005
1.6328134e-005
-1.5953419e-005
1.3118144e-005
-1.8870633e-005
6.8446965e-006
-1.9486519e-005
-1.0107077e-005
1.5791459e-005
-3.2114583e-006
1.663319e-005
-3.8758019e-006
1.72313e-005
-3.2944215e-006
1.7608846e-005
-2.5444977e-006
1.7825716e-005
-1.8713509e-006
1.7943391e-005
-1.3505682e-006
1.8005414e-005
-9.8929936e-007
1.8038041e-005
-7.5519779e-007
1.8054273e-005
-6.1226313e-007
1.8060771e-005
-5.4634027e-007
1.8061255e-005
-5.4899572e-007
1.8056449e-005
-6.2237442e-007
1.8045857e-005
-7.7381829e-007
1.8026616e-005
-1.0210694e-006
1.7990958e-005
-1.3950813e-006
1.792931e-005
-1.941413e-006
1.7817621e-005
-2.7158938e-006
1.7607512e-005
-3.8406166e-006
1.7215352e-005
-5.4476864e-006
1.6450973e-005
-7.7282336e-006
1.5070797e-005
-1.0593655e-005
1.2629899e-005
-1.3512521e-005
8.8804456e-006
-1.512118e-005
3.5147787e-006
-1.4120852e-005
-6.5922987e-006
1.606137e-005
-4.2689873e-006
1.6999166e-005
-4.8135984e-006
1.7572771e-005
-3.8680262e-006
1.7874471e-005
-2.8461976e-006
1.8005879e-005
-2.0027586e-006
1.8045714e-005
-1.3904037e-006
1.8043135e-005
-9.8671956e-007
1.802281e-005
-7.3487283e-007
1.7994933e-005
-5.8438697e-007
1.7961431e-005
-5.1283816e-007
1.7921331e-005
-5.0889589e-007
1.7870027e-005
-5.7107019e-007
1.7801468e-005
-7.0525902e-007
1.7706674e-005
-9.2627567e-007
1.7570483e-005
-1.2588901e-006
1.737e-005
-1.7409296e-006
1.7071989e-005
-2.4178827e-006
1.6608011e-005
-3.3766388e-006
1.5880787e-005
-4.7204623e-006
1.4705248e-005
-6.5526947e-006
1.2866721e-005
-8.755128e-006
1.012276e-005
-1.0768561e-005
6.5010393e-006
-1.1499458e-005
2.2550561e-006
-9.8748683e-006
-4.3372425e-006
1.6349946e-005
-5.6150922e-006
1.7247138e-005
-5.7107902e-006
1.7671004e-005
-4.2918922e-006
1.7814495e-005
-2.9896887e-006
1.78157e-005
-2.0039643e-006
1.7755825e-005
-1.3305278e-006
1.7679491e-005
-9.1038619e-007
1.7603494e-005
-6.5887611e-007
1.7531927e-005
-5.1281935e-007
1.7460896e-005
-4.4180777e-007
1.7383934e-005
-4.3193338e-007
1.7291864e-005
-4.790002e-007
1.7174704e-005
-5.880989e-007
1.7017239e-005
-7.6881135e-007
1.6799062e-005
-1.0407122e-006
1.6488712e-005
-1.4305796e-006
1.6046347e-005
-1.9755185e-006
1.5400589e-005
-2.7308805e-006
1.4450469e-005
-3.7703418e-006
1.3035665e-005
-5.1378913e-006
1.0991992e-005
-6.7114547e-006
8.2311412e-006
-8.0077099e-006
4.9308934e-006
-8.1992105e-006
1.6205509e-006
-6.5645258e-006
-2.7166916e-006
1.6512073e-005
-7.1233241e-006
1.7097257e-005
-6.2959742e-006
1.7180338e-005
-4.3749736e-006
1.7059762e-005
-2.8691124e-006
1.6883428e-005
-1.8276305e-006
1.6709342e-005
-1.1564415e-006
1.6558222e-005
-7.5926698e-007
1.6431195e-005
-5.3184815e-007
1.6322519e-005
-4.0414385e-007
1.6221963e-005
-3.4125172e-007
1.6118207e-005
-3.2817775e-007
1.5998799e-005
-3.5959228e-007
1.5849363e-005
-4.3866279e-007
1.5651599e-005
-5.7104723e-007
1.5381233e-005
-7.7034657e-007
1.5005508e-005
-1.0548543e-006
1.4480154e-005
-1.4501643e-006
1.3739566e-005
-1.9902928e-006
1.2690409e-005
-2.7211851e-006
1.1207703e-005
-3.6551844e-006
9.1773251e-006
-4.6810772e-006
6.6101258e-006
-5.4405105e-006
3.7684342e-006
-5.3575189e-006
1.1992161e-006
-3.9953076e-006
-1.5174755e-006
1.634696e-005
-8.4664435e-006
1.6224859e-005
-6.1738728e-006
1.5766044e-005
-3.9161586e-006
1.5297151e-005
-2.4002192e-006
1.4917814e-005
-1.4482935e-006
1.4634053e-005
-8.7268033e-007
1.4422693e-005
-5.4790709e-007
1.42607e-005
-3.6985592e-007
1.413032e-005
-2.7376308e-007
1.4015258e-005
-2.2618973e-007
1.3900774e-005
-2.136937e-007
1.3772626e-005
-2.3144442e-007
1.3614091e-005
-2.8012803e-007
1.3406792e-005
-3.6374797e-007
1.3125986e-005
-4.8954081e-007
1.274032e-005
-6.6918783e-007
1.2207564e-005
-9.1740916e-007
1.1471163e-005
-1.2538915e-006
1.0453429e-005
-1.7034508e-006
9.063017e-006
-2.2647725e-006
7.2355207e-006
-2.8535809e-006
5.0352319e-006
-3.2402217e-006
2.7436998e-006
-3.0659867e-006
8.3941876e-007
-2.0910265e-006
-6.780567e-007
1.5503807e-005
-8.9664099e-006
1.4264784e-005
-4.9348499e-006
1.3182358e-005
-2.8337325e-006
1.2382226e-005
-1.6000871e-006
1.1845217e-005
-9.1128432e-007
1.1494512e-005
-5.2197578e-007
1.125923e-005
-3.1262436e-007
1.1091751e-005
-2.0237691e-007
1.096321e-005
-1.4522236e-007
1.0854082e-005
-1.1706176e-007
1.0748895e-005
-1.0850682e-007
1.0633457e-005
-1.1600678e-007
1.0492626e-005
-1.3929711e-007
1.0309604e-005
-1.8072552e-007
1.0063201e-005
-2.4313774e-007
9.726378e-006
-3.3236491e-007
9.2641354e-006
-4.5516653e-007
8.6316313e-006
-6.2138738e-007
7.7703552e-006
-8.4217469e-007
6.6179556e-006
-1.1123729e-006
5.1483836e-006
-1.3840089e-006
3.4460216e-006
-1.5378597e-006
1.7737321e-006
-1.3936972e-006
5.0950143e-007
-8.2679577e-007
-1.6855525e-007
1.3305697e-005
-7.2682663e-006
1.0870375e-005
-2.499528e-006
9.2890501e-006
-1.2524071e-006
8.3370955e-006
-6.4813249e-007
7.7774705e-006
-3.5165934e-007
7.4475768e-006
-1.9208204e-007
7.2446607e-006
-1.0970831e-007
7.1099066e-006
-6.762278e-008
7.0111691e-006
-4.6484919e-008
6.9303188e-006
-3.6211504e-008
6.8545783e-006
-3.2766303e-008
6.7730139e-006
-3.4442338e-008
6.6747272e-006
-4.1010499e-008
6.5472332e-006
-5.323152e-008
6.3757129e-006
-7.1617391e-008
6.1412782e-006
-9.7930249e-008
5.8199829e-006
-1.3387126e-007
5.381036e-006
-1.8244042e-007
4.7853632e-006
-2.465019e-007
3.9960433e-006
-3.2305304e-007
3.0088343e-006
-3.9679987e-007
1.8981323e-006
-4.271576e-007
8.694526e-007
-3.6501744e-007
1.9954622e-007
-1.5688935e-007
3.0991005e-008
7.7355747e-006
5.2360466e-006
3.9836395e-006
3.335507e-006
2.9838477e-006
2.7917656e-006
2.6820573e-006
2.6144345e-006
2.5679496e-006
2.5317381e-006
2.4989718e-006
2.4645295e-006
2.4235189e-006
2.3702874e-006
2.29867e-006
2.2007398e-006
2.0668685e-006
1.8844281e-006
1.6379262e-006
1.3148732e-006
9.1807332e-007
4.9091574e-007
1.2589832e-007
-3.0991005e-008
)
;

boundaryField
{
    inlet
    {
        type            calculated;
        value           nonuniform List<scalar> 
20
(
-5.0012803e-006
-5.0012803e-006
-5.0012803e-006
-5.0012803e-006
-5.0012803e-006
-5.0012803e-006
-5.0012803e-006
-5.0012803e-006
-5.0012803e-006
-5.0012803e-006
-1.5003841e-005
-1.5003841e-005
-1.5003841e-005
-1.5003841e-005
-1.5003841e-005
-1.5003841e-005
-1.5003841e-005
-1.5003841e-005
-1.5003841e-005
-1.5003841e-005
)
;
    }
    walls
    {
        type            calculated;
        value           uniform 0;
    }
    outlet
    {
        type            calculated;
        value           nonuniform List<scalar> 10(2.9022539e-005 2.8537443e-005 2.7548725e-005 2.6022981e-005 2.3917705e-005 2.118805e-005 1.7793686e-005 1.3705844e-005 8.911243e-006 3.4029947e-006);
    }
    centreline
    {
        type            symmetryPlane;
        value           uniform 0;
    }
    frontAndBack
    {
        type            empty;
        value           nonuniform 0();
    }
}


// ************************************************************************* //
