/*--------------------------------*- C++ -*----------------------------------*\
| =========                 |                                                 |
| \\      /  F ield         | OpenFOAM: The Open Source CFD Toolbox           |
|  \\    /   O peration     | Version:  5.x                                   |
|   \\  /    A nd           | Web:      www.OpenFOAM.org                      |
|    \\/     M anipulation  |                                                 |
\*---------------------------------------------------------------------------*/
/*   Windows 32 and 64 bit porting by blueCAPE: http://www.bluecape.com.pt   *\
|  Based on Windows porting (2.0.x v4) by Symscape: http://www.symscape.com   |
\*---------------------------------------------------------------------------*/
FoamFile
{
    version     2.0;
    format      ascii;
    class       surfaceScalarField;
    location    "0.16";
    object      phi_0;
}
// * * * * * * * * * * * * * * * * * * * * * * * * * * * * * * * * * * * * * //

dimensions      [0 3 -1 0 0 0 0];

internalField   nonuniform List<scalar> 
1430
(
5.1282974e-006
-1.2701707e-007
5.2876539e-006
-1.5935655e-007
5.4437125e-006
-1.5605854e-007
5.5769637e-006
-1.3325121e-007
5.6878243e-006
-1.1086063e-007
5.7759088e-006
-8.8084508e-008
5.8464912e-006
-7.0582373e-008
5.9042818e-006
-5.7790661e-008
5.9542103e-006
-4.9928438e-008
6.0011417e-006
-4.6931492e-008
6.0502841e-006
-4.9142371e-008
6.1078526e-006
-5.756853e-008
6.1810743e-006
-7.3221677e-008
6.2798815e-006
-9.8807242e-008
6.4185543e-006
-1.3867276e-007
6.6169845e-006
-1.9843016e-007
6.9064243e-006
-2.8943986e-007
7.3383178e-006
-4.3189349e-007
7.9984135e-006
-6.6009572e-007
9.0410317e-006
-1.0426181e-006
1.0647696e-005
-1.6066646e-006
1.3113678e-005
-2.4659822e-006
1.6553998e-005
-3.4403192e-006
2.0945154e-005
-4.3911567e-006
-4.8782031e-006
2.5823358e-005
5.1274468e-006
-2.531836e-007
5.2898018e-006
-3.2171152e-007
5.4445017e-006
-3.1075841e-007
5.5785243e-006
-2.6727381e-007
5.6889521e-006
-2.2128846e-007
5.7769231e-006
-1.7605548e-007
5.8472196e-006
-1.4087891e-007
5.9047104e-006
-1.1528148e-007
5.9543142e-006
-9.9532207e-008
6.0009259e-006
-9.354322e-008
6.0496676e-006
-9.7884095e-008
6.1067397e-006
-1.1464068e-007
6.1793263e-006
-1.4580827e-007
6.277173e-006
-1.9665391e-007
6.4144528e-006
-2.7595263e-007
6.6108521e-006
-3.9482939e-007
6.8969061e-006
-5.7549387e-007
7.3234226e-006
-8.5841005e-007
7.9749668e-006
-1.3116399e-006
8.9987018e-006
-2.0663532e-006
1.0585757e-005
-3.1937197e-006
1.298652e-005
-4.8667458e-006
1.6390031e-005
-6.8438294e-006
2.0654552e-005
-8.6556781e-006
-9.774278e-006
2.5550627e-005
5.128484e-006
-3.803873e-007
5.2916372e-006
-4.8486469e-007
5.4470944e-006
-4.6621567e-007
5.5811786e-006
-4.0135792e-007
5.6913668e-006
-3.3147669e-007
5.7789092e-006
-2.6359789e-007
5.8486711e-006
-2.1064079e-007
5.9055772e-006
-1.721876e-007
5.9545542e-006
-1.4850928e-007
6.0004942e-006
-1.3948316e-007
6.0484794e-006
-1.4586932e-007
6.1045817e-006
-1.7074298e-007
6.1758474e-006
-2.1707393e-007
6.2718554e-006
-2.9266194e-007
6.4063989e-006
-4.1049617e-007
6.5986067e-006
-5.8703715e-007
6.8781624e-006
-8.5504962e-007
7.2940443e-006
-1.2742919e-006
7.9275847e-006
-1.9451803e-006
8.9196816e-006
-3.0584501e-006
1.0450273e-005
-4.7243114e-006
1.2764049e-005
-7.1805212e-006
1.6030796e-005
-1.0110577e-005
2.0151497e-005
-1.2776379e-005
-1.4519643e-005
2.4896862e-005
5.1299709e-006
-5.0907792e-007
5.2944403e-006
-6.4933401e-007
5.450948e-006
-6.2272339e-007
5.5851733e-006
-5.3558325e-007
5.6950178e-006
-4.4132123e-007
5.7818981e-006
-3.5047819e-007
5.8508423e-006
-2.7958496e-007
5.9068739e-006
-2.2821917e-007
5.9549173e-006
-1.9655271e-007
5.9998548e-006
-1.8442065e-007
6.046702e-006
-1.927165e-007
6.1013669e-006
-2.254079e-007
6.1706851e-006
-2.8639214e-007
6.2639477e-006
-3.8592454e-007
6.3944395e-006
-5.4098803e-007
6.5804609e-006
-7.7305851e-007
6.8503755e-006
-1.1249643e-006
7.2506379e-006
-1.6745542e-006
7.8574445e-006
-2.5519869e-006
8.8022558e-006
-4.0032614e-006
1.0251213e-005
-6.1732683e-006
1.2435592e-005
-9.3649009e-006
1.5495837e-005
-1.3170821e-005
1.9387834e-005
-1.6668377e-005
-1.9014948e-005
2.3883139e-005
5.1319604e-006
-6.3975802e-007
5.2981841e-006
-8.1555774e-007
5.4561059e-006
-7.8064512e-007
5.5905286e-006
-6.7000603e-007
5.6999144e-006
-5.5070703e-007
5.7858905e-006
-4.3645425e-007
5.8537254e-006
-3.4741989e-007
5.9085884e-006
-2.830822e-007
5.9553972e-006
-2.4336148e-007
5.9990072e-006
-2.2803062e-007
6.0443434e-006
-2.3805269e-007
6.097114e-006
-2.7817852e-007
6.1638832e-006
-3.5316135e-007
6.2535442e-006
-4.7558556e-007
6.3787413e-006
-6.661851e-007
6.5566882e-006
-9.5100545e-007
6.813983e-006
-1.3822591e-006
7.1938517e-006
-2.0544229e-006
7.7655205e-006
-3.1236556e-006
8.6498587e-006
-4.8875996e-006
9.9928468e-006
-7.5162563e-006
1.200494e-005
-1.1376994e-005
1.4789527e-005
-1.5955407e-005
1.8369962e-005
-2.0248812e-005
-2.3154687e-005
2.2509701e-005
5.1345096e-006
-7.7298731e-007
5.3029193e-006
-9.8396745e-007
5.462656e-006
-9.4038177e-007
5.5973367e-006
-8.0468672e-007
5.7061204e-006
-6.594908e-007
5.7909341e-006
-5.2126791e-007
5.857362e-006
-4.1384777e-007
5.9107614e-006
-3.3648163e-007
5.9560359e-006
-2.8863599e-007
5.9979978e-006
-2.6999249e-007
6.041466e-006
-2.8152095e-007
6.091904e-006
-3.2861651e-007
6.1555431e-006
-4.1680049e-007
6.2407741e-006
-5.6081657e-007
6.3594809e-006
-7.848919e-007
6.5275852e-006
-1.1191097e-006
6.7694979e-006
-1.6241717e-006
7.1246291e-006
-2.4095542e-006
7.6540155e-006
-3.653042e-006
8.4652144e-006
-5.6987985e-006
9.6783642e-006
-8.7294061e-006
1.1479101e-005
-1.3177731e-005
1.3921975e-005
-1.8398282e-005
1.7107546e-005
-2.3434382e-005
-2.6853848e-005
2.0806707e-005
5.1377077e-006
-9.0941465e-007
5.3087625e-006
-1.1550223e-006
5.4707545e-006
-1.1023737e-006
5.6057659e-006
-9.3969816e-007
5.7137652e-006
-7.674901e-007
5.7971355e-006
-6.0463822e-007
5.8618547e-006
-4.7856693e-007
5.913484e-006
-3.8811093e-007
5.9569321e-006
-3.3208415e-007
5.9969369e-006
-3.0999725e-007
6.0381871e-006
-3.2277113e-007
6.085875e-006
-3.763044e-007
6.145824e-006
-4.7674952e-007
6.2258537e-006
-6.4084627e-007
6.3369586e-006
-8.9599685e-007
6.493615e-006
-1.2757661e-006
6.7176968e-006
-1.8482535e-006
7.0441607e-006
-2.736018e-006
7.5249615e-006
-4.1338428e-006
8.2515606e-006
-6.4253975e-006
9.3135726e-006
-9.7914181e-006
1.0866625e-005
-1.4730783e-005
1.2897466e-005
-2.0429124e-005
1.5637363e-005
-2.6174279e-005
-2.9933158e-005
1.8716672e-005
5.1417304e-006
-1.0498648e-006
5.3159212e-006
-1.3292131e-006
5.4806693e-006
-1.2671218e-006
5.6160763e-006
-1.0751051e-006
5.7230516e-006
-8.7446542e-007
5.8046834e-006
-6.8627007e-007
5.8673773e-006
-5.4126082e-007
5.9169101e-006
-4.3764377e-007
5.9582537e-006
-3.7342767e-007
5.9960153e-006
-3.4775895e-007
6.0346987e-006
-3.6145445e-007
6.0792242e-006
-4.2082998e-007
6.1349786e-006
-5.3250386e-007
6.2091292e-006
-7.1499694e-007
6.3116104e-006
-9.9847804e-007
6.4553973e-006
-1.419553e-006
6.6595296e-006
-2.0523858e-006
6.9539561e-006
-3.0304446e-006
7.3812292e-006
-4.561116e-006
8.0134603e-006
-7.0576286e-006
8.9058825e-006
-1.068384e-005
1.0179474e-005
-1.6004375e-005
1.175929e-005
-2.2008939e-005
1.4009406e-005
-2.8424395e-005
-3.2043947e-005
1.6120196e-005
5.146888e-006
-1.1954725e-006
5.3246618e-006
-1.5069869e-006
5.4927627e-006
-1.4352228e-006
5.6285925e-006
-1.2109349e-006
5.7342443e-006
-9.8011723e-007
5.813838e-006
-7.6586372e-007
5.8741584e-006
-6.0158127e-007
5.9212622e-006
-4.8474753e-007
5.9602131e-006
-4.123786e-007
5.9954521e-006
-3.8299799e-007
6.0312581e-006
-3.9726039e-007
6.0722486e-006
-4.6182048e-007
6.1233493e-006
-5.8360462e-007
6.1910236e-006
-7.8267124e-007
6.2839942e-006
-1.0914486e-006
6.4136508e-006
-1.5492096e-006
6.5961181e-006
-2.2348532e-006
6.8558726e-006
-3.290199e-006
7.2251196e-006
-4.9303631e-006
7.7558359e-006
-7.5883448e-006
8.4648272e-006
-1.1392832e-005
9.4361099e-006
-1.6975657e-005
1.0522502e-005
-2.3095331e-005
1.2227791e-005
-3.0129685e-005
-3.2793068e-005
1.2976912e-005
5.1525989e-006
-1.3467911e-006
5.3361008e-006
-1.6904888e-006
5.5072734e-006
-1.6063954e-006
5.6437399e-006
-1.3474013e-006
5.7476665e-006
-1.0840439e-006
5.8248768e-006
-8.4307401e-007
5.8824352e-006
-6.591397e-007
5.9267927e-006
-5.29105e-007
5.9630325e-006
-4.4861844e-007
5.9954756e-006
-4.1544108e-007
6.0281359e-006
-4.2992064e-007
6.0652732e-006
-4.9895784e-007
6.1113075e-006
-6.2963885e-007
6.1719619e-006
-8.4332567e-007
6.2546815e-006
-1.1741682e-006
6.3690643e-006
-1.6635925e-006
6.5283528e-006
-2.3941417e-006
6.751446e-006
-3.5132922e-006
7.0593346e-006
-5.2382516e-006
7.4834177e-006
-8.0124279e-006
8.0108082e-006
-1.1920222e-005
8.6466636e-006
-1.7611513e-005
9.1883039e-006
-2.3636971e-005
1.0019809e-005
-3.096119e-005
8.7670394e-006
-3.1540298e-005
2.8407855e-005
-2.584497e-006
2.9231033e-005
-8.2317898e-007
2.9291718e-005
-6.0684166e-008
2.9188463e-005
1.0325442e-007
2.9086137e-005
1.0232644e-007
2.9025581e-005
6.0555119e-008
2.9010338e-005
1.5243261e-008
2.9013312e-005
-2.9740843e-009
2.9017744e-005
-4.4313558e-009
2.9019312e-005
-1.5685756e-009
2.9019268e-005
4.3837932e-011
2.9018992e-005
2.7638027e-010
2.901891e-005
8.2164632e-011
2.9018928e-005
-1.8118147e-011
2.9018948e-005
-1.9979185e-011
2.9018952e-005
-4.0058547e-012
2.901895e-005
1.6514786e-012
2.9018949e-005
1.3312482e-012
2.9018949e-005
4.6283514e-013
2.9018948e-005
1.659098e-013
2.9018948e-005
6.385804e-014
2.9018949e-005
-2.9842822e-013
2.9018949e-005
-8.6394739e-013
2.9018952e-005
-2.3383276e-012
-2.0919991e-012
2.7923579e-005
-4.9574489e-006
2.8720991e-005
-1.6205913e-006
2.8767534e-005
-1.0722726e-007
2.8678959e-005
1.9183013e-007
2.8583882e-005
1.9740358e-007
2.8537096e-005
1.0734059e-007
2.8526961e-005
2.5378777e-008
2.8530604e-005
-6.6173071e-009
2.8534256e-005
-8.0839258e-009
2.8535373e-005
-2.6852765e-009
2.8535228e-005
1.8894985e-010
2.8534989e-005
5.1585411e-010
2.8534931e-005
1.3934877e-010
2.8534954e-005
-4.0352186e-011
2.853497e-005
-3.6692055e-011
2.8534973e-005
-6.6084379e-012
2.8534971e-005
3.2427993e-012
2.853497e-005
2.4001605e-012
2.853497e-005
6.829045e-013
2.853497e-005
1.9565069e-013
2.853497e-005
1.9745005e-013
2.853497e-005
-5.5575871e-013
2.8534971e-005
-1.7897938e-012
2.8534974e-005
-5.0229824e-012
-4.6854611e-012
2.6997695e-005
-7.0582819e-006
2.7679439e-005
-2.3023346e-006
2.7720205e-005
-1.4799426e-007
2.7631166e-005
2.8087004e-007
2.7563722e-005
2.6484718e-007
2.7542899e-005
1.281631e-007
2.7541808e-005
2.6469863e-008
2.7545763e-005
-1.0572328e-008
2.7548039e-005
-1.0359906e-008
2.7548408e-005
-3.0543707e-009
2.7548143e-005
4.5407711e-010
2.7547977e-005
6.8249083e-010
2.7547963e-005
1.5287688e-010
2.7547988e-005
-6.4876625e-011
2.7547998e-005
-4.7386506e-011
2.7547999e-005
-7.0633794e-012
2.7547997e-005
4.6631485e-012
2.7547997e-005
2.9647482e-012
2.7547997e-005
6.1792538e-013
2.7547997e-005
8.9809581e-014
2.7547997e-005
2.8462839e-013
2.7547997e-005
-4.997518e-013
2.7547997e-005
-2.4768356e-012
2.7548001e-005
-8.2776546e-012
-7.7573039e-012
2.560566e-005
-8.7808031e-006
2.610628e-005
-2.8029541e-006
2.6097265e-005
-1.3897953e-007
2.6031548e-005
3.46587e-007
2.6009597e-005
2.8679836e-007
2.6014625e-005
1.2313479e-007
2.6020827e-005
2.0267747e-008
2.602406e-005
-1.3804905e-008
2.6024608e-005
-1.0908346e-008
2.6024231e-005
-2.6768901e-009
2.6023914e-005
7.7051689e-010
2.6023855e-005
7.4199011e-010
2.6023884e-005
1.2343094e-010
2.6023905e-005
-8.5166633e-011
2.6023907e-005
-5.0137333e-011
2.6023906e-005
-5.4025483e-012
2.6023905e-005
5.5385163e-012
2.6023905e-005
2.9340145e-012
2.6023905e-005
5.0617978e-013
2.6023905e-005
2.342328e-014
2.6023905e-005
1.9274591e-013
2.6023905e-005
-2.3006629e-013
2.6023905e-005
-2.7720481e-012
2.6023908e-005
-1.1581956e-011
-1.0833253e-011
2.3718063e-005
-9.9891652e-006
2.3927144e-005
-3.0120353e-006
2.3869595e-005
-8.1430524e-008
2.3866823e-005
3.4935913e-007
2.3888981e-005
2.6464062e-007
2.3910986e-005
1.0112959e-007
2.3920359e-005
1.0895007e-008
2.3921706e-005
-1.5151517e-008
2.3920572e-005
-9.774432e-009
2.3919702e-005
-1.8076273e-009
2.3919476e-005
9.9653964e-010
2.3919538e-005
6.8057156e-010
2.3919593e-005
6.8066927e-011
2.3919602e-005
-9.360135e-011
2.3919596e-005
-4.469038e-011
2.3919593e-005
-2.4516601e-012
2.3919593e-005
5.5675471e-012
2.3919594e-005
2.4290603e-012
2.3919594e-005
3.8166789e-013
2.3919594e-005
4.3524084e-014
2.3919594e-005
1.4267819e-013
2.3919594e-005
1.3685563e-014
2.3919593e-005
-2.7982807e-012
2.3919596e-005
-1.3856081e-011
-1.2944183e-011
2.1270874e-005
-1.0453332e-005
2.1096591e-005
-2.8377527e-006
2.1043436e-005
-2.8274823e-008
2.1102446e-005
2.9034865e-007
2.1155391e-005
2.1169568e-007
2.1185786e-005
7.0735079e-008
2.1194368e-005
2.3128758e-009
2.1193168e-005
-1.3951782e-008
2.1190795e-005
-7.4018496e-009
2.1189838e-005
-8.5017821e-010
2.1189824e-005
1.010907e-009
2.1189983e-005
5.2135421e-010
2.1190038e-005
1.28482e-011
2.119003e-005
-8.5525589e-011
2.1190018e-005
-3.3179313e-011
2.1190016e-005
4.0512421e-013
2.1190016e-005
4.7727773e-012
2.1190017e-005
1.6969084e-012
2.1190017e-005
1.8261572e-013
2.1190017e-005
3.4869508e-014
2.1190017e-005
1.7536516e-013
2.1190017e-005
2.4016258e-013
2.1190017e-005
-2.5012706e-012
2.1190017e-005
-1.4049662e-011
-1.313018e-011
1.8166063e-005
-9.9027233e-006
1.7631932e-005
-2.3036219e-006
1.7607185e-005
-3.5272567e-009
1.7698639e-005
1.9889494e-007
1.7766067e-005
1.4426694e-007
1.7796587e-005
4.0215734e-008
1.7801676e-005
-2.7767651e-009
1.7798202e-005
-1.0477608e-008
1.7795355e-005
-4.5548485e-009
1.7794671e-005
-1.6572592e-010
1.7794884e-005
7.9724802e-010
1.7795085e-005
3.2042184e-010
1.7795119e-005
-2.0450354e-011
1.7795096e-005
-6.2777502e-011
1.7795082e-005
-1.9621797e-011
1.7795081e-005
1.9792608e-012
1.7795082e-005
3.3687172e-012
1.7795083e-005
9.6434698e-013
1.7795083e-005
3.1707184e-014
1.7795083e-005
7.4409277e-015
1.7795083e-005
1.9465239e-013
1.7795083e-005
3.7119392e-013
1.7795082e-005
-1.8826051e-012
1.779508e-005
-1.1658873e-011
-1.0951403e-011
1.4306974e-005
-8.089501e-006
1.3533984e-005
-1.5306327e-006
1.3527367e-005
3.0901638e-009
1.3621366e-005
1.0489553e-007
1.3688571e-005
7.7062396e-008
1.371243e-005
1.6356383e-008
1.3713336e-005
-3.6827206e-009
1.3708763e-005
-5.9049368e-009
1.3706276e-005
-2.0671907e-009
1.3706001e-005
1.0946967e-010
1.3706345e-005
4.5226558e-010
1.3706524e-005
1.4172473e-010
1.3706529e-005
-2.5308392e-011
1.37065e-005
-3.3773722e-011
1.3706489e-005
-8.2196486e-012
1.3706489e-005
1.9142217e-012
1.370649e-005
1.778424e-012
1.3706491e-005
4.0080938e-013
1.3706491e-005
-2.1393238e-014
1.3706491e-005
3.3801658e-015
1.3706491e-005
1.5917479e-013
1.3706491e-005
3.3656759e-013
1.370649e-005
-1.0404499e-012
1.3706486e-005
-7.1860923e-012
-6.8748204e-012
9.6679935e-006
-4.7805824e-006
8.7843333e-006
-6.4697241e-007
8.7782645e-006
9.1588454e-009
8.8524191e-006
3.0740934e-008
8.9047904e-006
2.4691038e-008
8.9184489e-006
2.6978703e-009
8.9165053e-006
-1.7390889e-009
8.9125076e-006
-1.9071894e-009
8.9109328e-006
-4.9241468e-010
8.9109643e-006
7.798013e-011
8.9112803e-006
1.3624072e-010
8.9113916e-006
3.043478e-011
8.911378e-006
-1.1654765e-011
8.9113539e-006
-9.7061009e-012
8.9113473e-006
-1.5797303e-012
8.9113484e-006
8.3122777e-013
8.9113496e-006
5.1311696e-013
8.9113499e-006
8.9478318e-014
8.9113499e-006
-1.2478627e-014
8.9113499e-006
6.0417838e-015
8.91135e-006
7.5846296e-014
8.9113501e-006
1.7357819e-013
8.9113493e-006
-2.66198e-013
8.9113445e-006
-2.4180468e-012
-2.4329171e-012
3.986457e-006
3.3394846e-006
3.3486434e-006
3.3793843e-006
3.4040754e-006
3.4067733e-006
3.4050342e-006
3.403127e-006
3.4026346e-006
3.4027126e-006
3.4028488e-006
3.4028792e-006
3.4028676e-006
3.4028579e-006
3.4028563e-006
3.4028571e-006
3.4028576e-006
3.4028577e-006
3.4028577e-006
3.4028577e-006
3.4028578e-006
3.4028579e-006
3.4028576e-006
3.4028552e-006
1.5483367e-005
-1.8263166e-006
1.6105849e-005
-2.3129712e-006
1.662736e-005
-2.1279068e-006
1.7039816e-005
-1.7598572e-006
1.7339382e-005
-1.3836099e-006
1.7553624e-005
-1.0573154e-006
1.7707077e-005
-8.1259316e-007
1.7821881e-005
-6.439085e-007
1.7912407e-005
-5.3914518e-007
1.7991517e-005
-4.9455048e-007
1.8069143e-005
-5.0754716e-007
1.8155271e-005
-5.8508588e-007
1.8261012e-005
-7.3537935e-007
1.8397691e-005
-9.8000463e-007
1.8580123e-005
-1.3566006e-006
1.8827856e-005
-1.9113254e-006
1.9158567e-005
-2.7248526e-006
1.9598318e-005
-3.9530434e-006
2.0157271e-005
-5.7972044e-006
2.0788269e-005
-8.6434262e-006
2.1403312e-005
-1.2535265e-005
2.1331514e-005
-1.7539715e-005
1.9780154e-005
-2.2085612e-005
1.4584707e-005
-2.5765743e-005
-1.6955591e-005
1.5598939e-005
-2.4214143e-006
1.6317177e-005
-3.0312094e-006
1.6882994e-005
-2.6937236e-006
1.7287888e-005
-2.1647518e-006
1.7557065e-005
-1.6527864e-006
1.7731483e-005
-1.2317333e-006
1.7845422e-005
-9.265323e-007
1.7923616e-005
-7.2210316e-007
1.7980224e-005
-5.9575311e-007
1.8025366e-005
-5.3969189e-007
1.8066255e-005
-5.484368e-007
1.8108322e-005
-6.2715258e-007
1.8157355e-005
-7.8441243e-007
1.8217665e-005
-1.0403146e-006
1.8291783e-005
-1.4307186e-006
1.8383446e-005
-2.0029886e-006
1.8485956e-005
-2.8273629e-006
1.8583045e-005
-4.0501315e-006
1.8624541e-005
-5.8387012e-006
1.8472383e-005
-8.491268e-006
1.7910706e-005
-1.1973587e-005
1.6327052e-005
-1.5956061e-005
1.3117678e-005
-1.8876238e-005
6.844628e-006
-1.9492692e-005
-1.0110963e-005
1.5790532e-005
-3.2081049e-006
1.6631583e-005
-3.8722604e-006
1.722924e-005
-3.2913815e-006
1.7606476e-005
-2.541987e-006
1.7823158e-005
-1.8694692e-006
1.7940757e-005
-1.349332e-006
1.8002779e-005
-9.8855404e-007
1.8035432e-005
-7.5475641e-007
1.8051694e-005
-6.1201471e-007
1.8058222e-005
-5.4622059e-007
1.8058739e-005
-5.4895389e-007
1.8053971e-005
-6.223841e-007
1.8043424e-005
-7.7386541e-007
1.8024238e-005
-1.0211287e-006
1.7988655e-005
-1.395136e-006
1.7927106e-005
-1.9414395e-006
1.7815567e-005
-2.7158237e-006
1.7605703e-005
-3.8402677e-006
1.7213913e-005
-5.4469111e-006
1.6450009e-005
-7.7273641e-006
1.5070321e-005
-1.0593899e-005
1.26298e-005
-1.3515541e-005
8.8806121e-006
-1.512705e-005
3.5150196e-006
-1.41271e-005
-6.5959437e-006
1.6060577e-005
-4.2648412e-006
1.6998083e-005
-4.809766e-006
1.7571548e-005
-3.8648462e-006
1.7873144e-005
-2.8435834e-006
1.8004494e-005
-2.000819e-006
1.8044341e-005
-1.3891797e-006
1.804182e-005
-9.8603285e-007
1.8021565e-005
-7.3450153e-007
1.7993749e-005
-5.8419875e-007
1.7960297e-005
-5.1276791e-007
1.7920242e-005
-5.0889982e-007
1.7868982e-005
-5.7112344e-007
1.7800472e-005
-7.053554e-007
1.770574e-005
-9.2639655e-007
1.7569629e-005
-1.2590255e-006
1.7369254e-005
-1.7410642e-006
1.7071402e-005
-2.4179717e-006
1.6607692e-005
-3.3765576e-006
1.5880882e-005
-4.7201008e-006
1.4705879e-005
-6.5523617e-006
1.2867817e-005
-8.7558362e-006
1.0123953e-005
-1.0771676e-005
6.5019145e-006
-1.1505012e-005
2.255419e-006
-9.8806042e-006
-4.3405246e-006
1.6349747e-005
-5.6107473e-006
1.7247335e-005
-5.707354e-006
1.7671546e-005
-4.2890569e-006
1.7815251e-005
-2.9872882e-006
1.7816588e-005
-2.0021569e-006
1.7756831e-005
-1.3294219e-006
1.7680612e-005
-9.0981371e-007
1.7604717e-005
-6.5860715e-007
1.7533228e-005
-5.1270962e-007
1.7462254e-005
-4.4179365e-007
1.7385334e-005
-4.3197967e-007
1.7293299e-005
-4.7908864e-007
1.7176173e-005
-5.8822941e-007
1.7018749e-005
-7.689724e-007
1.6800623e-005
-1.0408996e-006
1.649035e-005
-1.4307911e-006
1.6048099e-005
-1.975721e-006
1.5402539e-005
-2.7309981e-006
1.4452746e-005
-3.7703078e-006
1.3038357e-005
-5.1379719e-006
1.0994943e-005
-6.7124228e-006
8.2338032e-006
-8.0105362e-006
4.9326045e-006
-8.2038129e-006
1.6211451e-006
-6.5691447e-006
-2.7193795e-006
1.6512741e-005
-7.1196471e-006
1.7098972e-005
-6.2935855e-006
1.7182846e-005
-4.3729303e-006
1.7062817e-005
-2.8672594e-006
1.6886839e-005
-1.8261787e-006
1.6712981e-005
-1.1555643e-006
1.6562018e-005
-7.5885004e-007
1.6435103e-005
-5.316926e-007
1.6326505e-005
-4.0411168e-007
1.6225994e-005
-3.4128265e-007
1.6122262e-005
-3.2824775e-007
1.6002867e-005
-3.5969319e-007
1.5853432e-005
-4.3879462e-007
1.5655666e-005
-5.7120677e-007
1.5385301e-005
-7.705341e-007
1.5009582e-005
-1.0550729e-006
1.448425e-005
-1.4503889e-006
1.3743729e-005
-1.9904764e-006
1.2694722e-005
-2.7213018e-006
1.1212188e-005
-3.6554373e-006
9.1817511e-006
-4.6819859e-006
6.6138723e-006
-5.4426575e-006
3.7707879e-006
-5.3607285e-006
1.2000159e-006
-3.9983727e-006
-1.5193636e-006
1.6348254e-005
-8.4640597e-006
1.6227416e-005
-6.1727479e-006
1.5769552e-005
-3.915066e-006
1.5301398e-005
-2.3991063e-006
1.4922579e-005
-1.4473592e-006
1.4639129e-005
-8.7211389e-007
1.4427941e-005
-5.4766256e-007
1.4266046e-005
-3.6979756e-007
1.4135719e-005
-2.7378468e-007
1.4020679e-005
-2.2624292e-007
1.3906196e-005
-2.1376411e-007
1.3778032e-005
-2.3152987e-007
1.3619467e-005
-2.8022897e-007
1.3412126e-005
-3.6386626e-007
1.3131271e-005
-4.8967945e-007
1.2745546e-005
-6.6934776e-007
1.2212731e-005
-9.1757324e-007
1.1476283e-005
-1.2540285e-006
1.0458532e-005
-1.7035515e-006
9.0680619e-006
-2.2649667e-006
7.2402553e-006
-2.8541793e-006
5.0391019e-006
-3.2415041e-006
2.7461146e-006
-3.0677411e-006
8.4028153e-007
-2.0925396e-006
-6.7908201e-007
1.550514e-005
-8.9653591e-006
1.4266981e-005
-4.9345888e-006
1.3185316e-005
-2.833401e-006
1.2385867e-005
-1.5996573e-006
1.1849374e-005
-9.1086594e-007
1.1498978e-005
-5.2171765e-007
1.1263844e-005
-3.12529e-007
1.1096425e-005
-2.0237856e-007
1.0967902e-005
-1.4526133e-007
1.0858769e-005
-1.1710989e-007
1.0753562e-005
-1.0855698e-007
1.0638091e-005
-1.1605975e-007
1.0497216e-005
-1.3935334e-007
1.0314137e-005
-1.8078772e-007
1.0067667e-005
-2.4320889e-007
9.7307626e-006
-3.3244362e-007
9.2684325e-006
-4.5524314e-007
8.6358491e-006
-6.2144518e-007
7.774505e-006
-8.4220736e-007
6.6219654e-006
-1.1124271e-006
5.1520294e-006
-1.3842432e-006
3.4489035e-006
-1.5383782e-006
1.7755032e-006
-1.3943408e-006
5.1018271e-007
-8.2721901e-007
-1.6889928e-007
1.3306512e-005
-7.26803e-006
1.087146e-005
-2.4995374e-006
9.2904684e-006
-1.2524091e-006
8.3388886e-006
-6.4807742e-007
7.7795919e-006
-3.5156929e-007
7.4498975e-006
-1.9202325e-007
7.2470601e-006
-1.0969161e-007
7.1123182e-006
-6.7636647e-008
7.0135661e-006
-4.6509237e-008
6.9326921e-006
-3.623595e-008
6.8569238e-006
-3.2788597e-008
6.7753275e-006
-3.4463541e-008
6.6770051e-006
-4.1030898e-008
6.5494703e-006
-5.3252944e-008
6.3779023e-006
-7.1640942e-008
6.1434137e-006
-9.7954946e-008
5.8220643e-006
-1.3389381e-007
5.3830744e-006
-1.8245525e-007
4.7873709e-006
-2.4650385e-007
3.9979901e-006
-3.2304625e-007
3.0105798e-006
-3.9683285e-007
1.8994477e-006
-4.2724608e-007
8.7021438e-007
-3.651074e-007
1.9986486e-007
-1.5686944e-007
3.0965603e-008
7.735811e-006
5.2362736e-006
3.9838645e-006
3.3357871e-006
2.9842178e-006
2.7921946e-006
2.682503e-006
2.6148663e-006
2.5683571e-006
2.5321211e-006
2.4993325e-006
2.464869e-006
2.4238381e-006
2.3705851e-006
2.2989442e-006
2.2009892e-006
2.0670954e-006
1.8846402e-006
1.6381363e-006
1.3150901e-006
9.1825725e-007
4.9101119e-007
1.2590381e-007
-3.0965603e-008
)
;

boundaryField
{
    inlet
    {
        type            calculated;
        value           nonuniform List<scalar> 
20
(
-5.0012803e-006
-5.0012803e-006
-5.0012803e-006
-5.0012803e-006
-5.0012803e-006
-5.0012803e-006
-5.0012803e-006
-5.0012803e-006
-5.0012803e-006
-5.0012803e-006
-1.5003841e-005
-1.5003841e-005
-1.5003841e-005
-1.5003841e-005
-1.5003841e-005
-1.5003841e-005
-1.5003841e-005
-1.5003841e-005
-1.5003841e-005
-1.5003841e-005
)
;
    }
    walls
    {
        type            calculated;
        value           uniform 0;
    }
    outlet
    {
        type            calculated;
        value           nonuniform List<scalar> 10(2.9018954e-005 2.8534976e-005 2.7548004e-005 2.6023911e-005 2.3919598e-005 2.1190017e-005 1.7795078e-005 1.3706481e-005 8.91134e-006 3.4028528e-006);
    }
    centreline
    {
        type            symmetryPlane;
        value           uniform 0;
    }
    frontAndBack
    {
        type            empty;
        value           nonuniform 0();
    }
}


// ************************************************************************* //
