/*--------------------------------*- C++ -*----------------------------------*\
| =========                 |                                                 |
| \\      /  F ield         | OpenFOAM: The Open Source CFD Toolbox           |
|  \\    /   O peration     | Version:  5.x                                   |
|   \\  /    A nd           | Web:      www.OpenFOAM.org                      |
|    \\/     M anipulation  |                                                 |
\*---------------------------------------------------------------------------*/
/*   Windows 32 and 64 bit porting by blueCAPE: http://www.bluecape.com.pt   *\
|  Based on Windows porting (2.0.x v4) by Symscape: http://www.symscape.com   |
\*---------------------------------------------------------------------------*/
FoamFile
{
    version     2.0;
    format      ascii;
    class       volSymmTensorField;
    location    "0.16";
    object      sigma;
}
// * * * * * * * * * * * * * * * * * * * * * * * * * * * * * * * * * * * * * //

dimensions      [0 2 -2 0 0 0 0];

internalField   nonuniform List<symmTensor> 
750
(
(-0.00030989783 2.0864934e-005 0 0.00030317878 0 0)
(-0.00040153216 2.1214911e-006 0 0.00040547551 0 0)
(-0.00040776405 -4.5023069e-006 0 0.00039863268 0 0)
(-0.00034397348 -7.0299496e-006 0 0.00034295322 0 0)
(-0.00028529011 -6.7442208e-006 0 0.00028263613 0 0)
(-0.00023234657 -6.0138084e-006 0 0.00023109179 0 0)
(-0.00018805831 -4.6379536e-006 0 0.00018716877 0 0)
(-0.00015655202 -3.118973e-006 0 0.00015590558 0 0)
(-0.00013838906 -1.602952e-006 0 0.00013785785 0 0)
(-0.00013287658 1.9550528e-007 0 0.00013248065 0 0)
(-0.00014088419 2.0032593e-006 0 0.00014031423 0 0)
(-0.0001650177 4.2890248e-006 0 0.00016422053 0 0)
(-0.00021370037 7.535549e-006 0 0.00021260204 0 0)
(-0.00028447039 1.1615258e-005 0 0.00028217871 0 0)
(-0.00039702078 1.7574738e-005 0 0.00039256315 0 0)
(-0.00057120197 2.6970705e-005 0 0.00056281373 0 0)
(-0.00082304063 4.0728976e-005 0 0.00080427966 0 0)
(-0.0012217695 6.3283805e-005 0 0.0011821097 0 0)
(-0.0018580833 0.00010328309 0 0.0017724271 0 0)
(-0.0028987516 0.00016275561 0 0.0026775839 0 0)
(-0.0046232893 0.00026774058 0 0.004150659 0 0)
(-0.0073266795 0.0004117656 0 0.0060585376 0 0)
(-0.011003175 0.00056941423 0 0.0086043821 0 0)
(-0.015168883 0.00083369106 0 0.010537123 0 0)
(-0.01870312 0.00059374081 0 0.01228394 0 0)
(-0.00031148182 6.2862245e-005 0 0.00030275131 0 0)
(-0.0004020844 6.5590181e-006 0 0.0004095035 0 0)
(-0.0004088204 -1.3747378e-005 0 0.00039763189 0 0)
(-0.00034408278 -2.0824418e-005 0 0.00034380594 0 0)
(-0.00028546288 -2.0220348e-005 0 0.00028247136 0 0)
(-0.00023152677 -1.7843794e-005 0 0.00023031123 0 0)
(-0.00018736378 -1.3717834e-005 0 0.00018641122 0 0)
(-0.00015582057 -9.1411322e-006 0 0.00015510045 0 0)
(-0.00013757188 -4.564898e-006 0 0.00013695742 0 0)
(-0.00013198508 7.638726e-007 0 0.00013154058 0 0)
(-0.00013975079 6.1787355e-006 0 0.00013909211 0 0)
(-0.00016366122 1.3064778e-005 0 0.00016275708 0 0)
(-0.00021199812 2.274771e-005 0 0.00021078174 0 0)
(-0.00028177064 3.4851791e-005 0 0.00027926906 0 0)
(-0.00039312957 5.2683448e-005 0 0.00038837113 0 0)
(-0.00056564276 8.0562399e-005 0 0.00055683481 0 0)
(-0.00081366288 0.00012119749 0 0.00079407744 0 0)
(-0.0012071994 0.00018823063 0 0.0011663782 0 0)
(-0.0018350847 0.00030531959 0 0.001748064 0 0)
(-0.0028537555 0.00047160721 0 0.0026280671 0 0)
(-0.0045591626 0.0008084826 0 0.0040865112 0 0)
(-0.0071743455 0.0011747599 0 0.0058938548 0 0)
(-0.010823537 0.0017087177 0 0.0084714646 0 0)
(-0.014911428 0.0025271168 0 0.010198412 0 0)
(-0.018274024 0.0018071358 0 0.012138803 0 0)
(-0.00031370933 0.00010532254 0 0.00030398111 0 0)
(-0.00040410651 1.0846922e-005 0 0.00041272578 0 0)
(-0.00041063619 -2.3236066e-005 0 0.00039860766 0 0)
(-0.00034460378 -3.453498e-005 0 0.00034451947 0 0)
(-0.00028502832 -3.378305e-005 0 0.0002819725 0 0)
(-0.00023052289 -2.9640304e-005 0 0.0002293268 0 0)
(-0.00018601119 -2.2731928e-005 0 0.00018510095 0 0)
(-0.00015429623 -1.505601e-005 0 0.0001536203 0 0)
(-0.00013593937 -7.4358392e-006 0 0.00013537137 0 0)
(-0.0001301576 1.3893178e-006 0 0.00012978039 0 0)
(-0.0001376008 1.0379836e-005 0 0.00013699887 0 0)
(-0.00016096872 2.1850465e-005 0 0.00016014257 0 0)
(-0.00020848007 3.7853262e-005 0 0.00020738056 0 0)
(-0.00027655165 5.7767498e-005 0 0.00027419252 0 0)
(-0.00038550163 8.7345791e-005 0 0.00038093864 0 0)
(-0.00055433388 0.00013320249 0 0.00054587351 0 0)
(-0.00079559404 0.00019999457 0 0.00077650596 0 0)
(-0.0011787011 0.00031037622 0 0.0011388392 0 0)
(-0.0017880682 0.00050073256 0 0.0017025002 0 0)
(-0.002766673 0.00079291463 0 0.0025428343 0 0)
(-0.0044189147 0.0013095327 0 0.0039553864 0 0)
(-0.0069207504 0.0019467931 0 0.0056539844 0 0)
(-0.010417644 0.00280958 0 0.0081383632 0 0)
(-0.014590817 0.0042235953 0 0.0097007743 0 0)
(-0.017268284 0.0029886471 0 0.011708274 0 0)
(-0.00031688975 0.00014817819 0 0.00030687955 0 0)
(-0.00040740218 1.4992133e-005 0 0.00041590864 0 0)
(-0.00041335335 -3.3075527e-005 0 0.00040137546 0 0)
(-0.00034543966 -4.8646294e-005 0 0.00034519146 0 0)
(-0.00028422201 -4.761258e-005 0 0.00028123327 0 0)
(-0.00022908077 -4.1599149e-005 0 0.00022783342 0 0)
(-0.00018400043 -3.1832138e-005 0 0.00018310449 0 0)
(-0.00015200779 -2.1018687e-005 0 0.000151344 0 0)
(-0.00013350393 -1.038556e-005 0 0.00013294718 0 0)
(-0.00012742025 1.9428611e-006 0 0.00012705953 0 0)
(-0.00013444921 1.4450058e-005 0 0.00013386284 0 0)
(-0.00015693864 3.0382743e-005 0 0.000156127 0 0)
(-0.00020303062 5.255634e-005 0 0.00020195939 0 0)
(-0.00026893108 8.0101118e-005 0 0.00026659634 0 0)
(-0.00037424212 0.00012113567 0 0.00036971191 0 0)
(-0.00053706777 0.00018444975 0 0.00052870519 0 0)
(-0.00076886816 0.00027670924 0 0.00074988061 0 0)
(-0.0011354643 0.00042978159 0 0.0010957519 0 0)
(-0.0017146056 0.00069277445 0 0.001629501 0 0)
(-0.0026501055 0.0010813943 0 0.0024279093 0 0)
(-0.0041943829 0.0018064192 0 0.0037364421 0 0)
(-0.0065560162 0.0026970084 0 0.0053030017 0 0)
(-0.0097723747 0.0039210194 0 0.007578555 0 0)
(-0.014190579 0.0055671006 0 0.0091511175 0 0)
(-0.01623372 0.0041093564 0 0.011157102 0 0)
(-0.00032119468 0.00019120867 0 0.00031075508 0 0)
(-0.0004117724 1.8938855e-005 0 0.00042010866 0 0)
(-0.00041693262 -4.3097793e-005 0 0.00040502152 0 0)
(-0.00034654126 -6.3189286e-005 0 0.00034607494 0 0)
(-0.0002830758 -6.1647352e-005 0 0.00028015462 0 0)
(-0.0002270909 -5.3620535e-005 0 0.00022579982 0 0)
(-0.00018130787 -4.0936145e-005 0 0.00018042574 0 0)
(-0.00014897186 -2.6918402e-005 0 0.00014832704 0 0)
(-0.00013024557 -1.3261977e-005 0 0.00012970695 0 0)
(-0.000123793 2.5157025e-006 0 0.00012345166 0 0)
(-0.00013031989 1.8508033e-005 0 0.00012976454 0 0)
(-0.00015166161 3.8668905e-005 0 0.00015088367 0 0)
(-0.00019578962 6.6810049e-005 0 0.0001947543 0 0)
(-0.00025897708 0.00010175741 0 0.0002566618 0 0)
(-0.0003594035 0.00015369521 0 0.00035491544 0 0)
(-0.00051451162 0.00023350714 0 0.0005062881 0 0)
(-0.00073408086 0.00034939904 0 0.00071529108 0 0)
(-0.0010798736 0.00054022599 0 0.0010405536 0 0)
(-0.0016212566 0.00086865438 0 0.0015375746 0 0)
(-0.0024889811 0.0013643904 0 0.0022678301 0 0)
(-0.0038998339 0.002266704 0 0.0034496112 0 0)
(-0.0060918339 0.0033676469 0 0.0048604053 0 0)
(-0.0089342658 0.0049419743 0 0.0068412853 0 0)
(-0.013323496 0.0072027817 0 0.0082344491 0 0)
(-0.015216053 0.005161335 0 0.010614235 0 0)
(-0.00032676785 0.00023449763 0 0.00031567975 0 0)
(-0.00041721916 2.2636293e-005 0 0.00042543243 0 0)
(-0.0004215008 -5.3756411e-005 0 0.00040957329 0 0)
(-0.00034790342 -7.8489916e-005 0 0.00034720129 0 0)
(-0.00028154058 -7.6144598e-005 0 0.00027868612 0 0)
(-0.00022451401 -6.5890253e-005 0 0.0002231814 0 0)
(-0.00017790754 -5.0192696e-005 0 0.00017704413 0 0)
(-0.00014518014 -3.2902038e-005 0 0.00014455998 0 0)
(-0.00012615363 -1.6168773e-005 0 0.00012563883 0 0)
(-0.00011929654 2.9019601e-006 0 0.00011898344 0 0)
(-0.00012521041 2.2362917e-005 0 0.00012469811 0 0)
(-0.00014513527 4.6492461e-005 0 0.00014438103 0 0)
(-0.00018695181 8.0498114e-005 0 0.00018593544 0 0)
(-0.00024677913 0.00012244721 0 0.00024453814 0 0)
(-0.0003414491 0.00018400903 0 0.00033700823 0 0)
(-0.00048727503 0.00027947406 0 0.00047915027 0 0)
(-0.0006921077 0.00041738751 0 0.00067353693 0 0)
(-0.0010110558 0.00064420333 0 0.00097207344 0 0)
(-0.0015045037 0.0010350775 0 0.0014217924 0 0)
(-0.0022965848 0.0016153478 0 0.0020782817 0 0)
(-0.0035434642 0.0026740837 0 0.0031025562 0 0)
(-0.0055285875 0.0039839403 0 0.004319876 0 0)
(-0.0078505556 0.0059269979 0 0.0058611367 0 0)
(-0.012426131 0.0084957194 0 0.007265317 0 0)
(-0.012918557 0.0059432882 0 0.0093426726 0 0)
(-0.00033371083 0.00027780951 0 0.00032201726 0 0)
(-0.00042374711 2.5824829e-005 0 0.00043161056 0 0)
(-0.00042711673 -6.5295594e-005 0 0.00041525911 0 0)
(-0.00034953539 -9.4900388e-005 0 0.00034854148 0 0)
(-0.00027957803 -9.1337143e-005 0 0.00027678657 0 0)
(-0.00022127963 -7.8664996e-005 0 0.00021988866 0 0)
(-0.00017376628 -5.9788275e-005 0 0.00017291903 0 0)
(-0.00014059933 -3.9094528e-005 0 0.00013999839 0 0)
(-0.00012134364 -1.9415977e-005 0 0.00012086005 0 0)
(-0.00011395894 3.0739837e-006 0 0.00011366892 0 0)
(-0.00011909606 2.572365e-005 0 0.00011860756 0 0)
(-0.00013747835 5.3648096e-005 0 0.00013673024 0 0)
(-0.00017670313 9.3245326e-005 0 0.00017573294 0 0)
(-0.0002323897 0.00014146357 0 0.00023020596 0 0)
(-0.00032026736 0.00021260149 0 0.00031584029 0 0)
(-0.00045536695 0.00032233682 0 0.00044727641 0 0)
(-0.00064329529 0.00047961254 0 0.0006249469 0 0)
(-0.00093347973 0.00073609851 0 0.00089504938 0 0)
(-0.0013742733 0.0011785121 0 0.0012929633 0 0)
(-0.0020701375 0.0018360932 0 0.0018560622 0 0)
(-0.003110455 0.0030430525 0 0.0026825475 0 0)
(-0.0048866482 0.0044882801 0 0.0037028749 0 0)
(-0.0065823196 0.0067916292 0 0.0047130403 0 0)
(-0.011421104 0.0094591828 0 0.0062123801 0 0)
(-0.009511512 0.0072392179 0 0.0066746001 0 0)
(-0.00034241153 0.00032162736 0 0.00033023526 0 0)
(-0.00043116134 2.8112556e-005 0 0.00043853467 0 0)
(-0.00043373379 -7.7804434e-005 0 0.00042207676 0 0)
(-0.00035137455 -0.0001128393 0 0.00035003349 0 0)
(-0.00027712531 -0.00010767871 0 0.0002743979 0 0)
(-0.00021729148 -9.2199638e-005 0 0.00021577981 0 0)
(-0.00016889686 -6.9944228e-005 0 0.00016804312 0 0)
(-0.00013523476 -4.5826339e-005 0 0.00013464343 0 0)
(-0.00011569813 -2.3085942e-005 0 0.00011522676 0 0)
(-0.00010780978 2.6103116e-006 0 0.00010752761 0 0)
(-0.00011219172 2.8592106e-005 0 0.00011173738 0 0)
(-0.00012868974 5.9778035e-005 0 0.00012797673 0 0)
(-0.00016465946 0.0001044255 0 0.00016371782 0 0)
(-0.00021615564 0.00015902512 0 0.00021397079 0 0)
(-0.0002964587 0.00023801098 0 0.00029199361 0 0)
(-0.00041940022 0.00036077406 0 0.00041137971 0 0)
(-0.00058827798 0.00053583142 0 0.00057019018 0 0)
(-0.00084390583 0.00081892195 0 0.00080599422 0 0)
(-0.0012239848 0.0013060545 0 0.0011438302 0 0)
(-0.0018165983 0.002018999 0 0.0016076569 0 0)
(-0.0026167399 0.0033429892 0 0.002206014 0 0)
(-0.004123174 0.0048959137 0 0.0029673322 0 0)
(-0.0050547989 0.0075453985 0 0.0033098995 0 0)
(-0.009587499 0.010594495 0 0.004518449 0 0)
(-0.0069525624 0.0080889417 0 0.0045284827 0 0)
(-0.00035350789 0.00036528578 0 0.00033946332 0 0)
(-0.00043960076 2.9358885e-005 0 0.00044835686 0 0)
(-0.0004417858 -9.2141953e-005 0 0.00042934411 0 0)
(-0.0003533987 -0.00013294669 0 0.00035170473 0 0)
(-0.00027405501 -0.00012574856 0 0.00027138432 0 0)
(-0.00021234214 -0.0001068237 0 0.00021080434 0 0)
(-0.00016318513 -8.1101947e-005 0 0.00016233519 0 0)
(-0.00012900473 -5.3316445e-005 0 0.00012845446 0 0)
(-0.00010929899 -2.7446508e-005 0 0.00010884625 0 0)
(-0.0001008722 1.0125358e-006 0 0.00010064752 0 0)
(-0.00010427783 3.0243681e-005 0 0.00010389807 0 0)
(-0.00011887102 6.4621957e-005 0 0.0001182215 0 0)
(-0.00015145444 0.00011413556 0 0.00015057685 0 0)
(-0.00019786139 0.00017419313 0 0.00019581641 0 0)
(-0.00026977103 0.00026031068 0 0.00026551581 0 0)
(-0.00037903978 0.0003949996 0 0.00037141747 0 0)
(-0.00052828042 0.00058375177 0 0.00051053213 0 0)
(-0.00074861579 0.00088712219 0 0.00071172765 0 0)
(-0.0010638959 0.0014102039 0 0.000986859 0 0)
(-0.0015562821 0.0021410505 0 0.0013506131 0 0)
(-0.0020795164 0.0035776814 0 0.0017088907 0 0)
(-0.0033071257 0.0050905388 0 0.0021875805 0 0)
(-0.0032087577 0.0080441945 0 0.0017008376 0 0)
(-0.0071897341 0.011041286 0 0.0024516127 0 0)
(-0.00060875082 0.010901222 0 -0.0020557653 0 0)
(-0.00036767478 0.0004091381 0 0.00034679608 0 0)
(-0.00044930879 2.952242e-005 0 0.00046547618 0 0)
(-0.00045111684 -0.00010897742 0 0.00043485816 0 0)
(-0.00035559115 -0.00015584667 0 0.00035350128 0 0)
(-0.00027085481 -0.0001460573 0 0.00026848723 0 0)
(-0.00020531858 -0.00012285419 0 0.00020400354 0 0)
(-0.00015671626 -9.3719151e-005 0 0.00015606003 0 0)
(-0.00012188981 -6.1962724e-005 0 0.00012156452 0 0)
(-0.00010207134 -3.2809047e-005 0 0.00010178154 0 0)
(-9.3276837e-005 -2.1604441e-006 0 9.3349125e-005 0 0)
(-9.558884e-005 3.0442552e-005 0 9.5471538e-005 0 0)
(-0.00010807701 6.7765011e-005 0 0.00010765595 0 0)
(-0.00013704448 0.00012170327 0 0.00013648534 0 0)
(-0.00017798057 0.00018631379 0 0.00017630827 0 0)
(-0.00024057774 0.00027885475 0 0.0002368773 0 0)
(-0.00033634908 0.00042357309 0 0.00032962596 0 0)
(-0.00046362083 0.0006226119 0 0.00044602073 0 0)
(-0.00064438635 0.00094227759 0 0.00060835243 0 0)
(-0.0008905596 0.0014941856 0 0.00081797334 0 0)
(-0.0012788239 0.0022135435 0 0.0010694433 0 0)
(-0.0015140208 0.0037007615 0 0.0011852987 0 0)
(-0.0022515794 0.0051538512 0 0.0011838112 0 0)
(-0.001067449 0.0078257534 0 -6.8622962e-005 0 0)
(-0.0030385728 0.010001241 0 -0.00090948106 0 0)
(0.0034351542 0.011400851 0 -0.0076806189 0 0)
(-0.01436025 0.00053744534 0 0.0094264625 0 0)
(-0.00783925 0.00094892802 0 0.0056734329 0 0)
(-0.0027072777 0.0013029323 0 0.0019276654 0 0)
(-0.00059294116 0.0015061847 0 0.00038191634 0 0)
(-0.00017028155 0.001605149 0 3.1795086e-005 0 0)
(-6.4678169e-005 0.0016218305 0 -3.2383308e-005 0 0)
(-9.7236968e-005 0.0016212244 0 -1.6123376e-006 0 0)
(-0.00010278935 0.001621577 0 5.7635313e-006 0 0)
(-9.9103203e-005 0.0016229364 0 1.7096534e-006 0 0)
(-9.4857354e-005 0.0016234639 0 -2.2470317e-006 0 0)
(-9.5360639e-005 0.0016231648 0 -1.7237344e-006 0 0)
(-9.638777e-005 0.0016228984 0 -6.4609754e-007 0 0)
(-9.7034432e-005 0.0016227714 0 -2.2439003e-009 0 0)
(-9.7127014e-005 0.0016227537 0 9.2711266e-008 0 0)
(-9.7065961e-005 0.0016227602 0 3.2463349e-008 0 0)
(-9.7035018e-005 0.0016227649 0 1.289678e-009 0 0)
(-9.7030748e-005 0.0016227652 0 -3.0662649e-009 0 0)
(-9.703303e-005 0.0016227651 0 -8.4210014e-010 0 0)
(-9.7033687e-005 0.0016227648 0 -1.4953622e-010 0 0)
(-9.7033541e-005 0.0016227645 0 -2.5921694e-010 0 0)
(-9.7033681e-005 0.0016227648 0 -1.5205676e-010 0 0)
(-9.7033263e-005 0.0016227651 0 -5.2002319e-010 0 0)
(-9.7032804e-005 0.0016227652 0 -1.3653396e-009 0 0)
(-9.7041048e-005 0.0016227652 0 6.4809144e-009 0 0)
(-9.7038925e-005 0.0016227694 0 7.1854936e-009 0 0)
(-0.01387263 0.001686606 0 0.0090722117 0 0)
(-0.0075916014 0.0028690977 0 0.0054053069 0 0)
(-0.0030309138 0.0039327935 0 0.0018719792 0 0)
(-0.001140786 0.0046819082 0 0.00034824466 0 0)
(-0.00090111303 0.0048584567 0 5.0832745e-005 0 0)
(-0.00084697013 0.004909524 0 -9.9859896e-006 0 0)
(-0.00087419145 0.004918189 0 2.3410315e-006 0 0)
(-0.00087693299 0.0049234593 0 4.3099987e-006 0 0)
(-0.00087336975 0.004927282 0 4.2234915e-008 0 0)
(-0.00087066375 0.0049279992 0 -2.0818402e-006 0 0)
(-0.00087072549 0.0049273099 0 -1.4136631e-006 0 0)
(-0.00087153378 0.0049266368 0 -3.6957435e-007 0 0)
(-0.00087191749 0.0049264107 0 4.9390207e-008 0 0)
(-0.00087193761 0.004926393 0 7.6669052e-008 0 0)
(-0.00087189613 0.0049264122 0 3.1251849e-008 0 0)
(-0.00087186536 0.0049264252 0 -1.8673076e-010 0 0)
(-0.00087186294 0.0049264265 0 -2.5570791e-009 0 0)
(-0.00087186461 0.0049264258 0 -4.7717859e-010 0 0)
(-0.00087186503 0.004926425 0 1.8614253e-010 0 0)
(-0.00087186569 0.004926427 0 4.3674004e-011 0 0)
(-0.00087186516 0.0049264256 0 -1.0527565e-010 0 0)
(-0.00087186419 0.0049264241 0 -6.6914314e-010 0 0)
(-0.00087186513 0.0049264272 0 -9.8784578e-010 0 0)
(-0.00087187009 0.0049264277 0 3.910408e-009 0 0)
(-0.00087186901 0.004926438 0 4.5025768e-009 0 0)
(-0.012990282 0.0029327628 0 0.0085251674 0 0)
(-0.0069694299 0.0049308324 0 0.0048356721 0 0)
(-0.0036085978 0.0070161036 0 0.0015549639 0 0)
(-0.0026187099 0.0078538621 0 0.00052465249 0 0)
(-0.0023952384 0.0082290825 0 0.0001154551 0 0)
(-0.0023889466 0.0083571463 0 6.5369587e-006 0 0)
(-0.0024196615 0.0083717941 0 2.5935165e-006 0 0)
(-0.0024214275 0.0083771377 0 1.5916449e-006 0 0)
(-0.0024192822 0.0083814196 0 -1.371137e-006 0 0)
(-0.0024173747 0.0083818547 0 -2.0189866e-006 0 0)
(-0.0024170926 0.0083804788 0 -9.7815532e-007 0 0)
(-0.0024174274 0.0083795964 0 -1.724266e-007 0 0)
(-0.0024175824 0.0083793368 0 6.6612635e-008 0 0)
(-0.0024175681 0.00837933 0 5.9047348e-008 0 0)
(-0.0024175353 0.0083793609 0 1.8542894e-008 0 0)
(-0.0024175191 0.0083793781 0 -1.3712033e-009 0 0)
(-0.0024175189 0.0083793799 0 -1.6847871e-009 0 0)
(-0.0024175197 0.0083793781 0 -1.3517858e-010 0 0)
(-0.0024175218 0.0083793801 0 3.9400784e-010 0 0)
(-0.0024175208 0.0083793783 0 1.9778256e-010 0 0)
(-0.002417521 0.0083793798 0 -1.5229854e-010 0 0)
(-0.0024175205 0.00837938 0 -3.3250698e-010 0 0)
(-0.0024175192 0.0083793771 0 -7.483983e-010 0 0)
(-0.0024175201 0.0083793791 0 1.7765103e-010 0 0)
(-0.0024175216 0.0083793928 0 8.1207611e-010 0 0)
(-0.011687668 0.0041583354 0 0.007607829 0 0)
(-0.0061942182 0.0079738724 0 0.0035195773 0 0)
(-0.004939077 0.0099640866 0 0.0015650119 0 0)
(-0.0044220554 0.01143382 0 0.00040613205 0 0)
(-0.0046208442 0.011903581 0 7.3676164e-005 0 0)
(-0.0047074637 0.0119944 0 1.7471685e-005 0 0)
(-0.0047340307 0.012004325 0 2.0291106e-006 0 0)
(-0.0047341021 0.012007664 0 -1.5747666e-006 0 0)
(-0.0047334151 0.012009916 0 -2.4286813e-006 0 0)
(-0.0047319613 0.012009312 0 -1.514291e-006 0 0)
(-0.0047312353 0.012007608 0 -3.8334444e-007 0 0)
(-0.0047310871 0.012006835 0 3.1472743e-008 0 0)
(-0.0047310382 0.012006656 0 6.5285869e-008 0 0)
(-0.004731006 0.012006669 0 2.9225566e-008 0 0)
(-0.0047309956 0.012006706 0 4.0294e-009 0 0)
(-0.0047309955 0.012006721 0 -1.5445525e-009 0 0)
(-0.0047309969 0.012006722 0 -4.7586403e-010 0 0)
(-0.0047309992 0.012006723 0 2.5781717e-010 0 0)
(-0.0047309983 0.012006722 0 2.667116e-010 0 0)
(-0.0047309974 0.012006721 0 2.9724432e-010 0 0)
(-0.0047309964 0.01200672 0 1.2409448e-010 0 0)
(-0.004730996 0.01200672 0 -2.6288864e-010 0 0)
(-0.0047309962 0.012006722 0 -1.0964938e-009 0 0)
(-0.0047309943 0.012006724 0 -3.1359176e-009 0 0)
(-0.0047309954 0.012006732 0 -2.6865985e-009 0 0)
(-0.0095297729 0.0058607933 0 0.0059568811 0 0)
(-0.006520506 0.010765947 0 0.0026096129 0 0)
(-0.0066197858 0.013453617 0 0.0010951576 0 0)
(-0.00721173 0.01519108 0 0.00032856686 0 0)
(-0.0077048165 0.015670395 0 9.1707422e-005 0 0)
(-0.0077967481 0.015761395 0 2.5793069e-005 0 0)
(-0.0078091949 0.015767707 0 1.9135439e-007 0 0)
(-0.0078051007 0.015766617 0 -3.6319387e-006 0 0)
(-0.0078044245 0.015765652 0 -2.496374e-006 0 0)
(-0.0078026576 0.015763639 0 -5.7465392e-007 0 0)
(-0.0078016455 0.015762231 0 1.4767221e-007 0 0)
(-0.0078011475 0.015761785 0 1.4019941e-007 0 0)
(-0.0078009817 0.015761722 0 2.885827e-008 0 0)
(-0.0078009565 0.015761746 0 -6.6253446e-009 0 0)
(-0.0078009769 0.015761774 0 -5.3707809e-009 0 0)
(-0.0078009879 0.015761784 0 -5.9438959e-010 0 0)
(-0.0078009897 0.015761786 0 5.1170696e-010 0 0)
(-0.0078009894 0.015761785 0 4.0297364e-010 0 0)
(-0.0078009887 0.015761785 0 1.2159571e-010 0 0)
(-0.0078009898 0.015761787 0 1.3075986e-010 0 0)
(-0.0078009893 0.015761786 0 2.072315e-010 0 0)
(-0.0078009887 0.015761785 0 1.1540086e-010 0 0)
(-0.0078009876 0.015761785 0 -6.7672207e-010 0 0)
(-0.0078009818 0.015761786 0 -5.0495169e-009 0 0)
(-0.0078009808 0.015761787 0 -4.5438377e-009 0 0)
(-0.0074396504 0.0087637332 0 0.0036171494 0 0)
(-0.0069743575 0.014225802 0 0.0012773769 0 0)
(-0.0093490137 0.017512703 0 0.00046770936 0 0)
(-0.010987485 0.019114083 0 0.00023626259 0 0)
(-0.011566467 0.019496028 0 9.7508303e-005 0 0)
(-0.011617175 0.019569048 0 2.770766e-005 0 0)
(-0.011607991 0.019567586 0 -3.8957278e-007 0 0)
(-0.011598682 0.019563216 0 -3.978987e-006 0 0)
(-0.011596345 0.019558821 0 -1.2576415e-006 0 0)
(-0.011594453 0.019556722 0 4.6830912e-007 0 0)
(-0.011593503 0.019556112 0 5.1048737e-007 0 0)
(-0.011592861 0.019556058 0 1.452879e-007 0 0)
(-0.011592674 0.01955608 0 -2.6265118e-008 0 0)
(-0.011592673 0.019556093 0 -3.6214714e-008 0 0)
(-0.011592717 0.019556103 0 -9.2484639e-009 0 0)
(-0.011592734 0.019556109 0 1.0529184e-009 0 0)
(-0.011592735 0.01955611 0 1.1348181e-009 0 0)
(-0.011592734 0.019556111 0 1.9941196e-010 0 0)
(-0.011592734 0.019556111 0 -8.851679e-012 0 0)
(-0.011592735 0.019556111 0 7.0456355e-011 0 0)
(-0.011592734 0.019556111 0 1.6721463e-010 0 0)
(-0.011592734 0.01955611 0 6.0379468e-010 0 0)
(-0.011592732 0.01955611 0 -1.3179663e-010 0 0)
(-0.011592726 0.01955611 0 -4.6085082e-009 0 0)
(-0.011592721 0.019556104 0 -4.1233109e-009 0 0)
(-0.006380385 0.011350034 0 0.0014074791 0 0)
(-0.0089420698 0.018830736 0 -0.00028681051 0 0)
(-0.013832097 0.021823122 0 5.2862489e-005 0 0)
(-0.015641294 0.023029911 0 0.00016877145 0 0)
(-0.01611009 0.023268697 0 9.67434e-005 0 0)
(-0.016095239 0.023319288 0 2.8049797e-005 0 0)
(-0.01606937 0.023314216 0 7.1603532e-007 0 0)
(-0.016057599 0.023309192 0 -2.4267116e-006 0 0)
(-0.016054803 0.0233043 0 1.4729179e-007 0 0)
(-0.01605386 0.023303438 0 1.1122002e-006 0 0)
(-0.016053238 0.02330367 0 6.2085682e-007 0 0)
(-0.016052629 0.023303902 0 7.4123493e-008 0 0)
(-0.016052469 0.023303932 0 -7.6204114e-008 0 0)
(-0.016052492 0.023303914 0 -4.7381562e-008 0 0)
(-0.016052541 0.023303907 0 -9.5601332e-009 0 0)
(-0.01605256 0.02330391 0 2.4845734e-009 0 0)
(-0.01605256 0.023303912 0 1.2123279e-009 0 0)
(-0.016052558 0.023303912 0 -1.1652281e-010 0 0)
(-0.016052558 0.023303912 0 -9.0760789e-011 0 0)
(-0.016052558 0.023303912 0 8.8641497e-011 0 0)
(-0.016052558 0.023303912 0 8.2484691e-011 0 0)
(-0.016052559 0.023303911 0 8.1938249e-010 0 0)
(-0.016052557 0.023303911 0 5.1633694e-010 0 0)
(-0.016052552 0.023303909 0 -2.3776402e-009 0 0)
(-0.016052545 0.023303901 0 -2.442259e-009 0 0)
(-0.0062809923 0.01596633 0 -0.001800223 0 0)
(-0.013328558 0.024099728 0 -0.001680438 0 0)
(-0.0197041 0.026127343 0 -0.00015550343 0 0)
(-0.020920944 0.026809199 0 0.00011715512 0 0)
(-0.021253891 0.026935657 0 9.1080826e-005 0 0)
(-0.021190666 0.026976783 0 2.6446274e-005 0 0)
(-0.021167952 0.026976837 0 2.0272702e-006 0 0)
(-0.021157699 0.026973614 0 -1.0665192e-006 0 0)
(-0.021159149 0.026971203 0 1.0039649e-006 0 0)
(-0.021159933 0.02697187 0 1.3061954e-006 0 0)
(-0.021159758 0.026972796 0 5.0612022e-007 0 0)
(-0.021159274 0.026973108 0 -4.7420701e-011 0 0)
(-0.021159118 0.026973087 0 -9.6236696e-008 0 0)
(-0.02115914 0.026973032 0 -4.1533709e-008 0 0)
(-0.021159183 0.026973017 0 -4.4535748e-009 0 0)
(-0.021159197 0.026973019 0 3.1769099e-009 0 0)
(-0.021159196 0.026973022 0 8.6332158e-010 0 0)
(-0.021159194 0.026973022 0 -3.1096572e-010 0 0)
(-0.021159194 0.026973022 0 -1.2665312e-010 0 0)
(-0.021159194 0.026973022 0 2.6428751e-011 0 0)
(-0.021159195 0.026973022 0 1.3672683e-010 0 0)
(-0.021159195 0.026973021 0 8.4746389e-010 0 0)
(-0.021159194 0.02697302 0 1.4506218e-009 0 0)
(-0.021159191 0.026973017 0 3.7660152e-010 0 0)
(-0.021159187 0.026973011 0 -6.4689096e-010 0 0)
(-0.011240403 0.024734304 0 -0.0053162184 0 0)
(-0.021069631 0.030017719 0 -0.0027219563 0 0)
(-0.026507417 0.030303057 0 -0.00020144013 0 0)
(-0.026766512 0.030465576 0 5.7111179e-005 0 0)
(-0.026981328 0.030533798 0 8.5421487e-005 0 0)
(-0.026934774 0.030588319 0 2.1418731e-005 0 0)
(-0.02693806 0.03059612 0 4.3782143e-006 0 0)
(-0.026936546 0.030597524 0 -2.4934831e-007 0 0)
(-0.026943132 0.030597932 0 1.1512809e-006 0 0)
(-0.0269452 0.030599866 0 8.4148541e-007 0 0)
(-0.02694555 0.030600877 0 2.5580204e-007 0 0)
(-0.026945136 0.03060106 0 -6.6893892e-008 0 0)
(-0.026944962 0.030600944 0 -8.1698077e-008 0 0)
(-0.026944953 0.030600866 0 -2.7400263e-008 0 0)
(-0.026944982 0.030600851 0 -8.5528192e-011 0 0)
(-0.026944991 0.030600855 0 2.6554274e-009 0 0)
(-0.02694499 0.030600857 0 4.369666e-010 0 0)
(-0.026944988 0.030600857 0 -3.1530067e-010 0 0)
(-0.026944988 0.030600857 0 -1.1851082e-010 0 0)
(-0.026944988 0.030600857 0 -5.1854291e-011 0 0)
(-0.026944988 0.030600857 0 1.4144825e-010 0 0)
(-0.026944989 0.030600856 0 7.9500102e-010 0 0)
(-0.026944991 0.030600855 0 2.5331335e-009 0 0)
(-0.026944991 0.030600854 0 2.6308802e-009 0 0)
(-0.026944999 0.030600856 0 6.4522883e-010 0 0)
(-0.033541688 0.041678106 0 -0.0098413187 0 0)
(-0.031504283 0.035051813 0 -0.0018155247 0 0)
(-0.037738402 0.036168262 0 -0.00013251313 0 0)
(-0.036223598 0.035528808 0 3.5444889e-005 0 0)
(-0.037054493 0.035903258 0 4.5882549e-005 0 0)
(-0.036950224 0.035908157 0 9.1892761e-006 0 0)
(-0.037038805 0.035944753 0 1.2634676e-006 0 0)
(-0.037028853 0.035938155 0 -4.8976275e-007 0 0)
(-0.037042404 0.035941969 0 3.8275344e-007 0 0)
(-0.037043191 0.03594309 0 2.401913e-007 0 0)
(-0.037044293 0.035944088 0 5.4487987e-008 0 0)
(-0.037043686 0.035943969 0 -4.5772489e-008 0 0)
(-0.037043492 0.035943815 0 -3.3444784e-008 0 0)
(-0.03704341 0.035943728 0 -8.5935784e-009 0 0)
(-0.03704343 0.035943724 0 1.2263219e-009 0 0)
(-0.037043437 0.03594373 0 1.2068717e-009 0 0)
(-0.037043437 0.035943732 0 1.3289074e-010 0 0)
(-0.037043435 0.035943732 0 -1.1749214e-010 0 0)
(-0.037043435 0.035943732 0 -8.5381354e-012 0 0)
(-0.037043435 0.035943732 0 -6.1854913e-011 0 0)
(-0.037043435 0.035943731 0 2.2964162e-011 0 0)
(-0.037043437 0.035943732 0 5.8316659e-010 0 0)
(-0.03704344 0.035943733 0 2.3767556e-009 0 0)
(-0.037043447 0.035943736 0 2.1207242e-009 0 0)
(-0.037043468 0.035943746 0 -1.5835917e-010 0 0)
(-0.00040236062 0.00050155466 0 0.00036948263 0 0)
(-0.00047248935 2.4055924e-005 0 0.00050909652 0 0)
(-0.00047230058 -0.00015491611 0 0.00045051413 0 0)
(-0.00035961328 -0.00020842038 0 0.00035476456 0 0)
(-0.0002616846 -0.00019302322 0 0.00025896472 0 0)
(-0.00019061923 -0.00015888396 0 0.00018781747 0 0)
(-0.00014257249 -0.00012325323 0 0.00014087252 0 0)
(-0.00010631739 -8.3027001e-005 0 0.00010528497 0 0)
(-8.6417927e-005 -4.8090311e-005 0 8.5485453e-005 0 0)
(-7.6724505e-005 -1.1463973e-005 0 7.6095956e-005 0 0)
(-7.7011532e-005 2.6722708e-005 0 7.6255386e-005 0 0)
(-8.5700424e-005 6.9352798e-005 0 8.4460842e-005 0 0)
(-0.00010604204 0.00012917235 0 0.0001051359 0 0)
(-0.00013589326 0.00020101417 0 0.00013338082 0 0)
(-0.00018104755 0.00030145953 0 0.00017545598 0 0)
(-0.00024830048 0.00046480708 0 0.00024081899 0 0)
(-0.00032943947 0.00067677515 0 0.00031075525 0 0)
(-0.00044319704 0.0010030728 0 0.00040510485 0 0)
(-0.00055970964 0.0015838366 0 0.00049592125 0 0)
(-0.00071151363 0.0022865578 0 0.00052472825 0 0)
(-0.00067346218 0.0036687368 0 0.00039752128 0 0)
(-0.00062936233 0.0049216498 0 -0.0002477885 0 0)
(0.0011704087 0.0069770906 0 -0.0018292703 0 0)
(0.0018232425 0.0074876047 0 -0.0041941676 0 0)
(0.0097829194 0.0067197193 0 -0.012635152 0 0)
(-0.00048652468 0.00065575565 0 0.0004371487 0 0)
(-0.0005393433 -2.3488111e-006 0 0.00058785803 0 0)
(-0.00051498401 -0.00025059989 0 0.00048576505 0 0)
(-0.00036114241 -0.00030383222 0 0.00035231384 0 0)
(-0.00023843353 -0.00027369826 0 0.00023615619 0 0)
(-0.00015903578 -0.00022009216 0 0.0001562531 0 0)
(-0.00011029525 -0.00016989238 0 0.00010898443 0 0)
(-7.5047764e-005 -0.00011691566 0 7.4804832e-005 0 0)
(-5.6260362e-005 -7.2008502e-005 0 5.5793883e-005 0 0)
(-4.6435922e-005 -2.9441382e-005 0 4.6107873e-005 0 0)
(-4.2786064e-005 1.4583386e-005 0 4.3157033e-005 0 0)
(-4.4938631e-005 6.1726258e-005 0 4.4464708e-005 0 0)
(-5.2611504e-005 0.00012801099 0 5.2385054e-005 0 0)
(-6.471894e-005 0.00021169106 0 6.4286309e-005 0 0)
(-8.0890646e-005 0.00031401946 0 7.6246546e-005 0 0)
(-0.00010289057 0.00048493297 0 9.7325263e-005 0 0)
(-0.00011773706 0.0007070839 0 0.00010568803 0 0)
(-0.00013303216 0.0010170191 0 9.8944742e-005 0 0)
(-7.8686114e-005 0.0015615772 0 2.4826714e-005 0 0)
(1.4757994e-005 0.0021890176 0 -0.0001703499 0 0)
(0.000464631 0.0031715731 0 -0.00071502755 0 0)
(0.0010636152 0.0038278419 0 -0.0017601659 0 0)
(0.0030599139 0.0042706047 0 -0.0037665998 0 0)
(0.0051551679 0.0018322715 0 -0.0072915805 0 0)
(0.0063552257 -0.0016738537 0 -0.0093727185 0 0)
(-0.0006344463 0.00082762719 0 0.00057103141 0 0)
(-0.00064080695 -5.7374481e-005 0 0.00069589563 0 0)
(-0.00056341292 -0.00037074357 0 0.00052641059 0 0)
(-0.00034838801 -0.00040824988 0 0.00033598315 0 0)
(-0.00019806318 -0.00034701658 0 0.00019523868 0 0)
(-0.00011287954 -0.00026514669 0 0.00010963225 0 0)
(-6.6921371e-005 -0.00019770256 0 6.5305217e-005 0 0)
(-3.6201824e-005 -0.00013138121 0 3.578867e-005 0 0)
(-2.0386346e-005 -7.7222772e-005 0 1.9946642e-005 0 0)
(-1.1601759e-005 -3.3153752e-005 0 1.1467585e-005 0 0)
(-5.1106911e-006 1.6811133e-005 0 5.7330796e-006 0 0)
(-1.203469e-006 6.7066373e-005 0 1.0435749e-006 0 0)
(2.7226465e-006 0.00013445641 0 -4.2562512e-006 0 0)
(1.0653806e-005 0.00021767007 0 -1.0498486e-005 0 0)
(2.0678382e-005 0.00032245417 0 -2.3599309e-005 0 0)
(3.9386231e-005 0.00047242597 0 -4.6325732e-005 0 0)
(8.3760661e-005 0.00070206123 0 -9.3857745e-005 0 0)
(0.00014611838 0.00097254452 0 -0.00017685125 0 0)
(0.00031070693 0.0014405453 0 -0.00036024961 0 0)
(0.00057134864 0.0019506025 0 -0.00069428558 0 0)
(0.0011528141 0.0026436342 0 -0.0013500627 0 0)
(0.0019864992 0.0029629384 0 -0.0024076458 0 0)
(0.0034380645 0.0027832123 0 -0.003809924 0 0)
(0.0046693091 0.00056927923 0 -0.0054203998 0 0)
(0.0036411386 -0.0032798976 0 -0.0039529273 0 0)
(-0.00087466957 0.0010475036 0 0.00078684657 0 0)
(-0.00075461605 -0.00012723826 0 0.00081832096 0 0)
(-0.00058637811 -0.00047102441 0 0.00053784419 0 0)