/*--------------------------------*- C++ -*----------------------------------*\
| =========                 |                                                 |
| \\      /  F ield         | OpenFOAM: The Open Source CFD Toolbox           |
|  \\    /   O peration     | Version:  5.x                                   |
|   \\  /    A nd           | Web:      www.OpenFOAM.org                      |
|    \\/     M anipulation  |                                                 |
\*---------------------------------------------------------------------------*/
/*   Windows 32 and 64 bit porting by blueCAPE: http://www.bluecape.com.pt   *\
|  Based on Windows porting (2.0.x v4) by Symscape: http://www.symscape.com   |
\*---------------------------------------------------------------------------*/
FoamFile
{
    version     2.0;
    format      ascii;
    class       volSymmTensorField;
    location    "0.16";
    object      sigma_0;
}
// * * * * * * * * * * * * * * * * * * * * * * * * * * * * * * * * * * * * * //

dimensions      [0 2 -2 0 0 0 0];

internalField   nonuniform List<symmTensor> 
750
(
(-0.00030956687 2.0844317e-005 0 0.00030286692 0 0)
(-0.00040108889 2.1172098e-006 0 0.00040502103 0 0)
(-0.0004072321 -4.4980354e-006 0 0.00039812566 0 0)
(-0.00034349717 -7.0204229e-006 0 0.00034247833 0 0)
(-0.00028488364 -6.7338247e-006 0 0.00028223953 0 0)
(-0.00023203152 -6.0036252e-006 0 0.00023077938 0 0)
(-0.00018783812 -4.6298848e-006 0 0.00018695163 0 0)
(-0.00015639484 -3.1126092e-006 0 0.00015574962 0 0)
(-0.00013828432 -1.5989785e-006 0 0.00013775399 0 0)
(-0.00013280286 1.9791434e-007 0 0.00013240741 0 0)
(-0.00014083796 2.0052729e-006 0 0.00014026879 0 0)
(-0.00016497558 4.2891295e-006 0 0.00016417855 0 0)
(-0.0002136677 7.5344738e-006 0 0.00021256967 0 0)
(-0.00028443905 1.1613201e-005 0 0.00028214861 0 0)
(-0.0003969576 1.7569945e-005 0 0.00039250102 0 0)
(-0.00057111335 2.6963465e-005 0 0.00056272913 0 0)
(-0.00082288328 4.0715758e-005 0 0.00080413024 0 0)
(-0.0012214541 6.3259151e-005 0 0.0011818176 0 0)
(-0.001857463 0.0001032406 0 0.0017718692 0 0)
(-0.0028976169 0.00016268653 0 0.0026766202 0 0)
(-0.0046218697 0.00026766965 0 0.0041496024 0 0)
(-0.0073256756 0.00041171241 0 0.0060580094 0 0)
(-0.011003939 0.00056940713 0 0.0086052359 0 0)
(-0.015171584 0.00083383609 0 0.010538956 0 0)
(-0.018708473 0.0005938873 0 0.012286668 0 0)
(-0.00031114814 6.2799123e-005 0 0.00030244004 0 0)
(-0.00040163937 6.5460927e-006 0 0.00040904197 0 0)
(-0.00040828703 -1.3734106e-005 0 0.00039712662 0 0)
(-0.00034360758 -2.0796246e-005 0 0.00034333015 0 0)
(-0.00028505526 -2.0188739e-005 0 0.00028207558 0 0)
(-0.00023121433 -1.7812964e-005 0 0.00023000038 0 0)
(-0.00018714447 -1.3693726e-005 0 0.00018619515 0 0)
(-0.00015566317 -9.1218118e-006 0 0.00015494431 0 0)
(-0.00013746854 -4.553194e-006 0 0.00013685495 0 0)
(-0.00013191177 7.7143699e-007 0 0.00013146783 0 0)
(-0.00013970521 6.1848545e-006 0 0.00013904733 0 0)
(-0.00016361956 1.3065084e-005 0 0.00016271553 0 0)
(-0.00021196638 2.2744827e-005 0 0.00021075035 0 0)
(-0.00028174027 3.4845782e-005 0 0.00027924017 0 0)
(-0.00039306682 5.2669238e-005 0 0.0003883094 0 0)
(-0.00056555686 8.0541295e-005 0 0.00055675302 0 0)
(-0.00081350765 0.00012115814 0 0.00079393053 0 0)
(-0.0012068903 0.00018815774 0 0.001166093 0 0)
(-0.001834479 0.00030519365 0 0.001747522 0 0)
(-0.0028526561 0.00047141783 0 0.0026271395 0 0)
(-0.0045577936 0.00080831711 0 0.0040855022 0 0)
(-0.0071733483 0.0011746565 0 0.0058933221 0 0)
(-0.01082419 0.0017087346 0 0.0084722084 0 0)
(-0.014913892 0.0025272998 0 0.010200112 0 0)
(-0.01827903 0.0018074158 0 0.012141306 0 0)
(-0.0003133707 0.00010521597 0 0.00030366711 0 0)
(-0.00040365815 1.0825011e-005 0 0.00041225859 0 0)
(-0.00041009992 -2.3213981e-005 0 0.00039810125 0 0)
(-0.00034412859 -3.448929e-005 0 0.000344043 0 0)
(-0.00028462195 -3.3730074e-005 0 0.00028157817 0 0)
(-0.00023021218 -2.9588222e-005 0 0.00022901766 0 0)
(-0.00018579328 -2.269182e-005 0 0.0001848863 0 0)
(-0.00015414091 -1.5023914e-005 0 0.00015346615 0 0)
(-0.00013583797 -7.4165485e-006 0 0.0001352708 0 0)
(-0.00013008568 1.4022179e-006 0 0.00012970892 0 0)
(-0.00013755654 1.0390045e-005 0 0.00013695534 0 0)
(-0.00016092809 2.1850749e-005 0 0.00016010197 0 0)
(-0.00020844945 3.7848633e-005 0 0.00020735037 0 0)
(-0.00027652309 5.775748e-005 0 0.00027416535 0 0)
(-0.00038544166 8.7322635e-005 0 0.00038087947 0 0)
(-0.00055425182 0.00013316762 0 0.00054579549 0 0)
(-0.00079544429 0.00019993021 0 0.00077636442 0 0)
(-0.0011784021 0.00031025832 0 0.0011385637 0 0)
(-0.0017874902 0.00050053262 0 0.001701984 0 0)
(-0.0027656309 0.00079263713 0 0.0025419559 0 0)
(-0.0044176603 0.0013092081 0 0.0039544694 0 0)
(-0.0069198474 0.0019465061 0 0.005653528 0 0)
(-0.010418127 0.0028095235 0 0.0081390156 0 0)
(-0.014592683 0.004224056 0 0.00970215 0 0)
(-0.017272185 0.0029890987 0 0.011710362 0 0)
(-0.00031654398 0.00014802695 0 0.00030655975 0 0)
(-0.00040694881 1.496038e-005 0 0.00041543588 0 0)
(-0.00041281249 -3.3044039e-005 0 0.00040086503 0 0)
(-0.0003449639 -4.8582245e-005 0 0.00034471465 0 0)
(-0.00028381757 -4.7537371e-005 0 0.00028084054 0 0)
(-0.00022877202 -4.1525008e-005 0 0.00022752659 0 0)
(-0.00018378524 -3.1775592e-005 0 0.00018289253 0 0)
(-0.00015185585 -2.0973805e-005 0 0.00015119319 0 0)
(-0.00013340528 -1.0358582e-005 0 0.00013284942 0 0)
(-0.00012735044 1.9616059e-006 0 0.0001269901 0 0)
(-0.00013440643 1.4464472e-005 0 0.00013382078 0 0)
(-0.00015690023 3.0383447e-005 0 0.00015608867 0 0)
(-0.00020300152 5.2549825e-005 0 0.00020193063 0 0)
(-0.00026890552 8.0088135e-005 0 0.00026657204 0 0)
(-0.0003741862 0.00012110445 0 0.00036965682 0 0)
(-0.00053699072 0.00018440155 0 0.00052863199 0 0)
(-0.00076872773 0.00027662006 0 0.00074974839 0 0)
(-0.0011351822 0.00042961723 0 0.0010954937 0 0)
(-0.0017140709 0.00069249242 0 0.0016290278 0 0)
(-0.0026491674 0.0010809851 0 0.0024271321 0 0)
(-0.0041932692 0.0018060173 0 0.0037356369 0 0)
(-0.0065552514 0.0026967323 0 0.0053026226 0 0)
(-0.0097727949 0.0039209044 0 0.0075791444 0 0)
(-0.014192334 0.0055675708 0 0.0091522614 0 0)
(-0.016235612 0.0041095412 0 0.011158397 0 0)
(-0.00032083977 0.00019101242 0 0.00031042763 0 0)
(-0.00041131242 1.8897626e-005 0 0.00041962917 0 0)
(-0.00041638574 -4.3056528e-005 0 0.00040450537 0 0)
(-0.0003460645 -6.3105217e-005 0 0.00034559746 0 0)
(-0.00028267379 -6.1548275e-005 0 0.00027976423 0 0)
(-0.00022678469 -5.3522784e-005 0 0.00022549574 0 0)
(-0.00018109723 -4.0861999e-005 0 0.00018021823 0 0)
(-0.00014882371 -2.6859552e-005 0 0.00014817997 0 0)
(-0.00013015026 -1.3225961e-005 0 0.00012961253 0 0)
(-0.00012372607 2.5415881e-006 0 0.00012338505 0 0)
(-0.00013027926 1.8527928e-005 0 0.00012972469 0 0)
(-0.00015162549 3.8671066e-005 0 0.00015084768 0 0)
(-0.00019576293 6.6803668e-005 0 0.00019472751 0 0)
(-0.00025895588 0.00010174339 0 0.00025664197 0 0)
(-0.00035935184 0.00015365705 0 0.00035486479 0 0)
(-0.00051444108 0.00023344822 0 0.00050622144 0 0)
(-0.00073395248 0.0003492897 0 0.00071517087 0 0)
(-0.0010796125 0.00054002021 0 0.0010403158 0 0)
(-0.0016207638 0.00086831961 0 0.0015371439 0 0)
(-0.00248815 0.0013639088 0 0.0022671491 0 0)
(-0.0038988424 0.0022663111 0 0.0034489127 0 0)
(-0.0060912293 0.0033673553 0 0.0048601188 0 0)
(-0.0089346966 0.0049418924 0 0.0068418407 0 0)
(-0.013325215 0.0072024135 0 0.0082356818 0 0)
(-0.015217588 0.0051606836 0 0.010615586 0 0)
(-0.00032640168 0.00023425608 0 0.0003153427 0 0)
(-0.00041675044 2.2587176e-005 0 0.00042494428 0 0)
(-0.00042094576 -5.3702419e-005 0 0.00040904942 0 0)
(-0.00034742485 -7.8381987e-005 0 0.0003467224 0 0)
(-0.00028114159 -7.6018335e-005 0 0.00027829877 0 0)
(-0.00022421115 -6.5766053e-005 0 0.00022288079 0 0)
(-0.00017770297 -5.0098132e-005 0 0.00017684254 0 0)
(-0.00014503657 -3.2826816e-005 0 0.00014441748 0 0)
(-0.00012606229 -1.612116e-005 0 0.0001255483 0 0)
(-0.00011923324 2.9375838e-006 0 0.00011892046 0 0)
(-0.00012517177 2.2389935e-005 0 0.00012466019 0 0)
(-0.00014510292 4.6499976e-005 0 0.00014434862 0 0)
(-0.00018692869 8.0494409e-005 0 0.00018591234 0 0)
(-0.00024676093 0.00012243307 0 0.00024452149 0 0)
(-0.00034140562 0.0001839665 0 0.00033696548 0 0)
(-0.00048721181 0.00027940916 0 0.00047909103 0 0)
(-0.00069199386 0.00041726148 0 0.00067343178 0 0)
(-0.0010108184 0.00064396181 0 0.00097185819 0 0)
(-0.0015040707 0.0010346858 0 0.0014214211 0 0)
(-0.0022958648 0.0016148101 0 0.0020777066 0 0)
(-0.0035427157 0.002673593 0 0.0031020663 0 0)
(-0.0055281244 0.0039837337 0 0.0043197005 0 0)
(-0.0078511409 0.0059268463 0 0.0058617801 0 0)
(-0.012426948 0.0084960576 0 0.0072658397 0 0)
(-0.012918703 0.0059423458 0 0.0093431961 0 0)
(-0.00033333031 0.0002775221 0 0.00032166765 0 0)
(-0.00042326714 2.5770977e-005 0 0.00043111128 0 0)
(-0.00042655081 -6.5223772e-005 0 0.00041472481 0 0)
(-0.00034905387 -9.4762731e-005 0 0.00034806028 0 0)
(-0.0002791835 -9.1178377e-005 0 0.00027640359 0 0)
(-0.00022098086 -7.8509731e-005 0 0.0002195924 0 0)
(-0.00017356868 -5.9669415e-005 0 0.00017272432 0 0)
(-0.00014046122 -3.8999145e-005 0 0.00013986137 0 0)
(-0.00012125682 -1.9353098e-005 0 0.00012077408 0 0)
(-0.00011389988 3.1230149e-006 0 0.00011361002 0 0)
(-0.00011906049 2.5761976e-005 0 0.00011857256 0 0)
(-0.00013745167 5.3665557e-005 0 0.00013670356 0 0)
(-0.000176682 9.3246061e-005 0 0.00017571212 0 0)
(-0.00023237554 0.00014145504 0 0.00023019311 0 0)
(-0.00032023149 0.00021256227 0 0.00031580485 0 0)
(-0.00045531675 0.00032226622 0 0.00044722986 0 0)
(-0.00064319869 0.00047947436 0 0.00062485899 0 0)
(-0.00093327351 0.00073582805 0 0.00089486723 0 0)
(-0.0013738977 0.0011780829 0 0.0012926479 0 0)
(-0.0020695381 0.0018355237 0 0.0018555967 0 0)
(-0.0031098311 0.0030426201 0 0.0026821365 0 0)
(-0.0048864622 0.0044880552 0 0.0037029039 0 0)
(-0.0065828101 0.0067916902 0 0.0047135103 0 0)
(-0.011422341 0.009458698 0 0.0062133364 0 0)
(-0.0095109048 0.0072376101 0 0.0066749152 0 0)
(-0.00034201203 0.00032129606 0 0.00032986913 0 0)
(-0.00043066688 2.8058467e-005 0 0.00043802026 0 0)
(-0.0004331539 -7.7708644e-005 0 0.00042152931 0 0)
(-0.00035088873 -0.00011266437 0 0.00034954872 0 0)
(-0.00027673715 -0.00010748267 0 0.00027402058 0 0)
(-0.00021699725 -9.2009104e-005 0 0.00021548929 0 0)
(-0.0001687071 -6.9795511e-005 0 0.00016785613 0 0)
(-0.00013510356 -4.5706117e-005 0 0.00013451336 0 0)
(-0.00011561633 -2.3003101e-005 0 0.00011514593 0 0)
(-0.0001077556 2.67811e-006 0 0.00010747345 0 0)
(-0.00011216055 2.8646846e-005 0 0.00011170684 0 0)
(-0.00012866679 5.9808168e-005 0 0.00012795384 0 0)
(-0.00016464257 0.0001044363 0 0.00016370052 0 0)
(-0.00021614817 0.00015902875 0 0.00021396439 0 0)
(-0.00029643212 0.00023797916 0 0.00029196752 0 0)
(-0.00041936023 0.00036070523 0 0.00041134272 0 0)
(-0.00058820357 0.00053569022 0 0.000570124 0 0)
(-0.00084373105 0.00081863636 0 0.00080584203 0 0)
(-0.001223669 0.0013055994 0 0.001143573 0 0)
(-0.0018161282 0.0020184125 0 0.0016073118 0 0)
(-0.0026163348 0.0033425289 0 0.0022057843 0 0)
(-0.0041230051 0.0048958654 0 0.0029673235 0 0)
(-0.0050553773 0.0075455274 0 0.0033104386 0 0)
(-0.0095884553 0.010594119 0 0.004519153 0 0)
(-0.0069514607 0.0080871559 0 0.004528408 0 0)
(-0.00035308277 0.0003649102 0 0.00033907748 0 0)
(-0.00043908737 2.9310388e-005 0 0.0004478198 0 0)
(-0.00044118795 -9.2015118e-005 0 0.00042878136 0 0)
(-0.00035290768 -0.00013272701 0 0.00035121538 0 0)
(-0.00027367772 -0.00012550929 0 0.0002710179 0 0)
(-0.0002120507 -0.00010658877 0 0.00021051727 0 0)
(-0.00016300505 -8.0918437e-005 0 0.00016215774 0 0)
(-0.00012888179 -5.3166402e-005 0 0.00012833235 0 0)
(-0.00010922404 -2.7341239e-005 0 0.00010877245 0 0)
(-0.00010082261 1.1051727e-006 0 0.00010059812 0 0)
(-0.0001042508 3.0316292e-005 0 0.00010387133 0 0)
(-0.00011885328 6.4671064e-005 0 0.00011820332 0 0)
(-0.00015144349 0.00011416399 0 0.00015056536 0 0)
(-0.00019785825 0.00017421142 0 0.00019581442 0 0)
(-0.00026975496 0.00026029259 0 0.00026550011 0 0)
(-0.00037901306 0.00039493819 0 0.00037139322 0 0)
(-0.00052822217 0.00058362034 0 0.00051048232 0 0)
(-0.00074849043 0.00088681798 0 0.00071162102 0 0)
(-0.00106365 0.0014097288 0 0.00098667058 0 0)
(-0.0015558478 0.0021404765 0 0.0013503065 0 0)
(-0.0020791804 0.0035772769 0 0.0017087276 0 0)
(-0.0033071616 0.0050904869 0 0.002187742 0 0)
(-0.0032092217 0.0080444733 0 0.0017013 0 0)
(-0.0071897174 0.011040936 0 0.0024519687 0 0)
(-0.00060703927 0.010898916 0 -0.0020559943 0 0)
(-0.00036721615 0.00040871717 0 0.00034639259 0 0)
(-0.00044877021 2.9486798e-005 0 0.00046490262 0 0)
(-0.00045049752 -0.00010881404 0 0.00043428191 0 0)
(-0.00035509475 -0.00015557762 0 0.00035300626 0 0)
(-0.00027049521 -0.00014577214 0 0.00026814034 0 0)
(-0.00020502355 -0.00012256762 0 0.00020371056 0 0)
(-0.00015654969 -9.3500624e-005 0 0.00015589655 0 0)
(-0.00012177691 -6.1782015e-005 0 0.00012145151 0 0)
(-0.00010200459 -3.2680647e-005 0 0.00010171553 0 0)
(-9.3232471e-005 -2.0406374e-006 0 9.3304493e-005 0 0)
(-9.5567168e-005 3.0536697e-005 0 9.5449471e-005 0 0)
(-0.00010806509 6.7836059e-005 0 0.00010764383 0 0)
(-0.00013703622 0.00012174672 0 0.00013647683 0 0)
(-0.00017798367 0.00018635145 0 0.00017631229 0 0)
(-0.00024057108 0.00027885041 0 0.00023686979 0 0)
(-0.00033633338 0.00042352678 0 0.00032961188 0 0)
(-0.00046359341 0.00062248794 0 0.00044600154 0 0)
(-0.00064429265 0.00094196836 0 0.00060827665 0 0)
(-0.00089037033 0.0014937086 0 0.00081784191 0 0)
(-0.0012785754 0.0022129161 0 0.0010693076 0 0)
(-0.0015138191 0.0037003908 0 0.0011852809 0 0)
(-0.0022517786 0.0051538638 0 0.0011840775 0 0)
(-0.0010680924 0.0078260441 0 -6.7998692e-005 0 0)
(-0.0030387815 0.010000756 0 -0.00090897211 0 0)
(0.0034373929 0.011397496 0 -0.0076809054 0 0)
(-0.014363861 0.00053769396 0 0.0094284086 0 0)
(-0.0078409836 0.00094930065 0 0.0056745563 0 0)
(-0.0027081397 0.0013031096 0 0.0019285124 0 0)
(-0.00059400781 0.0015065605 0 0.00038290979 0 0)
(-0.00017179433 0.0016056779 0 3.3228741e-005 0 0)
(-6.5766407e-005 0.0016225723 0 -3.1414843e-005 0 0)
(-9.77795e-005 0.0016221348 0 -1.2340313e-006 0 0)
(-0.00010295933 0.001622564 0 5.7676931e-006 0 0)
(-9.9181576e-005 0.0016239298 0 1.6184727e-006 0 0)
(-9.4962227e-005 0.0016244471 0 -2.3101025e-006 0 0)
(-9.5519625e-005 0.0016241376 0 -1.7323321e-006 0 0)
(-9.656142e-005 0.0016238686 0 -6.3993139e-007 0 0)
(-9.7205105e-005 0.0016237423 0 9.642028e-010 0 0)
(-9.7294986e-005 0.0016237251 0 9.3219877e-008 0 0)
(-9.7233094e-005 0.0016237317 0 3.211132e-008 0 0)
(-9.7202319e-005 0.0016237364 0 1.1096976e-009 0 0)
(-9.7198237e-005 0.0016237367 0 -3.0554101e-009 0 0)
(-9.7200535e-005 0.0016237366 0 -8.1545569e-010 0 0)
(-9.7201176e-005 0.0016237363 0 -1.3882135e-010 0 0)
(-9.7201021e-005 0.001623736 0 -2.580066e-010 0 0)
(-9.7201161e-005 0.0016237362 0 -1.5140118e-010 0 0)
(-9.7200726e-005 0.0016237366 0 -5.3362258e-010 0 0)
(-9.7200275e-005 0.0016237367 0 -1.3878463e-009 0 0)
(-9.7208484e-005 0.0016237367 0 6.4423096e-009 0 0)
(-9.7206325e-005 0.001623741 0 7.1507286e-009 0 0)
(-0.01387601 0.0016872388 0 0.0090740673 0 0)
(-0.0075932851 0.0028699331 0 0.0054064144 0 0)
(-0.0030324118 0.003933831 0 0.0018730045 0 0)
(-0.0011424555 0.0046833533 0 0.00034905935 0 0)
(-0.0009036106 0.0048599437 0 5.215872e-005 0 0)
(-0.00084909548 0.0049118186 0 -9.2016025e-006 0 0)
(-0.00087588601 0.0049209833 0 2.6142452e-006 0 0)
(-0.00087829989 0.0049264264 0 4.2631271e-006 0 0)
(-0.00087468676 0.0049302514 0 -4.1889429e-008 0 0)
(-0.00087200918 0.0049309357 0 -2.1262026e-006 0 0)
(-0.00087210953 0.0049302222 0 -1.4162253e-006 0 0)
(-0.00087292655 0.0049295455 0 -3.6418108e-007 0 0)
(-0.00087330781 0.0049293208 0 5.1838909e-008 0 0)
(-0.00087332573 0.0049293043 0 7.6754854e-008 0 0)
(-0.00087328379 0.0049293237 0 3.0882194e-008 0 0)
(-0.00087325325 0.0049293366 0 -3.1009169e-010 0 0)
(-0.00087325096 0.0049293379 0 -2.5476824e-009 0 0)
(-0.00087325264 0.0049293371 0 -4.4857558e-010 0 0)
(-0.00087325304 0.0049293364 0 1.9273433e-010 0 0)
(-0.0008732537 0.0049293383 0 4.3409606e-011 0 0)
(-0.00087325317 0.0049293369 0 -1.0513111e-010 0 0)
(-0.00087325218 0.0049293355 0 -6.80181e-010 0 0)
(-0.00087325313 0.0049293386 0 -1.0085263e-009 0 0)
(-0.00087325803 0.004929339 0 3.8534036e-009 0 0)
(-0.00087325692 0.0049293494 0 4.4497113e-009 0 0)
(-0.012993177 0.0029335105 0 0.0085267592 0 0)
(-0.0069705429 0.0049328066 0 0.0048361404 0 0)
(-0.0036115768 0.0070180626 0 0.0015563208 0 0)
(-0.0026222147 0.0078557767 0 0.00052622826 0 0)
(-0.0023985784 0.0082325527 0 0.00011590464 0 0)
(-0.0023925182 0.0083612929 0 6.8997531e-006 0 0)
(-0.0024230405 0.0083764575 0 2.6740359e-006 0 0)
(-0.0024246769 0.0083819929 0 1.5251854e-006 0 0)
(-0.0024225172 0.0083862669 0 -1.4340092e-006 0 0)
(-0.0024206228 0.0083866561 0 -2.0442853e-006 0 0)
(-0.0024203614 0.0083852497 0 -9.7617393e-007 0 0)
(-0.0024206998 0.0083843644 0 -1.6813653e-007 0 0)
(-0.0024208528 0.0083841071 0 6.8002629e-008 0 0)
(-0.0024208374 0.0083841016 0 5.9004999e-008 0 0)
(-0.0024208044 0.0083841328 0 1.8202458e-008 0 0)
(-0.0024207884 0.0083841497 0 -1.4400256e-009 0 0)
(-0.0024207882 0.0083841515 0 -1.6719306e-009 0 0)
(-0.0024207891 0.0083841497 0 -1.1724325e-010 0 0)
(-0.0024207912 0.0083841518 0 4.0009289e-010 0 0)
(-0.0024207901 0.0083841499 0 1.9674121e-010 0 0)
(-0.0024207904 0.0083841515 0 -1.5418375e-010 0 0)
(-0.0024207899 0.0083841516 0 -3.34954e-010 0 0)
(-0.0024207885 0.0083841487 0 -7.6637634e-010 0 0)
(-0.0024207893 0.0083841507 0 1.0725881e-010 0 0)
(-0.0024207908 0.0083841645 0 7.502299e-010 0 0)
(-0.011689634 0.0041586379 0 0.0076090996 0 0)
(-0.0061960507 0.0079771025 0 0.0035198471 0 0)
(-0.0049421328 0.0099668446 0 0.0015661336 0 0)
(-0.0044264058 0.011437416 0 0.00040697283 0 0)
(-0.0046257006 0.01190856 0 7.3968606e-005 0 0)
(-0.0047123656 0.012000165 0 1.7498174e-005 0 0)
(-0.0047389501 0.012010532 0 1.9522279e-006 0 0)
(-0.0047390397 0.012013996 0 -1.6425639e-006 0 0)
(-0.0047383616 0.012016226 0 -2.4623423e-006 0 0)
(-0.0047369033 0.01201557 0 -1.5161763e-006 0 0)
(-0.0047361798 0.012013843 0 -3.7829813e-007 0 0)
(-0.0047360307 0.01201307 0 3.3804921e-008 0 0)
(-0.0047359807 0.012012892 0 6.5484195e-008 0 0)
(-0.0047359484 0.012012906 0 2.9016238e-008 0 0)
(-0.0047359381 0.012012943 0 3.8649599e-009 0 0)
(-0.0047359381 0.012012958 0 -1.5536337e-009 0 0)
(-0.0047359395 0.012012959 0 -4.6335247e-010 0 0)
(-0.0047359418 0.012012961 0 2.6412129e-010 0 0)
(-0.0047359408 0.012012959 0 2.6734616e-010 0 0)
(-0.0047359399 0.012012959 0 2.9768211e-010 0 0)
(-0.004735939 0.012012958 0 1.2329468e-010 0 0)
(-0.0047359386 0.012012958 0 -2.596313e-010 0 0)
(-0.0047359387 0.01201296 0 -1.1130638e-009 0 0)
(-0.0047359368 0.012012961 0 -3.2043481e-009 0 0)
(-0.0047359378 0.01201297 0 -2.7490717e-009 0 0)
(-0.0095293127 0.0058628451 0 0.0059562386 0 0)
(-0.0065228108 0.010767365 0 0.0026106587 0 0)
(-0.0066230363 0.013457384 0 0.0010955716 0 0)
(-0.0072165236 0.01519628 0 0.00032872118 0 0)
(-0.0077099437 0.015676562 0 9.1489807e-005 0 0)
(-0.0078019938 0.015768039 0 2.5509534e-005 0 0)
(-0.0078146061 0.015774539 0 3.1956246e-008 0 0)
(-0.007810619 0.015773466 0 -3.6746804e-006 0 0)
(-0.0078099533 0.015772462 0 -2.4916163e-006 0 0)
(-0.0078081662 0.01577041 0 -5.6116714e-007 0 0)
(-0.0078071443 0.015768994 0 1.5242475e-007 0 0)
(-0.0078066427 0.015768548 0 1.4014744e-007 0 0)
(-0.0078064773 0.015768487 0 2.8185239e-008 0 0)
(-0.0078064528 0.015768511 0 -6.8313926e-009 0 0)
(-0.0078064734 0.015768539 0 -5.3340504e-009 0 0)
(-0.0078064843 0.01576855 0 -5.6200439e-010 0 0)
(-0.0078064861 0.015768551 0 5.142241e-010 0 0)
(-0.0078064858 0.015768551 0 3.983638e-010 0 0)
(-0.0078064851 0.015768551 0 1.1981399e-010 0 0)
(-0.0078064862 0.015768552 0 1.318491e-010 0 0)
(-0.0078064857 0.015768551 0 2.0779447e-010 0 0)
(-0.0078064851 0.01576855 0 1.2264202e-010 0 0)
(-0.007806484 0.015768551 0 -6.7142873e-010 0 0)
(-0.0078064781 0.015768551 0 -5.1038557e-009 0 0)
(-0.007806477 0.015768552 0 -4.5881742e-009 0 0)
(-0.0074384857 0.0087644324 0 0.0036163458 0 0)
(-0.0069747936 0.014228282 0 0.0012767908 0 0)
(-0.0093514499 0.017516486 0 0.00046741054 0 0)
(-0.010991078 0.0191193 0 0.00023590504 0 0)
(-0.011570154 0.01950186 0 9.6980864e-005 0 0)
(-0.011621035 0.01957502 0 2.7299313e-005 0 0)
(-0.011612088 0.019573508 0 -5.3516955e-007 0 0)
(-0.011602906 0.019569079 0 -3.9737407e-006 0 0)
(-0.011600573 0.019564648 0 -1.220309e-006 0 0)
(-0.01159865 0.019562538 0 4.8613876e-007 0 0)
(-0.011597683 0.019561929 0 5.121225e-007 0 0)
(-0.011597038 0.019561876 0 1.4299388e-007 0 0)
(-0.011596853 0.019561898 0 -2.730712e-008 0 0)
(-0.011596852 0.019561911 0 -3.6243728e-008 0 0)
(-0.011596897 0.019561921 0 -9.0597673e-009 0 0)
(-0.011596914 0.019561927 0 1.0983038e-009 0 0)
(-0.011596915 0.019561928 0 1.1223073e-009 0 0)
(-0.011596914 0.019561929 0 1.8775017e-010 0 0)
(-0.011596914 0.019561929 0 -1.1277477e-011 0 0)
(-0.011596914 0.019561929 0 7.1467536e-011 0 0)
(-0.011596914 0.019561929 0 1.6939418e-010 0 0)
(-0.011596914 0.019561928 0 6.1578569e-010 0 0)
(-0.011596912 0.019561928 0 -1.1522319e-010 0 0)
(-0.011596905 0.019561928 0 -4.6129341e-009 0 0)
(-0.011596901 0.019561921 0 -4.1262723e-009 0 0)
(-0.0063783754 0.011349945 0 0.0014060845 0 0)
(-0.0089411876 0.018832607 0 -0.00028812427 0 0)
(-0.013832451 0.021826063 0 5.1944461e-005 0 0)
(-0.015641463 0.023033474 0 0.00016789782 0 0)
(-0.016110196 0.023272336 0 9.602276e-005 0 0)
(-0.016095522 0.023322715 0 2.7656024e-005 0 0)
(-0.016069903 0.02331744 0 6.4114035e-007 0 0)
(-0.016058233 0.023312335 0 -2.3724538e-006 0 0)
(-0.016055439 0.023307441 0 2.0022191e-007 0 0)
(-0.016054461 0.023306592 0 1.1278658e-006 0 0)
(-0.01605382 0.02330683 0 6.1840905e-007 0 0)
(-0.016053209 0.02330706 0 7.0519247e-008 0 0)
(-0.016053051 0.023307089 0 -7.7092184e-008 0 0)
(-0.016053075 0.023307071 0 -4.7203799e-008 0 0)
(-0.016053124 0.023307064 0 -9.2865772e-009 0 0)
(-0.016053142 0.023307067 0 2.5182616e-009 0 0)
(-0.016053142 0.023307069 0 1.188332e-009 0 0)
(-0.016053141 0.02330707 0 -1.3036191e-010 0 0)
(-0.016053141 0.02330707 0 -9.3060036e-011 0 0)
(-0.016053141 0.023307069 0 8.9140962e-011 0 0)
(-0.016053141 0.023307069 0 8.4070861e-011 0 0)
(-0.016053141 0.023307069 0 8.325935e-010 0 0)
(-0.01605314 0.023307068 0 5.4603764e-010 0 0)
(-0.016053134 0.023307066 0 -2.3191062e-009 0 0)
(-0.016053128 0.023307058 0 -2.3961608e-009 0 0)
(-0.0062781794 0.015965478 0 -0.0018019007 0 0)
(-0.013325196 0.024100118 0 -0.0016822387 0 0)
(-0.019699945 0.02612778 0 -0.00015676582 0 0)
(-0.020915688 0.026809452 0 0.00011610792 0 0)
(-0.02124836 0.026935441 0 9.0387996e-005 0 0)
(-0.021185248 0.026976104 0 2.6170372e-005 0 0)
(-0.021162729 0.026975925 0 2.02736e-006 0 0)
(-0.02115258 0.026972671 0 -9.8633499e-007 0 0)
(-0.021154035 0.0269703 0 1.0551947e-006 0 0)
(-0.021154786 0.026970994 0 1.3167375e-006 0 0)
(-0.021154591 0.026971924 0 5.0090105e-007 0 0)
(-0.021154105 0.026972231 0 -3.5268863e-009 0 0)
(-0.021153951 0.026972209 0 -9.6875917e-008 0 0)
(-0.021153975 0.026972154 0 -4.1160915e-008 0 0)
(-0.021154017 0.026972139 0 -4.249158e-009 0 0)
(-0.021154031 0.026972141 0 3.1872268e-009 0 0)
(-0.02115403 0.026972144 0 8.3562934e-010 0 0)
(-0.021154029 0.026972144 0 -3.2350433e-010 0 0)
(-0.021154028 0.026972144 0 -1.2771656e-010 0 0)
(-0.021154029 0.026972144 0 2.6637796e-011 0 0)
(-0.021154029 0.026972144 0 1.3721249e-010 0 0)
(-0.021154029 0.026972143 0 8.5753131e-010 0 0)
(-0.021154029 0.026972142 0 1.4916144e-009 0 0)
(-0.021154026 0.026972139 0 4.8337556e-010 0 0)
(-0.021154022 0.026972133 0 -5.6390186e-010 0 0)
(-0.011235988 0.02473226 0 -0.0053175923 0 0)
(-0.021061485 0.030015348 0 -0.0027236351 0 0)
(-0.026496894 0.030299867 0 -0.00020258184 0 0)
(-0.026754199 0.030461429 0 5.6198412e-005 0 0)
(-0.026968408 0.030528795 0 8.4911005e-005 0 0)
(-0.026921751 0.03058272 0 2.1289841e-005 0 0)
(-0.026925187 0.030590369 0 4.4355149e-006 0 0)
(-0.026923808 0.030591836 0 -1.7373895e-007 0 0)
(-0.026930418 0.030592319 0 1.1869708e-006 0 0)
(-0.026932459 0.030594279 0 8.4450197e-007 0 0)
(-0.026932791 0.030595289 0 2.5069269e-007 0 0)
(-0.026932374 0.030595465 0 -6.9470012e-008 0 0)
(-0.026932203 0.030595348 0 -8.1828712e-008 0 0)
(-0.026932195 0.03059527 0 -2.7059539e-008 0 0)
(-0.026932224 0.030595255 0 4.6389035e-011 0 0)
(-0.026932233 0.03059526 0 2.6475287e-009 0 0)
(-0.026932232 0.030595262 0 4.1441675e-010 0 0)
(-0.02693223 0.030595262 0 -3.2344339e-010 0 0)
(-0.02693223 0.030595261 0 -1.1873575e-010 0 0)
(-0.026932229 0.030595261 0 -5.1941096e-011 0 0)
(-0.02693223 0.030595261 0 1.4099305e-010 0 0)
(-0.02693223 0.030595261 0 7.9938115e-010 0 0)
(-0.026932232 0.03059526 0 2.5740286e-009 0 0)
(-0.026932233 0.030595259 0 2.7382234e-009 0 0)
(-0.026932241 0.030595261 0 7.2619383e-010 0 0)
(-0.033531423 0.041673324 0 -0.0098420262 0 0)
(-0.031488812 0.035045185 0 -0.0018163698 0 0)
(-0.037719554 0.036160238 0 -0.00013299084 0 0)
(-0.036201695 0.035519087 0 3.5053165e-005 0 0)
(-0.037031211 0.035892504 0 4.5726583e-005 0 0)
(-0.036926644 0.03589698 0 9.1821285e-006 0 0)
(-0.037015447 0.035933615 0 1.3048679e-006 0 0)
(-0.037005704 0.035927163 0 -4.5592306e-007 0 0)
(-0.037019335 0.035931067 0 3.959481e-007 0 0)
(-0.037020112 0.035932207 0 2.3990392e-007 0 0)
(-0.037021194 0.035933196 0 5.1958157e-008 0 0)
(-0.037020582 0.03593307 0 -4.6762943e-008 0 0)
(-0.037020389 0.035932915 0 -3.3419398e-008 0 0)
(-0.037020308 0.035932828 0 -8.4491324e-009 0 0)
(-0.037020328 0.035932825 0 1.270132e-009 0 0)
(-0.037020335 0.035932831 0 1.1977293e-009 0 0)
(-0.037020336 0.035932833 0 1.2309615e-010 0 0)
(-0.037020334 0.035932833 0 -1.2008528e-010 0 0)
(-0.037020333 0.035932832 0 -8.3503371e-012 0 0)
(-0.037020333 0.035932832 0 -6.2311774e-011 0 0)
(-0.037020333 0.035932832 0 2.1861286e-011 0 0)
(-0.037020335 0.035932833 0 5.8561255e-010 0 0)
(-0.037020339 0.035932833 0 2.4020367e-009 0 0)
(-0.037020346 0.035932837 0 2.1806717e-009 0 0)
(-0.037020367 0.035932847 0 -1.1665474e-010 0 0)
(-0.00040181277 0.00050103623 0 0.00036901142 0 0)
(-0.00047189208 2.4047848e-005 0 0.00050843151 0 0)
(-0.0004716314 -0.00015467476 0 0.00044990224 0 0)
(-0.00035910473 -0.00020805723 0 0.00035425817 0 0)
(-0.00026131271 -0.00019264155 0 0.00025860908 0 0)
(-0.00019039618 -0.00015854788 0 0.00018759783 0 0)
(-0.00014241242 -0.00012296365 0 0.00014071789 0 0)
(-0.00010622438 -8.279689e-005 0 0.00010519204 0 0)
(-8.6366697e-005 -4.7921912e-005 0 8.5436086e-005 0 0)
(-7.6693228e-005 -1.1307872e-005 0 7.6064273e-005 0 0)
(-7.699995e-005 2.6843899e-005 0 7.6244037e-005 0 0)
(-8.5692642e-005 6.9436417e-005 0 8.4453882e-005 0 0)
(-0.00010605179 0.00012925415 0 0.00010514388 0 0)
(-0.00013591036 0.00020107954 0 0.00013339901 0 0)
(-0.00018106538 0.00030148419 0 0.0001754721 0 0)
(-0.00024831736 0.00046476025 0 0.00024083534 0 0)
(-0.00032945781 0.00067667049 0 0.00031078544 0 0)
(-0.00044318416 0.0010027607 0 0.00040511003 0 0)
(-0.00055972198 0.001583342 0 0.00049598436 0 0)
(-0.00071149381 0.00228596 0 0.00052480467 0 0)
(-0.00067356087 0.0036684245 0 0.00039774707 0 0)
(-0.00062977213 0.0049217946 0 -0.00024735549 0 0)
(0.0011696383 0.0069775364 0 -0.0018285607 0 0)
(0.0018227484 0.007487285 0 -0.0041934129 0 0)
(0.0097830549 0.0067168198 0 -0.012634157 0 0)
(-0.00048574873 0.00065504036 0 0.00043649501 0 0)
(-0.00053861216 -2.3283752e-006 0 0.00058703812 0 0)
(-0.00051423233 -0.0002502664 0 0.00048509094 0 0)
(-0.00036062527 -0.00030338205 0 0.00035180315 0 0)
(-0.000238112 -0.00027325293 0 0.00023585097 0 0)
(-0.0001588677 -0.0002197254 0 0.00015608909 0 0)
(-0.00011018523 -0.00016959048 0 0.0001088782 0 0)
(-7.4998741e-005 -0.0001167013 0 7.4755159e-005 0 0)
(-5.6235916e-005 -7.1848859e-005 0 5.577184e-005 0 0)
(-4.6430852e-005 -2.9316113e-005 0 4.610243e-005 0 0)
(-4.2794729e-005 1.4667686e-005 0 4.3164904e-005 0 0)
(-4.4954943e-005 6.1783266e-005 0 4.44804e-005 0 0)
(-5.2637683e-005 0.00012804162 0 5.2408412e-005 0 0)
(-6.475899e-005 0.00021171974 0 6.4326779e-005 0 0)
(-8.0939948e-005 0.0003140095 0 7.6300572e-005 0 0)
(-0.00010295648 0.00048483502 0 9.7386727e-005 0 0)
(-0.00011783312 0.00070694417 0 0.00010578833 0 0)
(-0.00013317167 0.0010167142 0 9.9103955e-005 0 0)
(-7.8908382e-005 0.0015610515 0 2.5086279e-005 0 0)
(1.4453201e-005 0.002188457 0 -0.00016996368 0 0)
(0.0004641256 0.0031713763 0 -0.00071443756 0 0)
(0.001063 0.0038281677 0 -0.0017595137 0 0)
(0.0030593158 0.004271146 0 -0.0037659355 0 0)
(0.0051548963 0.001832091 0 -0.0072910553 0 0)
(0.0063553834 -0.0016760859 0 -0.0093733461 0 0)
(-0.00063337647 0.00082659954 0 0.00057012968 0 0)
(-0.00063997316 -5.7406749e-005 0 0.00069495834 0 0)
(-0.00056263662 -0.00037047764 0 0.00052572257 0 0)
(-0.00034791583 -0.00040792888 0 0.00033551823 0 0)
(-0.00019781695 -0.0003467573 0 0.00019500595 0 0)
(-0.00011278527 -0.00026500605 0 0.00010954133 0 0)
(-6.6882621e-005 -0.00019765094 0 6.5268168e-005 0 0)
(-3.6203294e-005 -0.00013143128 0 3.5789908e-005 0 0)
(-2.0404482e-005 -7.7344048e-005 0 1.9963444e-005 0 0)
(-1.1625596e-005 -3.3314849e-005 0 1.1490851e-005 0 0)
(-5.1410563e-006 1.6612754e-005 0 5.7636026e-006 0 0)
(-1.2381027e-006 6.6852906e-005 0 1.0795887e-006 0 0)
(2.6787066e-006 0.0001342014 0 -4.2092185e-006 0 0)
(1.0591792e-005 0.00021741486 0 -1.0439489e-005 0 0)
(2.0607418e-005 0.00032218372 0 -2.3519011e-005 0 0)
(3.9282507e-005 0.00047208839 0 -4.6213996e-005 0 0)
(8.3603311e-005 0.00070164137 0 -9.3690893e-005 0 0)
(0.0001459215 0.00097201873 0 -0.00017661979 0 0)
(0.00031036417 0.0014398471 0 -0.00035984303 0 0)
(0.00057078741 0.0019499274 0 -0.00069362659 0 0)
(0.0011521704 0.0026433295 0 -0.0013492885 0 0)
(0.001985822 0.0029631868 0 -0.0024068948 0 0)
(0.0034376697 0.0027837109 0 -0.0038095019 0 0)
(0.0046692863 0.0005691826 0 -0.0054203647 0 0)
(0.0036413379 -0.0032825876 0 -0.0039538542 0 0)
(-0.00087342159 0.0010459782 0 0.00078583578 0 0)
(-0.00075389884 -0.00012749229 0 0.00081749642 0 0)
(-0.00058577616 -0.00047112486 0 0.00053732551 0 0)