/*--------------------------------*- C++ -*----------------------------------*\
| =========                 |                                                 |
| \\      /  F ield         | OpenFOAM: The Open Source CFD Toolbox           |
|  \\    /   O peration     | Version:  5.x                                   |
|   \\  /    A nd           | Web:      www.OpenFOAM.org                      |
|    \\/     M anipulation  |                                                 |
\*---------------------------------------------------------------------------*/
/*   Windows 32 and 64 bit porting by blueCAPE: http://www.bluecape.com.pt   *\
|  Based on Windows porting (2.0.x v4) by Symscape: http://www.symscape.com   |
\*---------------------------------------------------------------------------*/
FoamFile
{
    version     2.0;
    format      ascii;
    class       volVectorField;
    location    "0.16";
    object      U;
}
// * * * * * * * * * * * * * * * * * * * * * * * * * * * * * * * * * * * * * //

dimensions      [0 1 -1 0 0 0 0];

internalField   nonuniform List<vector> 
750
(
(0.039243169 -0.00012328178 0)
(0.040277716 -0.00015380149 0)
(0.041657268 -0.0001515415 0)
(0.042737941 -0.00012905055 0)
(0.043707668 -0.00010770059 0)
(0.044464792 -8.5430122e-005 0)
(0.045072279 -6.8544638e-005 0)
(0.045560347 -5.6150327e-005 0)
(0.045968755 -4.8523339e-005 0)
(0.046334886 -4.5617323e-005 0)
(0.046696121 -4.7764143e-005 0)
(0.047097305 -5.5971878e-005 0)
(0.047588693 -7.1209964e-005 0)
(0.048231658 -9.6093564e-005 0)
(0.049121365 -0.00013489669 0)
(0.050381792 -0.00019310561 0)
(0.052195881 -0.00028172861 0)
(0.054872457 -0.00042065484 0)
(0.058894089 -0.00064353485 0)
(0.065091981 -0.0010169179 0)
(0.075134879 -0.0015675915 0)
(0.089807093 -0.0024086935 0)
(0.11384797 -0.003354141 0)
(0.14224519 -0.0042848271 0)
(0.18330606 -0.004738787 0)
(0.039246403 -0.00036847359 0)
(0.040282939 -0.00046581957 0)
(0.041666195 -0.00045261536 0)
(0.042748837 -0.00038828091 0)
(0.043717455 -0.00032227217 0)
(0.044473314 -0.00025625274 0)
(0.045078958 -0.0002052204 0)
(0.045564785 -0.00016799394 0)
(0.045970841 -0.00014508839 0)
(0.04633444 -0.00013636744 0)
(0.046693013 -0.00014272252 0)
(0.047091009 -0.00016718787 0)
(0.047577967 -0.00021267885 0)
(0.048215085 -0.0002868784 0)
(0.049096449 -0.00040264916 0)
(0.050343912 -0.00057626805 0)
(0.052138569 -0.00084027698 0)
(0.054784677 -0.0012540183 0)
(0.058754163 -0.0019168407 0)
(0.064864584 -0.0030234743 0)
(0.074745781 -0.0046700955 0)
(0.089164487 -0.0071346956 0)
(0.11274689 -0.010008242 0)
(0.14049017 -0.012682649 0)
(0.18118291 -0.014213007 0)
(0.039251691 -0.00061381229 0)
(0.040293647 -0.00078123992 0)
(0.04168435 -0.00075314791 0)
(0.042770373 -0.00064826596 0)
(0.043737391 -0.0005361936 0)
(0.044490715 -0.00042661294 0)
(0.045092418 -0.00034116331 0)
(0.045573834 -0.00027903999 0)
(0.045975227 -0.00024080053 0)
(0.04633378 -0.00022622467 0)
(0.04668699 -0.00023665023 0)
(0.04707859 -0.00027708229 0)
(0.047556892 -0.00035235789 0)
(0.048182245 -0.0004751594 0)
(0.049046801 -0.00066669258 0)
(0.050268607 -0.00095376148 0)
(0.052024043 -0.0013899237 0)
(0.054608457 -0.0020727885 0)
(0.058474355 -0.0031667177 0)
(0.064410652 -0.0049852942 0)
(0.073969937 -0.0077027716 0)
(0.087849895 -0.011723579 0)
(0.11059356 -0.016503795 0)
(0.13707907 -0.020865995 0)
(0.17688764 -0.023600197 0)
(0.039259061 -0.00086155262 0)
(0.040309737 -0.0010988945 0)
(0.041711661 -0.0010553047 0)
(0.042802504 -0.00090848659 0)
(0.043767529 -0.00074961021 0)
(0.044517039 -0.00059586455 0)
(0.045112561 -0.00047579491 0)
(0.045587371 -0.00038867317 0)
(0.045981793 -0.00033499038 0)
(0.046332868 -0.00031445918 0)
(0.046677991 -0.0003287311 0)
(0.047060011 -0.00038463203 0)
(0.04752563 -0.00048883905 0)
(0.048133449 -0.00065897442 0)
(0.048972944 -0.00092409661 0)
(0.050157025 -0.0013211536 0)
(0.05185418 -0.0019238291 0)
(0.054347304 -0.0028661039 0)
(0.058062347 -0.0043726436 0)
(0.06373448 -0.006869309 0)
(0.072824169 -0.010603159 0)
(0.085911282 -0.016100161 0)
(0.10743737 -0.022661619 0)
(0.13192444 -0.028647678 0)
(0.17033718 -0.032682364 0)
(0.039269051 -0.0011127396 0)
(0.040331146 -0.001419381 0)
(0.041748228 -0.0013599655 0)
(0.042845519 -0.0011689762 0)
(0.043808003 -0.00096228196 0)
(0.04455231 -0.00076359128 0)
(0.045139369 -0.00060855865 0)
(0.045605302 -0.00049632736 0)
(0.045990461 -0.00042706672 0)
(0.046331683 -0.00040043109 0)
(0.04666605 -0.00041823263 0)
(0.047035371 -0.00048893758 0)
(0.047484364 -0.00062098161 0)
(0.048069217 -0.00083661889 0)
(0.048875837 -0.001172425 0)
(0.050010751 -0.0016747262 0)
(0.051631694 -0.0024360305 0)
(0.05400532 -0.0036240904 0)
(0.057523858 -0.0055185515 0)
(0.062846547 -0.0086476055 0)
(0.071348651 -0.013321287 0)
(0.083378939 -0.020184768 0)
(0.1032974 -0.028365496 0)
(0.12508452 -0.035915568 0)
(0.16156505 -0.041084402 0)
(0.039282249 -0.0013682992 0)
(0.040358165 -0.0017436509 0)
(0.041794581 -0.0016677809 0)
(0.04290024 -0.0014299018 0)
(0.043859439 -0.0011739341 0)
(0.044596915 -0.00092933766 0)
(0.045173206 -0.00073888172 0)
(0.045627922 -0.00060143188 0)
(0.046001579 -0.00051646869 0)
(0.046330542 -0.00048350898 0)
(0.046651597 -0.00050444285 0)
(0.047005223 -0.00058914697 0)
(0.047433782 -0.00074764525 0)
(0.047990496 -0.0010064194 0)
(0.048756539 -0.0014092741 0)
(0.049831455 -0.0020108496 0)
(0.051359589 -0.0029210441 0)
(0.053587481 -0.0043385921 0)
(0.056868136 -0.0065888383 0)
(0.061772329 -0.010296035 0)
(0.069560446 -0.015808756 0)
(0.080284132 -0.023899041 0)
(0.098255173 -0.033464581 0)
(0.1166032 -0.042550555 0)
(0.15075181 -0.048685089 0)
(0.039299414 -0.0016293954 0)
(0.040391519 -0.0020724939 0)
(0.041851738 -0.0019795248 0)
(0.042968107 -0.0016914006 0)
(0.043923039 -0.0013842423 0)
(0.044651665 -0.0010925967 0)
(0.045214931 -0.00086619069 0)
(0.04565599 -0.00070340656 0)
(0.046015806 -0.0006026079 0)
(0.046330338 -0.00056308115 0)
(0.046635463 -0.00058671316 0)
(0.046970554 -0.00068442773 0)
(0.047375064 -0.00086759004 0)
(0.047898581 -0.0011668937 0)
(0.048617112 -0.001632468 0)
(0.049621759 -0.0023262011 0)
(0.051042435 -0.0033735429 0)
(0.053101297 -0.0050006607 0)
(0.056106131 -0.007570552 0)
(0.060531851 -0.011790503 0)
(0.067490869 -0.018020768 0)
(0.076681927 -0.027163465 0)
(0.092393274 -0.03781806 0)
(0.10645605 -0.048295629 0)
(0.13851153 -0.055515355 0)
(0.039322126 -0.0018977046 0)
(0.040432445 -0.0024065351 0)
(0.041921625 -0.0022963384 0)
(0.043051383 -0.0019535891 0)
(0.044000574 -0.0015928144 0)
(0.04471798 -0.0012527703 0)
(0.045266034 -0.00098987184 0)
(0.04569074 -0.00080162217 0)
(0.046034299 -0.00068492946 0)
(0.04633252 -0.00063857452 0)
(0.046619176 -0.00066430696 0)
(0.046932834 -0.00077392521 0)
(0.047309813 -0.0009798896 0)
(0.047795788 -0.0013165574 0)
(0.048460639 -0.0018398254 0)
(0.049385372 -0.0026178333 0)
(0.05068608 -0.003789424 0)
(0.05255579 -0.0056035646 0)
(0.055252461 -0.0084526756 0)
(0.059154 -0.01311261 0)
(0.065182024 -0.019920518 0)
(0.072646435 -0.029925022 0)
(0.085809443 -0.041320439 0)
(0.095222421 -0.053107099 0)
(0.12504797 -0.060349737 0)
(0.039352383 -0.0021751664 0)
(0.040483246 -0.0027468761 0)
(0.042006665 -0.002619282 0)
(0.043152971 -0.002216608 0)
(0.044094194 -0.0017992395 0)
(0.04479793 -0.0014090675 0)
(0.045328391 -0.001109309 0)
(0.04573388 -0.00089542132 0)
(0.04605882 -0.00076287499 0)
(0.046338615 -0.00070943099 0)
(0.046604623 -0.00073657823 0)
(0.046894179 -0.00085692456 0)
(0.047240486 -0.0010836536 0)
(0.047685012 -0.0014541679 0)
(0.048290802 -0.0020294093 0)
(0.04912721 -0.002883237 0)
(0.050296809 -0.0041646828 0)
(0.051961909 -0.0061412014 0)
(0.054325532 -0.009225649 0)
(0.05765606 -0.014243749 0)
(0.06268804 -0.021467384 0)
(0.068284624 -0.032098259 0)
(0.078668439 -0.043891821 0)
(0.08300732 -0.057077395 0)
(0.11024511 -0.063575069 0)
(0.039391387 -0.0024619082 0)
(0.040547548 -0.0030977254 0)
(0.042109763 -0.0029475683 0)
(0.043275945 -0.0024807162 0)
(0.04420639 -0.0020026151 0)
(0.044893944 -0.0015613083 0)
(0.045403721 -0.001223821 0)
(0.045787271 -0.0009842527 0)
(0.04609131 -0.00083587348 0)
(0.046350153 -0.00077513953 0)
(0.046593703 -0.00080307905 0)
(0.04685689 -0.00093281796 0)
(0.047170007 -0.0011779299 0)
(0.047568911 -0.00157876 0)
(0.048111659 -0.002200027 0)
(0.048852522 -0.0031203414 0)
(0.049879734 -0.0044964901 0)
(0.051328978 -0.006610616 0)
(0.053341103 -0.0098832607 0)
(0.056062518 -0.015168195 0)
(0.060069629 -0.022681674 0)
(0.06382192 -0.03365254 0)
(0.070998139 -0.045559432 0)
(0.069599114 -0.059725889 0)
(0.090662966 -0.063907878 0)
(0.21579598 -0.0025727013 0)
(0.22517546 -0.00083001909 0)
(0.22760704 -7.2293663e-005 0)
(0.22659111 0.00012450629 0)
(0.2258276 0.00010349072 0)
(0.22508485 6.3197088e-005 0)
(0.22486406 1.7252809e-005 0)
(0.22485682 -2.3135643e-006 0)
(0.22490495 -4.5123239e-006 0)
(0.22492649 -1.8120743e-006 0)
(0.22492913 -3.031901e-008 0)
(0.22492608 2.6076654e-007 0)
(0.22492478 8.990388e-008 0)
(0.22492481 -1.2341573e-008 0)
(0.22492504 -2.1657884e-008 0)
(0.22492512 -4.6905028e-009 0)
(0.22492511 1.5748093e-009 0)
(0.22492509 1.3960297e-009 0)
(0.22492509 6.1563709e-010 0)
(0.22492509 2.2350155e-010 0)
(0.22492508 -7.9874663e-011 0)
(0.22492508 -2.7552316e-010 0)
(0.22492509 -7.9158588e-010 0)
(0.2249251 -1.9853227e-009 0)
(0.22492513 -1.6685442e-009 0)
(0.21285713 -0.0074159498 0)
(0.22110128 -0.0024214376 0)
(0.22355337 -0.00015306781 0)
(0.22260413 0.00026567759 0)
(0.2218673 0.0002913176 0)
(0.2212522 0.00017116105 0)
(0.22110196 4.3184786e-005 0)
(0.22110991 -8.8179781e-006 0)
(0.221152 -1.2578863e-005 0)
(0.22116825 -4.4727862e-006 0)
(0.22116905 1.3380267e-007 0)
(0.22116623 7.8186082e-007 0)
(0.22116522 2.3415115e-007 0)
(0.22116535 -5.2724527e-008 0)
(0.22116556 -5.7260769e-008 0)
(0.22116561 -1.1432473e-008 0)
(0.2211656 4.7199375e-009 0)
(0.22116559 3.8532485e-009 0)
(0.22116558 1.1765415e-009 0)
(0.22116558 3.9054962e-010 0)
(0.22116558 3.6147958e-010 0)
(0.22116558 -9.8978413e-010 0)
(0.22116558 -2.7570054e-009 0)
(0.22116559 -6.7022747e-009 0)
(0.22116563 -6.106056e-009 0)
(0.20685271 -0.011830432 0)
(0.21289993 -0.0038227004 0)
(0.21552911 -0.00028778611 0)
(0.21440556 0.0004533216 0)
(0.21380232 0.00046238912 0)
(0.21347353 0.00024024582 0)
(0.21344319 5.5153711e-005 0)
(0.21346981 -1.6400125e-005 0)
(0.21349982 -1.8707291e-005 0)
(0.21350702 -5.9957096e-006 0)
(0.21350532 5.4355966e-007 0)
(0.21350305 1.2160913e-006 0)
(0.21350262 3.1560277e-007 0)
(0.21350285 -1.0050827e-007 0)
(0.213503 -8.4424196e-008 0)
(0.21350302 -1.4830629e-008 0)
(0.213503 7.7553954e-009 0)
(0.21350299 5.4776835e-009 0)
(0.21350299 1.3524284e-009 0)
(0.213503 2.9017124e-010 0)
(0.213503 4.5339004e-010 0)
(0.21350299 -1.0514137e-009 0)
(0.21350299 -4.1062641e-009 0)
(0.213503 -1.2680623e-008 0)
(0.21350305 -1.1799607e-008 0)
(0.1974675 -0.01557094 0)
(0.20090375 -0.005060424 0)
(0.20302909 -0.00033052451 0)
(0.20178497 0.00063716471 0)
(0.20159553 0.00056284703 0)
(0.20156299 0.00025647977 0)
(0.2016386 4.9106598e-005 0)
(0.20167215 -2.3906257e-005 0)
(0.2016854 -2.1554465e-005 0)
(0.20168279 -6.0078981e-006 0)
(0.20167921 1.1514343e-006 0)
(0.20167796 1.4441547e-006 0)
(0.20167817 2.9660865e-007 0)
(0.20167842 -1.4615977e-007 0)
(0.20167849 -9.9214623e-008 0)
(0.20167847 -1.3593403e-008 0)
(0.20167846 1.0052593e-008 0)
(0.20167846 6.022908e-009 0)
(0.20167846 1.245476e-009 0)
(0.20167846 9.9945255e-011 0)
(0.20167846 4.8694328e-010 0)
(0.20167846 -8.2062772e-010 0)
(0.20167846 -5.3159305e-009 0)
(0.20167846 -1.9297685e-008 0)
(0.20167851 -1.8047305e-008 0)
(0.1847036 -0.018403809 0)
(0.18457951 -0.0058652139 0)
(0.1855278 -0.00020620031 0)
(0.18475967 0.00069669146 0)
(0.18505236 0.00054829972 0)
(0.18521983 0.00022453439 0)
(0.18535758 3.161944e-005 0)
(0.18538061 -2.8913764e-005 0)
(0.18537563 -2.092645e-005 0)
(0.18536524 -4.6243251e-006 0)
(0.1853616 1.756149e-006 0)
(0.18536175 1.4439195e-006 0)
(0.18536246 2.0228203e-007 0)
(0.18536263 -1.7743925e-007 0)
(0.18536259 -9.6711951e-008 0)
(0.18536255 -8.5030165e-009 0)
(0.18536255 1.1177091e-008 0)
(0.18536255 5.4724693e-009 0)
(0.18536256 8.5453526e-010 0)
(0.18536255 3.5356147e-011 0)
(0.18536255 3.2814763e-010 0)
(0.18536255 -2.2828851e-010 0)
(0.18536255 -5.6615727e-009 0)
(0.18536255 -2.5273672e-008 0)
(0.18536259 -2.3698886e-008 0)
(0.16874432 -0.020269928 0)
(0.16285162 -0.0058213089 0)
(0.16332746 -9.667902e-005 0)
(0.16315468 0.0006375533 0)
(0.16380987 0.0004705926 0)
(0.16408987 0.00016900302 0)
(0.1642427 1.2150343e-005 0)
(0.16424182 -2.9366197e-005 0)
(0.16422107 -1.7219182e-005 0)
(0.16420719 -2.6138699e-006 0)
(0.16420547 2.0380233e-006 0)
(0.16420698 1.2128412e-006 0)
(0.16420787 8.0703973e-008 0)
(0.16420787 -1.8023367e-007 0)
(0.16420775 -7.8176498e-008 0)
(0.1642077 -2.0238622e-009 0)
(0.1642077 1.0409094e-008 0)
(0.16420771 4.1364706e-009 0)
(0.16420771 5.6569144e-010 0)
(0.16420771 9.0022078e-011 0)
(0.16420771 2.8576882e-010 0)
(0.16420771 2.6654054e-010 0)
(0.16420771 -5.3248441e-009 0)
(0.16420771 -2.8280766e-008 0)
(0.16420771 -2.6448177e-008 0)
(0.14805414 -0.020367851 0)
(0.13577196 -0.005117116 0)
(0.1365936 -2.3434163e-005 0)
(0.13666709 0.00048019165 0)
(0.13753542 0.00034842051 0)
(0.13783935 0.00010629973 0)
(0.13796775 -2.1089049e-006 0)
(0.13793981 -2.4539854e-005 0)
(0.13791015 -1.1682226e-005 0)
(0.13789764 -8.7089153e-007 0)
(0.13789869 1.8353063e-006 0)
(0.137901 8.2819131e-007 0)
(0.13790176 -1.5149e-008 0)
(0.13790157 -1.4920986e-007 0)
(0.1379014 -5.1579094e-008 0)
(0.13790136 2.8601886e-009 0)
(0.13790138 8.1150368e-009 0)
(0.13790139 2.5710566e-009 0)
(0.13790139 2.0009223e-010 0)
(0.13790139 5.1668242e-011 0)
(0.13790139 3.6238155e-010 0)
(0.13790139 6.3760963e-010 0)
(0.13790139 -4.4428903e-009 0)
(0.13790138 -2.6249597e-008 0)
(0.13790135 -2.4548075e-008 0)
(0.12063559 -0.017841503 0)
(0.10370907 -0.0038507268 0)
(0.1050581 -4.4187457e-006 0)
(0.10502065 0.00028875886 0)
(0.10597313 0.00021225116 0)
(0.10621455 5.0990364e-005 0)
(0.10629903 -7.9157774e-006 0)
(0.10625186 -1.5975522e-005 0)
(0.1062234 -6.1069153e-006 0)
(0.10621513 1.0395798e-007 0)
(0.10621828 1.2338872e-006 0)
(0.1062206 4.267293e-007 0)
(0.10622102 -5.4744115e-008 0)
(0.10622073 -9.4214394e-008 0)
(0.10622057 -2.5687868e-008 0)
(0.10622055 4.3633586e-009 0)
(0.10622057 4.97187e-009 0)
(0.10622057 1.2369302e-009 0)
(0.10622058 -3.4328983e-011 0)
(0.10622058 -3.585154e-012 0)
(0.10622057 3.6684337e-010 0)
(0.10622058 7.8272171e-010 0)
(0.10622057 -2.9296216e-009 0)
(0.10622056 -1.8785447e-008 0)
(0.1062205 -1.7746579e-008 0)
(0.086029496 -0.012862355 0)
(0.066732092 -0.0022306044 0)
(0.068371631 2.1972618e-005 0)
(0.068106441 0.00011537559 0)
(0.06896643 9.3722241e-005 0)
(0.069085819 1.3811887e-005 0)
(0.069129048 -5.4322376e-006 0)
(0.069079987 -6.9243596e-006 0)
(0.06906134 -1.9382928e-006 0)
(0.069057494 2.8056113e-007 0)
(0.069061016 5.2322922e-007 0)
(0.069062599 1.2732409e-007 0)
(0.069062713 -4.1541885e-008 0)
(0.069062432 -3.7704848e-008 0)
(0.069062329 -7.0238406e-009 0)
(0.069062328 2.8907524e-009 0)
(0.069062343 1.9540125e-009 0)
(0.069062348 3.4886777e-010 0)
(0.069062348 -4.8213742e-011 0)
(0.069062348 1.8176641e-011 0)
(0.069062348 2.5954513e-010 0)
(0.069062349 5.660606e-010 0)
(0.069062349 -1.0384475e-009 0)
(0.069062339 -8.5779823e-009 0)
(0.069062272 -8.4212851e-009 0)
(0.039928041 -0.006795393 0)
(0.024445771 -0.00010302978 0)
(0.026363409 1.4161478e-005 0)
(0.025864649 1.8349419e-005 0)
(0.02640903 -3.6885845e-006 0)
(0.026385169 -2.8089308e-006 0)
(0.026406954 -2.005536e-006 0)
(0.026377104 -4.9797905e-007 0)
(0.026372392 -9.2545419e-008 0)
(0.026371151 4.0127416e-008 0)
(0.026373011 1.9236828e-008 0)
(0.026373468 1.1900783e-009 0)
(0.026373449 -2.9108419e-009 0)
(0.026373316 2.3807802e-010 0)
(0.026373288 6.3325964e-010 0)
(0.026373292 3.680625e-010 0)
(0.026373299 7.6852628e-011 0)
(0.026373301 1.0494081e-013 0)
(0.026373301 -6.5029272e-012 0)
(0.0263733 1.5158568e-011 0)
(0.0263733 5.839857e-011 0)
(0.026373301 8.172347e-011 0)
(0.026373302 -1.763651e-010 0)
(0.026373298 -1.6605518e-009 0)
(0.026373262 -1.6385537e-009 0)
(0.039486776 -0.0030472386 0)
(0.040710904 -0.0038373967 0)
(0.042360154 -0.0036081175 0)
(0.043570001 -0.0030119437 0)
(0.044473422 -0.0024025172 0)
(0.04512229 -0.0018570624 0)
(0.045582786 -0.0014417562 0)
(0.045917435 -0.001151312 0)
(0.046174742 -0.00097130797 0)
(0.046387716 -0.00089602734 0)
(0.046582813 -0.00092399422 0)
(0.046788991 -0.0010693841 0)
(0.047030598 -0.0013465898 0)
(0.047330802 -0.0018004749 0)
(0.047738979 -0.0025016252 0)
(0.048279742 -0.0035344661 0)
(0.049004844 -0.0050666323 0)
(0.050001695 -0.0074027546 0)
(0.051290629 -0.010954664 0)
(0.052802508 -0.016574518 0)
(0.054773506 -0.024395353 0)
(0.055321568 -0.035322629 0)
(0.056003635 -0.046461486 0)
(0.043027264 -0.059012591 0)
(0.036015464 -0.047780715 0)
(0.03969774 -0.004053185 0)
(0.041142883 -0.005123984 0)
(0.042991568 -0.0046555942 0)
(0.044246744 -0.0038099053 0)
(0.045084742 -0.0029621435 0)
(0.045635414 -0.0022412161 0)
(0.045990453 -0.001707137 0)
(0.046225971 -0.0013433266 0)
(0.046392493 -0.0011175797 0)
(0.046520822 -0.0010194288 0)
(0.046626296 -0.0010411887 0)
(0.046729749 -0.0011963232 0)
(0.046846562 -0.0015008422 0)
(0.046982033 -0.0019943894 0)
(0.047152266 -0.0027537039 0)
(0.047375646 -0.0038660344 0)
(0.047617339 -0.0054844592 0)
(0.04789706 -0.0079096124 0)
(0.048151274 -0.011501521 0)
(0.048035627 -0.016933259 0)
(0.047486798 -0.024171716 0)
(0.044839384 -0.03293294 0)
(0.040178804 -0.039774349 0)
(0.026030447 -0.042567406 0)
(0.010821471 -0.022087711 0)
(0.040057606 -0.0053544198 0)
(0.041822173 -0.0066293248 0)
(0.043892411 -0.0057931376 0)
(0.04513313 -0.0045829665 0)
(0.045846863 -0.0034451544 0)
(0.046247689 -0.0025332527 0)
(0.046459464 -0.0018840891 0)
(0.046568606 -0.0014550955 0)
(0.046627155 -0.0011903605 0)
(0.046653799 -0.0010708351 0)
(0.046661267 -0.0010831086 0)
(0.046653684 -0.0012333719 0)
(0.046637054 -0.0015388727 0)
(0.046603533 -0.0020334188 0)
(0.046527909 -0.0027869002 0)
(0.046424637 -0.0038936221 0)
(0.046213463 -0.0054669431 0)
(0.045826708 -0.0077799965 0)
(0.045160062 -0.011121836 0)
(0.043745069 -0.015962393 0)
(0.041276046 -0.022173092 0)
(0.0364827 -0.028815784 0)
(0.029021614 -0.033030975 0)
(0.016173646 -0.032219713 0)
(0.0026559682 -0.015591181 0)
(0.040624128 -0.0071174382 0)
(0.042695515 -0.0083810931 0)
(0.044856825 -0.0069693791 0)
(0.045935243 -0.0052717616 0)
(0.046420605 -0.0038013091 0)
(0.046607052 -0.0026962124 0)
(0.04663091 -0.0019467537 0)
(0.046591693 -0.0014698107 0)
(0.046527238 -0.0011810779 0)
(0.046447694 -0.0010450981 0)
(0.046353529 -0.0010437849 0)
(0.046239349 -0.0011769439 0)
(0.046087956 -0.001457831 0)
(0.045887007 -0.0019225854 0)
(0.04559612 -0.0026147336 0)
(0.045177443 -0.0036272452 0)
(0.044571173 -0.0050543999 0)
(0.043617837 -0.0070959494 0)
(0.042195771 -0.009981713 0)
(0.039831275 -0.013981333 0)
(0.036142744 -0.018892781 0)
(0.030280684 -0.023600925 0)
(0.022060299 -0.025636459 0)
(0.011413895 -0.022775195 0)
(0.00048424424 -0.010063406 0)
(0.041330962 -0.0094705868 0)
(0.043478201 -0.01025396 0)
(0.045325036 -0.0080122099 0)
(0.045973936 -0.0057501401 0)
(0.046076832 -0.0039537172 0)
(0.045972875 -0.0026874732 0)
(0.045770613 -0.0018738576 0)
(0.04557286 -0.0013766316 0)
(0.0453817 -0.0010824807 0)
(0.045200924 -0.00094174269 0)
(0.04501459 -0.00092706536 0)
(0.044801959 -0.001034587 0)
(0.044539245 -0.0012728829 0)
(0.044193752 -0.0016667741 0)
(0.043729383 -0.0022618468 0)
(0.043058923 -0.0031141091 0)
(0.042131517 -0.0043116467 0)
(0.040763142 -0.0059828361 0)
(0.038803278 -0.0083038043 0)
(0.035848144 -0.011401113 0)
(0.031487615 -0.015027786 0)
(0.025263943 -0.018139573 0)
(0.017236408 -0.018899941 0)
(0.0084233385 -0.015593276 0)
(-6.7540025e-005 -0.0065839211 0)
(0.041880153 -0.012349208 0)
(0.043629705 -0.011860336 0)
(0.044444831 -0.008599158 0)
(0.044305597 -0.0058227164 0)
(0.043852946 -0.0038062496 0)
(0.043387345 -0.0024656282 0)
(0.042953098 -0.0016512174 0)
(0.042598509 -0.0011747433 0)
(0.042300061 -0.00090351728 0)
(0.042034394 -0.00076955019 0)
(0.041779961 -0.00074619646 0)
(0.041497416 -0.00082107991 0)
(0.041162535 -0.0010053033 0)
(0.0407238 -0.0013094213 0)
(0.040141162 -0.0017695128 0)
(0.039324226 -0.0024260175 0)
(0.038199756 -0.0033397065 0)
(0.036606777 -0.0045951798 0)
(0.034372507 -0.0063041752 0)
(0.031189626 -0.0085096486 0)
(0.026699939 -0.010978459 0)
(0.02069784 -0.01288992 0)
(0.013390883 -0.01290025 0)
(0.0063040362 -0.0099219769 0)
(-0.00020904071 -0.0039104824 0)
(0.04180485 -0.015400839 0)
(0.042413994 -0.012462898 0)
(0.041334996 -0.0083183113 0)
(0.040092909 -0.0052717865 0)
(0.038971177 -0.0032639377 0)
(0.038122049 -0.0020099512 0)
(0.037497503 -0.0012890443 0)
(0.037024614 -0.00088450372 0)
(0.036659259 -0.00066209911 0)
(0.036349876 -0.00055219286 0)
(0.036062755 -0.00052539082 0)
(0.035758538 -0.00057194579 0)
(0.035399027 -0.00069434204 0)
(0.03493923 -0.00090265964 0)
(0.034326651 -0.0012147305 0)
(0.03348723 -0.0016612306 0)
(0.032332831 -0.0022785924 0)
(0.030733117 -0.003116932 0)
(0.028525357 -0.0042399333 0)
(0.025478291 -0.0056560984 0)
(0.021333155 -0.007164221 0)
(0.016042655 -0.008204571 0)
(0.0098984424 -0.0078850382 0)
(0.0044844021 -0.0056014181 0)
(-0.00024515398 -0.0019673133 0)
(0.040208711 -0.017705331 0)
(0.038963138 -0.011327165 0)
(0.035182769 -0.0068530361 0)
(0.032855998 -0.0040106795 0)
(0.031168667 -0.0023349769 0)
(0.030057035 -0.0013627886 0)
(0.029341142 -0.00083005367 0)
(0.028839542 -0.0005457099 0)
(0.028471497 -0.00039626154 0)
(0.028174256 -0.00032241935 0)
(0.027905955 -0.00030074937 0)
(0.027630505 -0.00032314851 0)
(0.027308463 -0.00038897016 0)
(0.026902027 -0.00050469769 0)
(0.026362081 -0.00067901145 0)
(0.025627598 -0.00092790731 0)
(0.024620581 -0.0012711892 0)
(0.023237985 -0.0017354683 0)
(0.021350621 -0.002352485 0)
(0.018787111 -0.0031123698 0)
(0.015392603 -0.0038855223 0)
(0.011200703 -0.0043476494 0)
(0.0065385433 -0.0039969444 0)
(0.0027909761 -0.0025211492 0)
(-0.00023032565 -0.00065918259 0)
(0.034861985 -0.016240799 0)
(0.032051818 -0.0076730068 0)
(0.025239561 -0.0042813693 0)
(0.022517069 -0.0022717137 0)
(0.020648081 -0.0012550218 0)
(0.01956623 -0.0006953624 0)
(0.018924598 -0.00040317644 0)
(0.018513195 -0.00025347069 0)
(0.018225083 -0.00017759975 0)
(0.018001521 -0.00014041978 0)
(0.017806107 -0.00012839869 0)
(0.017609619 -0.00013572222 0)
(0.017384108 -0.00016195786 0)
(0.017100758 -0.00020988888 0)
(0.016724793 -0.00028209702 0)
(0.016213341 -0.00038544052 0)
(0.015512189 -0.00052672755 0)
(0.014551787 -0.00071783585 0)
(0.013241759 -0.00097027778 0)
(0.011471319 -0.001273483 0)
(0.0091568625 -0.0015691031 0)
(0.0063768072 -0.0017121076 0)
(0.0033838064 -0.0014927472 0)
(0.0012224353 -0.00075194503 0)
(-0.00022931692 -2.356466e-005 0)
(0.020619761 -0.012077582 0)
(0.017508181 -0.002327856 0)
(0.010762923 -0.00041808312 0)
(0.0093581752 -0.00018771916 0)
(0.0080232339 -6.881785e-005 0)
(0.0074001639 -2.7858207e-005 0)
(0.0070381742 -9.5340284e-006 0)
(0.0068255517 -6.2947264e-007 0)
(0.0066859501 3.0719936e-006 0)
(0.006583676 4.5144788e-006 0)
(0.0064978323 5.3861867e-006 0)
(0.006413883 6.3480666e-006 0)
(0.0063194548 7.7662364e-006 0)
(0.0062011609 9.5554198e-006 0)
(0.0060440745 1.2339559e-005 0)
(0.0058301832 1.6223902e-005 0)
(0.0055373095 2.1533691e-005 0)
(0.0051372238 2.8475694e-005 0)
(0.0045922619 3.7347753e-005 0)
(0.0038621999 4.9335971e-005 0)
(0.0029173606 6.3763368e-005 0)
(0.0018249549 9.0459309e-005 0)
(0.00067992938 9.9039753e-005 0)
(1.5327433e-005 0.00015072227 0)
(-0.00018776601 0.00014755769 0)
)
;

boundaryField
{
    inlet
    {
        type            fixedValue;
        value           uniform (0.03876 0 0);
    }
    walls
    {
        type            fixedValue;
        value           uniform (0 0 0);
    }
    outlet
    {
        type            zeroGradient;
    }
    centreline
    {
        type            symmetryPlane;
    }
    frontAndBack
    {
        type            empty;
    }
}


// ************************************************************************* //
