/*--------------------------------*- C++ -*----------------------------------*\
| =========                 |                                                 |
| \\      /  F ield         | OpenFOAM: The Open Source CFD Toolbox           |
|  \\    /   O peration     | Version:  5.x                                   |
|   \\  /    A nd           | Web:      www.OpenFOAM.org                      |
|    \\/     M anipulation  |                                                 |
\*---------------------------------------------------------------------------*/
/*   Windows 32 and 64 bit porting by blueCAPE: http://www.bluecape.com.pt   *\
|  Based on Windows porting (2.0.x v4) by Symscape: http://www.symscape.com   |
\*---------------------------------------------------------------------------*/
FoamFile
{
    version     2.0;
    format      ascii;
    class       volVectorField;
    location    "0.16";
    object      U_0;
}
// * * * * * * * * * * * * * * * * * * * * * * * * * * * * * * * * * * * * * //

dimensions      [0 1 -1 0 0 0 0];

internalField   nonuniform List<vector> 
750
(
(0.039242742 -0.00012318217 0)
(0.040276518 -0.00015367376 0)
(0.041654854 -0.00015140514 0)
(0.042734515 -0.00012892151 0)
(0.043703207 -0.00010758771 0)
(0.044459554 -8.5345085e-005 0)
(0.04506646 -6.8483114e-005 0)
(0.045554124 -5.6108086e-005 0)
(0.045962265 -4.8496293e-005 0)
(0.046328231 -4.559997e-005 0)
(0.046689354 -4.7752353e-005 0)
(0.047090463 -5.596371e-005 0)
(0.047581799 -7.1203373e-005 0)
(0.048224709 -9.6085194e-005 0)
(0.049114337 -0.00013488279 0)
(0.05037463 -0.00019308233 0)
(0.052188479 -0.00028168297 0)
(0.054864573 -0.00042055243 0)
(0.058885057 -0.00064333861 0)
(0.065081014 -0.0010166491 0)
(0.075121635 -0.0015674225 0)
(0.089793483 -0.0024089052 0)
(0.11383815 -0.0033548803 0)
(0.14224296 -0.0042857929 0)
(0.18331119 -0.0047393753 0)
(0.039245972 -0.0003681761 0)
(0.040281739 -0.00046543271 0)
(0.041663774 -0.00045220788 0)
(0.0427454 -0.00038789187 0)
(0.043712983 -0.00032193505 0)
(0.044468069 -0.00025599713 0)
(0.045073134 -0.00020503645 0)
(0.04555856 -0.00016786814 0)
(0.045964351 -0.00014500723 0)
(0.046327787 -0.00013631592 0)
(0.04668625 -0.00014268741 0)
(0.04708417 -0.00016716358 0)
(0.047571079 -0.00021265913 0)
(0.048208143 -0.00028685369 0)
(0.04908943 -0.00040260829 0)
(0.050336761 -0.00057619864 0)
(0.052131181 -0.00084014118 0)
(0.054776817 -0.0012537143 0)
(0.058745185 -0.0019162631 0)
(0.064853738 -0.0030226895 0)
(0.074732784 -0.0046696099 0)
(0.089151115 -0.007135322 0)
(0.11273704 -0.010010356 0)
(0.14048727 -0.012685398 0)
(0.18118728 -0.014214754 0)
(0.039251255 -0.00061331738 0)
(0.040292444 -0.00078059091 0)
(0.041681914 -0.00075246913 0)
(0.042766913 -0.00064761558 0)
(0.043732898 -0.00053563335 0)
(0.044485453 -0.00042618727 0)
(0.045086583 -0.00034085792 0)
(0.045567603 -0.00027883155 0)
(0.045968736 -0.0002406658 0)
(0.046327128 -0.00022613962 0)
(0.046680232 -0.00023659218 0)
(0.047071758 -0.00027704233 0)
(0.047550014 -0.00035232552 0)
(0.048175316 -0.00047511916 0)
(0.0490398 -0.00066662555 0)
(0.05026148 -0.00095364703 0)
(0.052016686 -0.0013897003 0)
(0.054600648 -0.0020722906 0)
(0.058465486 -0.0031657776 0)
(0.064400054 -0.0049840229 0)
(0.073957336 -0.0077019709 0)
(0.087836871 -0.011724574 0)
(0.11058371 -0.016507184 0)
(0.13707518 -0.020870455 0)
(0.17689069 -0.023602982 0)
(0.039258616 -0.00086085908 0)
(0.040308526 -0.0010979813 0)
(0.041709197 -0.0010543517 0)
(0.042799007 -0.00090757407 0)
(0.043763 -0.00074882772 0)
(0.044511749 -0.00059527062 0)
(0.045106707 -0.00047536972 0)
(0.045581127 -0.00038838314 0)
(0.045975294 -0.00033480341 0)
(0.046326215 -0.00031434161 0)
(0.046671235 -0.00032865084 0)
(0.047053184 -0.00038457696 0)
(0.047518762 -0.00048879529 0)
(0.048126535 -0.00065892003 0)
(0.048965963 -0.00092400454 0)
(0.050149928 -0.0013209962 0)
(0.051846865 -0.0019235223 0)
(0.054339567 -0.0028654233 0)
(0.058053627 -0.0043713654 0)
(0.063724189 -0.0068675905 0)
(0.072812031 -0.010602059 0)
(0.085898705 -0.016101454 0)
(0.10742762 -0.022666099 0)
(0.13191971 -0.028653693 0)
(0.17033838 -0.032686195 0)
(0.039268594 -0.001111845 0)
(0.040329918 -0.0014182003 0)
(0.041745719 -0.001358734 0)
(0.042841964 -0.0011678004 0)
(0.043803418 -0.00096127844 0)
(0.044546973 -0.00076283161 0)
(0.045133482 -0.00060801588 0)
(0.045599033 -0.00049595754 0)
(0.045983946 -0.00042682928 0)
(0.04632502 -0.00040028252 0)
(0.046659292 -0.00041813094 0)
(0.047028544 -0.00048886868 0)
(0.047477503 -0.00062092828 0)
(0.048062318 -0.00083655132 0)
(0.048868877 -0.0011723105 0)
(0.050003688 -0.001674529 0)
(0.051624429 -0.0024356461 0)
(0.053997668 -0.0036232418 0)
(0.057515312 -0.005516969 0)
(0.062836584 -0.0086454822 0)
(0.071337106 -0.013319929 0)
(0.083366994 -0.020186327 0)
(0.10328793 -0.028370861 0)
(0.12507884 -0.035922638 0)
(0.16156386 -0.041089128 0)
(0.039281774 -0.0013671988 0)
(0.040356905 -0.0017421973 0)
(0.041792 -0.0016662651 0)
(0.0428966 -0.0014284613 0)
(0.04385477 -0.0011727107 0)
(0.044591505 -0.0009284158 0)
(0.045167264 -0.00073822424 0)
(0.045621609 -0.00060098469 0)
(0.045995031 -0.00051618297 0)
(0.046323854 -0.00048333125 0)
(0.046644822 -0.00050432114 0)
(0.046998382 -0.00058906613 0)
(0.047426918 -0.0007475838 0)
(0.047983602 -0.0010063404 0)
(0.04874959 -0.00140914 0)
(0.049824423 -0.0020106177 0)
(0.051352375 -0.002920589 0)
(0.053579921 -0.0043375922 0)
(0.056859782 -0.0065869845 0)
(0.061762728 -0.010293563 0)
(0.06954955 -0.015807172 0)
(0.080272993 -0.023900851 0)
(0.09824611 -0.033470672 0)
(0.11659707 -0.042558562 0)
(0.15074878 -0.048690359 0)
(0.039298914 -0.0016280815 0)
(0.040390201 -0.002070759 0)
(0.041849051 -0.0019777176 0)
(0.042964346 -0.0016896938 0)
(0.04391825 -0.0013828003 0)
(0.044646148 -0.0010915172 0)
(0.045208904 -0.00086542236 0)
(0.045649606 -0.00070288518 0)
(0.046009202 -0.00060227632 0)
(0.0463236 -0.00056287636 0)
(0.04662865 -0.00058657371 0)
(0.046963682 -0.00068433591 0)
(0.047368176 -0.00086752295 0)
(0.047891673 -0.0011668065 0)
(0.048610161 -0.0016323175 0)
(0.049614745 -0.002325939 0)
(0.051035262 -0.003373026 0)
(0.053093828 -0.0049995272 0)
(0.056097965 -0.0075684594 0)
(0.060522628 -0.011787748 0)
(0.067480641 -0.018019016 0)
(0.076671682 -0.027165473 0)
(0.092384933 -0.0378247 0)
(0.10645003 -0.048304324 0)
(0.13850762 -0.055521219 0)
(0.039321589 -0.0018961647 0)
(0.040431039 -0.0024045065 0)
(0.04191879 -0.002294231 0)
(0.043047455 -0.0019516142 0)
(0.043995619 -0.0015911561 0)
(0.044712312 -0.0012515374 0)
(0.045259885 -0.00098899832 0)
(0.045684251 -0.00080103083 0)
(0.046027611 -0.00068455514 0)
(0.046325702 -0.00063834461 0)
(0.046612297 -0.00066415203 0)
(0.046925906 -0.00077382435 0)
(0.047302874 -0.0009798199 0)
(0.047788842 -0.0013164641 0)
(0.048453662 -0.0018396629 0)
(0.049378353 -0.0026175465 0)
(0.050678932 -0.0037888548 0)
(0.052548407 -0.0056023178 0)
(0.055244477 -0.0084503829 0)
(0.059145175 -0.013109613 0)
(0.065172475 -0.019918678 0)
(0.07263717 -0.029927261 0)
(0.085801975 -0.04132757 0)
(0.095216574 -0.053116128 0)
(0.12504423 -0.060355853 0)
(0.039351789 -0.0021733822 0)
(0.040481715 -0.0027445376 0)
(0.042003633 -0.0026168636 0)
(0.043148825 -0.0022143631 0)
(0.044089024 -0.0017973682 0)
(0.044792069 -0.0014076855 0)
(0.045322075 -0.0011083366 0)
(0.04572725 -0.00089476533 0)
(0.046052011 -0.00076246148 0)
(0.046331684 -0.0007091783 0)
(0.046597645 -0.00073641111 0)
(0.046887164 -0.00085681759 0)
(0.047233468 -0.0010835822 0)
(0.047677997 -0.0014540717 0)
(0.04828377 -0.0020292388 0)
(0.049120162 -0.002882933 0)
(0.050289669 -0.0041640749 0)
(0.051954594 -0.0061398577 0)
(0.054317728 -0.0092231963 0)
(0.057647651 -0.014240597 0)
(0.062679181 -0.021465516 0)
(0.068276364 -0.032100786 0)
(0.078661837 -0.043899377 0)
(0.083002192 -0.057086908 0)
(0.11024201 -0.063581245 0)
(0.039390709 -0.0024598553 0)
(0.040545857 -0.0030950546 0)
(0.04210649 -0.0029448274 0)
(0.043271526 -0.0024781989 0)
(0.044200963 -0.0020005301 0)
(0.044887854 -0.0015597911 0)
(0.045397192 -0.0012227531 0)
(0.045780466 -0.00098353799 0)
(0.046084342 -0.00083542419 0)
(0.046343082 -0.00077486814 0)
(0.046586598 -0.00080290323 0)
(0.046849764 -0.00093270624 0)
(0.047162882 -0.0011778596 0)
(0.047561801 -0.0015786645 0)
(0.048104546 -0.0021998546 0)
(0.048845429 -0.0031200289 0)
(0.049872585 -0.0044958549 0)
(0.051321712 -0.0066092002 0)
(0.05333351 -0.0098806954 0)
(0.056054515 -0.015164952 0)
(0.060061458 -0.022679874 0)
(0.063814556 -0.033655345 0)
(0.070992492 -0.045567405 0)
(0.06959504 -0.059735841 0)
(0.090659982 -0.063914164 0)
(0.21580282 -0.002572327 0)
(0.22517553 -0.00082884419 0)
(0.22759659 -7.0725408e-005 0)
(0.22656813 0.00012591189 0)
(0.22579821 0.00010399774 0)
(0.22505419 6.3180683e-005 0)
(0.224835 1.7061099e-005 0)
(0.22482904 -2.4218044e-006 0)
(0.22487746 -4.5262457e-006 0)
(0.22489884 -1.7950824e-006 0)
(0.22490135 -2.0123962e-008 0)
(0.22489828 2.6246062e-007 0)
(0.22489698 8.8448016e-008 0)
(0.22489702 -1.3078185e-008 0)
(0.22489726 -2.1657698e-008 0)
(0.22489733 -4.5925372e-009 0)
(0.22489732 1.6038374e-009 0)
(0.22489731 1.3895329e-009 0)
(0.2248973 6.1172282e-010 0)
(0.2248973 2.2313742e-010 0)
(0.2248973 -8.1461555e-011 0)
(0.2248973 -2.7160215e-010 0)
(0.2248973 -7.862513e-010 0)
(0.22489731 -2.0306441e-009 0)
(0.22489734 -1.7162491e-009 0)
(0.21286314 -0.0074150103 0)
(0.22110203 -0.0024181969 0)
(0.22354652 -0.00014897108 0)
(0.22258791 0.00026906164 0)
(0.22184621 0.00029280181 0)
(0.22123076 0.00017106817 0)
(0.221082 4.2655746e-005 0)
(0.22109092 -9.1023161e-006 0)
(0.22113315 -1.2600037e-005 0)
(0.22114923 -4.4196639e-006 0)
(0.22114993 1.6291638e-007 0)
(0.22114709 7.8476874e-007 0)
(0.2211461 2.2970071e-007 0)
(0.22114623 -5.4754986e-008 0)
(0.22114644 -5.7201807e-008 0)
(0.22114649 -1.1142283e-008 0)
(0.22114648 4.7929355e-009 0)
(0.22114646 3.8328142e-009 0)
(0.22114646 1.1614464e-009 0)
(0.22114646 3.907965e-010 0)
(0.22114646 3.6384754e-010 0)
(0.22114646 -9.8403881e-010 0)
(0.22114646 -2.7477219e-009 0)
(0.22114647 -6.8119817e-009 0)
(0.22114651 -6.2266834e-009 0)
(0.20685698 -0.011829215 0)
(0.21290219 -0.0038182699 0)
(0.21552776 -0.00028185287 0)
(0.21439949 0.00045802414 0)
(0.21379459 0.00046421761 0)
(0.21346668 0.00023996708 0)
(0.21343746 5.4366875e-005 0)
(0.21346452 -1.678648e-005 0)
(0.21349444 -1.8710645e-005 0)
(0.21350147 -5.9091615e-006 0)
(0.21349971 5.8635789e-007 0)
(0.21349744 1.2178134e-006 0)
(0.21349703 3.0831832e-007 0)
(0.21349726 -1.0337922e-007 0)
(0.21349741 -8.4240352e-008 0)
(0.21349742 -1.4378312e-008 0)
(0.21349741 7.8530858e-009 0)
(0.2134974 5.4397883e-009 0)
(0.2134974 1.3265474e-009 0)
(0.2134974 2.8971506e-010 0)
(0.2134974 4.5898416e-010 0)
(0.2134974 -1.0408957e-009 0)
(0.2134974 -4.0910327e-009 0)
(0.21349741 -1.2821425e-008 0)
(0.21349745 -1.1958533e-008 0)
(0.19746924 -0.015569628 0)
(0.20090787 -0.0050561404 0)
(0.20303231 -0.00032403749 0)
(0.20178864 0.00064223889 0)
(0.20160116 0.00056439404 0)
(0.20157015 0.00025589731 0)
(0.20164632 4.8185598e-005 0)
(0.20167973 -2.4283277e-005 0)
(0.20169271 -2.1514463e-005 0)
(0.20168997 -5.8969892e-006 0)
(0.20168638 1.1971535e-006 0)
(0.20168515 1.4420914e-006 0)
(0.20168538 2.8726061e-007 0)
(0.20168563 -1.4914076e-007 0)
(0.20168569 -9.8802255e-008 0)
(0.20168568 -1.304765e-008 0)
(0.20168567 1.0143638e-008 0)
(0.20168566 5.9660341e-009 0)
(0.20168567 1.2136061e-009 0)
(0.20168567 9.7200991e-011 0)
(0.20168567 4.9419935e-010 0)
(0.20168567 -8.0417092e-010 0)
(0.20168566 -5.2947609e-009 0)
(0.20168567 -1.9415917e-008 0)
(0.20168571 -1.8191175e-008 0)
(0.18470359 -0.018402986 0)
(0.18458297 -0.0058612138 0)
(0.18553339 -0.00020048544 0)
(0.18476998 0.0007008929 0)
(0.18506653 0.00054928156 0)
(0.18523547 0.00022371569 0)
(0.1853731 3.0722871e-005 0)
(0.18539554 -2.9196755e-005 0)
(0.18539026 -2.0834766e-005 0)
(0.18537983 -4.5038636e-006 0)
(0.18537624 1.7950624e-006 0)
(0.18537642 1.4369896e-006 0)
(0.18537714 1.9226096e-007 0)
(0.1853773 -1.7991551e-007 0)
(0.18537726 -9.6046963e-008 0)
(0.18537722 -7.9530611e-009 0)
(0.18537722 1.1235469e-008 0)
(0.18537722 5.4033087e-009 0)
(0.18537722 8.2396311e-010 0)
(0.18537722 3.209792e-011 0)
(0.18537722 3.3178057e-010 0)
(0.18537722 -2.0539504e-010 0)
(0.18537722 -5.6251226e-009 0)
(0.18537722 -2.5333071e-008 0)
(0.18537725 -2.3792786e-008 0)
(0.16874311 -0.020269896 0)
(0.16285199 -0.0058179546 0)
(0.16333307 -9.2166494e-005 0)
(0.16316703 0.00064042592 0)
(0.16382604 0.00047086452 0)
(0.16410673 0.00016808615 0)
(0.16425875 1.1415015e-005 0)
(0.1642571 -2.9521168e-005 0)
(0.16423615 -1.7092811e-005 0)
(0.16422234 -2.5044974e-006 0)
(0.16422071 2.0639873e-006 0)
(0.16422224 1.2024686e-006 0)
(0.16422313 7.1715635e-008 0)
(0.16422312 -1.8181497e-007 0)
(0.164223 -7.738535e-008 0)
(0.16422295 -1.5605501e-009 0)
(0.16422295 1.0422725e-008 0)
(0.16422296 4.0685397e-009 0)
(0.16422296 5.4247434e-010 0)
(0.16422296 8.7088234e-011 0)
(0.16422296 2.8472749e-010 0)
(0.16422296 2.8743294e-010 0)
(0.16422296 -5.2714872e-009 0)
(0.16422296 -2.8274514e-008 0)
(0.16422296 -2.6483031e-008 0)
(0.14805102 -0.020368006 0)
(0.13576978 -0.0051148513 0)
(0.13659755 -2.0025075e-005 0)
(0.13667738 0.0004818136 0)
(0.13754826 0.00034823639 0)
(0.13785183 0.00010549777 0)
(0.13797899 -2.6013382e-006 0)
(0.13795036 -2.4582865e-005 0)
(0.1379207 -1.1557527e-005 0)
(0.13790835 -7.9023728e-007 0)
(0.13790948 1.8474611e-006 0)
(0.13791181 8.1751143e-007 0)
(0.13791254 -2.1708992e-008 0)
(0.13791235 -1.4990257e-007 0)
(0.13791218 -5.0839883e-008 0)
(0.13791214 3.1779543e-009 0)
(0.13791216 8.0947889e-009 0)
(0.13791217 2.5173257e-009 0)
(0.13791217 1.844828e-010 0)
(0.13791217 4.7336243e-011 0)
(0.13791217 3.5863018e-010 0)
(0.13791217 6.5248568e-010 0)
(0.13791217 -4.3835105e-009 0)
(0.13791216 -2.6194592e-008 0)
(0.13791213 -2.4539536e-008 0)
(0.12063104 -0.017841711 0)
(0.10370554 -0.0038493638 0)
(0.10505997 -2.2723627e-006 0)
(0.10502699 0.00028944087 0)
(0.10598051 0.00021195389 0)
(0.10622079 5.0472752e-005 0)
(0.10630402 -8.1678038e-006 0)
(0.10625642 -1.5956814e-005 0)
(0.10622811 -6.017673e-006 0)
(0.10622004 1.4950042e-007 0)
(0.10622325 1.2362782e-006 0)
(0.10622556 4.1890064e-007 0)
(0.10622597 -5.8412346e-008 0)
(0.10622567 -9.4322092e-008 0)
(0.10622551 -2.5171363e-008 0)
(0.10622549 4.5286428e-009 0)
(0.10622551 4.9417823e-009 0)
(0.10622552 1.2048593e-009 0)
(0.10622552 -4.1882597e-011 0)
(0.10622552 -7.6997393e-012 0)
(0.10622552 3.626486e-010 0)
(0.10622552 7.9355754e-010 0)
(0.10622552 -2.8769728e-009 0)
(0.10622551 -1.871255e-008 0)
(0.10622544 -1.77167e-008 0)
(0.086024812 -0.012862487 0)
(0.066728504 -0.0022300888 0)
(0.068371773 2.2602045e-005 0)
(0.068109035 0.00011552723 0)
(0.068969076 9.3547325e-005 0)
(0.069087253 1.361231e-005 0)
(0.069129598 -5.5054902e-006 0)
(0.069080386 -6.896944e-006 0)
(0.069061937 -1.8981187e-006 0)
(0.069058246 2.9639089e-007 0)
(0.069061798 5.2182485e-007 0)
(0.069063363 1.2372916e-007 0)
(0.069063465 -4.2814827e-008 0)
(0.069063182 -3.7597666e-008 0)
(0.06906308 -6.8021819e-009 0)
(0.06906308 2.940998e-009 0)
(0.069063095 1.9345628e-009 0)
(0.0690631 3.369365e-010 0)
(0.0690631 -4.9685451e-011 0)
(0.0690631 1.6186511e-011 0)
(0.0690631 2.5675979e-010 0)
(0.069063101 5.7150409e-010 0)
(0.069063101 -1.004237e-009 0)
(0.069063091 -8.5227629e-009 0)
(0.069063024 -8.394144e-009 0)
(0.039924863 -0.0067952821 0)
(0.024443286 -0.00010288267 0)
(0.026362339 1.4139251e-005 0)
(0.025864269 1.8410338e-005 0)
(0.026408568 -3.6708432e-006 0)
(0.026384191 -2.8121684e-006 0)
(0.026405692 -2.0064028e-006 0)
(0.02637585 -4.9653712e-007 0)
(0.026371244 -9.1704131e-008 0)
(0.026370061 3.9896547e-008 0)
(0.026371925 1.8800451e-008 0)
(0.026372372 1.0078166e-009 0)
(0.026372348 -2.8987289e-009 0)
(0.026372215 2.7120737e-010 0)
(0.026372187 6.4311833e-010 0)
(0.026372192 3.6676436e-010 0)
(0.026372199 7.5262868e-011 0)
(0.0263722 4.5049349e-013 0)
(0.0263722 -6.1684389e-012 0)
(0.0263722 1.4591583e-011 0)
(0.0263722 5.7593157e-011 0)
(0.026372201 8.1861128e-011 0)
(0.026372202 -1.685956e-010 0)
(0.026372198 -1.6570314e-009 0)
(0.026372162 -1.6417526e-009 0)
(0.039485873 -0.0030446005 0)
(0.040708832 -0.0038339979 0)
(0.042356326 -0.0036047154 0)
(0.043564965 -0.0030088778 0)
(0.044467436 -0.0024000175 0)
(0.045115687 -0.0018552786 0)
(0.045575782 -0.001440515 0)
(0.045910248 -0.0011504921 0)
(0.046167421 -0.00097079464 0)
(0.046380342 -0.00089572642 0)
(0.046575428 -0.00092380582 0)
(0.046781615 -0.0010692716 0)
(0.047023245 -0.0013465275 0)
(0.047323482 -0.0018003866 0)
(0.047731689 -0.0025014591 0)
(0.048272542 -0.0035341552 0)
(0.048997671 -0.0050659635 0)
(0.049994544 -0.0074012649 0)
(0.051283501 -0.010951967 0)
(0.052795312 -0.016571161 0)
(0.054766673 -0.024393807 0)
(0.055315806 -0.035326128 0)
(0.055999816 -0.046470331 0)
(0.043025653 -0.059023254 0)
(0.036014142 -0.047787894 0)
(0.039696322 -0.0040493278 0)
(0.041140085 -0.0051192114 0)
(0.042986821 -0.0046511135 0)
(0.044240806 -0.0038060163 0)
(0.045077964 -0.0029590914 0)
(0.045628118 -0.0022390743 0)
(0.045982915 -0.0017057258 0)
(0.046218369 -0.0013424216 0)
(0.04638485 -0.0011170281 0)
(0.046513192 -0.0010191171 0)
(0.046618701 -0.0010410176 0)
(0.046722198 -0.0011962379 0)
(0.046839093 -0.0015008124 0)
(0.046974639 -0.0019943516 0)
(0.047144971 -0.0027535943 0)
(0.047368493 -0.003865811 0)
(0.047610417 -0.0054839077 0)
(0.047890387 -0.0079082519 0)
(0.048145067 -0.011498981 0)
(0.04803004 -0.016930266 0)
(0.047482119 -0.024170804 0)
(0.044835807 -0.032937598 0)
(0.040176839 -0.039784734 0)
(0.02602997 -0.0425792 0)
(0.010821564 -0.022095438 0)
(0.040055657 -0.0053488509 0)
(0.041819005 -0.0066230441 0)
(0.04388752 -0.0057875942 0)
(0.045127321 -0.0045783339 0)
(0.045840426 -0.0034416423 0)
(0.046240911 -0.0025308952 0)
(0.046452622 -0.0018826158 0)
(0.046561829 -0.0014541888 0)
(0.046620447 -0.0011898346 0)
(0.046647183 -0.0010705627 0)
(0.046654714 -0.0010829874 0)
(0.046647238 -0.0012333472 0)
(0.046630695 -0.0015389129 0)
(0.046597312 -0.0020334791 0)
(0.046521862 -0.0027869254 0)
(0.046418772 -0.0038935598 0)
(0.046207936 -0.0054666436 0)
(0.045821638 -0.0077790452 0)
(0.045155773 -0.011119925 0)
(0.043741912 -0.015960174 0)
(0.041274262 -0.022173044 0)
(0.036482069 -0.02882137 0)
(0.029021776 -0.033042332 0)
(0.016174258 -0.032231867 0)
(0.0026566237 -0.015598434 0)
(0.040622082 -0.0071099964 0)
(0.042693194 -0.0083736615 0)
(0.044853759 -0.0069631373 0)
(0.045931929 -0.0052666613 0)
(0.04641707 -0.003797525 0)
(0.046603422 -0.0026937845 0)
(0.046627434 -0.0019453384 0)
(0.046588384 -0.0014689997 0)
(0.046524111 -0.0011806368 0)
(0.0464447 -0.0010449092 0)
(0.046350659 -0.0010437487 0)
(0.046236597 -0.0011770048 0)
(0.046085302 -0.0014579718 0)
(0.045884506 -0.0019227586 0)
(0.045593805 -0.0026149305 0)
(0.045175346 -0.0036274087 0)
(0.0445694 -0.0050544322 0)
(0.04361659 -0.0070955587 0)
(0.04219536 -0.0099806287 0)
(0.039832154 -0.013980188 0)
(0.036145158 -0.018893778 0)
(0.030283971 -0.023607039 0)
(0.022063107 -0.025647837 0)
(0.011415696 -0.022787108 0)
(0.00048427757 -0.010070198 0)
(0.041329723 -0.0094619593 0)
(0.043478296 -0.010246519 0)
(0.045326051 -0.0080061176 0)
(0.045975686 -0.0057451076 0)
(0.046078996 -0.0039499766 0)
(0.045975292 -0.0026851494 0)
(0.045773373 -0.0018726135 0)
(0.045575897 -0.0013760036 0)
(0.04538498 -0.0010821878 0)
(0.04520436 -0.00094165867 0)
(0.045018169 -0.00092711436 0)
(0.044805615 -0.0010347326 0)
(0.044542996 -0.0012731172 0)
(0.044197595 -0.0016670618 0)
(0.043733334 -0.0022621791 0)
(0.043063044 -0.0031144739 0)
(0.042135848 -0.0043119621 0)
(0.040767854 -0.0059829234 0)
(0.038808646 -0.0083034903 0)
(0.035854525 -0.011400964 0)
(0.031495156 -0.015029533 0)
(0.025271666 -0.018145523 0)
(0.017242343 -0.018910023 0)
(0.0084264479 -0.015603583 0)
(-6.7908517e-005 -0.0065898273 0)
(0.041880619 -0.012341037 0)
(0.043632818 -0.011854452 0)
(0.044450494 -0.0085942704 0)
(0.044312906 -0.0058184459 0)
(0.043861411 -0.0038029962 0)
(0.043396506 -0.0024636569 0)
(0.04296272 -0.0016502342 0)
(0.042608491 -0.0011743319 0)
(0.042310276 -0.0009033867 0)
(0.042044769 -0.0007695749 0)
(0.041790415 -0.0007463218 0)
(0.041507911 -0.00082127637 0)
(0.04117305 -0.0010055729 0)
(0.040734312 -0.001309755 0)
(0.040151658 -0.0017698998 0)
(0.039334743 -0.0024264691 0)
(0.038210289 -0.0033401651 0)
(0.036617396 -0.0045955338 0)
(0.034383395 -0.0063043474 0)
(0.031201007 -0.0085100908 0)
(0.026711739 -0.010980426 0)
(0.020708907 -0.012894878 0)
(0.013399067 -0.012907942 0)
(0.006308276 -0.0099295245 0)
(-0.00020937387 -0.0039149894 0)
(0.041807041 -0.015394766 0)
(0.04241886 -0.012459535 0)
(0.041343016 -0.008315277 0)
(0.040103074 -0.005268872 0)
(0.038982949 -0.0032615634 0)
(0.038134883 -0.002008533 0)
(0.037510893 -0.0012884074 0)
(0.037038333 -0.00088430738 0)
(0.036673161 -0.00066210383 0)
(0.036363871 -0.00055228763 0)
(0.036076771 -0.00052553858 0)
(0.035772536 -0.00057213813 0)
(0.035412961 -0.0006945791 0)
(0.03495307 -0.00090294333 0)
(0.03434037 -0.0012150647 0)
(0.033500816 -0.0016616191 0)
(0.032346251 -0.0022789976 0)
(0.030746375 -0.0031172785 0)
(0.028538555 -0.0042401953 0)
(0.025491457 -0.0056566167 0)
(0.021346044 -0.0071657714 0)
(0.016054233 -0.0082079249 0)
(0.0099067306 -0.0078897879 0)
(0.0044888716 -0.005605755 0)
(-0.0002453785 -0.0019701059 0)
(0.040211621 -0.017702218 0)
(0.038967414 -0.01132615 0)
(0.035189514 -0.006851928 0)
(0.032864637 -0.0040093378 0)
(0.031178846 -0.0023337487 0)
(0.030068296 -0.0013620283 0)
(0.02935295 -0.000829756 0)
(0.028851576 -0.00054568065 0)
(0.028483613 -0.00039633898 0)
(0.028186382 -0.0003225294 0)
(0.027918044 -0.00030087147 0)
(0.027642528 -0.00032328318 0)
(0.027320383 -0.00038911903 0)
(0.026913817 -0.00050486509 0)
(0.026373712 -0.00067920539 0)
(0.025639038 -0.00092812466 0)
(0.024631795 -0.0012714036 0)
(0.023248962 -0.0017356339 0)
(0.02136144 -0.0023525941 0)
(0.018797733 -0.0031125882 0)
(0.015402688 -0.0038862676 0)
(0.011209464 -0.0043492352 0)
(0.0065445311 -0.0039989758 0)
(0.0027943831 -0.0025226823 0)
(-0.00023038596 -0.00066033032 0)
(0.034863984 -0.016239735 0)
(0.032054122 -0.0076728558 0)
(0.025242785 -0.0042810736 0)
(0.022521204 -0.0022712924 0)
(0.020653204 -0.0012545721 0)
(0.019572044 -0.00069508763 0)
(0.018930762 -0.00040309158 0)
(0.018519436 -0.0002535051 0)
(0.018231304 -0.000177676 0)
(0.018007687 -0.00014050096 0)
(0.017812205 -0.00012847682 0)
(0.01761564 -0.00013580026 0)
(0.017390041 -0.00016203645 0)
(0.017106593 -0.0002099742 0)
(0.016730515 -0.00028219385 0)
(0.01621893 -0.00038554704 0)
(0.015517632 -0.00052683313 0)
(0.014557095 -0.00071792103 0)
(0.013246981 -0.00097032787 0)
(0.01147648 -0.001273518 0)
(0.0091617534 -0.0015693244 0)
(0.0063809303 -0.0017126165 0)
(0.0033863517 -0.0014933045 0)
(0.0012239896 -0.00075214662 0)
(-0.00022933715 -2.3810544e-005 0)
(0.020620438 -0.01207796 0)
(0.017508773 -0.0023281112 0)
(0.010763487 -0.00041842788 0)
(0.009358765 -0.00018797363 0)
(0.0080240846 -6.8947434e-005 0)
(0.0074012145 -2.7920739e-005 0)
(0.0070393326 -9.5577915e-006 0)
(0.0068266964 -6.4712603e-007 0)
(0.006687037 3.0573322e-006 0)
(0.0065846963 4.5049342e-006 0)
(0.0064987923 5.3823199e-006 0)
(0.006414787 6.3490396e-006 0)
(0.0063203056 7.772085e-006 0)
(0.0062019586 9.5655522e-006 0)
(0.0060448141 1.2355117e-005 0)
(0.0058308591 1.6247275e-005 0)
(0.0055379214 2.1567351e-005 0)
(0.0051377819 2.852159e-005 0)
(0.0045927969 3.7412667e-005 0)
(0.0038627643 4.9428231e-005 0)
(0.0029179105 6.389724e-005 0)
(0.0018253721 9.0674578e-005 0)
(0.00067992603 9.9295212e-005 0)
(1.5409307e-005 0.00015105139 0)
(-0.00018775349 0.00014771721 0)
)
;

boundaryField
{
    inlet
    {
        type            fixedValue;
        value           uniform (0.03876 0 0);
    }
    walls
    {
        type            fixedValue;
        value           uniform (0 0 0);
    }
    outlet
    {
        type            zeroGradient;
    }
    centreline
    {
        type            symmetryPlane;
    }
    frontAndBack
    {
        type            empty;
    }
}


// ************************************************************************* //
