/*--------------------------------*- C++ -*----------------------------------*\
| =========                 |                                                 |
| \\      /  F ield         | OpenFOAM: The Open Source CFD Toolbox           |
|  \\    /   O peration     | Version:  5.x                                   |
|   \\  /    A nd           | Web:      www.OpenFOAM.org                      |
|    \\/     M anipulation  |                                                 |
\*---------------------------------------------------------------------------*/
/*   Windows 32 and 64 bit porting by blueCAPE: http://www.bluecape.com.pt   *\
|  Based on Windows porting (2.0.x v4) by Symscape: http://www.symscape.com   |
\*---------------------------------------------------------------------------*/
FoamFile
{
    version     2.0;
    format      ascii;
    class       volVectorField;
    location    "0";
    object      U;
}
// * * * * * * * * * * * * * * * * * * * * * * * * * * * * * * * * * * * * * //

dimensions      [0 1 -1 0 0 0 0];

internalField   nonuniform List<vector> 
110516
(
(0.776332 2.04337e-005 -0.221166)
(0.826307 -4.08652e-006 -0.148648)
(0.879457 4.81764e-006 -0.0770321)
(0.936382 4.28028e-007 -0.0276734)
(0.971174 -2.62636e-006 -0.0118761)
(0.987092 -1.76365e-006 -0.00534175)
(0.994262 -7.24916e-007 -0.00239544)
(0.997466 -3.85451e-007 -0.00106798)
(0.99889 -3.17525e-007 -0.000474454)
(0.999522 -7.20966e-008 -0.000210334)
(0.999801 1.2211e-007 -9.30288e-005)
(0.999924 7.69819e-008 -4.1121e-005)
(0.999978 9.11684e-008 -1.80668e-005)
(1 1.532e-007 -7.76811e-006)
(1.00001 7.69053e-008 -3.2928e-006)
(1.00002 -9.05912e-008 -1.29999e-006)
(1.00002 -1.12424e-007 -3.34253e-007)
(1.00002 -4.14119e-008 4.98042e-009)
(1.00002 -7.96148e-008 1.55681e-007)
(1.00002 -4.35333e-008 3.06721e-007)
(1.00001 4.55065e-008 3.0808e-007)
(1.00001 9.19241e-009 3.13281e-007)
(1.00001 2.9948e-008 3.84166e-007)
(1.00001 5.99993e-008 3.48031e-007)
(1.00001 3.75948e-008 2.92413e-007)
(1.00001 4.8188e-008 3.33185e-007)
(1.00001 4.48331e-008 3.14681e-007)
(1.00001 5.2422e-008 2.77789e-007)
(1.00001 1.3782e-007 2.64296e-007)
(1.00001 1.0521e-007 2.4989e-007)
(1.00001 4.79024e-008 2.17512e-007)
(1 1.03906e-007 2.18179e-007)
(1 1.58856e-007 2.92311e-007)
(1 1.38435e-007 4.06774e-007)
(0.999999 1.28453e-007 7.22591e-007)
(0.999996 1.26578e-008 1.40012e-006)
(0.999992 -6.55158e-007 2.55577e-006)
(0.999984 -3.884e-006 3.60354e-006)
(0.999976 -2.05161e-005 -1.72798e-006)
(0.999978 -0.000110853 -5.53591e-005)
(0.999492 -0.000482824 -0.000523761)
(0.995147 0.00154555 0.00696769)
(0.776471 5.13141e-006 -0.221206)
(0.826468 5.68406e-006 -0.1487)
(0.879599 1.43765e-006 -0.0771625)
(0.936424 -2.76962e-008 -0.0277856)
(0.971189 2.23593e-007 -0.0119259)
(0.987099 3.1161e-007 -0.00536395)
(0.994265 2.0479e-007 -0.00240528)
(0.997467 -1.83749e-007 -0.00107235)
(0.998891 -3.22749e-007 -0.000476327)
(0.999522 -2.36392e-007 -0.000211071)
(0.999802 -3.2735e-007 -9.34005e-005)
(0.999924 -4.65384e-007 -4.1274e-005)
(0.999978 -4.28322e-007 -1.80813e-005)
(1 -5.32535e-007 -7.84372e-006)
(1.00001 -6.72608e-007 -3.35509e-006)
(1.00001 -7.44292e-007 -1.29839e-006)
(1.00002 -7.37536e-007 -3.63036e-007)
(1.00002 -8.04513e-007 -3.14333e-008)
(1.00002 -8.12716e-007 1.65959e-007)
(1.00002 -7.38886e-007 2.85565e-007)
(1.00001 -7.30941e-007 2.68905e-007)
(1.00001 -6.68769e-007 3.04934e-007)
(1.00001 -5.26512e-007 3.55573e-007)
(1.00001 -5.40619e-007 3.02215e-007)
(1.00001 -5.20162e-007 2.7264e-007)
(1.00001 -4.00229e-007 3.15868e-007)
(1.00001 -3.90351e-007 2.96208e-007)
(1.00001 -3.03783e-007 2.75795e-007)
(1.00001 -2.11988e-007 2.73782e-007)
(1.00001 -2.4859e-007 2.42845e-007)
(1.00001 -2.03517e-007 2.21238e-007)
(1 -8.94936e-008 2.29801e-007)
(1 -1.57599e-008 2.61456e-007)
(1 6.75668e-008 3.7543e-007)
(0.999999 2.33322e-007 7.11014e-007)
(0.999996 4.21926e-007 1.37072e-006)
(0.999991 7.15597e-007 2.5595e-006)
(0.99998 1.59661e-006 3.84341e-006)
(0.999955 5.27407e-006 2.75364e-007)
(0.999895 1.85885e-005 -3.6723e-005)
(0.999646 1.83295e-005 -0.000361504)
(0.996225 -0.000108891 0.00416088)
(0.776229 -5.01124e-005 -0.221114)
(0.826096 4.80404e-005 -0.148535)
(0.879249 -6.28395e-006 -0.076849)
(0.936323 7.59353e-006 -0.0275256)
(0.971153 7.67307e-006 -0.0118108)
(0.987083 4.016e-006 -0.0053123)
(0.994257 1.72952e-006 -0.0023821)
(0.997463 5.92802e-007 -0.00106195)
(0.998889 6.06969e-008 -0.000471652)
(0.999522 -2.23707e-007 -0.000208914)
(0.999801 -4.16417e-007 -9.23478e-005)
(0.999924 -5.34081e-007 -4.07136e-005)
(0.999978 -5.52226e-007 -1.77765e-005)
(1 -6.3194e-007 -7.64779e-006)
(1.00001 -7.43864e-007 -3.16625e-006)
(1.00001 -7.43602e-007 -1.16102e-006)
(1.00002 -7.44696e-007 -2.90062e-007)
(1.00002 -8.09113e-007 8.85573e-008)
(1.00002 -7.99587e-007 2.96806e-007)
(1.00002 -7.87476e-007 3.86699e-007)
(1.00001 -8.20289e-007 3.98212e-007)
(1.00001 -7.57319e-007 3.96173e-007)
(1.00001 -6.94399e-007 4.01084e-007)
(1.00001 -6.64602e-007 3.64987e-007)
(1.00001 -6.17642e-007 3.27758e-007)
(1.00001 -5.56051e-007 3.53627e-007)
(1.00001 -4.86997e-007 3.47388e-007)
(1.00001 -4.32589e-007 3.15547e-007)
(1.00001 -3.99219e-007 3.18156e-007)
(1.00001 -3.5633e-007 2.97923e-007)
(1.00001 -3.03495e-007 2.62319e-007)
(1 -2.40902e-007 2.67238e-007)
(1 -1.71589e-007 2.91482e-007)
(1 -6.67821e-008 3.9136e-007)
(1 1.02601e-007 6.8937e-007)
(0.999997 3.85231e-007 1.31379e-006)
(0.999992 1.14284e-006 2.44185e-006)
(0.999986 4.18983e-006 3.40583e-006)
(0.999987 1.95593e-005 -2.72763e-006)
(1.00004 0.000115261 -6.62576e-005)
(0.999688 0.000895335 -0.000700372)
(0.990436 -0.00835578 0.0111312)
(0.69816 1.51623e-005 -0.389786)
(0.771281 -2.54625e-006 -0.335217)
(0.837601 -1.83736e-006 -0.268666)
(0.893324 4.57536e-008 -0.191382)
(0.936156 2.73358e-006 -0.11538)
(0.967001 1.82517e-006 -0.0584948)
(0.984934 3.89779e-007 -0.0272172)
(0.993373 1.35415e-007 -0.0123031)
(0.997101 2.21915e-007 -0.00549781)
(0.998736 3.17445e-008 -0.00244459)
(0.999456 -6.97269e-008 -0.00108452)
(0.999773 6.7887e-008 -0.000480504)
(0.999913 1.08239e-007 -0.000212598)
(0.999974 6.07552e-008 -9.39865e-005)
(1 8.67519e-008 -4.13332e-005)
(1.00001 7.02814e-008 -1.79094e-005)
(1.00002 7.44497e-009 -7.63917e-006)
(1.00002 -1.13392e-007 -3.11882e-006)
(1.00002 -1.56905e-007 -1.00158e-006)
(1.00002 -9.22532e-008 -1.53217e-007)
(1.00002 -1.02595e-007 1.99035e-007)
(1.00002 -8.85515e-008 4.8281e-007)
(1.00001 -7.57043e-009 5.51039e-007)
(1.00001 -2.20671e-008 5.62406e-007)
(1.00001 -1.72584e-008 6.51442e-007)
(1.00001 2.35091e-009 5.98761e-007)
(1.00001 -1.02085e-009 5.34082e-007)
(1.00001 1.29395e-008 5.73554e-007)
(1.00001 1.6856e-008 5.30734e-007)
(1.00001 4.68679e-008 4.95068e-007)
(1.00001 1.27372e-007 4.90848e-007)
(1.00001 7.99089e-008 4.37436e-007)
(1.00001 4.34939e-008 3.90622e-007)
(1 9.53158e-008 4.24781e-007)
(1 1.13729e-007 5.76275e-007)
(1 9.91796e-008 8.69491e-007)
(1 1.01759e-007 1.61995e-006)
(0.999998 -2.34339e-008 3.27941e-006)
(0.999994 -6.34058e-007 6.57179e-006)
(0.999986 -3.47697e-006 1.20737e-005)
(0.999963 -1.71303e-005 1.52466e-005)
(0.999877 -7.95659e-005 -1.43503e-005)
(0.999414 -0.000198361 -8.55258e-005)
(1.0002 -0.00240498 0.000231157)
(0.698327 1.47671e-005 -0.389714)
(0.771426 2.59676e-006 -0.335313)
(0.837643 3.35036e-006 -0.268701)
(0.89334 2.56602e-006 -0.191394)
(0.936165 1.01721e-006 -0.115389)
(0.967003 2.53639e-007 -0.0585004)
(0.984935 2.3899e-007 -0.0272192)
(0.993373 2.47565e-007 -0.0123035)
(0.997101 2.1593e-007 -0.00549783)
(0.998736 -1.27254e-007 -0.00244442)
(0.999456 -2.57259e-007 -0.00108427)
(0.999773 -1.43135e-007 -0.000480263)
(0.999913 -2.6672e-007 -0.000212448)
(0.999974 -4.03254e-007 -9.3821e-005)
(1 -3.71418e-007 -4.11817e-005)
(1.00001 -5.20265e-007 -1.78301e-005)
(1.00002 -6.35073e-007 -7.52591e-006)
(1.00002 -6.87541e-007 -2.94675e-006)
(1.00002 -7.32421e-007 -8.7092e-007)
(1.00002 -7.71439e-007 -2.28384e-008)
(1.00002 -7.4008e-007 3.7747e-007)
(1.00002 -7.04493e-007 6.25721e-007)
(1.00001 -6.96218e-007 6.65243e-007)
(1.00001 -6.50482e-007 6.61618e-007)
(1.00001 -5.59948e-007 6.87654e-007)
(1.00001 -5.65083e-007 6.28829e-007)
(1.00001 -5.33337e-007 5.74845e-007)
(1.00001 -4.22952e-007 6.14271e-007)
(1.00001 -3.95015e-007 6.05514e-007)
(1.00001 -3.1575e-007 5.59507e-007)
(1.00001 -2.1379e-007 5.41386e-007)
(1.00001 -2.35876e-007 5.10504e-007)
(1.00001 -1.985e-007 4.63186e-007)
(1 -8.38111e-008 4.72127e-007)
(1 -3.00712e-008 5.80296e-007)
(1 4.95866e-008 8.73306e-007)
(1 2.04879e-007 1.60997e-006)
(0.999998 3.71709e-007 3.24906e-006)
(0.999993 6.56907e-007 6.60394e-006)
(0.999982 1.48239e-006 1.24883e-005)
(0.999947 4.58378e-006 1.77413e-005)
(0.999831 1.36503e-005 -7.15136e-007)
(0.999643 2.4104e-006 -4.94739e-005)
(1.00008 0.00012006 -2.09308e-005)
(0.69807 -6.9052e-005 -0.389763)
(0.771089 1.2173e-005 -0.335128)
(0.837547 1.1688e-005 -0.268665)
(0.893288 2.26088e-006 -0.191377)
(0.936142 -5.47242e-007 -0.115372)
(0.966997 -1.84329e-007 -0.058491)
(0.984933 4.33766e-007 -0.0272155)
(0.993372 3.93569e-007 -0.0123021)
(0.9971 1.07499e-007 -0.00549724)
(0.998736 -9.64366e-008 -0.0024441)
(0.999456 -2.15219e-007 -0.00108408)
(0.999773 -2.97211e-007 -0.000480099)
(0.999912 -3.57901e-007 -0.000212237)
(0.999974 -4.51541e-007 -9.36366e-005)
(1 -4.95163e-007 -4.10615e-005)
(1.00001 -5.52251e-007 -1.76948e-005)
(1.00002 -6.42907e-007 -7.3543e-006)
(1.00002 -6.8388e-007 -2.80065e-006)
(1.00002 -7.11922e-007 -7.75804e-007)
(1.00002 -7.47681e-007 1.12745e-007)
(1.00002 -7.39988e-007 5.56215e-007)
(1.00002 -7.29777e-007 7.91996e-007)
(1.00001 -7.4554e-007 8.40285e-007)
(1.00001 -7.19859e-007 7.67717e-007)
(1.00001 -6.78244e-007 7.31591e-007)
(1.00001 -6.40397e-007 6.82895e-007)
(1.00001 -6.03908e-007 6.08038e-007)
(1.00001 -5.48027e-007 6.40888e-007)
(1.00001 -4.72114e-007 6.55162e-007)
(1.00001 -4.23171e-007 5.89802e-007)
(1.00001 -3.87815e-007 5.70674e-007)
(1.00001 -3.38142e-007 5.62623e-007)
(1.00001 -2.90775e-007 5.00036e-007)
(1 -2.2904e-007 4.9544e-007)
(1 -1.5319e-007 5.96891e-007)
(1 -5.7848e-008 8.65586e-007)
(1 8.97645e-008 1.56056e-006)
(0.999998 3.65751e-007 3.15711e-006)
(0.999995 1.0908e-006 6.41844e-006)
(0.999988 3.83319e-006 1.18253e-005)
(0.999971 1.65751e-005 1.41464e-005)
(0.999916 8.40945e-005 -2.17208e-005)
(0.999381 0.000478309 -0.000126551)
(0.997104 -0.00123375 0.000307328)
(0.649122 1.70516e-005 -0.487085)
(0.735971 7.85616e-007 -0.454214)
(0.824466 -4.94332e-006 -0.401178)
(0.904942 -4.1682e-007 -0.325489)
(0.966853 9.81939e-007 -0.232692)
(1.00049 6.94912e-007 -0.139067)
(1.00798 -9.54574e-007 -0.0690345)
(1.00545 -1.7912e-007 -0.0312369)
(1.00277 4.03086e-007 -0.0138376)
(1.00131 4.86986e-007 -0.00611679)
(1.00061 2.78405e-007 -0.00270575)
(1.00028 1.68697e-007 -0.00119751)
(1.00014 2.38603e-007 -0.000529973)
(1.00008 2.28239e-007 -0.000234469)
(1.00005 1.86323e-007 -0.000103603)
(1.00003 1.82694e-007 -4.55551e-005)
(1.00003 1.4558e-007 -1.98761e-005)
(1.00002 1.04826e-007 -8.54013e-006)
(1.00002 1.06304e-008 -3.54352e-006)
(1.00002 -3.38934e-008 -1.303e-006)
(1.00002 1.67046e-008 -3.14923e-007)
(1.00002 1.51652e-008 1.17698e-007)
(1.00002 2.78181e-008 3.52412e-007)
(1.00001 8.51448e-008 4.57106e-007)
(1.00001 5.21252e-008 4.84199e-007)
(1.00001 3.27329e-008 4.97741e-007)
(1.00001 4.42828e-008 4.71302e-007)
(1.00001 4.26653e-008 4.69803e-007)
(1.00001 6.54156e-008 4.58245e-007)
(1.00001 8.87471e-008 4.16471e-007)
(1.00001 1.14622e-007 4.32061e-007)
(1.00001 1.70668e-007 4.48118e-007)
(1.00001 1.39127e-007 3.73989e-007)
(1.00001 1.12696e-007 3.64046e-007)
(1 1.40455e-007 4.35304e-007)
(1 1.40721e-007 5.68132e-007)
(1 1.26226e-007 9.18793e-007)
(1 1.12163e-007 1.78913e-006)
(1 -1.25082e-008 3.79285e-006)
(0.999999 -5.50265e-007 8.49879e-006)
(0.999996 -2.98012e-006 1.99269e-005)
(0.999979 -1.47023e-005 4.88781e-005)
(0.999874 -7.30079e-005 0.000115478)
(0.999277 -0.000227486 7.2512e-005)
(1.00008 -0.00269557 -0.000855153)
(0.649269 -6.9697e-006 -0.487212)
(0.736052 5.53468e-006 -0.454292)
(0.824486 -4.83477e-007 -0.401182)
(0.904945 8.04889e-007 -0.325491)
(0.966853 7.80102e-007 -0.232693)
(1.00049 1.46569e-006 -0.139069)
(1.00798 1.32992e-006 -0.0690382)
(1.00545 8.27664e-007 -0.0312384)
(1.00277 5.12812e-007 -0.0138379)
(1.00131 3.49333e-007 -0.00611683)
(1.00061 8.33148e-009 -0.0027056)
(1.00028 -1.31825e-007 -0.0011973)
(1.00014 -4.26447e-008 -0.000529862)
(1.00008 -1.44398e-007 -0.000234315)
(1.00005 -2.8806e-007 -0.000103444)
(1.00003 -3.07877e-007 -4.54836e-005)
(1.00003 -4.52555e-007 -1.97753e-005)
(1.00002 -5.37628e-007 -8.40385e-006)
(1.00002 -5.72873e-007 -3.387e-006)
(1.00002 -6.48412e-007 -1.13366e-006)
(1.00002 -6.71398e-007 -1.57145e-007)
(1.00002 -5.97251e-007 2.87675e-007)
(1.00002 -5.77243e-007 5.35005e-007)
(1.00001 -5.83828e-007 5.96941e-007)
(1.00001 -5.85001e-007 5.65579e-007)
(1.00001 -5.56877e-007 5.2764e-007)
(1.00001 -5.53558e-007 5.04585e-007)
(1.00001 -5.23307e-007 5.0408e-007)
(1.00001 -4.17978e-007 4.94859e-007)
(1.00001 -3.55514e-007 4.9859e-007)
(1.00001 -2.89244e-007 4.94505e-007)
(1.00001 -2.02319e-007 4.57979e-007)
(1.00001 -1.93947e-007 4.34828e-007)
(1.00001 -1.62584e-007 4.29069e-007)
(1 -7.14754e-008 4.49039e-007)
(1 -2.69929e-008 5.79773e-007)
(1 4.37387e-008 9.27668e-007)
(1 1.76912e-007 1.75991e-006)
(1 3.21097e-007 3.76673e-006)
(0.999998 5.8365e-007 8.53532e-006)
(0.999993 1.3431e-006 2.02958e-005)
(0.999964 4.10054e-006 5.03798e-005)
(0.999827 1.25267e-005 0.000114355)
(0.999441 7.99642e-006 1.47032e-005)
(0.999911 0.000144497 -0.000941692)
(0.648876 3.13679e-006 -0.486896)
(0.735896 2.66671e-006 -0.454184)
(0.824436 -5.18809e-006 -0.40118)
(0.904939 1.72513e-006 -0.325493)
(0.966855 1.6067e-007 -0.232697)
(1.00049 5.84799e-007 -0.139068)
(1.00798 1.19819e-006 -0.0690329)
(1.00545 4.42852e-007 -0.0312359)
(1.00277 1.52911e-007 -0.0138369)
(1.00131 -1.22366e-007 -0.00611659)
(1.0006 -2.46074e-007 -0.00270548)
(1.00028 -3.20029e-007 -0.00119722)
(1.00014 -3.59049e-007 -0.000529838)
(1.00008 -3.53771e-007 -0.000234198)
(1.00005 -4.58184e-007 -0.000103315)
(1.00003 -5.42955e-007 -4.54657e-005)
(1.00003 -5.86558e-007 -1.97143e-005)
(1.00002 -6.54733e-007 -8.2839e-006)
(1.00002 -7.2985e-007 -3.30813e-006)
(1.00002 -7.59703e-007 -1.06561e-006)
(1.00002 -7.83623e-007 -5.76313e-008)
(1.00002 -7.70073e-007 4.04817e-007)
(1.00002 -7.39811e-007 6.72611e-007)
(1.00001 -7.46207e-007 7.5042e-007)
(1.00001 -7.64373e-007 6.3324e-007)
(1.00001 -7.37763e-007 5.31358e-007)
(1.00001 -6.965e-007 5.09363e-007)
(1.00001 -6.72675e-007 4.95258e-007)
(1.00001 -6.08733e-007 4.84795e-007)
(1.00001 -5.19893e-007 5.20836e-007)
(1.00001 -4.75287e-007 5.09351e-007)
(1.00001 -4.40809e-007 4.47551e-007)
(1.00001 -3.76083e-007 4.60257e-007)
(1.00001 -3.28018e-007 4.54755e-007)
(1 -2.67998e-007 4.39357e-007)
(1 -1.81649e-007 5.84774e-007)
(1 -8.57608e-008 9.3658e-007)
(1 5.24874e-008 1.73508e-006)
(1 3.22915e-007 3.72252e-006)
(1 1.00108e-006 8.41832e-006)
(0.999998 3.39761e-006 1.97686e-005)
(0.999986 1.436e-005 4.82702e-005)
(0.999912 7.76131e-005 0.000116354)
(0.99928 0.000506216 0.00012368)
(0.997053 -0.000857604 -0.00058966)
(0.568341 -4.47078e-005 -0.566383)
(0.667288 -1.76267e-006 -0.56471)
(0.771917 2.16079e-006 -0.537608)
(0.881818 3.17177e-007 -0.483167)
(0.985164 -4.17641e-006 -0.395474)
(1.06204 7.20675e-006 -0.275822)
(1.08711 -7.47721e-006 -0.143972)
(1.05565 -1.75638e-005 -0.0532575)
(1.02561 -6.70831e-006 -0.0208219)
(1.01136 -1.48138e-006 -0.00881306)
(1.00504 -2.23753e-007 -0.00383675)
(1.00225 6.51697e-008 -0.00168755)
(1.00101 1.66989e-007 -0.000745173)
(1.00046 2.62301e-007 -0.000329504)
(1.00022 2.93702e-007 -0.000145801)
(1.00011 2.70157e-007 -6.44655e-005)
(1.00006 2.36636e-007 -2.84124e-005)
(1.00004 2.02605e-007 -1.25218e-005)
(1.00003 1.69209e-007 -5.49712e-006)
(1.00002 1.08907e-007 -2.36153e-006)
(1.00002 8.06424e-008 -9.8055e-007)
(1.00002 1.02971e-007 -3.69309e-007)
(1.00002 1.14045e-007 -7.39407e-008)
(1.00002 1.32378e-007 4.98357e-008)
(1.00001 1.47236e-007 9.723e-008)
(1.00001 1.02242e-007 1.3045e-007)
(1.00001 7.20029e-008 1.34894e-007)
(1.00001 7.62179e-008 1.34127e-007)
(1.00001 7.99037e-008 1.56888e-007)
(1.00001 1.09676e-007 1.4442e-007)
(1.00001 1.45613e-007 1.27354e-007)
(1.00001 1.64481e-007 1.55334e-007)
(1.00001 1.85298e-007 1.60454e-007)
(1.00001 1.75436e-007 1.13884e-007)
(1.00001 1.59546e-007 1.26685e-007)
(1 1.61259e-007 1.77534e-007)
(1 1.55515e-007 2.44117e-007)
(1 1.38091e-007 4.67958e-007)
(1 1.05137e-007 1.03321e-006)
(1 -1.53617e-008 2.38187e-006)
(1.00001 -4.92249e-007 5.91217e-006)
(1.00001 -2.51505e-006 1.62701e-005)
(1.00003 -1.19453e-005 5.28394e-005)
(1.00007 -6.59776e-005 0.000221219)
(0.999107 -0.000384301 0.00114534)
(0.996248 -0.000945759 -0.0112602)
(0.568573 5.21885e-006 -0.566502)
(0.667352 2.20139e-006 -0.564792)
(0.771924 -1.3317e-006 -0.537624)
(0.881819 -1.98049e-006 -0.483165)
(0.985138 -1.31352e-006 -0.395472)
(1.062 -6.35285e-007 -0.2758)
(1.08704 1.57802e-006 -0.143984)
(1.05563 2.40373e-006 -0.0533038)
(1.02561 1.27786e-006 -0.0208411)
(1.01136 7.34803e-007 -0.00882064)
(1.00504 3.69928e-007 -0.0038401)
(1.00225 8.09147e-008 -0.00168899)
(1.00101 -5.34245e-008 -0.000745773)
(1.00046 -3.3432e-008 -0.000329819)
(1.00022 -4.54795e-008 -0.00014591)
(1.00011 -1.7623e-007 -6.44853e-005)
(1.00006 -2.85844e-007 -2.84568e-005)
(1.00004 -3.75672e-007 -1.2527e-005)
(1.00003 -4.30019e-007 -5.478e-006)
(1.00002 -4.97388e-007 -2.33184e-006)
(1.00002 -5.64881e-007 -9.30498e-007)
(1.00002 -5.67996e-007 -3.23029e-007)
(1.00002 -4.98676e-007 -2.40921e-008)
(1.00002 -4.57162e-007 1.13043e-007)
(1.00001 -4.61033e-007 1.3708e-007)
(1.00001 -5.21561e-007 1.45953e-007)
(1.00001 -5.46131e-007 1.24517e-007)
(1.00001 -5.3185e-007 1.26704e-007)
(1.00001 -5.07735e-007 1.6162e-007)
(1.00001 -4.14412e-007 1.41271e-007)
(1.00001 -3.1694e-007 1.44518e-007)
(1.00001 -2.612e-007 1.70022e-007)
(1.00001 -2.05909e-007 1.38579e-007)
(1.00001 -1.59041e-007 1.2357e-007)
(1.00001 -1.28229e-007 1.51019e-007)
(1 -7.2321e-008 1.7421e-007)
(1 -9.00835e-009 2.5016e-007)
(1 6.25654e-008 4.78853e-007)
(1 1.66836e-007 1.02451e-006)
(1 3.11974e-007 2.38162e-006)
(1 5.71875e-007 5.96159e-006)
(1.00001 1.27512e-006 1.66123e-005)
(1.00002 3.70015e-006 5.50222e-005)
(1.00001 1.20183e-005 0.00023279)
(0.999215 1.08614e-005 0.0011631)
(0.99654 -8.93858e-005 -0.00947122)
(0.568206 6.38534e-005 -0.566347)
(0.667196 4.35494e-006 -0.564668)
(0.771903 4.16641e-006 -0.537594)
(0.881822 -1.3855e-006 -0.483172)
(0.985201 1.91401e-006 -0.395484)
(1.0621 -8.5332e-006 -0.275837)
(1.08711 6.36472e-006 -0.143964)
(1.05561 4.42001e-005 -0.0532693)
(1.0256 1.90523e-005 -0.0208345)
(1.01136 7.74383e-006 -0.00881901)
(1.00504 3.14049e-006 -0.00383952)
(1.00224 1.22234e-006 -0.00168869)
(1.00101 3.65541e-007 -0.000745568)
(1.00046 -2.29094e-009 -0.000329703)
(1.00022 -1.05262e-007 -0.000145758)
(1.00011 -2.75063e-007 -6.43061e-005)
(1.00006 -4.26082e-007 -2.83558e-005)
(1.00004 -4.7242e-007 -1.23995e-005)
(1.00003 -5.05073e-007 -5.30727e-006)
(1.00002 -5.98282e-007 -2.19334e-006)
(1.00002 -6.40053e-007 -8.03543e-007)
(1.00002 -6.46311e-007 -1.59409e-007)
(1.00002 -6.20461e-007 1.33954e-007)
(1.00002 -5.7746e-007 2.83569e-007)
(1.00001 -5.73193e-007 3.25432e-007)
(1.00001 -6.33391e-007 2.89558e-007)
(1.00001 -6.35943e-007 2.15269e-007)
(1.00001 -6.03725e-007 2.09547e-007)
(1.00001 -5.98024e-007 2.47894e-007)
(1.00001 -5.32227e-007 2.09284e-007)
(1.00001 -4.39139e-007 2.20307e-007)
(1.00001 -4.0721e-007 2.46784e-007)
(1.00001 -3.7799e-007 1.97936e-007)
(1.00001 -3.05264e-007 1.9712e-007)
(1.00001 -2.66322e-007 2.28989e-007)
(1 -2.19349e-007 2.28699e-007)
(1 -1.29291e-007 3.20551e-007)
(1 -3.78113e-008 5.56216e-007)
(1 8.13973e-008 1.07957e-006)
(1 3.26259e-007 2.4275e-006)
(1.00001 9.26074e-007 5.95609e-006)
(1.00001 2.91516e-006 1.62167e-005)
(1.00004 1.14102e-005 5.16614e-005)
(1.00011 6.52349e-005 0.000210089)
(0.999301 0.000781592 0.00116522)
(0.992931 -0.00199588 -0.0124357)
(0.484607 4.13339e-005 -0.63809)
(0.568352 7.91425e-006 -0.649738)
(0.676423 -3.1266e-006 -0.656191)
(0.802488 -5.80821e-006 -0.64021)
(0.943488 -3.51315e-006 -0.589826)
(1.08632 5.89702e-006 -0.490493)
(1.20874 5.0252e-005 -0.325743)
(0.484675 1.12165e-005 -0.638166)
(0.568431 7.83538e-007 -0.649815)
(0.676422 -2.73909e-007 -0.656201)
(0.802471 -2.66331e-006 -0.640177)
(0.943405 -1.75792e-006 -0.589765)
(1.08597 2.57923e-006 -0.490319)
(1.20855 1.91817e-006 -0.325787)
(0.484503 -3.24166e-005 -0.638117)
(0.568289 -4.20388e-006 -0.649672)
(0.676398 -4.09505e-006 -0.656195)
(0.802501 1.17327e-005 -0.640211)
(0.943597 -3.08167e-008 -0.589906)
(1.08678 2.01153e-005 -0.49074)
(1.20897 -9.42978e-005 -0.325875)
(0.454622 8.83783e-007 -0.7012)
(0.55119 1.09976e-006 -0.737327)
(0.67143 5.99603e-006 -0.762627)
(0.823073 4.01952e-006 -0.768495)
(1.01592 5.90575e-005 -0.741309)
(0.45478 -6.69086e-006 -0.701384)
(0.551211 -2.39709e-006 -0.737371)
(0.671417 -1.8359e-006 -0.762608)
(0.822923 -3.35243e-006 -0.768368)
(1.01555 -5.87306e-006 -0.741006)
(0.45441 -3.42866e-006 -0.700986)
(0.551169 -9.38927e-006 -0.737297)
(0.671439 -5.31505e-006 -0.76264)
(0.823151 -2.61435e-006 -0.768571)
(1.01611 -4.85639e-005 -0.741559)
(0.343986 2.44259e-005 -0.722123)
(0.417712 -8.06541e-006 -0.774886)
(0.515416 -1.55843e-006 -0.829982)
(0.644498 6.44876e-006 -0.883162)
(0.818354 -1.37353e-005 -0.924651)
(0.344392 4.04241e-006 -0.722132)
(0.417761 -2.15228e-006 -0.774949)
(0.515416 -2.51983e-006 -0.829989)
(0.644452 -3.51535e-006 -0.883081)
(0.818136 -1.15996e-005 -0.924278)
(0.344456 7.26758e-005 -0.721939)
(0.417663 -8.68884e-006 -0.774805)
(0.515411 -4.90612e-006 -0.829966)
(0.644565 -2.20259e-005 -0.883235)
(0.818955 5.70713e-005 -0.925129)
(0.292183 -6.61108e-006 -0.773875)
(0.365036 -2.0172e-006 -0.845529)
(0.457277 -2.75385e-007 -0.922938)
(0.586014 9.44201e-006 -1.01263)
(0.292246 -1.0439e-006 -0.774018)
(0.365055 -2.45865e-006 -0.845556)
(0.457259 -7.18021e-007 -0.922912)
(0.585781 -5.54018e-006 -1.01231)
(0.291928 -4.88005e-006 -0.773641)
(0.365006 -5.61963e-006 -0.84547)
(0.45729 4.60164e-006 -0.922944)
(0.586271 -5.05557e-005 -1.01304)
(0.235762 -2.76252e-005 -0.828334)
(0.29781 -7.44031e-006 -0.908313)
(0.374503 -9.52898e-007 -1.00705)
(0.492158 6.33522e-005 -1.14829)
(0.235875 -1.25163e-006 -0.828497)
(0.297816 -2.02849e-007 -0.908311)
(0.374486 1.37371e-006 -1.00701)
(0.49227 5.9391e-006 -1.14814)
(0.235669 3.55868e-005 -0.828164)
(0.297806 7.28469e-006 -0.9083)
(0.37453 -2.61917e-006 -1.00712)
(0.492456 -9.23087e-005 -1.14865)
(0.172426 -5.42678e-005 -0.873293)
(0.220763 -4.02419e-006 -0.957096)
(0.2695 -1.1173e-005 -1.06905)
(0.172539 2.24476e-006 -0.873301)
(0.220769 3.1769e-006 -0.957085)
(0.269426 5.6738e-006 -1.06897)
(0.172377 6.18128e-005 -0.873284)
(0.220757 -3.29421e-007 -0.957081)
(0.269519 -2.85768e-006 -1.06913)
(0.0631033 0.000261836 -0.848469)
(0.110409 5.63349e-005 -0.912565)
(0.144379 8.31789e-006 -0.987233)
(0.155593 1.16205e-005 -1.08919)
(0.0635016 -2.22384e-005 -0.848629)
(0.110416 -5.56716e-006 -0.912612)
(0.144378 1.73011e-006 -0.98723)
(0.15565 6.68129e-007 -1.08903)
(0.0629173 -0.00048129 -0.847423)
(0.110428 -5.7076e-005 -0.912508)
(0.144382 -3.07741e-006 -0.987236)
(0.155567 -7.45473e-006 -1.08936)
(0.00833804 -4.2885e-005 -0.911621)
(0.0611029 3.32441e-005 -0.946877)
(0.0828531 6.80514e-006 -0.99968)
(0.0688446 -3.08727e-008 -1.06566)
(0.00844054 -6.06558e-006 -0.911712)
(0.0611299 -2.20952e-006 -0.946942)
(0.0828533 -2.10358e-007 -0.999684)
(0.0689617 -1.29061e-006 -1.06552)
(0.0081832 0.000279347 -0.911537)
(0.0610654 -1.89333e-005 -0.946818)
(0.0828483 -3.50269e-006 -0.999684)
(0.0687371 1.05695e-005 -1.06582)
(0.00350244 -3.6262e-005 -0.957533)
(0.03198 1.27934e-005 -0.971801)
(0.0438225 2.52313e-006 -1.00216)
(0.0302712 -4.02838e-006 -1.03507)
(0.00355345 4.50192e-006 -0.95754)
(0.032003 2.95405e-006 -0.971833)
(0.0438209 -1.8751e-007 -1.00216)
(0.0303485 -3.68638e-006 -1.03502)
(0.00342491 0.000134464 -0.957534)
(0.03195 -4.60851e-006 -0.971772)
(0.0438129 -1.42009e-006 -1.00216)
(0.0301999 1.7061e-005 -1.03514)
(0.00180919 -1.99902e-005 -0.979264)
(0.0169145 5.79198e-006 -0.98614)
(0.0229039 3.55307e-007 -1.00172)
(0.0146945 -5.80757e-006 -1.01725)
(0.00183616 5.00675e-006 -0.979265)
(0.0169264 3.35443e-006 -0.986155)
(0.022901 -6.70046e-008 -1.00172)
(0.014733 -4.14859e-006 -1.01723)
(0.00176923 7.04097e-005 -0.979272)
(0.0168951 -1.58353e-006 -0.98613)
(0.022895 -6.81307e-007 -1.00172)
(0.0146545 9.11215e-006 -1.01728)
(0.00102755 -1.06259e-005 -0.99092)
(0.00961074 3.96361e-006 -0.993981)
(0.0128386 5.93938e-007 -1.00096)
(0.00799691 -4.03572e-006 -1.00767)
(0.00104284 2.47102e-006 -0.99092)
(0.00961724 1.72749e-006 -0.993988)
(0.0128367 3.24344e-007 -1.00096)
(0.00801702 -2.20928e-006 -1.00766)
(0.00100457 3.95898e-005 -0.990924)
(0.00960043 -9.23754e-007 -0.993977)
(0.0128339 7.37698e-008 -1.00096)
(0.00797356 6.06116e-006 -1.00768)
(0.000736971 -7.65643e-006 -0.998163)
(0.00687014 3.21851e-006 -0.998805)
(0.00907459 1.51026e-006 -1.00032)
(0.00557284 -1.96344e-006 -1.00181)
(0.000748015 2.06907e-006 -0.998164)
(0.00687494 1.59011e-006 -0.998807)
(0.00907408 1.16241e-006 -1.00032)
(0.00558623 -9.73507e-008 -1.0018)
(0.000720551 2.79267e-005 -0.998165)
(0.0068634 -8.91788e-007 -0.998805)
(0.0090731 5.71162e-007 -1.00032)
(0.00555626 5.50914e-006 -1.00181)
(0.000808487 -9.14465e-006 -1.0045)
(0.00749615 3.07523e-006 -1.00295)
(0.00978796 1.27799e-006 -0.999649)
(0.00595125 -2.62831e-006 -0.996771)
(0.00082064 1.82856e-006 -1.0045)
(0.00750181 1.23745e-006 -1.00295)
(0.00978774 1.23832e-006 -0.999649)
(0.00596627 9.88378e-007 -0.996775)
(0.000790478 3.02715e-005 -1.0045)
(0.00748888 -1.56442e-006 -1.00296)
(0.00978803 2.83705e-007 -0.99965)
(0.00593547 6.80378e-006 -0.996765)
(0.00130031 -1.6416e-005 -1.01312)
(0.0119237 3.48151e-006 -1.00843)
(0.015296 1.17042e-006 -0.998618)
(0.00921236 -4.54318e-006 -0.990099)
(0.00131993 1.41343e-006 -1.01312)
(0.0119336 2.91997e-007 -1.00843)
(0.0152965 7.95683e-007 -0.998619)
(0.00923693 1.98311e-006 -0.990113)
(0.00127123 4.85667e-005 -1.01312)
(0.0119127 -3.19923e-006 -1.00845)
(0.0152985 -5.31098e-007 -0.998619)
(0.00919064 1.09205e-005 -0.990083)
(0.00255304 -3.6087e-005 -1.02877)
(0.0227203 3.40995e-006 -1.01776)
(0.0281196 4.43839e-007 -0.996497)
(0.0168158 -6.88005e-006 -0.97863)
(0.00259162 3.25996e-007 -1.02878)
(0.0227401 -6.53999e-007 -1.01775)
(0.028121 5.89966e-007 -0.996498)
(0.0168624 2.0331e-006 -0.978659)
(0.00249618 9.83776e-005 -1.02877)
(0.0227037 -2.9068e-006 -1.01778)
(0.0281223 1.83054e-007 -0.996497)
(0.0167772 1.92711e-005 -0.978602)
(0.00588296 -9.08153e-005 -1.06225)
(0.0467668 7.47081e-007 -1.03401)
(0.0534077 -1.69986e-007 -0.991584)
(0.0324128 -7.06629e-006 -0.957531)
(0.00596998 3.8648e-006 -1.06226)
(0.0468022 -7.96166e-007 -1.03397)
(0.0534126 7.98866e-007 -0.991584)
(0.0325002 1.73343e-006 -0.957584)
(0.00575215 0.000238388 -1.06223)
(0.0467381 1.42571e-007 -1.03405)
(0.0534093 9.99516e-007 -0.991583)
(0.0323375 2.87391e-005 -0.957472)
(0.0363946 -0.000196671 -1.15603)
(0.0995096 -1.00548e-005 -1.05456)
(0.0975546 1.14314e-006 -0.980322)
(0.06484 -4.60222e-006 -0.922522)
(0.0365602 3.61881e-006 -1.15594)
(0.0995358 5.00432e-007 -1.05449)
(0.0975615 1.06703e-006 -0.980322)
(0.0649658 4.37606e-006 -0.922644)
(0.0361415 0.000577613 -1.15632)
(0.0994741 8.22397e-006 -1.05463)
(0.0975532 5.72256e-007 -0.980321)
(0.0647226 2.53877e-005 -0.922398)
(0.202729 -6.16877e-005 -1.21539)
(0.189113 -1.03057e-005 -1.05574)
(0.16105 -2.89436e-006 -0.95763)
(0.118613 -2.76025e-005 -0.880672)
(0.202855 1.42403e-005 -1.21524)
(0.189131 3.96648e-006 -1.05568)
(0.161052 2.64604e-006 -0.957629)
(0.118747 4.61699e-006 -0.880818)
(0.202642 5.23825e-005 -1.21591)
(0.18911 1.24957e-005 -1.05581)
(0.161046 3.62691e-006 -0.95762)
(0.118536 2.03352e-005 -0.880572)
(0.366179 4.87455e-005 -1.16672)
(0.290969 -4.65374e-006 -1.02003)
(0.2341 -2.03363e-006 -0.919983)
(0.181485 -4.52721e-006 -0.839104)
(0.366093 2.21957e-005 -1.16622)
(0.290947 9.46702e-007 -1.01998)
(0.234104 2.02478e-006 -0.919992)
(0.181605 5.0674e-007 -0.839286)
(0.366436 1.49739e-005 -1.16736)
(0.29099 7.82134e-006 -1.0201)
(0.234091 6.3327e-006 -0.919959)
(0.18138 4.66729e-006 -0.838917)
(0.491671 -1.09106e-005 -1.06917)
(0.38221 -8.62695e-006 -0.955032)
(0.304579 -2.00024e-006 -0.868034)
(0.241431 5.7277e-006 -0.792079)
(0.49142 -3.59515e-007 -1.06884)
(0.382203 -1.20909e-006 -0.955029)
(0.304593 1.89777e-007 -0.868055)
(0.241584 -1.26676e-006 -0.792251)
(0.491952 3.14974e-005 -1.06959)
(0.382227 3.64887e-006 -0.955074)
(0.304571 1.35918e-005 -0.868001)
(0.241219 3.61354e-005 -0.791839)
(0.733541 7.22216e-005 -1.02676)
(0.573524 1.6946e-005 -0.949082)
(0.453457 2.00328e-006 -0.873586)
(0.364675 -2.10386e-006 -0.805725)
(0.297934 -3.39539e-005 -0.744947)
(0.733428 1.06141e-005 -1.02661)
(0.57345 6.27644e-006 -0.949003)
(0.453456 -1.01606e-006 -0.873585)
(0.364701 -1.34504e-006 -0.805772)
(0.297533 7.29055e-006 -0.744923)
(0.733604 -0.000315223 -1.02719)
(0.573578 9.38413e-006 -0.949201)
(0.453464 1.68864e-006 -0.8736)
(0.364646 1.04054e-005 -0.805655)
(0.297828 -0.000131191 -0.744941)
(0.948849 4.67656e-005 -0.83337)
(0.778266 -4.78459e-006 -0.863699)
(0.621697 6.16265e-007 -0.830903)
(0.503209 -3.03133e-006 -0.786337)
(0.411283 -1.21373e-005 -0.73816)
(0.948517 -9.49935e-006 -0.833506)
(0.77801 -3.49933e-006 -0.863455)
(0.621679 -1.04524e-006 -0.8309)
(0.503219 -3.90196e-007 -0.786339)
(0.411393 -1.42013e-006 -0.738312)
(0.94906 7.26809e-005 -0.833553)
(0.778496 -2.9122e-006 -0.863973)
(0.621732 -1.0339e-005 -0.830942)
(0.503182 2.61542e-006 -0.786309)
(0.411159 1.02715e-005 -0.737951)
(1.1171 -0.000186366 -0.59789)
(0.940101 7.44129e-006 -0.694048)
(0.779102 -2.50977e-007 -0.724687)
(0.643793 3.17123e-006 -0.721715)
(0.533261 2.17154e-006 -0.700022)
(0.442574 3.96309e-005 -0.66831)
(1.11709 -3.98216e-005 -0.597689)
(0.939832 -7.56028e-006 -0.693838)
(0.779082 -5.548e-007 -0.724657)
(0.643791 1.2032e-006 -0.721717)