# vtk DataFile Version 2.0
track0
ASCII
DATASET POLYDATA
POINTS 11980 float
-0.0205 0.001 1e-005
-0.0202034 0.00100022 1e-005
-0.0199069 0.00100067 1e-005
-0.0196103 0.00100132 1e-005
-0.0193137 0.00100219 1e-005
-0.0190172 0.00100326 1e-005
-0.0187132 0.00100466 1e-005
-0.0184093 0.00100588 1e-005
-0.0181054 0.0010071 1e-005
-0.0178015 0.00100832 1e-005
-0.0174976 0.00100953 1e-005
-0.0172058 0.00101083 1e-005
-0.016914 0.00101193 1e-005
-0.0166222 0.00101303 1e-005
-0.0163305 0.00101413 1e-005
-0.0160387 0.00101522 1e-005
-0.0157586 0.00101636 1e-005
-0.0154784 0.00101744 1e-005
-0.0151983 0.00101856 1e-005
-0.0149182 0.00101971 1e-005
-0.0146381 0.0010209 1e-005
-0.0143744 0.00102208 1e-005
-0.0141107 0.00102327 1e-005
-0.013847 0.00102449 1e-005
-0.0135833 0.00102574 1e-005
-0.0133606 0.00102682 1e-005
-0.0133472 0.00102688 1e-005
-0.0133337 0.00102695 1e-005
-0.0133203 0.00102702 1e-005
-0.0133069 0.00102708 1e-005
-0.0132934 0.00102715 1e-005
-0.0130353 0.00102844 1e-005
-0.0127771 0.00102974 1e-005
-0.0125189 0.00103106 1e-005
-0.0122607 0.00103239 1e-005
-0.0120025 0.00103374 1e-005
-0.0117547 0.00103505 1e-005
-0.0115068 0.00103637 1e-005
-0.0112589 0.00103769 1e-005
-0.0110111 0.00103901 1e-005
-0.0107632 0.00104034 1e-005
-0.0105252 0.00104161 1e-005
-0.0102873 0.00104289 1e-005
-0.0100493 0.00104417 1e-005
-0.00981133 0.00104545 1e-005
-0.00957337 0.00104672 1e-005
-0.00934491 0.00104794 1e-005
-0.00911645 0.00104916 1e-005
-0.00888799 0.00105038 1e-005
-0.00865954 0.0010516 1e-005
-0.00843108 0.00105281 1e-005
-0.00821175 0.00105396 1e-005
-0.00799242 0.00105512 1e-005
-0.00777309 0.00105627 1e-005
-0.00755376 0.00105742 1e-005
-0.00733443 0.00105856 1e-005
-0.00712387 0.00105965 1e-005
-0.0069133 0.00106074 1e-005
-0.00670273 0.00106183 1e-005
-0.00649216 0.00106291 1e-005
-0.0062816 0.00106398 1e-005
-0.00607944 0.001065 1e-005
-0.00587729 0.00106603 1e-005
-0.00567514 0.00106705 1e-005
-0.00547298 0.00106806 1e-005
-0.00527083 0.00106907 1e-005
-0.00507675 0.00107003 1e-005
-0.00488267 0.00107099 1e-005
-0.0046886 0.00107195 1e-005
-0.00449452 0.0010729 1e-005
-0.00430044 0.00107385 1e-005
-0.00411412 0.00107476 1e-005
-0.0039278 0.00107566 1e-005
-0.00374147 0.00107656 1e-005
-0.00355515 0.00107745 1e-005
-0.00336883 0.00107835 1e-005
-0.00318995 0.00107919 1e-005
-0.00301107 0.00108004 1e-005
-0.00283219 0.00108089 1e-005
-0.00265331 0.00108174 1e-005
-0.00247443 0.00108258 1e-005
-0.0023027 0.00108338 1e-005
-0.00213097 0.00108418 1e-005
-0.00195924 0.00108498 1e-005
-0.0017875 0.00108578 1e-005
-0.00161577 0.00108657 1e-005
-0.0014509 0.00108732 1e-005
-0.00128603 0.00108808 1e-005
-0.00112116 0.00108884 1e-005
-0.000956289 0.00108959 1e-005
-0.000791418 0.00109035 1e-005
-0.000633135 0.00109107 1e-005
-0.000474851 0.00109179 1e-005
-0.000316567 0.00109251 1e-005
-0.000158284 0.00109322 1e-005
0 0.00109394 1e-005
0.000105677 0.00109441 1e-005
0.000211355 0.00109488 1e-005
0.000317032 0.00109535 1e-005
0.00042271 0.00109581 1e-005
0.000528387 0.00109627 1e-005
0.000634886 0.00109673 1e-005
0.000741385 0.00109718 1e-005
0.000847885 0.00109763 1e-005
0.000954384 0.00109808 1e-005
0.00106088 0.00109853 1e-005
0.00116821 0.00109897 1e-005
0.00127554 0.00109942 1e-005
0.00138286 0.00109985 1e-005
0.00149019 0.00110028 1e-005
0.00159752 0.00110071 1e-005
0.00170568 0.00110113 1e-005
0.00181384 0.00110154 1e-005
0.001922 0.00110195 1e-005
0.00203016 0.00110235 1e-005
0.00213833 0.00110274 1e-005
0.00224733 0.00110312 1e-005
0.00235633 0.0011035 1e-005
0.00246533 0.00110387 1e-005
0.00257434 0.00110423 1e-005
0.00268334 0.00110458 1e-005
0.00279319 0.00110492 1e-005
0.00290304 0.00110527 1e-005
0.00301289 0.0011056 1e-005
0.00312274 0.00110592 1e-005
0.00323259 0.00110624 1e-005
0.00334329 0.00110654 1e-005
0.003454 0.00110685 1e-005
0.0035647 0.00110714 1e-005
0.0036754 0.00110743 1e-005
0.00378611 0.00110771 1e-005
0.00389767 0.00110798 1e-005
0.00400924 0.00110825 1e-005
0.0041208 0.00110851 1e-005
0.00423237 0.00110876 1e-005
0.00434393 0.00110901 1e-005
0.00445636 0.00110924 1e-005
0.00456879 0.00110948 1e-005
0.00468123 0.0011097 1e-005
0.00479366 0.00110992 1e-005
0.00490609 0.00111012 1e-005
0.0050194 0.00111032 1e-005
0.0051327 0.00111052 1e-005
0.00524601 0.0011107 1e-005
0.00535932 0.00111088 1e-005
0.00547262 0.00111106 1e-005
0.00558681 0.00111122 1e-005
0.005701 0.00111138 1e-005
0.00581518 0.00111153 1e-005
0.00592937 0.00111167 1e-005
0.00604356 0.0011118 1e-005
0.00615863 0.00111193 1e-005
0.00627371 0.00111205 1e-005
0.00638878 0.00111217 1e-005
0.00650386 0.00111227 1e-005
0.00661893 0.00111237 1e-005
0.0067349 0.00111246 1e-005
0.00685087 0.00111255 1e-005
0.00696684 0.00111262 1e-005
0.00708281 0.00111269 1e-005
0.00719878 0.00111276 1e-005
0.00726197 0.00111278 1e-005
0.00732515 0.00111281 1e-005
0.00738834 0.00111284 1e-005
0.00745153 0.00111286 1e-005
0.00751288 0.00111288 1e-005
0.00756693 0.0011129 1e-005
0.00762098 0.00111291 1e-005
0.00767503 0.00111293 1e-005
0.00772908 0.00111294 1e-005
0.00778313 0.00111295 1e-005
0.00790091 0.00111296 1e-005
0.00801869 0.00111297 1e-005
0.00813647 0.00111297 1e-005
0.00825425 0.00111297 1e-005
0.00837203 0.00111295 1e-005
0.00849073 0.00111293 1e-005
0.00860942 0.0011129 1e-005
0.00872812 0.00111286 1e-005
0.00884682 0.00111282 1e-005
0.00896551 0.00111277 1e-005
0.00908513 0.0011127 1e-005
0.00920475 0.00111263 1e-005
0.00932437 0.00111255 1e-005
0.00944398 0.00111247 1e-005
0.0095636 0.00111237 1e-005
0.00968415 0.00111226 1e-005
0.0098047 0.00111215 1e-005
0.00992525 0.00111204 1e-005
0.0100458 0.00111191 1e-005
0.0101663 0.00111178 1e-005
0.0102878 0.00111162 1e-005
0.0104093 0.00111147 1e-005
0.0105308 0.00111131 1e-005
0.0106523 0.00111115 1e-005
0.0107738 0.00111097 1e-005
0.0108962 0.00111077 1e-005
0.0110186 0.00111058 1e-005
0.0111411 0.00111038 1e-005
0.0112635 0.00111017 1e-005
0.0113859 0.00110995 1e-005
0.0115093 0.00110971 1e-005
0.0116327 0.00110947 1e-005
0.0117561 0.00110922 1e-005
0.0118795 0.00110897 1e-005
0.0120028 0.00110871 1e-005
0.0121272 0.00110842 1e-005
0.0122515 0.00110814 1e-005
0.0123759 0.00110785 1e-005
0.0125002 0.00110755 1e-005
0.0126245 0.00110724 1e-005
0.0127498 0.00110691 1e-005
0.0128752 0.00110658 1e-005
0.0130005 0.00110625 1e-005
0.0131258 0.0011059 1e-005
0.0132511 0.00110555 1e-005
0.0133774 0.00110517 1e-005
0.0135036 0.0011048 1e-005
0.0136299 0.00110442 1e-005
0.0137562 0.00110403 1e-005
0.0138825 0.00110363 1e-005
0.0140098 0.0011032 1e-005
0.014137 0.00110278 1e-005
0.0142643 0.00110235 1e-005
0.0143915 0.00110191 1e-005
0.0145188 0.00110147 1e-005
0.0146471 0.001101 1e-005
0.0147753 0.00110053 1e-005
0.0149036 0.00110005 1e-005
0.0150318 0.00109956 1e-005
0.0151601 0.00109906 1e-005
0.0152893 0.00109855 1e-005
0.0154186 0.00109803 1e-005
0.0155478 0.0010975 1e-005
0.0156771 0.00109696 1e-005
0.0158063 0.00109642 1e-005
0.0159366 0.00109586 1e-005
0.0160668 0.00109529 1e-005
0.0161971 0.00109471 1e-005
0.0163274 0.00109412 1e-005
0.0164576 0.00109353 1e-005
0.0165889 0.00109292 1e-005
0.0167201 0.0010923 1e-005
0.0168514 0.00109168 1e-005
0.0169827 0.00109104 1e-005
0.0171139 0.0010904 1e-005
0.0172462 0.00108974 1e-005
0.0173785 0.00108907 1e-005
0.0175108 0.0010884 1e-005
0.0176431 0.00108771 1e-005
0.0177754 0.00108702 1e-005
0.0179087 0.00108631 1e-005
0.018042 0.0010856 1e-005
0.0181753 0.00108487 1e-005
0.0183087 0.00108413 1e-005
0.018442 0.00108339 1e-005
0.0185763 0.00108264 1e-005
0.0187107 0.00108188 1e-005
0.018845 0.0010811 1e-005
0.0189794 0.00108031 1e-005
0.0191137 0.00107952 1e-005
0.0192491 0.00107872 1e-005
0.0193845 0.00107791 1e-005
0.0195199 0.00107708 1e-005
0.0196553 0.00107624 1e-005
0.0197907 0.0010754 1e-005
0.0199272 0.00107456 1e-005
0.0200636 0.00107369 1e-005
0.0202001 0.00107281 1e-005
0.0203365 0.00107192 1e-005
0.020473 0.00107103 1e-005
0.0206105 0.00107014 1e-005
0.020748 0.00106923 1e-005
0.0208855 0.0010683 1e-005
0.021023 0.00106736 1e-005
0.0211606 0.00106642 1e-005
0.0212991 0.00106549 1e-005
0.0214377 0.00106453 1e-005
0.0215763 0.00106354 1e-005
0.0217149 0.00106255 1e-005
0.0218535 0.00106157 1e-005
0.0219931 0.00106058 1e-005
0.0221328 0.00105958 1e-005
0.0222724 0.00105854 1e-005
0.0224121 0.0010575 1e-005
0.0225517 0.00105647 1e-005
0.0226925 0.00105544 1e-005
0.0228332 0.00105438 1e-005
0.022974 0.00105329 1e-005
0.0231147 0.0010522 1e-005
0.0232555 0.00105112 1e-005
0.0233973 0.00105004 1e-005
0.0235391 0.00104893 1e-005
0.023681 0.0010478 1e-005
0.0238228 0.00104666 1e-005
0.0239647 0.00104552 1e-005
0.0241076 0.00104439 1e-005
0.0242505 0.00104324 1e-005
0.0243935 0.00104205 1e-005
0.0245364 0.00104086 1e-005
0.0246794 0.00103968 1e-005
0.0248234 0.0010385 1e-005
0.0249675 0.00103729 1e-005
0.0251115 0.00103605 1e-005
0.0252556 0.00103481 1e-005
0.0253996 0.00103358 1e-005
0.0255448 0.00103235 1e-005
0.02569 0.00103109 1e-005
0.0258351 0.00102981 1e-005
0.0259803 0.00102852 1e-005
0.0261255 0.00102723 1e-005
0.0262718 0.00102595 1e-005
0.0264181 0.00102464 1e-005
0.0265644 0.0010233 1e-005
0.0267107 0.00102196 1e-005
0.026857 0.00102063 1e-005
0.0270044 0.00101929 1e-005
0.0271519 0.00101793 1e-005
0.0272993 0.00101655 1e-005
0.0274468 0.00101515 1e-005
0.0275942 0.00101377 1e-005
0.0277428 0.00101238 1e-005
0.0278914 0.00101096 1e-005
0.0280399 0.00100952 1e-005
0.0281885 0.00100808 1e-005
0.0283371 0.00100664 1e-005
0.0284869 0.00100519 1e-005
0.0286366 0.00100372 1e-005
0.0287863 0.00100223 1e-005
0.0289361 0.00100073 1e-005
0.0290858 0.000999233 1e-005
0.0292367 0.000997731 1e-005
0.0293876 0.000996199 1e-005
0.0295385 0.000994656 1e-005
0.0296894 0.000993105 1e-005
0.0298403 0.000991547 1e-005
0.0299924 0.000989986 1e-005
0.0301445 0.000988395 1e-005
0.0302966 0.000986796 1e-005
0.0304486 0.000985188 1e-005
0.0306007 0.000983572 1e-005
0.030754 0.00098195 1e-005
0.0309072 0.0009803 1e-005
0.0310605 0.000978643 1e-005
0.0312138 0.000976976 1e-005
0.031367 0.0009753 1e-005
0.0315215 0.000973615 1e-005
[...]
POINT_DATA 11980
 FIELD attributes 1
U 3 11980 float
10.0004 	0.00731848 	0 10.0024 	0.0151691 	0 10.0045 	0.0221881 	0 10.0065 	0.029163 	0 10.0085 	0.0360939 	0 10.0135 	0.0463093 	0 10.0163 	0.0402081 	0 10.0207 	0.0401658 	0 10.0252 	0.0401236 	0 10.0296 	0.0400817 	0 10.0356 	0.0445413 	0 10.0385 	0.0378996 	0 10.0424 	0.0378544 	0 10.0464 	0.0378091 	0 10.0504 	0.0377638 	0 10.0545 	0.0408641 	0 10.0567 	0.038785 	0 10.0592 	0.0400931 	0 10.0616 	0.0414028 	0 10.0641 	0.0427142 	0 10.0662 	0.0451717 	0 10.0677 	0.0452818 	0 10.0691 	0.0464836 	0 10.0704 	0.0476865 	0 10.0718 	0.0488905 	0 10.0729 	0.0499085 	0 10.073 	0.0499703 	0 10.073 	0.0500321 	0 10.0731 	0.0500939 	0 10.0732 	0.0501557 	0 10.0732 	0.0502082 	0 10.0738 	0.0508335 	0 10.0743 	0.0514529 	0 10.0748 	0.0520728 	0 10.0753 	0.0526932 	0 10.0758 	0.0531497 	0 10.0757 	0.0534438 	0 10.0754 	0.0536326 	0 10.075 	0.0538215 	0 10.0747 	0.0540105 	0 10.0742 	0.0539611 	0 10.0737 	0.0541042 	0 10.0727 	0.0540791 	0 10.0716 	0.0540538 	0 10.0705 	0.0540286 	0 10.069 	0.0537342 	0 10.0686 	0.0538122 	0 10.067 	0.0536765 	0 10.0653 	0.0535408 	0 10.0637 	0.053405 	0 10.0612 	0.0529827 	0 10.0612 	0.0530338 	0 10.0592 	0.0528363 	0 10.0572 	0.0526387 	0 10.0552 	0.0524411 	0 10.0516 	0.0519442 	0 10.0522 	0.051993 	0 10.0499 	0.0517679 	0 10.0476 	0.0515428 	0 10.0453 	0.0513176 	0 10.0407 	0.050785 	0 10.0422 	0.0508521 	0 10.0397 	0.0506207 	0 10.0372 	0.0503893 	0 10.0347 	0.0501579 	0 10.029 	0.0496055 	0 10.0314 	0.0496964 	0 10.0288 	0.0494738 	0 10.0262 	0.0492511 	0 10.0235 	0.0490283 	0 10.0167 	0.0484765 	0 10.0203 	0.0485986 	0 10.0176 	0.0483847 	0 10.0149 	0.0481708 	0 10.0122 	0.0479569 	0 10.0041 	0.0473962 	0 10.009 	0.0475468 	0 10.0063 	0.0473744 	0 10.0036 	0.0472019 	0 10.0008 	0.0470294 	0 9.99162 	0.046518 	0 9.99781 	0.046724 	0 9.99514 	0.0465505 	0 9.99247 	0.046377 	0 9.9898 	0.0462034 	0 9.97939 	0.0456361 	0 9.98694 	0.0458346 	0 9.98435 	0.0457782 	0 9.98175 	0.0457217 	0 9.97916 	0.0456652 	0 9.96759 	0.0452736 	0 9.97659 	0.0455269 	9.22978e-022 9.97458 	0.0453381 	5.9577e-021 9.97257 	0.0451493 	1.09926e-020 9.97055 	0.0449604 	1.60277e-020 9.95849 	0.0443214 	1.36228e-020 9.96869 	0.0443966 	9.34461e-020 9.96686 	0.0440556 	8.67183e-020 9.96502 	0.0437146 	7.99866e-020 9.96319 	0.0433735 	7.32509e-020 9.9509 	0.0426744 	-1.48524e-020 9.96093 	0.0426314 	-4.02559e-020 9.95914 	0.0423363 	-4.47916e-020 9.95734 	0.0420412 	-4.93257e-020 9.95555 	0.041746 	-5.38583e-020 9.94347 	0.041174 	-2.1277e-020 9.95304 	0.0409816 	-1.87135e-020 9.95111 	0.0404318 	-1.30316e-020 9.94918 	0.0398819 	-7.35006e-021 9.94725 	0.039332 	-1.66898e-021 9.93541 	0.0385535 	6.95644e-021 9.94457 	0.0382413 	-5.72942e-021 9.94246 	0.0374405 	-2.41953e-020 9.94034 	0.0366397 	-4.26631e-020 9.93822 	0.0358386 	-6.1133e-020 9.9265 	0.0347741 	-8.71299e-020 9.93508 	0.0345223 	-1.22713e-019 9.93262 	0.0337065 	-1.10438e-019 9.93016 	0.0328905 	-9.81545e-020 9.9277 	0.0320742 	-8.58637e-020 9.91599 	0.030878 	-2.97147e-020 9.92383 	0.0307489 	3.3604e-020 9.92098 	0.0300107 	4.69737e-020 9.91813 	0.0292722 	6.03341e-020 9.91527 	0.0285336 	7.36852e-020 9.90365 	0.0273132 	3.65291e-020 9.91066 	0.0272283 	-4.51851e-020 9.90743 	0.0265278 	-5.1193e-020 9.9042 	0.0258271 	-5.71867e-020 9.90097 	0.0251261 	-6.31663e-020 9.88952 	0.0239158 	-3.39216e-022 9.89558 	0.0237934 	5.88197e-020 9.89195 	0.0230995 	4.94832e-020 9.88832 	0.0224053 	4.01326e-020 9.88468 	0.0217109 	3.07679e-020 9.87349 	0.0205468 	-2.85674e-020 9.8784 	0.0203589 	-8.22394e-020 9.87433 	0.0196715 	-1.04221e-019 9.87024 	0.0189839 	-1.26198e-019 9.86615 	0.018296 	-1.4817e-019 9.85532 	0.0172117 	-1.35828e-019 9.85886 	0.0169534 	-1.54176e-019 9.85431 	0.0162774 	-1.41849e-019 9.84975 	0.0156011 	-1.29518e-019 9.84519 	0.0149245 	-1.17182e-019 9.83488 	0.013937 	-8.31248e-020 9.83679 	0.0136154 	-6.97197e-020 9.83176 	0.0129563 	-5.14025e-020 9.82673 	0.012297 	-3.3087e-020 9.8217 	0.0116374 	-1.47732e-020 9.81213 	0.0107509 	1.9444e-021 9.81211 	0.0103611 	0 9.80662 	0.00971487 	0 9.80113 	0.00906835 	0 9.79563 	0.00842154 	0 9.78712 	0.00763156 	0 9.78481 	0.00715948 	-1.66146e-020 9.77887 	0.00651991 	-3.53892e-020 9.77292 	0.00588004 	-5.41655e-020 9.76696 	0.00523987 	-7.29434e-020 9.75984 	0.0045462 	-9.22197e-020 9.75778 	0.00426775 	-9.5226e-020 9.75433 	0.00392549 	-9.56244e-020 9.75087 	0.00358314 	-9.60213e-020 9.74741 	0.00324069 	-9.64168e-020 9.74406 	0.0029081 	-9.67993e-020 9.74106 	0.0026134 	-9.7654e-020 9.73806 	0.00231861 	-9.8509e-020 9.73506 	0.00202376 	-9.93644e-020 9.73206 	0.00172883 	-1.0022e-019 9.72612 	0.0013023 	-1.00209e-019 9.72194 	0.000794009 	-7.53833e-020 9.71503 	0.000164927 	-4.65745e-020 9.70811 	-0.000464535 	-1.7775e-020 9.70119 	-0.00109438 	1.10153e-020 9.68493 	-0.0021326 	4.92561e-020 9.68619 	-0.00238485 	5.01173e-020 9.67885 	-0.00300719 	5.1252e-020 9.6715 	-0.00362994 	5.23846e-020 9.66415 	-0.00425311 	5.3515e-020 9.64122 	-0.00553439 	5.68321e-020 9.64778 	-0.00556049 	4.4759e-020 9.64004 	-0.00617623 	3.26833e-020 9.63228 	-0.00679241 	2.06065e-020 9.62452 	-0.00740904 	8.52858e-021 9.59524 	-0.00889021 	-1.10089e-021 9.60682 	-0.00873258 	-8.02316e-021 9.59869 	-0.00934208 	-1.95482e-020 9.59055 	-0.00995207 	-3.10722e-020 9.58239 	-0.0105625 	-4.2595e-020 9.54724 	-0.0121922 	-5.41336e-020 9.56344 	-0.0119006 	-5.38114e-020 9.55495 	-0.0125059 	-6.11234e-020 9.54644 	-0.0131116 	-6.84323e-020 9.53793 	-0.0137179 	-7.57383e-020 9.49751 	-0.0154421 	-9.46826e-020 9.51783 	-0.0150672 	-1.50829e-019 9.509 	-0.0156685 	-1.41431e-019 9.50016 	-0.0162704 	-1.32046e-019 9.4913 	-0.0168728 	-1.22674e-019 9.44628 	-0.018632 	-4.13515e-020 9.47015 	-0.018225 	-2.63256e-020 9.46101 	-0.0188219 	-1.84335e-020 9.45186 	-0.0194195 	-1.05406e-020 9.44269 	-0.0200176 	-2.64703e-021 9.3938 	-0.0217539 	0 9.42063 	-0.0213629 	0 9.4112 	-0.0219564 	0 9.40176 	-0.0225504 	0 9.3923 	-0.0231452 	0 9.34029 	-0.0248087 	0 9.36948 	-0.0244799 	1.52271e-021 9.35979 	-0.0250719 	8.86819e-021 9.35009 	-0.0256646 	1.62129e-020 9.34037 	-0.026258 	2.35569e-020 9.28598 	-0.0278017 	4.15327e-020 9.31694 	-0.0275838 	1.60971e-019 9.30702 	-0.0281751 	1.63878e-019 9.29708 	-0.028767 	1.66798e-019 9.28712 	-0.0293596 	1.69732e-019 9.23108 	-0.0307323 	4.17232e-020 9.26304 	-0.030672 	2.2264e-020 9.25312 	-0.031258 	1.56359e-020 9.24297 	-0.0318479 	9.0727e-021 9.22978 	-0.032475 	3.91e-021 9.17577 	-0.0335937 	1.76312e-020 9.2042 	-0.0337683 	1.04449e-019 9.19834 	-0.0343074 	1.1549e-019 9.188 	-0.0348945 	1.16697e-019 9.17063 	-0.0355287 	1.00731e-019 9.12023 	-0.0363819 	4.02033e-021 9.1453 	-0.0367733 	-9.87583e-020 9.1429 	-0.037313 	-1.29987e-019 9.1324 	-0.0378968 	-1.40176e-019 9.11155 	-0.0384877 	-1.28483e-019 9.06462 	-0.0390954 	-6.15761e-020 9.08652 	-0.0396841 	-1.77913e-019 9.08701 	-0.040267 	-2.19171e-019 9.07638 	-0.0408473 	-2.21409e-019 9.05272 	-0.0413504 	-1.73065e-019 9.00908 	-0.0417345 	-4.70486e-020 9.02802 	-0.0425001 	-2.49123e-020 9.0309 	-0.0431634 	-1.08267e-020 9.02015 	-0.0437401 	-3.57537e-021 8.99429 	-0.0441173 	0 8.95376 	-0.0443003 	0 8.96996 	-0.0452226 	0 8.97475 	-0.045998 	0 8.9639 	-0.0465709 	0 8.93641 	-0.0467907 	2.05092e-021 8.89877 	-0.0467952 	5.35114e-021 8.91245 	-0.0478544 	2.20422e-021 8.91874 	-0.0487674 	0 8.90782 	-0.0493368 	0 8.87917 	-0.049374 	2.43827e-021 8.84424 	-0.0492221 	5.7426e-021 8.85561 	-0.0503994 	2.59513e-021 8.86303 	-0.0514703 	1.1545e-021 8.85205 	-0.0520362 	7.73835e-021 8.82269 	-0.0518718 	2.44479e-020 8.79025 	-0.0515847 	4.28575e-020 8.79953 	-0.0528619 	1.67888e-019 8.80777 	-0.0541053 	2.86965e-019 8.79675 	-0.0546678 	2.90397e-019 8.76705 	-0.0542888 	1.68395e-019 8.7369 	-0.0538869 	4.33654e-020 8.74428 	-0.0552475 	2.52194e-020 8.75161 	-0.0566096 	7.0745e-021 8.74036 	-0.0571288 	3.12936e-022 8.71231 	-0.056631 	3.4924e-021 8.68427 	-0.0561328 	6.67171e-021 8.68994 	-0.0575607 	3.65284e-021 8.69557 	-0.0589902 	6.34736e-022 8.68468 	-0.059479 	2.01293e-021 8.65855 	-0.0589034 	-1.90703e-021 8.63243 	-0.0583274 	-5.82603e-021 8.63657 	-0.059809 	-4.90938e-020 8.64066 	-0.0612922 	-9.23653e-020 8.63017 	-0.0617512 	-9.3731e-020 8.6058 	-0.0611136 	-5.41411e-020 8.58144 	-0.0604755 	-1.45493e-020 8.58421 	-0.0620003 	8.43796e-020 8.58693 	-0.0635267 	1.83303e-019 8.57689 	-0.0639569 	1.91851e-019 8.55411 	-0.06327 	1.09464e-019 8.53135 	-0.0625825 	2.7077e-020 8.53291 	-0.0641425 	1.57347e-020 8.53442 	-0.065704 	4.38893e-021 8.52485 	-0.0661069 	4.43786e-022 8.50352 	-0.0653816 	5.04648e-021 8.48222 	-0.0646558 	9.65096e-021 8.48271 	-0.0662419 	4.1406e-021 8.48316 	-0.0678297 	-1.37472e-021 8.47407 	-0.0682064 	-2.0769e-020 8.45406 	-0.0674537 	-7.07108e-020 8.43406 	-0.0667004 	-1.20655e-019 8.43362 	-0.0682982 	-2.51388e-019 8.43313 	-0.0698976 	-3.82117e-019 8.42455 	-0.0702492 	-3.66994e-019 8.40572 	-0.0694852 	-2.17146e-019 8.38691 	-0.0687206 	-6.73005e-020 8.38564 	-0.0703176 	5.643e-020 8.38431 	-0.0719125 	1.79817e-019 8.37596 	-0.0722105 	1.77439e-019 8.35851 	-0.0714868 	9.0349e-020 8.34077 	-0.0707274 	3.49927e-022 8.33878 	-0.0723196 	-8.89793e-020 8.33589 	-0.073734 	-1.67201e-019 8.32769 	-0.074038 	-1.76487e-019 8.31242 	-0.0734782 	-1.14284e-019 8.29566 	-0.0727326 	-3.67368e-020 8.29303 	-0.0743158 	-2.55081e-020 8.28887 	-0.0755484 	-1.43785e-020 8.28082 	-0.0758599 	-3.5023e-021 8.26745 	-0.0754686 	1.39377e-020 8.25157 	-0.074743 	3.44973e-020 8.24837 	-0.0763145 	1.27312e-020 8.2432 	-0.077367 	-2.40519e-021 8.23529 	-0.0776876 	-8.19829e-021 8.22357 	-0.0774665 	-3.00627e-021 8.20849 	-0.0767664 	1.18986e-020 8.20479 	-0.0783251 	-4.59443e-021 8.19882 	-0.0792019 	-1.54757e-020 8.19104 	-0.0795331 	-2.18674e-020 8.18075 	-0.0794819 	-3.40759e-020 8.16641 	-0.078811 	-5.57058e-020 8.16227 	-0.0803565 	5.27032e-020 8.15567 	-0.0810633 	8.72037e-020 8.14802 	-0.0814067 	8.96683e-020 8.13897 	-0.0815237 	7.01458e-020 8.1253 	-0.0808854 	-2.26751e-020 8.12076 	-0.0824179 	6.88769e-020 8.11371 	-0.0829614 	8.61728e-020 8.10618 	-0.0833184 	8.94444e-020 8.0982 	-0.0836009 	8.65341e-020 8.08515 	-0.0829975 	1.03546e-020 8.08026 	-0.0845176 	-5.6584e-022 8.07288 	-0.0849049 	-4.84818e-022 8.06546 	-0.0852768 	-2.51415e-022 8.05802 	-0.0856489 	-1.80337e-023 8.04591 	-0.085155 	1.83601e-020 8.04044 	-0.0865143 	0 8.03314 	-0.0869021 	0 8.02581 	-0.0872902 	0 8.01848 	-0.0876785 	0 8.00758 	-0.0873653 	1.53584e-020 8.00163 	-0.0885558 	0 7.99442 	-0.0889611 	0 7.9872 	-0.0893666 	0 7.97995 	-0.0897725 	0 7.97012 	-0.0896362 	0 7.96381 	-0.0906657 	0 7.95669 	-0.0910897 	0 7.94955 	-0.091514 	0 7.9424 	-0.0919386 	0 7.93349 	-0.0919751 	-8.67297e-021 7.92692 	-0.0928516 	0 7.91988 	-0.0932955 	0 7.91282 	-0.0937397 	0 7.90575 	-0.0941842 	0 7.89764 	-0.0943895 	-1.09738e-020 7.89092 	-0.0951205 	0 7.88395 	-0.0955854 	0 7.87696 	-0.0960506 	0 7.86996 	-0.096516 	0 7.86255 	-0.096886 	-4.46653e-021 7.85788 	-0.0973274 	-6.0086e-021 7.85313 	-0.0976627 	-1.31327e-020 7.84837 	-0.0979981 	-2.02573e-020 7.8436 	-0.0983336 	-2.73825e-020 7.83895 	-0.09866 	-3.43132e-020 7.8367 	-0.0988142 	-3.73615e-020 7.83445 	-0.0989685 	-4.04096e-020 7.83219 	-0.0991228 	-4.34577e-020 7.82993 	-0.0992771 	-4.65056e-020 7.82793 	-0.0993825 	-4.95556e-020 7.82081 	-0.099938 	-4.84012e-020 7.81376 	-0.10045 	-4.77821e-020 7.8067 	-0.100962 	-4.71605e-020 7.79961 	-0.101474 	-4.65363e-020 7.79354 	-0.101787 	-4.8186e-020 7.78617 	-0.102503 	-3.775e-020 7.77917 	-0.103039 	-2.73025e-020 7.77216 	-0.103575 	-1.68536e-020 7.76512 	-0.104112 	-6.40337e-021 7.75987 	-0.104303 	0 7.75223 	-0.105177 	-2.82036e-021 7.74528 	-0.105738 	-7.63373e-021 7.7383 	-0.1063 	-1.24464e-020 7.73129 	-0.106862 	-1.72583e-020 7.72683 	-0.106938 	-2.20351e-020 7.71893 	-0.107966 	-5.07461e-020 7.71201 	-0.108554 	-7.04981e-020 7.70506 	-0.109143 	-9.02516e-020 7.69808 	-0.109731 	-1.10007e-019 7.69439 	-0.1097 	-1.03317e-019 7.68622 	-0.110878 	-8.12379e-020 7.67932 	-0.111494 	-7.01366e-020 7.67239 	-0.11211 	-5.90292e-020 7.66544 	-0.112727 	-4.79157e-020 7.66249 	-0.112594 	-6.89285e-020 7.65405 	-0.11392 	-8.21583e-020 7.64716 	-0.114565 	-6.36832e-020 7.64025 	-0.115212 	-4.52129e-020 7.63368 	-0.11579 	-2.54866e-020 7.63109 	-0.115631 	7.82931e-021 7.62263 	-0.116986 	1.2225e-020 7.61548 	-0.117776 	8.75717e-021 7.60858 	-0.118453 	3.70851e-021 7.60279 	-0.118922 	0 7.60013 	-0.118814 	0 7.5917 	-0.120183 	0 7.58425 	-0.121131 	0 7.57734 	-0.12184 	0 7.5723 	-0.122205 	0 7.56957 	-0.122149 	0 7.56116 	-0.123533 	0 7.55339 	-0.124637 	-7.71792e-021 7.54648 	-0.125378 	-2.54439e-020 7.54217 	-0.125646 	-4.32191e-020 7.53936 	-0.125643 	-6.10235e-020 7.53096 	-0.127043 	-4.18467e-020 7.52288 	-0.128299 	-2.16918e-020 7.51595 	-0.129074 	1.70729e-021 7.51235 	-0.129252 	9.21228e-021 7.50945 	-0.129302 	1.33354e-020 7.50105 	-0.13072 	4.59235e-020 7.49264 	-0.132126 	7.82162e-020 7.48576 	-0.132923 	9.6835e-020 7.48277 	-0.133027 	8.19025e-020 7.47978 	-0.13313 	6.69687e-020 7.47138 	-0.134569 	4.29706e-020 7.46293 	-0.136008 	1.89642e-020 7.45649 	-0.13682 	2.00834e-021 7.4534 	-0.136977 	1.13785e-020 7.45031 	-0.137133 	2.07494e-020 7.44189 	-0.138594 	8.42094e-020 7.43343 	-0.140055 	1.47672e-019 7.42739 	-0.140896 	1.48319e-019 7.42419 	-0.141106 	8.54704e-020 7.42098 	-0.141316 	2.26205e-020 7.41255 	-0.1428 	1.40289e-020 7.40406 	-0.144284 	5.44088e-021 7.39839 	-0.145157 	5.6291e-021 7.39507 	-0.14542 	1.47798e-020 7.39174 	-0.145683 	2.39316e-020 7.38328 	-0.147191 	8.5945e-020 7.37477 	-0.1487 	1.47962e-019 7.36946 	-0.149605 	1.48642e-019 7.366 	-0.149921 	8.72683e-020 7.36254 	-0.150238 	2.58934e-020 7.35404 	-0.151772 	1.75464e-020 7.34563 	-0.153283 	9.19917e-021 7.34065 	-0.154197 	7.56392e-022 7.33693 	-0.154615 	0 7.33332 	-0.154984 	0 7.32478 	-0.156545 	0 7.31709 	-0.157952 	0 7.312 	-0.158907 	0 7.3078 	-0.159503 	0 7.30404 	-0.159925 	0 7.29545 	-0.161514 	0 7.28845 	-0.162821 	0 7.28324 	-0.163817 	0 7.27857 	-0.164589 	6.83581e-021 7.27465 	-0.165064 	2.2776e-020 7.26599 	-0.166681 	5.23585e-021 7.25967 	-0.167892 	6.04468e-021 7.25432 	-0.168929 	1.46627e-020 7.24917 	-0.169875 	2.40469e-020 7.24508 	-0.170402 	3.69513e-020 7.23635 	-0.172049 	1.2355e-019 7.23067 	-0.173166 	1.33746e-019 7.22519 	-0.174244 	1.38368e-019 7.21966 	-0.175323 	1.42968e-019 7.21529 	-0.175941 	4.60271e-020 7.20702 	-0.177524 	1.34147e-019 7.20142 	-0.178644 	1.22313e-019 7.19579 	-0.179764 	1.10457e-019 7.19012 	-0.180884 	9.85785e-020 7.18522 	-0.181683 	3.81275e-020 7.17763 	-0.183166 	3.1481e-020 7.17187 	-0.184327 	3.19529e-020 7.16608 	-0.185489 	3.24299e-020 7.16025 	-0.18665 	3.2912e-020 7.15484 	-0.187627 	4.805e-020 7.14788 	-0.189013 	5.40063e-020 7.14196 	-0.190216 	5.15237e-020 7.136 	-0.191418 	4.90255e-020 7.13 	-0.19262 	4.65117e-020 7.12408 	-0.193774 	3.96837e-020 7.12158 	-0.194278 	3.33024e-020 7.11935 	-0.194733 	3.11737e-020 7.11713 	-0.195188 	2.90467e-020 7.11489 	-0.195643 	2.69216e-020 7.11271 	-0.196088 	2.48493e-020 7.1087 	-0.196877 	2.06324e-020 7.10467 	-0.197666 	1.64187e-020 7.10062 	-0.198455 	1.22084e-020 7.09656 	-0.199244 	8.00139e-021 7.09321 	-0.199956 	3.7743e-022 7.08637 	-0.201315 	-2.41954e-022 7.07991 	-0.202597 	-1.73983e-022 7.0734 	-0.203878 	-1.05988e-022 7.06685 	-0.20516 	-3.79708e-023 7.06215 	-0.206246 	0 7.05442 	-0.207766 	-6.98442e-021 7.04776 	-0.209087 	-2.08094e-020 7.04106 	-0.210408 	-3.46286e-020 7.03431 	-0.21173 	-4.8442e-020 7.03058 	-0.212738 	-5.9514e-020 7.02194 	-0.214417 	-4.68232e-020 7.01507 	-0.215777 	-3.15611e-020 7.00816 	-0.217138 	-1.62931e-020 7.00121 	-0.218496 	-1.0563e-021 6.99846 	-0.219428 	6.30331e-021 6.98918 	-0.221215 	-1.33838e-022 6.98179 	-0.222665 	1.11269e-020 6.97465 	-0.224063 	2.51269e-020 6.96872 	-0.225337 	4.12643e-020 6.96573 	-0.226313 	6.25038e-020 6.95623 	-0.228131 	4.04045e-020 6.94787 	-0.229746 	2.18827e-020 6.9405 	-0.231182 	6.51883e-021 6.93559 	-0.23237 	-1.71454e-021 6.93236 	-0.233389 	-5.06177e-021 6.92263 	-0.235238 	-5.68995e-020 6.91326 	-0.237017 	-9.97863e-020 6.90565 	-0.238489 	-1.03382e-019 6.90177 	-0.239591 	-6.71323e-020 6.89829 	-0.240651 	-2.63598e-020 6.88832 	-0.24253 	-6.7709e-020 6.8783 	-0.244409 	-1.09066e-019 6.87094 	-0.245894 	-1.09404e-019 6.86723 	-0.246994 	-6.59678e-020 6.86348 	-0.248095 	-2.25308e-020 6.85327 	-0.250002 	-6.61029e-020 6.843 	-0.25191 	-1.09681e-019 6.83589 	-0.253436 	-1.0688e-019 6.83191 	-0.254575 	-5.76175e-020 6.82789 	-0.255713 	-8.35065e-021 6.81743 	-0.257649 	-5.54311e-021 6.8069 	-0.259584 	-2.73772e-021 6.80004 	-0.261151 	0 6.79578 	-0.262326 	0 6.79149 	-0.2635 	0 6.78076 	-0.265463 	0 6.77077 	-0.267349 	0 6.76403 	-0.268921 	0 6.75881 	-0.27024 	0 6.75422 	-0.27145 	0 6.74322 	-0.273437 	0 6.73437 	-0.275216 	-1.69966e-021 6.72736 	-0.276816 	-4.85111e-021 6.72094 	-0.278312 	-4.66236e-021 6.71606 	-0.279554 	3.61533e-021 6.70478 	-0.281565 	-5.47192e-020 6.69709 	-0.283234 	-5.82097e-020 6.68979 	-0.284861 	-5.50472e-020 6.68243 	-0.286488 	-5.1863e-020 6.67697 	-0.287804 	-2.2874e-021 6.66644 	-0.289742 	-8.13536e-021 6.6589 	-0.291394 	6.48971e-022 6.6513 	-0.293046 	9.43462e-021 6.64364 	-0.294698 	1.82216e-020 6.63692 	-0.296194 	2.09775e-020 6.6276 	-0.298013 	4.11477e-020 6.61975 	-0.299688 	4.14082e-020 6.61185 	-0.301364 	4.16514e-020 6.60389 	-0.303039 	4.18774e-020 6.59588 	-0.304713 	4.20356e-020 6.59585 	-0.304718 	4.20377e-020 6.59584 	-0.304722 	4.20335e-020 6.59582 	-0.304726 	4.20293e-020 6.5958 	-0.30473 	4.2025e-020 6.59578 	-0.304733 	4.20208e-020 6.5872 	-0.306423 	3.97904e-020 6.57856 	-0.308113 	3.7565e-020 6.56985 	-0.309802 	3.53446e-020 6.56109 	-0.311491 	3.31292e-020 6.55335 	-0.313052 	2.26379e-020 6.54384 	-0.314908 	2.92528e-020 6.53483 	-0.316621 	2.3045e-020 6.52575 	-0.318333 	1.68489e-020 6.51662 	-0.320045 	1.06647e-020 6.50964 	-0.321498 	-1.46527e-020 6.49918 	-0.323516 	-7.40533e-021 6.48981 	-0.325246 	-9.34756e-021 6.48038 	-0.326975 	-1.13291e-020 6.4716 	-0.328622 	-1.2627e-020 6.46474 	-0.330042 	-1.20505e-020 6.4539 	-0.332071 	-1.07146e-020 6.44353 	-0.333968 	-7.35755e-021 6.43373 	-0.335711 	-1.6532e-021 6.4258 	-0.337237 	3.78059e-021 6.4186 	-0.338674 	9.10643e-021 6.40738 	-0.340712 	4.75105e-021 6.39608 	-0.342749 	3.99634e-022 6.38624 	-0.34448 	0 6.37875 	-0.34593 	0 6.37119 	-0.34738 	0 6.35958 	-0.349425 	0 6.34789 	-0.351469 	0 6.33827 	-0.353229 	0 6.33041 	-0.35469 	0 6.3225 	-0.356151 	0 6.31049 	-0.3582 	0 6.29871 	-0.360215 	5.19088e-022 6.28931 	-0.361962 	5.1464e-021 6.28077 	-0.363504 	9.78666e-021 6.27249 	-0.364972 	1.44341e-020 6.26007 	-0.367023 	1.07191e-020 6.24926 	-0.368893 	9.7414e-021 6.23949 	-0.370643 	1.05618e-020 6.22979 	-0.372359 	1.16124e-020 6.22114 	-0.373833 	1.43003e-020 6.20861 	-0.375851 	-2.5453e-021 6.19852 	-0.377602 	-8.70345e-021 6.18836 	-0.379351 	-1.48488e-020 6.17812 	-0.381101 	-2.09813e-020 6.16842 	-0.382719 	-1.91241e-020 6.1598 	-0.3841 	-1.57504e-020 6.15221 	-0.385367 	-1.33482e-020 6.14459 	-0.386634 	-1.09477e-020 6.13692 	-0.387901 	-8.54896e-021 6.12959 	-0.389106 	-6.26844e-021 6.1267 	-0.389599 	-6.06581e-021 6.12381 	-0.390093 	-5.86476e-021 6.1209 	-0.390586 	-5.6653e-021 6.11799 	-0.391079 	-5.46742e-021 6.11513 	-0.391528 	-2.0525e-021 6.10485 	-0.393326 	5.12471e-021 6.09439 	-0.395071 	5.81999e-021 6.08385 	-0.396817 	6.54029e-021 6.07324 	-0.398561 	7.28576e-021 6.06277 	-0.400103 	-1.99236e-020 6.05254 	-0.402077 	-6.08917e-020 6.04168 	-0.403814 	-7.03003e-020 6.03075 	-0.405551 	-7.97445e-020 6.0198 	-0.407227 	-7.57713e-020 6.00904 	-0.408659 	-1.75917e-020 5.99852 	-0.410663 	-1.51818e-020 5.9876 	-0.412536 	-1.02017e-020 5.97626 	-0.414262 	-2.3153e-021 5.96509 	-0.415761 	7.88958e-021 5.95392 	-0.417183 	1.8899e-020 5.94299 	-0.41917 	3.62787e-020 5.93198 	-0.421156 	5.36667e-020 5.92049 	-0.422844 	5.48045e-020 5.90898 	-0.424252 	3.92352e-020 5.89741 	-0.42566 	2.36681e-020 5.88606 	-0.427628 	1.58138e-020 5.87463 	-0.42959