# vtk DataFile Version 2.0
track0
ASCII
DATASET POLYDATA
POINTS 11930 float
-0.0205 0.001 1e-005
-0.0203851 0.00100536 1.50241e-005
-0.0202701 0.00101047 1.96636e-005
-0.0201551 0.00101536 2.39713e-005
-0.0200401 0.00102 2.79425e-005
-0.0198624 0.00102682 3.35483e-005
-0.0196934 0.00103276 3.80959e-005
-0.0195243 0.0010381 4.16116e-005
-0.0193552 0.00104282 4.41045e-005
-0.019186 0.00104694 4.55838e-005
-0.0190172 0.00105044 4.6058e-005
-0.0187132 0.00105595 4.6058e-005
-0.0184093 0.00106082 4.6058e-005
-0.0181054 0.00106517 4.6058e-005
-0.0178014 0.001069 4.6058e-005
-0.0174976 0.00107229 4.6058e-005
-0.0172058 0.00107517 4.6058e-005
-0.016914 0.00107796 4.6058e-005
-0.0166222 0.00108068 4.6058e-005
-0.0163305 0.00108334 4.6058e-005
-0.0160387 0.00108593 4.6058e-005
-0.0157586 0.00108832 4.6058e-005
-0.0154784 0.00109064 4.6058e-005
-0.0151983 0.00109289 4.6058e-005
-0.0149182 0.00109505 4.6058e-005
-0.0146381 0.00109712 4.6058e-005
-0.0143692 0.00109899 4.6058e-005
-0.0141002 0.00110077 4.6058e-005
-0.0138313 0.00110246 4.6058e-005
-0.0135624 0.00110409 4.6058e-005
-0.0132934 0.00110563 4.6058e-005
-0.0130353 0.00110704 4.6058e-005
-0.0127771 0.00110839 4.6058e-005
-0.0125189 0.0011097 4.6058e-005
-0.0122607 0.00111098 4.6058e-005
-0.0120025 0.00111221 4.6058e-005
-0.0117547 0.00111336 4.6058e-005
-0.0115068 0.00111449 4.6058e-005
-0.0112589 0.00111561 4.6058e-005
-0.0110111 0.0011167 4.6058e-005
-0.0107632 0.00111778 4.6058e-005
-0.0105252 0.00111879 4.6058e-005
-0.0102873 0.00111979 4.6058e-005
-0.0100493 0.00112078 4.6058e-005
-0.00981133 0.00112176 4.6058e-005
-0.00957337 0.00112272 4.6058e-005
-0.00934491 0.00112363 4.6058e-005
-0.00911645 0.00112453 4.6058e-005
-0.00888799 0.00112542 4.6058e-005
-0.00865954 0.0011263 4.6058e-005
-0.00843108 0.00112718 4.6058e-005
-0.00821175 0.00112801 4.6058e-005
-0.00799242 0.00112883 4.6058e-005
-0.00777309 0.00112965 4.6058e-005
-0.00755376 0.00113046 4.6058e-005
-0.00733443 0.00113126 4.6058e-005
-0.00712387 0.00113203 4.6058e-005
-0.0069133 0.0011328 4.6058e-005
-0.00670273 0.00113356 4.6058e-005
-0.00649216 0.00113431 4.6058e-005
-0.0062816 0.00113507 4.6058e-005
-0.00607944 0.0011358 4.6058e-005
-0.00587729 0.00113651 4.6058e-005
-0.00567514 0.00113723 4.6058e-005
-0.00547298 0.00113795 4.6058e-005
-0.00527083 0.00113866 4.6058e-005
-0.00507675 0.00113935 4.6058e-005
-0.00488267 0.00114003 4.6058e-005
-0.0046886 0.00114071 4.6058e-005
-0.00449452 0.0011414 4.6058e-005
-0.00430044 0.00114208 4.6058e-005
-0.00411412 0.00114274 4.6058e-005
-0.0039278 0.00114339 4.6058e-005
-0.00374147 0.00114404 4.6058e-005
-0.00355515 0.00114469 4.6058e-005
-0.00336883 0.00114535 4.6058e-005
-0.00318995 0.00114598 4.6058e-005
-0.00301107 0.00114661 4.6058e-005
-0.00283219 0.00114724 4.6058e-005
-0.00265331 0.00114787 4.6058e-005
-0.00247443 0.0011485 4.6058e-005
-0.0023027 0.00114911 4.6058e-005
-0.00213097 0.00114972 4.6058e-005
-0.00195924 0.00115033 4.6058e-005
-0.0017875 0.00115094 4.6058e-005
-0.00161577 0.00115155 4.6058e-005
-0.0014509 0.00115215 4.6058e-005
-0.00128603 0.00115275 4.6058e-005
-0.00112116 0.00115334 4.6058e-005
-0.000956289 0.00115393 4.6058e-005
-0.000791418 0.00115453 4.6058e-005
-0.000633135 0.00115512 4.6058e-005
-0.000474851 0.00115571 4.6058e-005
-0.000316567 0.0011563 4.6058e-005
-0.000158284 0.00115689 4.6058e-005
0 0.00115749 4.6058e-005
0.000105677 0.0011579 4.6058e-005
0.000211355 0.00115831 4.6058e-005
0.000317032 0.00115872 4.6058e-005
0.00042271 0.00115913 4.6058e-005
0.000528387 0.00115954 4.6058e-005
0.000634886 0.00115997 4.6058e-005
0.000741385 0.0011604 4.6058e-005
0.000847885 0.00116082 4.6058e-005
0.000954384 0.00116125 4.6058e-005
0.00106088 0.00116169 4.6058e-005
0.00116821 0.00116215 4.6058e-005
0.00127554 0.0011626 4.6058e-005
0.00138286 0.00116305 4.6058e-005
0.00149019 0.00116351 4.6058e-005
0.00159752 0.00116397 4.6058e-005
0.00170568 0.00116445 4.6058e-005
0.00181384 0.00116492 4.6058e-005
0.001922 0.0011654 4.6058e-005
0.00203016 0.00116587 4.6058e-005
0.00213833 0.00116635 4.6058e-005
0.00224733 0.00116684 4.6058e-005
0.00235633 0.00116733 4.6058e-005
0.00246533 0.00116782 4.6058e-005
0.00257434 0.00116831 4.6058e-005
0.00268334 0.00116881 4.6058e-005
0.00279319 0.0011693 4.6058e-005
0.00290304 0.00116981 4.6058e-005
0.00301289 0.00117031 4.6058e-005
0.00312274 0.00117082 4.6058e-005
0.00323259 0.00117133 4.6058e-005
0.00334329 0.00117183 4.6058e-005
0.003454 0.00117234 4.6058e-005
0.0035647 0.00117286 4.6058e-005
0.0036754 0.00117338 4.6058e-005
0.00378611 0.0011739 4.6058e-005
0.00389767 0.00117441 4.6058e-005
0.00400924 0.00117493 4.6058e-005
0.0041208 0.00117546 4.6058e-005
0.00423237 0.00117599 4.6058e-005
0.00434393 0.00117652 4.6058e-005
0.00445636 0.00117703 4.6058e-005
0.00456879 0.00117756 4.6058e-005
0.00468123 0.0011781 4.6058e-005
0.00479366 0.00117863 4.6058e-005
0.00490609 0.00117917 4.6058e-005
0.0050194 0.00117968 4.6058e-005
0.0051327 0.00118022 4.6058e-005
0.00524601 0.00118076 4.6058e-005
0.00535931 0.0011813 4.6058e-005
0.00547262 0.00118183 4.6058e-005
0.00558681 0.00118235 4.6058e-005
0.005701 0.00118289 4.6058e-005
0.00581518 0.00118343 4.6058e-005
0.00592937 0.00118397 4.6058e-005
0.00604356 0.00118451 4.6058e-005
0.00615863 0.00118503 4.6058e-005
0.00627371 0.00118557 4.6058e-005
0.00638878 0.00118611 4.6058e-005
0.00650386 0.00118666 4.6058e-005
0.00661893 0.0011872 4.6058e-005
0.0067349 0.00118772 4.6058e-005
0.00685087 0.00118826 4.6058e-005
0.00696684 0.0011888 4.6058e-005
0.00708281 0.00118934 4.6058e-005
0.00719878 0.00118987 4.6058e-005
0.00731565 0.00119039 4.6058e-005
0.00743252 0.00119093 4.6058e-005
0.00754939 0.00119146 4.6058e-005
0.00766626 0.001192 4.6058e-005
0.00778313 0.00119253 4.6058e-005
0.00790091 0.00119305 4.6058e-005
0.00801869 0.00119358 4.6058e-005
0.00813647 0.00119411 4.6058e-005
0.00825425 0.00119464 4.6058e-005
0.00837203 0.00119517 4.6058e-005
0.00849073 0.00119569 4.6058e-005
0.00860942 0.00119621 4.6058e-005
0.00872812 0.00119673 4.6058e-005
0.00884682 0.00119726 4.6058e-005
0.00896551 0.00119778 4.6058e-005
0.00908513 0.00119829 4.6058e-005
0.00920475 0.00119881 4.6058e-005
0.00932437 0.00119933 4.6058e-005
0.00944398 0.00119984 4.6058e-005
0.0095636 0.00120036 4.6058e-005
0.00968415 0.00120087 4.6058e-005
0.0098047 0.00120138 4.6058e-005
0.00992525 0.00120189 4.6058e-005
0.0100458 0.0012024 4.6058e-005
0.0101663 0.0012029 4.6058e-005
0.0102878 0.00120341 4.6058e-005
0.0104093 0.00120391 4.6058e-005
0.0105308 0.00120441 4.6058e-005
0.0106523 0.00120491 4.6058e-005
0.0107738 0.00120541 4.6058e-005
0.0108962 0.00120591 4.6058e-005
0.0110186 0.0012064 4.6058e-005
0.0111411 0.0012069 4.6058e-005
0.0112635 0.00120739 4.6058e-005
0.0113859 0.00120787 4.6058e-005
0.0115093 0.00120836 4.6058e-005
0.0116327 0.00120885 4.6058e-005
0.0117561 0.00120933 4.6058e-005
0.0118795 0.00120981 4.6058e-005
0.0120028 0.00121029 4.6058e-005
0.0121272 0.00121076 4.6058e-005
0.0122515 0.00121124 4.6058e-005
0.0123759 0.00121171 4.6058e-005
0.0125002 0.00121218 4.6058e-005
0.0126245 0.00121265 4.6058e-005
0.0127498 0.00121311 4.6058e-005
0.0128752 0.00121358 4.6058e-005
0.0130005 0.00121404 4.6058e-005
0.0131258 0.0012145 4.6058e-005
0.0132511 0.00121495 4.6058e-005
0.0133774 0.0012154 4.6058e-005
0.0135036 0.00121585 4.6058e-005
0.0136299 0.0012163 4.6058e-005
0.0137562 0.00121674 4.6058e-005
0.0138825 0.00121718 4.6058e-005
0.0140098 0.00121762 4.6058e-005
0.014137 0.00121805 4.6058e-005
0.0142643 0.00121849 4.6058e-005
0.0143915 0.00121891 4.6058e-005
0.0145188 0.00121934 4.6058e-005
0.0146471 0.00121975 4.6058e-005
0.0147753 0.00122017 4.6058e-005
0.0149036 0.00122059 4.6058e-005
0.0150318 0.001221 4.6058e-005
0.0151601 0.0012214 4.6058e-005
0.0152893 0.0012218 4.6058e-005
0.0154186 0.0012222 4.6058e-005
0.0155478 0.00122259 4.6058e-005
0.0156771 0.00122298 4.6058e-005
0.0158063 0.00122336 4.6058e-005
0.0159366 0.00122374 4.6058e-005
0.0160668 0.00122411 4.6058e-005
0.0161971 0.00122449 4.6058e-005
0.0163274 0.00122485 4.6058e-005
0.0164576 0.00122521 4.6058e-005
0.0165889 0.00122556 4.6058e-005
0.0167201 0.00122591 4.6058e-005
0.0168514 0.00122626 4.6058e-005
0.0169827 0.0012266 4.6058e-005
0.0171139 0.00122693 4.6058e-005
0.0172045 0.00122716 4.6058e-005
0.017295 0.00122738 4.6058e-005
0.0173855 0.0012276 4.6058e-005
0.0174761 0.00122781 4.6058e-005
0.0175639 0.00122802 4.6058e-005
0.0176062 0.00122812 4.6058e-005
0.0176485 0.00122822 4.6058e-005
0.0176908 0.00122831 4.6058e-005
0.0177331 0.00122841 4.6058e-005
0.0177754 0.00122851 4.6058e-005
0.0179087 0.0012288 4.6058e-005
0.018042 0.00122909 4.6058e-005
0.0181753 0.00122938 4.6058e-005
0.0183087 0.00122966 4.6058e-005
0.018442 0.00122993 4.6058e-005
0.0185763 0.00123019 4.6058e-005
0.0187107 0.00123044 4.6058e-005
0.018845 0.00123069 4.6058e-005
0.0189794 0.00123093 4.6058e-005
0.0191137 0.00123117 4.6058e-005
0.0192491 0.00123139 4.6058e-005
0.0193845 0.00123161 4.6058e-005
0.0195199 0.00123182 4.6058e-005
0.0196553 0.00123202 4.6058e-005
0.0197907 0.00123221 4.6058e-005
0.0199272 0.00123239 4.6058e-005
0.0200636 0.00123257 4.6058e-005
0.0202001 0.00123274 4.6058e-005
0.0203365 0.0012329 4.6058e-005
0.020473 0.00123304 4.6058e-005
0.0206105 0.00123318 4.6058e-005
0.020748 0.00123331 4.6058e-005
0.0208855 0.00123344 4.6058e-005
0.021023 0.00123355 4.6058e-005
0.0211606 0.00123365 4.6058e-005
0.0212991 0.00123374 4.6058e-005
0.0214377 0.00123383 4.6058e-005
0.0215763 0.0012339 4.6058e-005
0.0217149 0.00123396 4.6058e-005
0.0218535 0.00123401 4.6058e-005
0.0219931 0.00123406 4.6058e-005
0.0221328 0.00123409 4.6058e-005
0.0222724 0.00123411 4.6058e-005
0.0224121 0.00123412 4.6058e-005
0.0225517 0.00123412 4.6058e-005
0.0226925 0.00123411 4.6058e-005
0.0228332 0.00123409 4.6058e-005
0.022974 0.00123405 4.6058e-005
0.0231147 0.00123401 4.6058e-005
0.0232555 0.00123395 4.6058e-005
0.0233973 0.0012339 4.6058e-005
0.0235391 0.00123382 4.6058e-005
0.023681 0.00123373 4.6058e-005
0.0238228 0.00123362 4.6058e-005
[...]
POINT_DATA 11930
 FIELD attributes 2
p 1 11930 float
-1547.65 -1535.07 -1521.28 -1507.64 -1494.15 -1473.55 -1458.91 -1444.19 -1429.39 -1414.51 -1393.77 -1345.67 -1297.65 -1249.7 -1201.81 -1159.37 -1127.73 -1102.27 -1076.83 -1051.39 -1034.58 -1022.81 -1013.33 -1003.85 -994.38 -986.763 -979.998 -972.088 -964.177 -956.265 -947.216 -938.745 -930.085 -921.421 -912.775 -904.359 -896.371 -889.168 -882.055 -875.096 -869.055 -863.269 -858.06 -852.972 -848.039 -843.7 -839.532 -835.587 -831.711 -827.924 -824.383 -820.974 -817.693 -814.465 -811.309 -808.309 -805.411 -802.637 -799.928 -797.3 -794.813 -792.397 -790.091 -787.857 -785.707 -783.677 -781.689 -779.783 -777.94 -776.172 -774.494 -772.83 -771.228 -769.684 -768.207 -766.8 -765.38 -764.008 -762.688 -761.433 -760.233 -758.998 -757.804 -756.665 -755.596 -754.579 -753.499 -752.448 -751.438 -750.501 -749.611 -748.637 -747.713 -746.877 -746.161 -745.508 -744.783 -744.12 -743.57 -743.157 -742.826 -742.323 -741.863 -741.462 -741.154 -740.917 -740.494 -740.177 -739.978 -739.897 -739.93 -739.774 -739.704 -739.711 -739.783 -739.933 -740.037 -740.128 -740.209 -740.281 -740.338 -740.606 -740.768 -740.868 -740.909 -740.836 -741.22 -741.429 -741.557 -741.601 -741.439 -741.903 -742.139 -742.293 -742.36 -742.144 -742.634 -742.854 -743.002 -743.075 -742.818 -743.269 -743.437 -743.552 -743.616 -743.344 -743.722 -743.846 -743.939 -744.007 -743.771 -744.076 -744.175 -744.263 -744.344 -744.176 -744.408 -744.486 -744.563 -744.64 -744.543 -744.697 -744.757 -744.817 -744.877 -744.84 -744.933 -744.984 -745.034 -745.085 -745.1 -745.16 -745.214 -745.267 -745.321 -745.376 -745.424 -745.482 -745.54 -745.598 -745.679 -745.727 -745.789 -745.852 -745.914 -746.006 -746.065 -746.134 -746.202 -746.271 -746.364 -746.444 -746.521 -746.599 -746.676 -746.765 -746.872 -746.961 -747.051 -747.141 -747.228 -747.361 -747.465 -747.569 -747.673 -747.759 -747.916 -748.034 -748.152 -748.269 -748.358 -748.534 -748.665 -748.795 -748.926 -749.02 -749.212 -749.355 -749.499 -749.642 -749.748 -749.95 -750.107 -750.264 -750.421 -750.543 -750.751 -750.922 -751.092 -751.262 -751.404 -751.618 -751.803 -751.989 -752.174 -752.341 -752.561 -752.763 -752.966 -753.168 -753.363 -753.517 -753.666 -753.814 -753.962 -754.105 -754.174 -754.244 -754.313 -754.382 -754.462 -754.68 -754.908 -755.136 -755.364 -755.638 -755.838 -756.079 -756.32 -756.561 -756.877 -757.066 -757.319 -757.573 -757.826 -758.18 -758.361 -758.627 -758.893 -759.158 -759.541 -759.723 -760 -760.277 -760.554 -760.958 -761.148 -761.436 -761.725 -762.014 -762.43 -762.635 -762.934 -763.234 -763.534 -763.953 -764.18 -764.49 -764.801 -765.111 -765.523 -765.78 -766.1 -766.42 -766.74 -767.138 -767.429 -767.758 -768.088 -768.417 -768.795 -769.123 -769.461 -769.799 -770.138 -770.491 -770.858 -771.204 -771.55 -771.896 -772.222 -772.624 -772.98 -773.334 -773.682 -773.985 -774.416 -774.787 -775.148 -775.492 -775.778 -776.231 -776.621 -776.988 -777.326 -777.6 -778.069 -778.479 -778.852 -779.181 -779.45 -779.93 -780.359 -780.739 -781.06 -781.33 -781.82 -782.269 -782.656 -782.968 -783.239 -783.736 -784.204 -784.596 -784.897 -785.169 -785.668 -786.15 -786.544 -786.833 -787.107 -787.6 -788.09 -788.483 -788.764 -789.043 -789.526 -790.01 -790.398 -790.686 -790.975 -791.445 -791.916 -792.303 -792.602 -792.901 -793.357 -793.813 -794.197 -794.508 -794.819 -795.259 -795.7 -796.081 -796.403 -796.725 -797.149 -797.573 -797.951 -798.284 -798.616 -799.024 -799.431 -799.805 -800.146 -800.487 -800.879 -801.27 -801.639 -801.987 -802.335 -802.711 -803.087 -803.45 -803.803 -804.154 -804.516 -804.876 -805.234 -805.588 -805.942 -806.289 -806.637 -806.988 -807.34 -807.693 -808.026 -808.363 -808.705 -809.051 -809.4 -809.72 -810.048 -810.381 -810.717 -811.06 -811.366 -811.684 -812.006 -812.331 -812.665 -812.957 -813.265 -813.575 -813.886 -814.208 -814.486 -814.782 -815.077 -815.373 -815.679 -815.943 -816.222 -816.501 -816.78 -817.07 -817.317 -817.579 -817.84 -818.102 -818.373 -818.603 -818.846 -819.088 -819.331 -819.58 -819.794 -820.016 -820.238 -820.46 -820.685 -820.88 -821.08 -821.279 -821.479 -821.678 -821.68 -821.683 -821.685 -821.687 -821.689 -821.862 -822.035 -822.209 -822.382 -822.554 -822.703 -822.85 -822.996 -823.143 -823.286 -823.408 -823.524 -823.639 -823.755 -823.865 -823.958 -824.04 -824.123 -824.206 -824.28 -824.342 -824.389 -824.436 -824.483 -824.517 -824.546 -824.555 -824.563 -824.57 -824.562 -824.552 -824.524 -824.491 -824.452 -824.401 -824.349 -824.283 -824.206 -824.119 -824.022 -823.925 -823.819 -823.696 -823.556 -823.411 -823.266 -823.119 -822.946 -822.751 -822.555 -822.36 -822.165 -821.94 -821.69 -821.44 -821.192 -820.944 -820.667 -820.36 -820.054 -819.75 -819.447 -819.113 -818.748 -818.383 -818.021 -817.659 -817.267 -816.841 -816.415 -815.992 -815.566 -815.111 -814.626 -814.136 -813.649 -813.152 -812.631 -812.091 -811.535 -810.982 -810.409 -809.821 -809.223 -808.599 -807.977 -807.326 -806.668 -806.01 -805.316 -804.62 -803.89 -803.161 -802.431 -801.675 -800.895 -800.091 -799.287 -798.484 -797.665 -796.799 -795.918 -795.038 -794.158 -793.275 -793.005 -792.732 -792.46 -792.187 -791.919 -791.236 -790.554 -789.871 -789.188 -788.495 -787.473 -786.441 -785.408 -784.376 -783.316 -782.23 -781.116 -780.003 -778.889 -777.73 -776.579 -775.382 -774.186 -772.982 -771.729 -770.497 -769.23 -767.95 -766.643 -765.304 -763.986 -762.653 -761.286 -759.873 -758.447 -757.042 -755.638 -754.181 -752.667 -751.153 -749.66 -748.167 -746.62 -745.017 -743.413 -741.831 -740.249 -738.61 -736.917 -735.223 -733.551 -731.868 -730.132 -728.362 -726.577 -724.813 -723.015 -721.187 -719.346 -717.47 -715.614 -713.698 -711.778 -709.857 -707.896 -705.927 -703.913 -701.898 -699.884 -697.852 -696.204 -694.534 -692.865 -691.197 -689.613 -689.159 -688.705 -688.252 -687.798 -687.339 -685.154 -682.964 -680.775 -678.586 -676.364 -674.108 -671.824 -669.541 -667.258 -664.912 -662.577 -660.208 -657.831 -655.425 -652.984 -650.555 -648.117 -645.646 -643.116 -640.58 -638.057 -635.534 -632.96 -630.331 -627.701 -625.084 -622.468 -619.794 -617.072 -614.349 -611.64 -608.904 -606.131 -603.342 -600.528 -597.726 -594.865 -591.999 -589.133 -586.239 -583.317 -580.36 -577.403 -574.447 -571.489 -571.352 -571.214 -571.075 -570.937 -570.799 -567.896 -564.994 -562.093 -559.192 -556.267 -553.153 -550.025 -546.897 -543.768 -540.596 -537.402 -534.195 -530.981 -527.74 -524.482 -521.202 -517.923 -514.619 -511.276 -507.933 -504.569 -501.206 -497.808 -494.383 -490.958 -487.511 -484.052 -480.564 -477.07 -473.565 -470.038 -466.474 -462.908 -459.342 -455.764 -453.002 -450.221 -447.44 -444.659 -441.994 -441.109 -440.225 -439.34 -438.455 -437.564 -433.854 -430.14 -426.427 -422.715 -418.969 -415.198 -411.412 -407.626 -403.824 -399.996 -396.154 -392.31 -388.453 -384.556 -380.659 -376.747 -372.835 -368.895 -364.932 -360.967 -356.988 -352.997 -348.982 -344.963 -340.934 -336.891 -332.812 -328.734 -324.656 -320.573 -318.75 -316.917 -315.084 -313.252 -311.461 -309.149 -306.837 -304.525 -302.214 -299.888 -295.701 -291.508 -287.316 -283.122 -278.894 -274.656 -270.413 -266.167 -261.894 -257.613 -253.321 -249.03 -244.72 -240.39 -236.058 -231.716 -227.368 -222.998 -218.624 -214.246 -209.856 -205.441 -201.025 -196.61 -192.191 -190.512 -188.826 -187.14 -185.454 -183.799 -181.022 -178.244 -175.467 -172.691 -169.9 -165.407 -160.911 -156.416 -151.915 -147.393 -142.865 -138.336 -133.805 -129.251 -124.696 -120.133 -115.571 -110.993 -106.408 -101.821 -97.2263 -92.622 -88.0108 -83.4002 -78.7874 -75.3703 -71.9461 -68.5222 -65.0985 -61.7902 -60.5574 -59.3245 -58.0917 -56.859 -55.6228 -50.968 -46.3139 -41.6604 -37.0069 -32.3369 -27.6628 -22.9904 -18.3198 -13.6386 -8.95357 -4.26378 0.425407 5.11946 9.8119 14.5066 19.2069 23.9097 28.6143 33.3185 38.0196 41.0027 43.9869 46.971 49.9548 52.8588 54.6013 56.3438 58.0861 59.8284 61.5725 66.2912 71.0056 75.7196 80.4333 85.1505 89.8707 94.5891 99.2988 104.007 108.717 113.431 118.144 122.852 127.552 132.251 136.955 141.65 146.345 151.04 155.733 156.468 157.202 157.935 158.669 159.398 163.353 167.308 171.262 175.216 179.165 183.848 188.521 193.19 197.85 202.509 207.17 211.83 216.478 221.108 225.742 230.377 235.001 239.618 244.236 248.846 250.605 252.356 254.108 255.86 257.589 260.438 263.286 266.134 268.982 271.821 276.405 280.972 285.539 290.095 294.646 299.194 303.741 308.27 312.78 317.292 321.801 326.297 330.783 335.268 339.746 341.341 342.929 344.516 346.102 347.673 350.544 353.416 356.287 359.158 362.015 366.45 370.869 375.285 379.685 384.079 388.467 392.854 397.221 401.565 405.911 410.251 414.569 418.88 423.192 427.502 428.014 428.522 429.031 429.539 430.046 433.817 437.588 441.359 445.128 448.876 453.122 457.363 461.59 465.791 469.994 474.186 478.375 482.538 486.694 490.842 493.71 496.56 499.407 502.254 505.061 506.335 507.61 508.885 510.159 511.425 515.508 519.579 523.651 527.71 531.755 535.784 539.814 543.821 547.804 551.789 555.759 559.706 563.645 567.583 571.52 571.87 572.217 572.564 572.91 573.257 576.809 580.362 583.915 587.462 590.988 594.843 598.698 602.528 606.333 610.139 613.928 617.702 621.458 625.214 628.958 629.972 630.979 631.983 632.988 633.99 636.693 639.396 642.099 644.796 647.474 651.138 654.797 658.434 662.041 665.648 669.237 672.812 676.359 679.907 683.433 684.62 685.8 686.977 688.154 689.335 691.649 693.962 696.276 698.585 700.878 704.33 707.762 711.154 714.461 717.767 721.052 724.379 727.808 731.236 734.72 736.054 737.131 738.131 739.131 740.149 742.016 743.882 745.748 747.502 748.853 751.021 753.667 756.71 761.363 766.081 770.683 774.547 776.941 779.34 781.516 781.615 781.738 781.896 782.054 782.212 784.054 785.897 787.741 790.09 792.776 795.674 798.556 801.309 804.061 806.757 807.232 807.698 808.146 808.593 809.048 811.266 813.483 815.698 817.843 819.941 822.498 825.054 827.515 829.965 832.359 832.943 833.514 834.059 834.605 835.168 836.977 838.785 840.59 842.327 844.018 846.244 848.466 850.53 852.513 854.447 855.113 855.748 856.334 856.92 857.541 858.755 859.965 861.172 862.3 863.366 864.962 866.551 867.943 869.13 870.309 870.963 871.529 871.993 872.455 872.977 873.377 873.776 874.173 874.517 874.797 875.405 875.891 876.285 876.33 876.364 876.265 875.974 875.442 874.903 874.257 874.113 873.921 873.702 873.483 873.255 872.325 871.385 870.433 869.354 868.001 866.182 864.351 862.081 859.404 856.716 853.771 850.454 846.865 843.269 839.477 838.446 837.28 836.091 834.902 833.62 830.148 826.665 823.172 819.632 815.67 810.023 804.052 797.836 790.902 783.842 776.312 768.771 760.673 752.064 743.412 734.238 723.93 713.291 702.65 691.474 686.469 681.455 676.44 671.423 665.68 658.567 651.449 644.328 637.203 630.039 616.172 600.508 584.812 568.228 548.938 528.678 509.075 491.557 477.563 463.698 449.086 434.475 407.052 367.293 327.501 285.915 252.778 236.427 228.116 231.088 233.871 177.803 120.414 62.7311 0