/*--------------------------------*- C++ -*----------------------------------*\
| =========                 |                                                 |
| \\      /  F ield         | OpenFOAM: The Open Source CFD Toolbox           |
|  \\    /   O peration     | Version:  5.x                                   |
|   \\  /    A nd           | Web:      www.OpenFOAM.org                      |
|    \\/     M anipulation  |                                                 |
\*---------------------------------------------------------------------------*/
/*   Windows 32 and 64 bit porting by blueCAPE: http://www.bluecape.com.pt   *\
|  Based on Windows porting (2.0.x v4) by Symscape: http://www.symscape.com   |
\*---------------------------------------------------------------------------*/
FoamFile
{
    version     2.0;
    format      ascii;
    class       volScalarField;
    location    "0.01";
    object      p;
}
// * * * * * * * * * * * * * * * * * * * * * * * * * * * * * * * * * * * * * //

dimensions      [0 2 -2 0 0 0 0];

internalField   nonuniform List<scalar> 
750
(
0.34326397
0.33858047
0.34280039
0.33955096
0.34093209
0.34015631
0.3400562
0.33979563
0.33953459
0.33926455
0.33898174
0.33868748
0.33837993
0.33805566
0.33770863
0.3373287
0.33689877
0.33639207
0.33575808
0.33488641
0.33384655
0.33120825
0.3303813
0.31952568
0.32007762
0.34323344
0.33865183
0.34274019
0.33959759
0.34090374
0.34016974
0.34005347
0.3397971
0.33953533
0.33926525
0.33898246
0.3386883
0.33838095
0.33805703
0.33771059
0.33733163
0.33690331
0.33639938
0.33576928
0.33491102
0.33386869
0.33130969
0.33043502
0.31981359
0.32023489
0.34325023
0.3386514
0.34274285
0.33961307
0.34089778
0.34017854
0.34005307
0.33979923
0.33953683
0.33926668
0.33898396
0.33869
0.33838308
0.33805992
0.33771473
0.3373378
0.33691286
0.33641468
0.3357939
0.33495609
0.33393653
0.33145427
0.33065498
0.32013533
0.32082634
0.34327342
0.33865084
0.34273948
0.33964242
0.34088096
0.34018937
0.34005391
0.33980202
0.33953911
0.33926881
0.33898617
0.3386925
0.33838621
0.33806415
0.33772079
0.33734685
0.33692687
0.33643704
0.33583038
0.33502065
0.33403969
0.3316621
0.33098385
0.32061481
0.32174005
0.34329836
0.33866235
0.34272488
0.33968742
0.34085942
0.34020291
0.34005575
0.33980551
0.33954218
0.33927164
0.3389891
0.33869582
0.33839035
0.33806973
0.33772877
0.33735874
0.33694522
0.33646621
0.33587809
0.33510386
0.33417421
0.33193597
0.33140835
0.32129499
0.32300832
0.34332649
0.33868248
0.34270356
0.33974456
0.34083403
0.34021844
0.3400587
0.33980972
0.33954601
0.33927517
0.33899274
0.33869993
0.33839547
0.33807663
0.33773861
0.33737338
0.33696772
0.33650182
0.33593632
0.33520448
0.33433759
0.33227143
0.33192406
0.32219113
0.32462393
0.34335955
0.3387073
0.34267674
0.33981415
0.34080388
0.34023582
0.34006277
0.33981462
0.33955059
0.33927935
0.33899704
0.33870476
0.33840147
0.33808469
0.33775008
0.33739037
0.33699376
0.33654283
0.33600324
0.33531945
0.33452378
0.33266184
0.33251327
0.32329046
0.32640689
0.34340075
0.33873015
0.34265047
0.33989349
0.34076907
0.34025533
0.34006787
0.33982022
0.33955587
0.33928415
0.33900193
0.33871024
0.33840825
0.33809377
0.33776295
0.33740937
0.33702275
0.33658824
0.33607699
0.33544531
0.33472476
0.33309777
0.33315036
0.32454837
0.32831837
0.34345134
0.33875259
0.34262913
0.33998013
0.34072874
0.34027783
0.340074
0.33982651
0.33956189
0.33928961
0.33900749
0.33871645
0.33841591
0.338104
0.33777739
0.3374306
0.33705491
0.33663819
0.33615733
0.33558138
0.33493689
0.33357704
0.33381541
0.3260449
0.3310707
0.34347871
0.33883646
0.34255472
0.34010877
0.34067236
0.34030299
0.34008166
0.33983349
0.33956871
0.33929582
0.33901381
0.33872356
0.33842469
0.33811571
0.33779388
0.33745472
0.33709125
0.3366942
0.33624686
0.33573261
0.33517145
0.33414666
0.33455468
0.32841351
0.33650594
0.28945418
0.28972222
0.27084285
0.26059504
0.24814154
0.23594211
0.22387205
0.21175682
0.19965429
0.18755374
0.17545306
0.16335273
0.15125249
0.13915227
0.12705206
0.11495186
0.10285165
0.090751452
0.078651252
0.066551053
0.054450855
0.042350659
0.030250466
0.018150275
0.0060500898
0.28934508
0.28965717
0.27088255
0.26055276
0.24814787
0.23593943
0.22387085
0.21175675
0.19965413
0.18755369
0.17545304
0.16335273
0.15125249
0.13915227
0.12705206
0.11495186
0.10285165
0.090751452
0.078651252
0.066551053
0.054450855
0.042350659
0.030250466
0.018150275
0.0060500894
0.28873622
0.28984554
0.27079791
0.2605428
0.24814701
0.23593485
0.22386981
0.21175632
0.1996539
0.18755361
0.17545301
0.16335271
0.15125248
0.13915226
0.12705206
0.11495185
0.10285165
0.090751452
0.078651252
0.066551053
0.054450855
0.042350659
0.030250466
0.018150275
0.006050089
0.28777187
0.29014429
0.27065444
0.260542
0.24813976
0.23592925
0.22386844
0.2117556
0.19965359
0.1875535
0.17545297
0.1633527
0.15125247
0.13915226
0.12705206
0.11495185
0.10285165
0.090751452
0.078651252
0.066551053
0.054450855
0.042350659
0.030250466
0.018150274
0.0060500884
0.28642305
0.29054248
0.27046422
0.26054697
0.24812723
0.23592289
0.22386676
0.21175464
0.19965323
0.18755336
0.17545291
0.16335267
0.15125247
0.13915226
0.12705206
0.11495185
0.10285165
0.090751452
0.078651252
0.066551053
0.054450855
0.042350659
0.030250466
0.018150273
0.0060500871
0.2845115
0.29106613
0.27022726
0.26055874
0.24811003
0.235916
0.22386487
0.21175351
0.19965284
0.18755321
0.17545285
0.16335265
0.15125246
0.13915226
0.12705205
0.11495185
0.10285165
0.090751452
0.078651252
0.066551053
0.054450855
0.042350659
0.030250466
0.018150271
0.006050085
0.28189933
0.29172863
0.26994091
0.2605766
0.2480874
0.23590882
0.22386278
0.21175226
0.19965243
0.18755305
0.17545279
0.16335263
0.15125245
0.13915225
0.12705205
0.11495185
0.10285165
0.090751452
0.078651252
0.066551053
0.054450855
0.042350659
0.030250466
0.018150269
0.0060500823
0.27872709
0.29252967
0.26959894
0.26059737
0.24805767
0.23590194
0.22386039
0.21175091
0.19965203
0.18755289
0.17545273
0.16335261
0.15125244
0.13915225
0.12705205
0.11495185
0.10285165
0.090751452
0.078651252
0.066551053
0.054450855
0.042350659
0.030250467
0.018150266
0.0060500789
0.27400019
0.2935444
0.26924668
0.26062193
0.24802554
0.23589771
0.22385804
0.21174971
0.19965172
0.18755275
0.17545267
0.16335259
0.15125243
0.13915225
0.12705205
0.11495185
0.10285165
0.090751452
0.078651252
0.066551053
0.054450855
0.042350659
0.030250468
0.018150263
0.0060500769
0.26423298
0.29501511
0.26918456
0.2606725
0.24800756
0.23589868
0.22385728
0.21174933
0.19965168
0.18755271
0.17545266
0.16335258
0.15125243
0.13915225
0.12705205
0.11495185
0.10285165
0.090751452
0.078651252
0.066551053
0.054450855
0.042350659
0.030250469
0.018150276
0.00605009
0.34343691
0.33917513
0.3422223
0.34048547
0.34053842
0.34034547
0.34010212
0.33984901
0.33958385
0.33930972
0.33902798
0.33873952
0.33844441
0.338142
0.33783086
0.33750866
0.33717222
0.33681854
0.33644533
0.33606238
0.33569834
0.3354326
0.33622061
0.33512637
0.35074059
0.34368224
0.33926931
0.34227766
0.3406973
0.3405427
0.34039451
0.34014318
0.33988094
0.33961202
0.33933565
0.33905403
0.33876847
0.33847969
0.3381882
0.33789433
0.33759867
0.33730261
0.33700944
0.33672649
0.33646991
0.33625754
0.33615747
0.33621184
0.33460911
0.33584217
0.34383971
0.3394617
0.34227674
0.3408856
0.34060591
0.34044977
0.34019207
0.33991979
0.33964489
0.33936542
0.33908345
0.33880069
0.33851837
0.3382379
0.33796113
0.33769087
0.33743165
0.33719025
0.33697759
0.33680927
0.33670179
0.33670689
0.3368194
0.33659715
0.33918065
0.34405792
0.33967622
0.34237705
0.34105368
0.34069957
0.3405177
0.34024714
0.33996308
0.33968039
0.33939665
0.33911349
0.33883272
0.33855585
0.33828489
0.33802276
0.33777364
0.33754359
0.33734115
0.33717838
0.33707068
0.33703751
0.33712561
0.33731872
0.33742174
0.33932665
0.34429945
0.33990935
0.34252716
0.34121499
0.3408094
0.34059538
0.34030611
0.34000827
0.33971635
0.33942723
0.33914194
0.33886196
0.33858891
0.33832514
0.33807404
0.33784044
0.33763102
0.33745475
0.33732341
0.33725083
0.33725363
0.33736274
0.33755303
0.33766852
0.33897829
0.34467147
0.3402167
0.34272905
0.34138018
0.340926
0.34067723
0.34036568
0.34005251
0.3397504
0.33945505
0.33916662
0.33888613
0.33861501
0.3383556
0.33811141
0.33788737
0.33769014
0.33752836
0.33741255
0.33735463
0.33736752
0.33747224
0.33764743
0.33777982
0.33885422
0.34494156
0.34050124
0.34293729
0.34154167
0.34104164
0.34075747
0.34042179
0.34009259
0.33977995
0.33947787
0.33918548
0.33890312
0.33863183
0.33837372
0.33813208
0.33791159
0.33771849
0.3375606
0.33744732
0.33738888
0.33739568
0.33748526
0.33763843
0.33776388
0.33871201
0.34581165
0.34103386
0.3432265
0.34172021
0.3411528
0.34083023
0.34047015
0.34012579
0.33980342
0.33949499
0.33919849
0.33891356
0.33864077
0.33838186
0.33813977
0.33791878
0.33772452
0.33756405
0.33744581
0.33737873
0.33737202
0.33744208
0.33757208
0.33768051
0.33856033
0.34551056
0.3413637
0.34341372
0.3418352
0.34123699
0.34088589
0.34050562
0.3401492
0.33981907
0.33950535
0.33920513
0.33891735
0.33864212
0.33838075
0.33813576
0.33791091
0.33771117
0.33754275
0.33741305
0.33732992
0.3373016
0.33734418
0.33744408
0.33752706
0.3383862
0.34936593
0.34156153
0.34368808
0.341926
0.34129018
0.34091169
0.34051634
0.34015157
0.33981443
0.33949392
0.33918621
0.33888941
0.33860271
0.33832645
0.33806192
0.33781143
0.33757834
0.33736713
0.33718368
0.33703509
0.33693029
0.33688778
0.33689575
0.33687662
0.3376311
)
;

boundaryField
{
    inlet
    {
        type            zeroGradient;
    }
    walls
    {
        type            zeroGradient;
    }
    outlet
    {
        type            fixedValue;
        value           uniform 0;
    }
    centreline
    {
        type            symmetryPlane;
    }
    frontAndBack
    {
        type            empty;
    }
}


// ************************************************************************* //
