/*--------------------------------*- C++ -*----------------------------------*\
| =========                 |                                                 |
| \\      /  F ield         | OpenFOAM: The Open Source CFD Toolbox           |
|  \\    /   O peration     | Version:  5.x                                   |
|   \\  /    A nd           | Web:      www.OpenFOAM.org                      |
|    \\/     M anipulation  |                                                 |
\*---------------------------------------------------------------------------*/
/*   Windows 32 and 64 bit porting by blueCAPE: http://www.bluecape.com.pt   *\
|  Based on Windows porting (2.0.x v4) by Symscape: http://www.symscape.com   |
\*---------------------------------------------------------------------------*/
FoamFile
{
    version     2.0;
    format      ascii;
    class       surfaceScalarField;
    location    "0.01";
    object      phi;
}
// * * * * * * * * * * * * * * * * * * * * * * * * * * * * * * * * * * * * * //

dimensions      [0 3 -1 0 0 0 0];

internalField   nonuniform List<scalar> 
1430
(
4.9787755e-006
2.2504848e-008
5.0512813e-006
-7.2505847e-008
4.9890566e-006
6.2224741e-008
5.0377149e-006
-4.8658366e-008
5.0272572e-006
1.0457706e-008
5.0412571e-006
-1.3999865e-008
5.0512847e-006
-1.002763e-008
5.0653391e-006
-1.4054415e-008
5.0837812e-006
-1.8442058e-008
5.1084033e-006
-2.4622098e-008
5.1417272e-006
-3.3323913e-008
5.1871576e-006
-4.5430401e-008
5.2494658e-006
-6.230824e-008
5.3353819e-006
-8.5916123e-008
5.4545221e-006
-1.1914025e-007
5.6208347e-006
-1.6631261e-007
5.8549283e-006
-2.3409357e-007
6.187804e-006
-3.3287569e-007
6.6670247e-006
-4.7922069e-007
7.3684391e-006
-7.0141444e-007
8.3996645e-006
-1.0312254e-006
9.964486e-006
-1.5648215e-006
1.2208617e-005
-2.2441308e-006
1.5389522e-005
-3.1809049e-006
-3.7809584e-006
1.917048e-005
5.0037967e-006
1.9988516e-008
5.0215436e-006
-9.0252838e-008
5.0118335e-006
7.1934835e-008
5.0247398e-006
-6.1564658e-008
5.0318393e-006
3.3581799e-009
5.0400905e-006
-2.2251039e-008
5.0511975e-006
-2.1134672e-008
5.065072e-006
-2.7928935e-008
5.0833727e-006
-3.6742739e-008
5.1078437e-006
-4.9093105e-008
5.1409419e-006
-6.6422136e-008
5.1860601e-006
-9.0548644e-008
5.2479268e-006
-1.2417496e-007
5.3332093e-006
-1.7119859e-007
5.4514257e-006
-2.3735666e-007
5.6163679e-006
-3.3125479e-007
5.8483731e-006
-4.6609885e-007
6.1780409e-006
-6.6254345e-007
6.6524028e-006
-9.5358265e-007
7.3446177e-006
-1.3936293e-006
8.3714752e-006
-2.058083e-006
9.9012151e-006
-3.0945614e-006
1.2196228e-005
-4.539144e-006
1.5325577e-005
-6.3102537e-006
-7.8134304e-006
1.935805e-005
5.0020982e-006
1.9170651e-008
5.0223169e-006
-1.1047158e-007
5.0109716e-006
8.3280121e-008
5.0247012e-006
-7.52943e-008
5.0317487e-006
-3.6893298e-009
5.0398112e-006
-3.0313505e-008
5.0508084e-006
-3.2131877e-008
5.0645079e-006
-4.1628416e-008
5.0825769e-006
-5.4811824e-008
5.1067314e-006
-7.3247541e-008
5.1393908e-006
-9.9081574e-008
5.1838961e-006
-1.3505396e-007
5.2448962e-006
-1.8517511e-007
5.3289371e-006
-2.5523949e-007
5.4453468e-006
-3.5376632e-007
5.6076116e-006
-4.9351968e-007
5.8355702e-006
-6.9405743e-007
6.1590048e-006
-9.8597811e-007
6.6236679e-006
-1.4182458e-006
7.300944e-006
-2.0709054e-006
8.3059812e-006
-3.0631202e-006
9.8129909e-006
-4.6015711e-006
1.2096175e-005
-6.8223279e-006
1.5333331e-005
-9.5474097e-006
-1.1994844e-005
1.9514745e-005
5.0001635e-006
2.0287489e-008
5.023733e-006
-1.3404113e-007
5.0096465e-006
9.736658e-008
5.024854e-006
-9.0501797e-008
5.0314395e-006
-1.0274774e-008
5.0394176e-006
-3.8291694e-008
5.0502207e-006
-4.2934953e-008
5.0636668e-006
-5.5074497e-008
5.0813898e-006
-7.2534835e-008
5.1050713e-006
-9.6929022e-008
5.1370768e-006
-1.3108713e-007
5.1806684e-006
-1.7864553e-007
5.2403774e-006
-2.4488415e-007
5.3225699e-006
-3.3743201e-007
5.436292e-006
-4.6748849e-007
5.594578e-006
-6.5180565e-007
5.8165265e-006
-9.1600599e-007
6.1307022e-006
-1.3001538e-006
6.5809234e-006
-1.8684671e-006
7.2358032e-006
-2.7257851e-006
8.2075536e-006
-4.0348706e-006
9.6779395e-006
-6.071957e-006
1.1941908e-005
-9.0862963e-006
1.5354213e-005
-1.2959715e-005
-1.6394735e-005
1.9754104e-005
4.9977821e-006
2.3785702e-008
5.0259281e-006
-1.6218714e-007
5.0077507e-006
1.1554398e-007
5.0251299e-006
-1.0788099e-007
5.0310268e-006
-1.6171673e-008
5.038896e-006
-4.6160937e-008
5.0494399e-006
-5.3478872e-008
5.0625542e-006
-6.8188811e-008
5.0798198e-006
-8.9800394e-008
5.1028759e-006
-1.1998512e-007
5.1340174e-006
-1.6222864e-007
5.1764025e-006
-2.2103071e-007
5.2344083e-006
-3.0288999e-007
5.314165e-006
-4.1718869e-007
5.4243498e-006
-5.7767332e-007
5.5774053e-006
-8.0486111e-007
5.7914608e-006
-1.1300615e-006
6.093473e-006
-1.602166e-006
6.5246555e-006
-2.2996496e-006
7.1497357e-006
-3.3508654e-006
8.076036e-006
-4.961171e-006
9.4919972e-006
-7.4879182e-006
1.1727933e-005
-1.1322232e-005
1.5439632e-005
-1.6671414e-005
-2.1192445e-005
2.0237342e-005
4.9949361e-006
3.0129919e-008
5.0287325e-006
-1.9598351e-007
5.0053608e-006
1.3891563e-007
5.0254442e-006
-1.2796441e-007
5.0305737e-006
-2.1301225e-008
5.0382418e-006
-5.3829028e-008
5.0484766e-006
-6.371364e-008
5.0611783e-006
-8.0890498e-008
5.0778782e-006
-1.0650038e-007
5.1001616e-006
-1.4226853e-007
5.1302362e-006
-1.9230317e-007
5.171133e-006
-2.6192756e-007
5.22704e-006
-3.5879702e-007
5.3037993e-006
-4.9394802e-007
5.4096389e-006
-6.8351287e-007
5.5562811e-006
-9.5150332e-007
5.7606734e-006
-1.3344539e-006
6.0477968e-006
-1.8892894e-006
6.4555992e-006
-2.707452e-006
7.0436505e-006
-3.9389167e-006
7.9116307e-006
-5.8291511e-006
9.2493312e-006
-8.8256187e-006
1.1443195e-005
-1.3516095e-005
1.5635036e-005
-2.0863256e-005
-2.6810013e-005
2.1252604e-005
4.9914843e-006
3.9925903e-008
5.0321075e-006
-2.3660666e-007
5.0024669e-006
1.6855614e-007
5.0258236e-006
-1.5132108e-007
5.0300824e-006
-2.5560022e-008
5.0374554e-006
-6.1202083e-008
5.0473379e-006
-7.3596125e-008
5.059549e-006
-9.3101571e-008
5.0755787e-006
-1.2253016e-007
5.0969477e-006
-1.6363748e-007
5.1257609e-006
-2.2111641e-007
5.1649001e-006
-3.0106676e-007
5.2183322e-006
-4.1222912e-007
5.2915635e-006
-5.6717931e-007
5.3922997e-006
-7.842491e-007
5.5314285e-006
-1.0906322e-006
5.7245256e-006
-1.527551e-006
5.994262e-006
-2.1590258e-006
6.3746841e-006
-3.0878742e-006
6.9188118e-006
-4.4830444e-006
7.7148768e-006
-6.6252161e-006
8.9439375e-006
-1.0054679e-005
1.1053253e-005
-1.5625411e-005
1.5804385e-005
-2.5614388e-005
-3.3721618e-005
2.271599e-005
4.9870247e-006
5.4181481e-008
5.0360034e-006
-2.8558531e-007
4.9992318e-006
2.0532769e-007
5.0261566e-006
-1.7824583e-007
5.0295855e-006
-2.898897e-008
5.0365403e-006
-6.8156915e-008
5.046029e-006
-8.3084773e-008
5.0576759e-006
-1.0474852e-007
5.0729343e-006
-1.3778859e-007
5.0932522e-006
-1.8395538e-007
5.1206175e-006
-2.4848167e-007
5.1577418e-006
-3.3819114e-007
5.2083411e-006
-4.6282845e-007
5.2775424e-006
-6.3638054e-007
5.3724635e-006
-8.7917027e-007
5.5030555e-006
-1.2212242e-006
5.6833548e-006
-1.7078504e-006
5.9334204e-006
-2.4090914e-006
6.2827653e-006
-3.4372192e-006
6.7763083e-006
-4.9765874e-006
7.486479e-006
-7.3353869e-006
8.5693366e-006
-1.1137537e-005
1.0489128e-005
-1.7545202e-005
1.5478937e-005
-3.0604197e-005
-4.1643306e-005
2.3400626e-005
4.9806003e-006
7.486145e-008
5.0406879e-006
-3.4567285e-007
4.9957094e-006
2.5030614e-007
5.0262056e-006
-2.0874204e-007
5.0291939e-006
-3.1977269e-008
5.0355063e-006
-7.4469345e-008
5.0445489e-006
-9.2127371e-008
5.0555672e-006
-1.1576684e-007
5.0699559e-006
-1.5217724e-007
5.089091e-006
-2.0309053e-007
5.1148281e-006
-2.7421878e-007
5.1496907e-006
-3.7305375e-007
5.1971155e-006
-5.1025321e-007
5.26181e-006
-7.0107512e-007
5.3502457e-006
-9.6760598e-007
5.471347e-006
-1.3423255e-006
5.6374659e-006
-1.8739693e-006
5.8657866e-006
-2.6374121e-006
6.1806755e-006
-3.7521081e-006
6.6172282e-006
-5.4131401e-006
7.2275134e-006
-7.9456721e-006
8.1210775e-006
-1.2031101e-005
9.6765777e-006
-1.9100702e-005
1.4065398e-005
-3.4993018e-005
-4.8626836e-005
2.1048928e-005
4.9854853e-006
9.0656513e-008
5.0318936e-006
-3.9208124e-007
5.0021738e-006
2.8002601e-007
5.0214278e-006
-2.2799608e-007
5.0298757e-006
-4.0425214e-008
5.0343214e-006
-7.8914995e-008
5.0428757e-006
-1.0068173e-007
5.0532396e-006
-1.2613072e-007
5.0666519e-006
-1.6558953e-007
5.0844765e-006
-2.2091514e-007
5.1084108e-006
-2.9815305e-007
5.1407722e-006
-4.0541525e-007
5.1846937e-006
-5.5417469e-007
5.244427e-006
-7.6080841e-007
5.3257442e-006
-1.0489232e-006
5.4364676e-006
-1.4530488e-006
5.5871424e-006
-2.024644e-006
5.7918885e-006
-2.8421582e-006
6.0693945e-006
-4.0296141e-006
6.4431491e-006
-5.7868948e-006
6.9428696e-006
-8.4453926e-006
7.5987091e-006
-1.268694e-005
8.6235394e-006
-2.0125533e-005
1.1275244e-005
-3.7644722e-005
1.3598341e-005
-5.0949934e-005
2.0134918e-005
-9.6443816e-007
2.0604062e-005
-4.6914339e-007
2.0809081e-005
-2.0501849e-007
2.0856067e-005
-4.6986067e-008
2.087991e-005
-2.3843236e-008
2.0887442e-005
-7.532493e-009
2.0889664e-005
-2.2218869e-009
2.0890554e-005
-8.8946666e-010
2.0890834e-005
-2.8032839e-010
2.0890926e-005
-9.1846439e-011
2.0890959e-005
-3.2483305e-011
2.0890969e-005
-1.0624934e-011
2.0890973e-005
-3.5517272e-012
2.0890974e-005
-1.1892266e-012
2.0890974e-005
-3.7962209e-013
2.0890974e-005
-1.1496233e-013
2.0890974e-005
-2.7228072e-014
2.0890974e-005
-1.5425882e-014
2.0890974e-005
-1.5343099e-014
2.0890974e-005
-3.4599594e-014
2.0890974e-005
-3.6051106e-014
2.0890974e-005
-3.2392293e-014
2.0890974e-005
-5.346511e-015
2.0890974e-005
1.9529249e-013
2.071034e-013
2.0104736e-005
-1.7111247e-006
2.0667979e-005
-1.0323858e-006
2.07999e-005
-3.3693962e-007
2.0858975e-005
-1.0606137e-007
2.0878976e-005
-4.3843664e-008
2.0885134e-005
-1.3690713e-008
2.0887464e-005
-4.551921e-009
2.0888207e-005
-1.6319012e-009
2.0888457e-005
-5.3110632e-010
2.0888544e-005
-1.7831619e-010
2.0888572e-005
-6.0988236e-011
2.0888582e-005
-2.0265796e-011
2.0888585e-005
-6.8000078e-012
2.0888586e-005
-2.2758109e-012
2.0888587e-005
-7.4210328e-013
2.0888587e-005
-2.4125941e-013
2.0888587e-005
-7.3406845e-014
2.0888587e-005
-4.4685664e-014
2.0888587e-005
-4.1003839e-014
2.0888587e-005
-6.804568e-014
2.0888587e-005
-6.9231001e-014
2.0888587e-005
-6.1923102e-014
2.0888587e-005
-6.2387815e-015
2.0888587e-005
2.9933096e-013
3.2232604e-013
2.0170099e-005
-2.3664791e-006
2.066622e-005
-1.5285059e-006
2.0775532e-005
-4.4625202e-007
2.0824092e-005
-1.5462108e-007
2.0839996e-005
-5.9748018e-008
2.0844787e-005
-1.8481488e-008
2.0846619e-005
-6.3839343e-009
2.0847192e-005
-2.2042587e-009
2.0847385e-005
-7.247093e-010
2.0847452e-005
-2.4519444e-010
2.0847474e-005
-8.2810286e-011
2.0847481e-005
-2.7673052e-011
2.0847484e-005
-9.2934141e-012
2.0847485e-005
-3.1090802e-012
2.0847485e-005
-1.0182584e-012
2.0847485e-005
-3.3678132e-013
2.0847485e-005
-1.0701059e-013
2.0847485e-005
-6.6024431e-014
2.0847485e-005
-6.003496e-014
2.0847485e-005
-9.4169221e-014
2.0847485e-005
-9.7566711e-014
2.0847485e-005
-8.651262e-014
2.0847485e-005
-8.3874096e-015
2.0847485e-005
3.0020255e-013
3.3698517e-013
2.0243205e-005
-2.8555802e-006
2.0634093e-005
-1.9193934e-006
2.0708887e-005
-5.2104542e-007
2.0742649e-005
-1.8838391e-007
2.0752687e-005
-6.9785706e-008
2.0755545e-005
-2.1339538e-008
2.0756679e-005
-7.5179736e-009
2.0757015e-005
-2.5395458e-009
2.0757129e-005
-8.3877191e-010
2.0757168e-005
-2.8478186e-010
2.0757181e-005
-9.5433064e-011
2.0757185e-005
-3.1983309e-011
2.0757187e-005
-1.0743816e-011
2.0757187e-005
-3.5885764e-012
2.0757187e-005
-1.1736632e-012
2.0757187e-005
-3.8842893e-013
2.0757187e-005
-1.2414115e-013
2.0757187e-005
-7.8784828e-014
2.0757187e-005
-7.4994654e-014
2.0757187e-005
-1.1781065e-013
2.0757187e-005
-1.2686865e-013
2.0757187e-005
-1.1065484e-013
2.0757187e-005
-2.6896545e-014
2.0757187e-005
1.8418407e-013
2.4790013e-013
2.0534549e-005
-3.1527872e-006
2.0763845e-005
-2.1486892e-006
2.0782145e-005
-5.3934538e-007
2.0796115e-005
-2.0235424e-007
2.0798645e-005
-7.2315881e-008
2.0799063e-005
-2.1756998e-008
2.0799316e-005
-7.7715088e-009
2.0799354e-005
-2.5773521e-009
2.0799369e-005
-8.536991e-010
2.0799375e-005
-2.9041281e-010
2.0799376e-005
-9.6771986e-011
2.0799377e-005
-3.2461387e-011
2.0799377e-005
-1.0893973e-011
2.0799377e-005
-3.6246019e-012
2.0799377e-005
-1.1748169e-012
2.0799377e-005
-3.8301513e-013
2.0799377e-005
-1.2004999e-013
2.0799377e-005
-8.4308143e-014
2.0799377e-005
-9.2479547e-014
2.0799377e-005
-1.5179809e-013
2.0799377e-005
-1.7588231e-013
2.0799377e-005
-1.6809621e-013
2.0799377e-005
-9.2272301e-014
2.0799377e-005
2.3912296e-013
3.5520017e-013
2.1502897e-005
-3.4030804e-006
2.1495041e-005
-2.1408326e-006
2.1420065e-005
-4.6436931e-007
2.140918e-005
-1.9146935e-007
2.140258e-005
-6.5716111e-008
2.1400164e-005
-1.9340699e-008
2.1399391e-005
-6.9985479e-009
2.1399076e-005
-2.2626559e-009
2.1398976e-005
-7.5402867e-010
2.1398943e-005
-2.5672454e-010
2.1398931e-005
-8.4920102e-011
2.1398927e-005
-2.8494739e-011
2.1398926e-005
-9.515431e-012
2.1398925e-005
-3.1385103e-012
2.1398925e-005
-9.9268231e-013
2.1398925e-005
-3.0942763e-013
2.1398925e-005
-9.0462705e-014
2.1398925e-005
-8.3075456e-014
2.1398925e-005
-1.1679532e-013
2.1398925e-005
-2.0482583e-013
2.1398925e-005
-2.5863027e-013
2.1398925e-005
-2.9801489e-013
2.1398925e-005
-2.3774134e-013
2.1398924e-005
1.1099823e-012
1.3189747e-012
2.3182056e-005
-3.8691462e-006
2.2864859e-005
-1.8236347e-006
2.2682016e-005
-2.8152684e-007
2.2645042e-005
-1.5449525e-007
2.2628746e-005
-4.9419841e-008
2.2623714e-005
-1.4308945e-008
2.2621943e-005
-5.2277416e-009
2.2621286e-005
-1.6057933e-009
2.2621079e-005
-5.4654301e-010
2.2621008e-005
-1.8537865e-010
2.2620983e-005
-6.0314947e-011
2.2620975e-005
-2.0253376e-011
2.2620972e-005
-6.687133e-012
2.2620971e-005
-2.1594582e-012
2.2620971e-005
-6.4465249e-013
2.262097e-005
-1.7926086e-013
2.262097e-005
-4.1473446e-014
2.262097e-005
-7.3331538e-014
2.262097e-005
-1.3524237e-013
2.262097e-005
-2.5116489e-013
2.262097e-005
-3.3730079e-013
2.2620971e-005
-4.5601653e-013
2.2620971e-005
-4.2818424e-013
2.2620969e-005
2.7244218e-012
3.0517741e-012
2.393532e-005
-4.4038405e-006
2.3301593e-005
-1.1899071e-006
2.3088116e-005
-6.8049832e-008
2.3031928e-005
-9.8307972e-008
2.3009197e-005
-2.6688187e-008
2.3002962e-005
-8.0741871e-009
2.3000606e-005
-2.8718841e-009
2.299979e-005
-7.9003271e-010
2.2999532e-005
-2.8843222e-010
2.2999442e-005
-9.5030173e-011
2.2999412e-005
-2.9799785e-011
2.2999401e-005
-1.0043503e-011
2.2999398e-005
-3.2125526e-012
2.2999397e-005
-9.8644328e-013
2.2999396e-005
-2.5199617e-013
2.2999396e-005
-4.7296476e-014
2.2999396e-005
2.7110911e-015
2.2999396e-005
-5.2420313e-014
2.2999396e-005
-1.1818486e-013
2.2999396e-005
-2.2892661e-013
2.2999396e-005
-3.1845358e-013
2.2999396e-005
-4.8014932e-013
2.2999396e-005
-5.2442932e-013
2.2999395e-005
3.5105969e-012
3.9096755e-012
2.0409583e-005
-3.7644949e-006
1.9651005e-005
-4.313292e-007
1.9546828e-005
3.6127542e-008
1.9488244e-005
-3.9724684e-008
1.9468068e-005
-6.5120712e-009
1.946267e-005
-2.6758707e-009
1.9460605e-005
-8.0714659e-010
1.9459983e-005
-1.6744204e-010
1.9459773e-005
-7.9026143e-011
1.9459701e-005
-2.2416738e-011
1.9459677e-005
-6.4088406e-012
1.9459669e-005
-2.208798e-012
1.9459667e-005
-6.1118824e-013
1.9459666e-005
-1.549929e-013
1.9459666e-005
-8.29093e-015
1.9459666e-005
1.3620006e-014
1.9459666e-005
1.3773411e-014
1.9459666e-005
-2.6463019e-014
1.9459665e-005
-5.9209084e-014
1.9459665e-005
-1.172308e-013
1.9459665e-005
-1.6653168e-013
1.9459665e-005
-2.7490308e-013
1.9459665e-005
-4.2313313e-013
1.9459666e-005
1.8993254e-012
2.243845e-012
9.8338456e-006
9.4025165e-006
9.4386441e-006
9.3989194e-006
9.3924074e-006
9.3897315e-006
9.3889244e-006
9.3887569e-006
9.3886779e-006
9.3886555e-006
9.3886491e-006
9.3886469e-006
9.3886462e-006
9.3886461e-006
9.3886461e-006
9.388646e-006
9.388646e-006
9.388646e-006
9.3886459e-006
9.3886458e-006
9.3886456e-006
9.3886453e-006
9.3886449e-006
9.3886468e-006
1.5074693e-005
1.9804014e-008
1.4960551e-005
-2.7793858e-007
1.5110825e-005
1.2975155e-007
1.503623e-005
-1.5340094e-007
1.5080544e-005
-8.4738822e-008
1.5097352e-005
-9.5723752e-008
1.5117511e-005
-1.2084061e-007
1.5143951e-005
-1.5257085e-007
1.5177724e-005
-1.9936234e-007
1.5222377e-005
-2.6556773e-007
1.5282103e-005
-3.5787908e-007
1.5362485e-005
-4.8579762e-007
1.5470947e-005
-6.6263677e-007
1.5617313e-005
-9.0717396e-007
1.5814458e-005
-1.2460685e-006
1.6078939e-005
-1.7175299e-006
1.6431287e-005
-2.3769924e-006
1.6895244e-005
-3.3061145e-006
1.7492893e-005
-4.6272633e-006
1.8231542e-005
-6.525544e-006
1.9062863e-005
-9.276713e-006
1.9658469e-005
-1.3282547e-005
1.9293997e-005
-1.9761061e-005
1.4577459e-005
-3.2928183e-005
-3.6372475e-005
1.5062715e-005
-3.9069884e-008
1.4975736e-005
-1.9095987e-007
1.5092025e-005
1.3462832e-008
1.5051752e-005
-1.1312798e-007
1.5070274e-005
-1.032614e-007
1.508487e-005
-1.103194e-007
1.5098966e-005
-1.349362e-007
1.5116769e-005
-1.7037382e-007
1.5139372e-005
-2.2196582e-007
1.5168882e-005
-2.9507766e-007
1.5207949e-005
-3.9694588e-007
1.5259924e-005
-5.3777241e-007
1.5329032e-005
-7.3174541e-007
1.5420465e-005
-9.9860661e-007
1.5540274e-005
-1.3658775e-006
1.569479e-005
-1.8720458e-006
1.5888977e-005
-2.5711802e-006
1.6122316e-005
-3.5394534e-006
1.6379201e-005
-4.8841481e-006
1.6608151e-005
-6.7544942e-006
1.6679356e-005
-9.3479175e-006
1.630262e-005
-1.2905811e-005
1.4639215e-005
-1.8097656e-005
8.3686305e-006
-2.6657599e-005
-2.8003844e-005
1.5039363e-005
-7.4591742e-008
1.5002379e-005
-1.5397602e-007
1.506553e-005
-4.9688475e-008
1.5056537e-005
-1.0413499e-007
1.5062943e-005
-1.0966719e-007
1.5071212e-005
-1.1858862e-007
1.5078507e-005
-1.4223091e-007
1.5086894e-005
-1.7876116e-007
1.5097108e-005
-2.3217953e-007
1.5109988e-005
-3.0795823e-007
1.512651e-005
-4.1346707e-007
1.5147706e-005
-5.5896913e-007
1.5174573e-005
-7.5861196e-007
1.5207763e-005
-1.0317963e-006
1.5246921e-005
-1.4050359e-006
1.5289304e-005
-1.9144291e-006
1.5327013e-005
-2.6088892e-006
1.5341585e-005
-3.554025e-006
1.5293612e-005
-4.8361752e-006
1.5104019e-005
-6.5649016e-006
1.4622161e-005
-8.8660587e-006
1.3576975e-005
-1.1860626e-005
1.1343276e-005
-1.5863957e-005
6.2752665e-006
-2.1589589e-005
-2.1728578e-005
1.5029267e-005
-1.0001793e-007
1.5018258e-005
-1.4296647e-007
1.5054253e-005
-8.568365e-008
1.5055087e-005
-1.0496968e-007
1.5056187e-005
-1.1076653e-007
1.5057783e-005
-1.2018449e-007
1.505761e-005
-1.4205851e-007
1.5056192e-005
-1.773428e-007
1.5053517e-005
-2.295046e-007
1.5049226e-005
-3.0366715e-007
1.5042636e-005
-4.0687745e-007
1.5032545e-005
-5.488784e-007
1.501691e-005
-7.4297626e-007
1.4992275e-005
-1.0071613e-006
1.495276e-005
-1.3655208e-006
1.4888299e-005
-1.8499681e-006
1.4781559e-005
-2.5021492e-006
1.4602636e-005
-3.3751026e-006
1.430021e-005
-4.5337495e-006
1.3787256e-005
-6.0519473e-006
1.2919454e-005
-7.9982567e-006
1.1467382e-005
-1.0408553e-005
9.0233456e-006
-1.3419921e-005
4.8556002e-006
-1.7421844e-005
-1.6872978e-005
1.5023088e-005
-1.1926481e-007
1.5027015e-005
-1.4689407e-007
1.5049991e-005
-1.0865921e-007
1.5052252e-005
-1.0723106e-007
1.5049288e-005
-1.0780269e-007
1.5044433e-005
-1.1532937e-007
1.5036604e-005
-1.342294e-007
1.5025441e-005
-1.6617924e-007
1.5010085e-005
-2.1414889e-007
1.4989036e-005
-2.8261859e-007
1.4960065e-005
-3.7790589e-007
1.4919929e-005
-5.0874289e-007
1.4863903e-005
-6.8694983e-007
1.4785041e-005
-9.2829956e-007
1.467303e-005
-1.2535097e-006
1.4512367e-005
-1.6893052e-006
1.4279508e-005
-2.2692905e-006
1.3938493e-005
-3.0340869e-006
1.3434444e-005
-4.0297007e-006
1.2684557e-005
-5.3020601e-006
1.1567745e-005
-6.8814453e-006
9.9162057e-006
-8.7570138e-006
7.4780376e-006
-1.0981753e-005
3.8638028e-006
-1.3807609e-005
-1.3009175e-005
1.5020765e-005
-1.3618862e-007
1.5029648e-005
-1.5577748e-007
1.5042739e-005
-1.2175034e-007
1.5040937e-005
-1.0542872e-007
1.5033424e-005
-1.0028975e-007
1.5022371e-005
-1.042764e-007
1.5007121e-005
-1.1897902e-007
1.4986755e-005
-1.4581359e-007
1.4959615e-005
-1.8700918e-007
1.4923148e-005
-2.4615129e-007
1.4873751e-005
-3.2850934e-007
1.4806419e-005
-4.4141068e-007
1.4714187e-005
-5.9471785e-007
1.4587328e-005
-8.0144048e-007
1.4412192e-005
-1.0783738e-006
1.4169544e-005
-1.4466567e-006
1.3832224e-005
-1.931971e-006
1.3361973e-005
-2.563836e-006
1.2705391e-005
-3.3731186e-006
1.1789446e-005
-4.3861148e-006
1.0518811e-005
-5.6108103e-006
8.7785617e-006
-7.0167648e-006
6.416113e-006
-8.6193038e-006
3.2043387e-006
-1.0595834e-005
-9.8048362e-006
1.4995106e-005
-1.2745393e-007
1.5019809e-005
-1.8048073e-007
1.5040303e-005
-1.4224388e-007
1.5038474e-005
-1.0359961e-007
1.5025968e-005
-8.7783397e-008
1.5008725e-005
-8.7033694e-008
1.4986501e-005
-9.6755031e-008
1.4957888e-005
-1.1720083e-007
1.4920438e-005
-1.4955878e-007
1.4870639e-005
-1.9635312e-007
1.4803725e-005
-2.6159526e-007
1.4713246e-005
-3.5093116e-007
1.4590468e-005
-4.7193998e-007
1.4423556e-005
-6.3452873e-007
1.4196486e-005
-8.5130337e-007
1.3887631e-005
-1.1378023e-006
1.3468004e-005
-1.5123437e-006
1.2899228e-005
-1.9950597e-006
1.2131529e-005
-2.6054196e-006
1.1102487e-005
-3.3570732e-006
9.7390216e-006
-4.247345e-006
7.9656706e-006
-5.2434138e-006
5.6923061e-006
-6.3459394e-006
2.7772627e-006
-7.680791e-006
-7.0275735e-006
1.5346836e-005
-4.7044936e-007
1.5410104e-005
-2.4374842e-007
1.5398225e-005
-1.30365e-007
1.5374138e-005
-7.9512778e-008
1.5351296e-005
-6.4941432e-008
1.5326996e-005
-6.2733159e-008
1.5297938e-005
-6.7697177e-008
1.5261699e-005
-8.0961442e-008
1.5214898e-005
-1.0275845e-007
1.5153105e-005
-1.3456013e-007
1.5070494e-005
-1.7898364e-007
1.495934e-005
-2.3977787e-007
1.4809379e-005
-3.2197914e-007
1.4606979e-005
-4.3212861e-007
1.4334136e-005
-5.7845977e-007
1.3967294e-005
-7.7096052e-007
1.3476077e-005
-1.021127e-006
1.2822147e-005
-1.3411297e-006
1.1958667e-005
-1.7419395e-006
1.0831322e-005
-2.2297277e-006
9.3830277e-006
-2.7990511e-006
7.5643039e-006
-3.42469e-006
5.3222765e-006
-4.103912e-006
2.5586583e-006
-4.9171728e-006
-4.4689151e-006
1.6161744e-005
-1.628352e-006
1.6375533e-005
-4.5753828e-007
1.6364861e-005
-1.1969239e-007
1.6344066e-005
-5.8717736e-008
1.6317993e-005
-3.8868571e-008
1.6286476e-005
-3.1216401e-008
1.6250375e-005
-3.1596323e-008
1.6206519e-005
-3.7105235e-008
1.6150455e-005
-4.6694588e-008
1.6076792e-005
-6.0897441e-008
1.5978627e-005
-8.0818285e-008
1.5846944e-005
-1.0809498e-007
1.566991e-005
-1.449446e-007
1.5432018e-005
-1.9423672e-007
1.5113114e-005
-2.5955651e-007
1.4687358e-005
-3.45204e-007
1.4122275e-005
-4.5604445e-007
1.3378236e-005
-5.970905e-007
1.2408919e-005
-7.7262256e-007
1.1163791e-005
-9.845995e-007
9.5944109e-006
-1.229671e-006
7.665239e-006
-1.4955181e-006
5.3420744e-006
-1.7807473e-006
2.5500162e-006
-2.1251146e-006
-1.9188989e-006
1.3375489e-005
1.2917951e-005
1.2798258e-005
1.2739541e-005
1.2700672e-005
1.2669456e-005
1.2637859e-005
1.2600754e-005
1.2554059e-005
1.2493162e-005
1.2412344e-005
1.2304249e-005
1.2159304e-005
1.1965067e-005
1.1705511e-005
1.1360307e-005
1.0904262e-005
1.0307172e-005
9.5345493e-006
8.5499498e-006
7.3202788e-006
5.8247608e-006
4.0440135e-006
1.9188989e-006
)
;

boundaryField
{
    inlet
    {
        type            calculated;
        value           nonuniform List<scalar> 
20
(
-5.0012803e-006
-5.0012803e-006
-5.0012803e-006
-5.0012803e-006
-5.0012803e-006
-5.0012803e-006
-5.0012803e-006
-5.0012803e-006
-5.0012803e-006
-5.0012803e-006
-1.5003841e-005
-1.5003841e-005
-1.5003841e-005
-1.5003841e-005
-1.5003841e-005
-1.5003841e-005
-1.5003841e-005
-1.5003841e-005
-1.5003841e-005
-1.5003841e-005
)
;
    }
    walls
    {
        type            calculated;
        value           uniform 0;
    }
    outlet
    {
        type            calculated;
        value           nonuniform List<scalar> 10(2.0890974e-005 2.0888586e-005 2.0847485e-005 2.0757187e-005 2.0799377e-005 2.1398923e-005 2.2620967e-005 2.2999394e-005 1.9459668e-005 9.3886491e-006);
    }
    centreline
    {
        type            symmetryPlane;
        value           uniform 0;
    }
    frontAndBack
    {
        type            empty;
        value           nonuniform 0();
    }
}


// ************************************************************************* //
