/*--------------------------------*- C++ -*----------------------------------*\
| =========                 |                                                 |
| \\      /  F ield         | OpenFOAM: The Open Source CFD Toolbox           |
|  \\    /   O peration     | Version:  5.x                                   |
|   \\  /    A nd           | Web:      www.OpenFOAM.org                      |
|    \\/     M anipulation  |                                                 |
\*---------------------------------------------------------------------------*/
/*   Windows 32 and 64 bit porting by blueCAPE: http://www.bluecape.com.pt   *\
|  Based on Windows porting (2.0.x v4) by Symscape: http://www.symscape.com   |
\*---------------------------------------------------------------------------*/
FoamFile
{
    version     2.0;
    format      ascii;
    class       surfaceScalarField;
    location    "0.01";
    object      phi_0;
}
// * * * * * * * * * * * * * * * * * * * * * * * * * * * * * * * * * * * * * //

dimensions      [0 3 -1 0 0 0 0];

internalField   nonuniform List<scalar> 
1430
(
4.9779286e-006
2.3351714e-008
5.0516046e-006
-7.3675986e-008
4.9883225e-006
6.3282065e-008
5.0372383e-006
-4.8915767e-008
5.0268065e-006
1.0431788e-008
5.0406399e-006
-1.3833468e-008
5.0506868e-006
-1.0046913e-008
5.064698e-006
-1.4011157e-008
5.0831143e-006
-1.8416281e-008
5.1077135e-006
-2.4599189e-008
5.1410152e-006
-3.3301799e-008
5.1864228e-006
-4.5407595e-008
5.2487042e-006
-6.2281384e-008
5.3345849e-006
-8.5880667e-008
5.453674e-006
-1.1908919e-007
5.6199087e-006
-1.662347e-007
5.8538773e-006
-2.3396861e-007
6.1865443e-006
-3.3266699e-007
6.6654247e-006
-4.7888043e-007
7.3661188e-006
-7.0069407e-007
8.3963575e-006
-1.0302387e-006
9.9584689e-006
-1.5621114e-006
1.2198545e-005
-2.2400758e-006
1.5370497e-005
-3.1719518e-006
-3.7741669e-006
1.9144664e-005
5.0035949e-006
2.1037179e-008
5.0211954e-006
-9.1276552e-008
5.0115621e-006
7.2915309e-008
5.0241341e-006
-6.1487697e-008
5.0313351e-006
3.2307483e-009
5.0395183e-006
-2.2016687e-008
5.0505855e-006
-2.1114116e-008
5.0644321e-006
-2.7857832e-008
5.0827055e-006
-3.6689684e-008
5.1071532e-006
-4.9046908e-008
5.1402295e-006
-6.6378104e-008
5.1853249e-006
-9.0503009e-008
5.2471648e-006
-1.2412127e-007
5.3324119e-006
-1.7112778e-007
5.4505775e-006
-2.3725484e-007
5.6154423e-006
-3.3109948e-007
5.8473243e-006
-4.6585059e-007
6.1767891e-006
-6.6213186e-007
6.6507978e-006
-9.5288917e-007
7.3423968e-006
-1.392293e-006
8.3680825e-006
-2.0559245e-006
9.8954482e-006
-3.0894771e-006
1.2186496e-005
-4.531123e-006
1.5306245e-005
-6.2917009e-006
-7.8017676e-006
1.9333846e-005
5.001888e-006
2.0429513e-008
5.0219803e-006
-1.1136891e-007
5.0106957e-006
8.4199939e-008
5.0240908e-006
-7.4882856e-008
5.031245e-006
-3.923421e-009
5.0392386e-006
-3.0010295e-008
5.0501955e-006
-3.2071067e-008
5.0638675e-006
-4.1529849e-008
5.0819094e-006
-5.473159e-008
5.1060408e-006
-7.3178273e-008
5.1386786e-006
-9.9015938e-008
5.1831615e-006
-1.3498591e-007
5.2441354e-006
-1.8509519e-007
5.3281418e-006
-2.5513426e-007
5.4445023e-006
-3.5361527e-007
5.6066924e-006
-4.9328963e-007
5.8345326e-006
-6.9369079e-007
6.1577738e-006
-9.8537311e-007
6.6221026e-006
-1.417218e-006
7.2987999e-006
-2.0689904e-006
8.3027518e-006
-3.0598764e-006
9.8074921e-006
-4.5942174e-006
1.2086752e-005
-6.8103826e-006
1.5314176e-005
-9.5191252e-006
-1.1979686e-005
1.9492095e-005
4.9999242e-006
2.1785584e-008
5.0234318e-006
-1.3487647e-007
5.0093514e-006
9.8280327e-008
5.0242445e-006
-8.9775949e-008
5.0309319e-006
-1.0610912e-008
5.0388449e-006
-3.7923242e-008
5.0496068e-006
-4.2833033e-008
5.0630256e-006
-5.4948625e-008
5.0807217e-006
-7.2427686e-008
5.1043804e-006
-9.6837002e-008
5.1363648e-006
-1.3100032e-007
5.1799345e-006
-1.7855567e-007
5.2396182e-006
-2.4477888e-007
5.3217777e-006
-3.3729373e-007
5.4354528e-006
-4.6729044e-007
5.5936679e-006
-6.5150472e-007
5.8155051e-006
-9.1552803e-007
6.1295009e-006
-1.2993689e-006
6.5794152e-006
-1.8671323e-006
7.2337704e-006
-2.7233455e-006
8.2045684e-006
-4.0306744e-006
9.6728754e-006
-6.0625245e-006
1.1932813e-005
-9.0703206e-006
1.5333915e-005
-1.2920227e-005
-1.6375658e-005
1.9729887e-005
4.9975017e-006
2.5564235e-008
5.025671e-006
-1.6304582e-007
5.0074293e-006
1.1652203e-007
5.0245198e-006
-1.0686646e-007
5.0305158e-006
-1.6606943e-008
5.0383222e-006
-4.5729643e-008
5.048825e-006
-5.3335827e-008
5.0619119e-006
-6.8035534e-008
5.0791509e-006
-8.9666717e-008
5.1021846e-006
-1.1987078e-007
5.1333056e-006
-1.6212125e-007
5.1756697e-006
-2.2091984e-007
5.2336513e-006
-3.0276052e-007
5.3133767e-006
-4.1701912e-007
5.4235174e-006
-5.7743119e-007
5.576507e-006
-8.0449435e-007
5.7904604e-006
-1.1294814e-006
6.0923102e-006
-1.6012187e-006
6.523221e-006
-2.2980432e-006
7.1478445e-006
-3.347969e-006
8.0733751e-006
-4.9562051e-006
9.4875869e-006
-7.4767362e-006
1.1719134e-005
-1.1301867e-005
1.5415778e-005
-1.6616871e-005
-2.1162226e-005
2.0202346e-005
4.994607e-006
3.2237577e-008
5.0285237e-006
-1.9696253e-007
5.0050095e-006
1.4003619e-007
5.0248292e-006
-1.2668616e-007
5.0300603e-006
-2.1838053e-008
5.0376668e-006
-5.3336138e-008
5.0478603e-006
-6.3529328e-008
5.0605345e-006
-8.0709737e-008
5.0772084e-006
-1.0634063e-007
5.0994699e-006
-1.4213238e-007
5.1295246e-006
-1.921759e-007
5.1704014e-006
-2.6179665e-007
5.2262856e-006
-3.5864474e-007
5.3030158e-006
-4.9374931e-007
5.4088147e-006
-6.8323014e-007
5.5553971e-006
-9.510767e-007
5.7596981e-006
-1.3337824e-006
6.0466795e-006
-1.8882002e-006
6.4542507e-006
-2.7056144e-006
7.0419244e-006
-3.9356427e-006
7.9093708e-006
-5.8236515e-006
9.2458292e-006
-8.8131946e-006
1.1435065e-005
-1.3491103e-005
1.5608854e-005
-2.0790659e-005
-2.6757462e-005
2.1204089e-005
4.9911017e-006
4.241618e-008
5.0319571e-006
-2.3781795e-007
5.0020776e-006
1.6991571e-007
5.0252017e-006
-1.4981031e-007
5.0295671e-006
-2.620349e-008
5.0368792e-006
-6.0648161e-008
5.0467199e-006
-7.3370038e-008
5.0589034e-006
-9.289331e-008
5.0749077e-006
-1.2234491e-007
5.0962555e-006
-1.6348019e-007
5.1250497e-006
-2.2097012e-007
5.16417e-006
-3.0091698e-007
5.2175809e-006
-4.120557e-007
5.2907856e-006
-5.6695399e-007
5.3914853e-006
-7.8392983e-007
5.5305611e-006
-1.0901525e-006
5.7235791e-006
-1.5268004e-006
5.9931964e-006
-2.1578175e-006
6.3734318e-006
-3.0858498e-006
6.9172723e-006
-4.4794832e-006
7.7130882e-006
-6.6194674e-006
8.9415775e-006
-1.0041684e-005
1.1047172e-005
-1.5596698e-005
1.5786259e-005
-2.5529746e-005
-3.3652754e-005
2.2681551e-005
4.9865949e-006
5.7101636e-008
5.0359204e-006
-2.8714348e-007
4.9987956e-006
2.0704048e-007
5.02553e-006
-1.7654476e-007
5.0290676e-006
-2.9741042e-008
5.0359628e-006
-6.7543373e-008
5.0454089e-006
-8.2816154e-008
5.0570284e-006
-1.0451279e-007
5.072262e-006
-1.3757854e-007
5.0925596e-006
-1.8377778e-007
5.1199069e-006
-2.4831743e-007
5.1570138e-006
-3.3802394e-007
5.207594e-006
-4.6263594e-007
5.2767717e-006
-6.361317e-007
5.3716613e-006
-8.7881938e-007
5.5022084e-006
-1.2206997e-006
5.6824429e-006
-1.707035e-006
5.9324158e-006
-2.4077904e-006
6.2816251e-006
-3.4350591e-006
6.7749873e-006
-4.9728454e-006
7.4852152e-006
-7.3296953e-006
8.5682866e-006
-1.1124755e-005
1.0486914e-005
-1.7515325e-005
1.5481619e-005
-3.0524451e-005
-4.1601457e-005
2.3430322e-005
4.980133e-006
7.8248956e-008
5.0406772e-006
-3.4768766e-007
4.9952279e-006
2.5248977e-007
5.0255752e-006
-2.0689208e-007
5.0286689e-006
-3.2834828e-008
5.0349282e-006
-7.3802657e-008
5.0439268e-006
-9.1814767e-008
5.0549174e-006
-1.155034e-007
5.0692821e-006
-1.5194326e-007
5.0883979e-006
-2.0289361e-007
5.1141184e-006
-2.740379e-007
5.1489653e-006
-3.7287083e-007
5.1963734e-006
-5.1004404e-007
5.2610481e-006
-7.0080639e-007
5.3494579e-006
-9.6722919e-007
5.4705237e-006
-1.3417656e-006
5.636594e-006
-1.8731052e-006
5.8648509e-006
-2.6360473e-006
6.1796602e-006
-3.7498684e-006
6.6161514e-006
-5.4093366e-006
7.2267527e-006
-7.9402966e-006
8.1212173e-006
-1.201922e-005
9.6784306e-006
-1.9072538e-005
1.4085739e-005
-3.4931759e-005
-4.8665325e-005
2.1149607e-005
4.9852336e-006
9.429569e-008
5.031721e-006
-3.941751e-007
5.0018151e-006
2.8239569e-007
5.0207908e-006
-2.2586782e-007
5.0293051e-006
-4.1349071e-008
5.0337559e-006
-7.8253511e-008
5.0422503e-006
-1.0030917e-007
5.0525863e-006
-1.2583944e-007
5.065976e-006
-1.6533291e-007
5.083782e-006
-2.206996e-007
5.1077008e-006
-2.9795671e-007
5.140048e-006
-4.0521806e-007
5.1839548e-006
-5.539509e-007
5.2436713e-006
-7.605229e-007
5.3249677e-006
-1.0485256e-006
5.4356641e-006
-1.452462e-006
5.5863052e-006
-2.0237463e-006
5.791014e-006
-2.8407562e-006
6.068489e-006
-4.0273435e-006
6.4423111e-006
-5.7831587e-006
6.9424287e-006
-8.4404142e-006
7.5994955e-006
-1.2676287e-005
8.6275412e-006
-2.0100584e-005
1.1293729e-005
-3.7597947e-005
1.3682803e-005
-5.10544e-005
2.010346e-005
-9.5879638e-007
2.0572348e-005
-4.6888791e-007
2.077745e-005
-2.0510155e-007
2.0824906e-005
-4.745631e-008
2.0848706e-005
-2.3800113e-008
2.0856313e-005
-7.6070947e-009
2.0858565e-005
-2.2518129e-009
2.0859461e-005
-8.9566288e-010
2.0859746e-005
-2.8512481e-010
2.085984e-005
-9.3575401e-011
2.0859873e-005
-3.3075445e-011
2.0859883e-005
-1.0887684e-011
2.0859887e-005
-3.6493613e-012
2.0859888e-005
-1.2246702e-012
2.0859889e-005
-3.9396532e-013
2.0859889e-005
-1.2002306e-013
2.0859889e-005
-3.0205151e-014
2.0859889e-005
-1.706855e-014
2.0859889e-005
-1.7723394e-014
2.0859889e-005
-3.6375931e-014
2.0859889e-005
-3.8965731e-014
2.0859889e-005
-3.4326875e-014
2.0859889e-005
-8.391431e-015
2.0859889e-005
1.8070409e-013
1.9383137e-013
2.007381e-005
-1.6987605e-006
2.0637279e-005
-1.0323566e-006
2.0769757e-005
-3.3757978e-007
2.0828757e-005
-1.0645577e-007
2.0848928e-005
-4.3970976e-008
2.0855131e-005
-1.3810981e-008
2.085748e-005
-4.5998201e-009
2.0858233e-005
-1.6490591e-009
2.0858487e-005
-5.3951811e-010
2.0858575e-005
-1.8151688e-010
2.0858604e-005
-6.2196238e-011
2.0858614e-005
-2.0755717e-011
2.0858618e-005
-6.9850091e-012
2.0858619e-005
-2.3449862e-012
2.0858619e-005
-7.6891988e-013
2.0858619e-005
-2.5123698e-013
2.0858619e-005
-7.7985909e-014
2.0858619e-005
-4.6752299e-014
2.0858619e-005
-4.2876802e-014
2.0858619e-005
-6.8979492e-014
2.0858619e-005
-7.0861208e-014
2.0858619e-005
-6.345215e-014
2.0858619e-005
-9.1377242e-015
2.0858619e-005
2.7894937e-013
3.0310769e-013
2.0141575e-005
-2.3482406e-006
2.0638325e-005
-1.5291064e-006
2.0748113e-005
-4.4736781e-007
2.07966e-005
-1.5494273e-007
2.0812668e-005
-6.0039339e-008
2.08175e-005
-1.8642309e-008
2.0819348e-005
-6.447586e-009
2.081993e-005
-2.2310055e-009
2.0820126e-005
-7.3615488e-010
2.0820194e-005
-2.4962842e-010
2.0820217e-005
-8.4538594e-011
2.0820224e-005
-2.8351324e-011
2.0820227e-005
-9.5504681e-012
2.0820228e-005
-3.2060342e-012
2.0820228e-005
-1.0552809e-012
2.0820228e-005
-3.5075522e-013
2.0820228e-005
-1.1285174e-013
2.0820228e-005
-6.8379734e-014
2.0820228e-005
-6.1411047e-014
2.0820228e-005
-9.4333584e-014
2.0820228e-005
-9.8027111e-014
2.0820228e-005
-8.7855317e-014
2.0820228e-005
-1.0857775e-014
2.0820228e-005
2.8303108e-013
3.2025034e-013
2.0213342e-005
-2.8316953e-006
2.0605894e-005
-1.9216585e-006
2.0681366e-005
-5.2283992e-007
2.0715105e-005
-1.8868196e-007
2.0725306e-005
-7.0239573e-008
2.0728201e-005
-2.1537771e-008
2.0729349e-005
-7.5957881e-009
2.0729693e-005
-2.5744599e-009
2.0729809e-005
-8.5261628e-010
2.072985e-005
-2.9017937e-010
2.0729863e-005
-9.7563918e-011
2.0729867e-005
-3.2802579e-011
2.0729869e-005
-1.1053913e-011
2.0729869e-005
-3.7059454e-012
2.0729869e-005
-1.2182284e-012
2.0729869e-005
-4.0540752e-013
2.0729869e-005
-1.3097376e-013
2.0729869e-005
-8.1326791e-014
2.0729869e-005
-7.5857174e-014
2.0729869e-005
-1.1708628e-013
2.0729869e-005
-1.2600225e-013
2.0729869e-005
-1.1146635e-013
2.0729869e-005
-2.7749013e-014
2.0729869e-005
1.723551e-013
2.3449584e-013
2.0489148e-005
-3.1184969e-006
2.0721762e-005
-2.154272e-006
2.0741721e-005
-5.4279863e-007
2.0755834e-005
-2.0279559e-007
2.0758538e-005
-7.2943145e-008
2.0758994e-005
-2.1993795e-008
2.0759262e-005
-7.864161e-009
2.0759308e-005
-2.6197126e-009
2.0759324e-005
-8.694913e-010
2.0759331e-005
-2.9656253e-010
2.0759332e-005
-9.9197357e-011
2.0759333e-005
-3.337668e-011
2.0759333e-005
-1.1239594e-011
2.0759333e-005
-3.7553283e-012
2.0759333e-005
-1.2243321e-012
2.0759333e-005
-4.0207092e-013
2.0759333e-005
-1.2762126e-013
2.0759333e-005
-8.6956593e-014
2.0759333e-005
-9.2727968e-014
2.0759333e-005
-1.4991487e-013
2.0759333e-005
-1.7319888e-013
2.0759333e-005
-1.6695617e-013
2.0759333e-005
-8.9993064e-014
2.0759333e-005
2.1076468e-013
3.2226677e-013
2.1433175e-005
-3.3475828e-006
2.1429396e-005
-2.1504935e-006
2.1357353e-005
-4.7075489e-007
2.1346824e-005
-1.9226647e-007
2.1340402e-005
-6.6521141e-008
2.1338014e-005
-1.9605903e-008
2.1337255e-005
-7.1051892e-009
2.1336947e-005
-2.3114054e-009
2.1336848e-005
-7.7106288e-010
2.1336815e-005
-2.6334803e-010
2.1336803e-005
-8.7509487e-011
2.1336799e-005
-2.9451775e-011
2.1336798e-005
-9.8762583e-012
2.1336798e-005
-3.2742597e-012
2.1336797e-005
-1.043765e-012
2.1336797e-005
-3.2914219e-013
2.1336797e-005
-9.820328e-014
2.1336797e-005
-8.5764839e-014
2.1336797e-005
-1.166973e-013
2.1336797e-005
-2.0236934e-013
2.1336797e-005
-2.5484856e-013
2.1336797e-005
-2.944138e-013
2.1336797e-005
-2.3311996e-013
2.1336797e-005
1.0191906e-012
1.2212282e-012
2.3123155e-005
-3.7891867e-006
2.2807602e-005
-1.8349406e-006
2.262712e-005
-2.9027234e-007
2.2590512e-005
-1.5565855e-007
2.2574315e-005
-5.0323727e-008
2.2569264e-005
-1.4555429e-008
2.2567497e-005
-5.3374184e-009
2.2566841e-005
-1.6556284e-009
2.2566632e-005
-5.6271102e-010
2.2566561e-005
-1.9175477e-010
2.2566536e-005
-6.2782845e-011
2.2566528e-005
-2.1146285e-011
2.2566525e-005
-7.0230143e-012
2.2566524e-005
-2.2850393e-012
2.2566524e-005
-6.912047e-013
2.2566523e-005
-1.9702051e-013
2.2566523e-005
-4.8271913e-014
2.2566523e-005
-7.5989209e-014
2.2566523e-005
-1.355673e-013
2.2566523e-005
-2.4986877e-013
2.2566523e-005
-3.34865e-013
2.2566524e-005
-4.5221293e-013
2.2566524e-005
-4.2398023e-013
2.2566522e-005
2.5530658e-012
2.8729123e-012
2.3965322e-005
-4.3241862e-006
2.3328112e-005
-1.1977308e-006
2.3113426e-005
-7.5586655e-008
2.3057243e-005
-9.9474876e-008
2.3034371e-005
-2.7452101e-008
2.3028048e-005
-8.2318987e-009
2.3025671e-005
-2.9608356e-009
2.3024844e-005
-8.2889013e-010
2.3024582e-005
-3.0006079e-010
2.302449e-005
-9.9861287e-011
2.3024459e-005
-3.1636484e-011
2.3024448e-005
-1.0694954e-011
2.3024445e-005
-3.4586328e-012
2.3024443e-005
-1.0778269e-012
2.3024443e-005
-2.8531948e-013
2.3024443e-005
-5.9896928e-014
2.3024443e-005
-2.0214156e-015
2.3024443e-005
-5.493629e-014
2.3024443e-005
-1.19295e-013
2.3024443e-005
-2.2964471e-013
2.3024443e-005
-3.1851933e-013
2.3024443e-005
-4.7838387e-013
2.3024443e-005
-5.2071791e-013
2.3024442e-005
3.3237469e-012
3.7152399e-012
2.0551715e-005
-3.7262941e-006
1.978725e-005
-4.3326644e-007
1.9678656e-005
3.3007693e-008
1.9619491e-005
-4.0309831e-008
1.9598909e-005
-6.8698989e-009
1.95934e-005
-2.7230567e-009
1.9591289e-005
-8.4959471e-010
1.9590644e-005
-1.8407065e-010
1.9590428e-005
-8.3599487e-011
1.9590352e-005
-2.4535286e-011
1.9590328e-005
-7.1794249e-012
1.959032e-005
-2.4779831e-012
1.9590317e-005
-7.1469829e-013
1.9590316e-005
-1.9328767e-013
1.9590316e-005
-2.2165585e-014
1.9590316e-005
8.0549174e-015
1.9590316e-005
1.1540383e-014
1.9590316e-005
-2.836936e-014
1.9590315e-005
-6.0209597e-014
1.9590315e-005
-1.1837604e-013
1.9590315e-005
-1.6668175e-013
1.9590315e-005
-2.7375245e-013
1.9590315e-005
-4.1565079e-013
1.9590316e-005
1.8077776e-012
2.1440055e-012
9.9565089e-006
9.5232426e-006
9.5562503e-006
9.5159405e-006
9.5090706e-006
9.5063476e-006
9.505498e-006
9.5053139e-006
9.5052303e-006
9.5052058e-006
9.5051986e-006
9.5051961e-006
9.5051954e-006
9.5051952e-006
9.5051952e-006
9.5051951e-006
9.5051951e-006
9.5051951e-006
9.505195e-006
9.5051949e-006
9.5051947e-006
9.5051944e-006
9.505194e-006
9.5051958e-006
1.5075437e-005
2.2700042e-008
1.4959027e-005
-2.7776503e-007
1.5110275e-005
1.3114769e-007
1.5035457e-005
-1.5105054e-007
1.5078702e-005
-8.4594289e-008
1.5095603e-005
-9.5154439e-008
1.5115618e-005
-1.2032346e-007
1.5141957e-005
-1.5217851e-007
1.5175664e-005
-1.990407e-007
1.5220262e-005
-2.6529749e-007
1.5279942e-005
-3.5763674e-007
1.5360282e-005
-4.8555775e-007
1.5468701e-005
-6.6236959e-007
1.5615019e-005
-9.0684118e-007
1.5812112e-005
-1.2456182e-006
1.6076537e-005
-1.7168873e-006
1.642884e-005
-2.3760497e-006
1.6892798e-005
-3.3047142e-006
1.7490619e-005
-4.6251644e-006
1.8229967e-005
-6.5225068e-006
1.9062673e-005
-9.2731196e-006
1.9664388e-005
-1.3278002e-005
1.9304728e-005
-1.9740924e-005
1.4577935e-005
-3.2871154e-005
-3.6476464e-005
1.5062938e-005
-3.6397071e-008
1.4974618e-005
-1.8944546e-007
1.5090824e-005
1.4942336e-008
1.5050815e-005
-1.1104182e-007
1.5068577e-005
-1.0235604e-007
1.5083023e-005
-1.0960068e-007
1.509702e-005
-1.3432039e-007
1.5114741e-005
-1.6989914e-007
1.5137291e-005
-2.2159132e-007
1.5166764e-005
-2.9477015e-007
1.5205804e-005
-3.9667699e-007
1.525776e-005
-5.3751373e-007
1.5326857e-005
-7.3146613e-007
1.5418285e-005
-9.9826999e-007
1.5538104e-005
-1.365437e-006
1.5692657e-005
-1.8714397e-006
1.5886934e-005
-2.5703275e-006
1.6120468e-005
-3.5382479e-006
1.6377763e-005
-4.8824598e-006
1.6607482e-005
-6.7522256e-006
1.6679653e-005
-9.3452906e-006
1.6304546e-005
-1.2902896e-005
1.4647248e-005
-1.8083625e-005
8.3960624e-006
-2.6619969e-005
-2.8080402e-005
1.5039152e-005
-7.1707887e-008
1.5001274e-005
-1.5156822e-007
1.5064085e-005
-4.7867829e-008
1.5055163e-005
-1.0212053e-007
1.5061185e-005
-1.0837738e-007
1.5069275e-005
-1.1769117e-007
1.5076486e-005
-1.4153104e-007
1.5084817e-005
-1.7822992e-007
1.5094997e-005
-2.317721e-007
1.5107861e-005
-3.0763403e-007
1.5124378e-005
-4.1319366e-007
1.5145581e-005
-5.5871729e-007
1.5172468e-005
-7.5835266e-007
1.5205696e-005
-1.031498e-006
1.5244921e-005
-1.404662e-006
1.5287417e-005
-1.9139358e-006
1.5325314e-005
-2.6082252e-006
1.5340196e-005
-3.5531295e-006
1.5292722e-005
-4.8349854e-006
1.5103875e-005
-6.5633787e-006
1.4622936e-005
-8.8643522e-006
1.3578852e-005
-1.1858811e-005
1.1350441e-005
-1.5855214e-005
6.2998556e-006
-2.1569383e-005
-2.1780546e-005
1.5028791e-005
-9.6657939e-008
1.5017014e-005
-1.3979158e-007
1.5052556e-005
-8.340946e-008
1.5053336e-005
-1.0290085e-007
1.5054247e-005
-1.0928851e-007
1.5055715e-005
-1.1915858e-007
1.5055487e-005
-1.4130302e-007
1.5054042e-005
-1.7678542e-007
1.505136e-005
-2.2908945e-007
1.5047075e-005
-3.0334913e-007
1.5040503e-005
-4.066222e-007
1.5030444e-005
-5.4865788e-007
1.5014857e-005
-7.4276564e-007
1.4990295e-005
-1.0069365e-006
1.4950891e-005
-1.3652576e-006
1.4886596e-005
-1.8496412e-006
1.4780104e-005
-2.5017332e-006
1.4601549e-005
-3.3745741e-006
1.4299656e-005
-4.5330927e-006
1.3787447e-005
-6.0511699e-006
1.292063e-005
-7.9975345e-006
1.1469791e-005
-1.0407972e-005
9.0289173e-006
-1.3414341e-005
4.8687921e-006
-1.7409258e-005
-1.6911754e-005
1.5022319e-005
-1.1513595e-007
1.5025548e-005
-1.4302092e-007
1.5048076e-005
-1.059372e-007
1.5050232e-005
-1.0505704e-007
1.5047186e-005
-1.0624234e-007
1.5042275e-005
-1.1424773e-007
1.5034434e-005
-1.3346213e-007
1.502328e-005
-1.6563106e-007
1.5007945e-005
-2.1375426e-007
1.4986926e-005
-2.8233021e-007
1.4957994e-005
-3.7769005e-007
1.491791e-005
-5.0857451e-007
1.4861954e-005
-6.8680986e-007
1.4783191e-005
-9.2817274e-007
1.4671317e-005
-1.2533841e-006
1.4510848e-005
-1.6891725e-006
1.4278262e-005
-2.2691471e-006
1.3937625e-005
-3.0339372e-006
1.3434093e-005
-4.0295606e-006
1.2684887e-005
-5.3019635e-006
1.1568916e-005
-6.8815641e-006
9.9183478e-006
-8.7574041e-006
7.4823899e-006
-1.0978383e-005
3.8725863e-006
-1.3799454e-005
-1.3039168e-005
1.5020226e-005
-1.3152139e-007
1.5028255e-005
-1.5104929e-007
1.5040864e-005
-1.1854614e-007
1.5038982e-005
-1.0317513e-007
1.5031479e-005
-9.8740021e-008
1.502045e-005
-1.03218e-007
1.5005241e-005
-1.1825329e-007
1.4984923e-005
-1.4531335e-007
1.4957832e-005
-1.8666354e-007
1.4921416e-005
-2.4591377e-007
1.4872075e-005
-3.2834939e-007
1.4804809e-005
-4.4130803e-007
1.4712659e-005
-5.9466006e-007
1.4585907e-005
-8.0142102e-007
1.4410915e-005
-1.078392e-006
1.4168461e-005
-1.4467183e-006
1.3831403e-005
-1.932089e-006
1.3361499e-005
-2.5640337e-006
1.2705367e-005
-3.3734285e-006
1.1789985e-005
-4.3865815e-006
1.0520003e-005
-5.611582e-006
8.7804633e-006
-7.0178643e-006
6.4197698e-006
-8.6176895e-006
3.2111935e-006
-1.0590878e-005
-9.8279741e-006
1.4992872e-005
-1.2055225e-007
1.5016603e-005
-1.7478002e-007
1.5036963e-005
-1.3890697e-007
1.5035237e-005
-1.0144918e-007
1.5022852e-005
-8.6354611e-008
1.5005721e-005
-8.6087378e-008
1.4983602e-005
-9.6134414e-008
1.4955081e-005
-1.1679244e-007
1.4917711e-005
-1.4929319e-007
1.4867987e-005
-1.9618966e-007
1.4801147e-005
-2.6150986e-007
1.471075e-005
-3.5091067e-007
1.458807e-005
-4.7197995e-007
1.4421281e-005
-6.3463203e-007
1.4194369e-005
-8.5148044e-007
1.3885723e-005
-1.138072e-006
1.3466368e-005
-1.5127343e-006
1.2897944e-005
-1.9956093e-006
1.213069e-005
-2.6061744e-006
1.11022e-005
-3.3580918e-006
9.739371e-006
-4.248753e-006
7.9667264e-006
-5.2452197e-006
5.6950137e-006
-6.3459768e-006
2.782767e-006
-7.6786311e-006
-7.0452071e-006
1.533721e-005
-4.5392136e-007
1.5397653e-005
-2.3522303e-007
1.5385822e-005
-1.2707632e-007
1.5362056e-005
-7.7682658e-008
1.5339493e-005
-6.3791325e-008
1.5315433e-005
-6.2027574e-008
1.5286568e-005
-6.7270175e-008
1.5250484e-005
-8.0707981e-008
1.5203817e-005
-1.0262663e-007
1.5142152e-005
-1.3452389e-007
1.5059674e-005
-1.7903213e-007
1.4948674e-005
-2.3991128e-007
1.4798902e-005
-3.2220761e-007
1.4596742e-005
-4.3247201e-007
1.432421e-005
-5.789486e-007
1.3957776e-005
-7.7163782e-007
1.3467092e-005
-1.0220502e-006
1.2813853e-005
-1.3423707e-006
1.1951261e-005
-1.7435825e-006
1.0825039e-005
-2.2318692e-006
9.3781121e-006
-2.8018262e-006
7.5610319e-006
-3.4281395e-006
5.3217359e-006
-4.1066808e-006
2.5621375e-006
-4.9190326e-006
-4.4830696e-006
1.6148769e-005
-1.5988491e-006
1.6362909e-005
-4.4936341e-007
1.6354081e-005
-1.1824827e-007
1.6334219e-005
-5.7820909e-008
1.6308695e-005
-3.8267084e-008
1.6277563e-005
-3.0895466e-008
1.6241727e-005
-3.1434278e-008
1.6198063e-005
-3.7044554e-008
1.6142153e-005
-4.6716468e-008
1.6068625e-005
-6.0995988e-008
1.5970592e-005
-8.0998263e-008
1.5839051e-005
-1.0837048e-007
1.5662182e-005
-1.4533917e-007
1.5424495e-005
-1.9478451e-007
1.510585e-005
-2.6030416e-007
1.4680425e-005
-3.4621303e-007
1.4115769e-005
-4.5739355e-007
1.3372274e-005
-5.9887592e-007
1.2403648e-005
-7.7495654e-007
1.1159384e-005
-9.8760484e-007
9.5910413e-006
-1.2334838e-006
7.6631287e-006
-1.5002269e-006
5.3422717e-006
-1.7858236e-006
2.5537976e-006
-2.1305585e-006
-1.929272e-006
1.3404992e-005
1.2955628e-005
1.283738e-005
1.2779559e-005
1.2741292e-005
1.2710397e-005
1.2678962e-005
1.2641918e-005
1.2595201e-005
1.2534205e-005
1.2453207e-005
1.2344837e-005
1.2199497e-005
1.2004713e-005
1.1744409e-005
1.1398196e-005
1.0940802e-005
1.0341926e-005
9.5669697e-006
8.5793648e-006
7.345881e-006
5.8456541e-006
4.0598305e-006
1.929272e-006
)
;

boundaryField
{
    inlet
    {
        type            calculated;
        value           nonuniform List<scalar> 
20
(
-5.0012803e-006
-5.0012803e-006
-5.0012803e-006
-5.0012803e-006
-5.0012803e-006
-5.0012803e-006
-5.0012803e-006
-5.0012803e-006
-5.0012803e-006
-5.0012803e-006
-1.5003841e-005
-1.5003841e-005
-1.5003841e-005
-1.5003841e-005
-1.5003841e-005
-1.5003841e-005
-1.5003841e-005
-1.5003841e-005
-1.5003841e-005
-1.5003841e-005
)
;
    }
    walls
    {
        type            calculated;
        value           uniform 0;
    }
    outlet
    {
        type            calculated;
        value           nonuniform List<scalar> 10(2.0859888e-005 2.0858619e-005 2.0820228e-005 2.072987e-005 2.0759333e-005 2.1336796e-005 2.2566521e-005 2.3024441e-005 1.9590318e-005 9.505198e-006);
    }
    centreline
    {
        type            symmetryPlane;
        value           uniform 0;
    }
    frontAndBack
    {
        type            empty;
        value           nonuniform 0();
    }
}


// ************************************************************************* //
