/*--------------------------------*- C++ -*----------------------------------*\
| =========                 |                                                 |
| \\      /  F ield         | OpenFOAM: The Open Source CFD Toolbox           |
|  \\    /   O peration     | Version:  5.x                                   |
|   \\  /    A nd           | Web:      www.OpenFOAM.org                      |
|    \\/     M anipulation  |                                                 |
\*---------------------------------------------------------------------------*/
/*   Windows 32 and 64 bit porting by blueCAPE: http://www.bluecape.com.pt   *\
|  Based on Windows porting (2.0.x v4) by Symscape: http://www.symscape.com   |
\*---------------------------------------------------------------------------*/
FoamFile
{
    version     2.0;
    format      ascii;
    class       volSymmTensorField;
    location    "0.01";
    object      sigma_0;
}
// * * * * * * * * * * * * * * * * * * * * * * * * * * * * * * * * * * * * * //

dimensions      [0 2 -2 0 0 0 0];

internalField   nonuniform List<symmTensor> 
750
(
(0.00017277482 6.6785814e-006 0 -3.7867759e-005 0 0)
(-0.00031122332 -8.3584877e-007 0 8.0103463e-005 0 0)
(0.0001894982 -4.2277675e-006 0 -5.2005038e-005 0 0)
(-8.5961127e-005 4.1307597e-006 0 2.8119221e-005 0 0)
(1.9215366e-005 -1.8069357e-006 0 -1.5998915e-006 0 0)
(-1.1594667e-005 8.1745817e-007 0 7.5816906e-006 0 0)
(-7.7946971e-006 1.8525833e-007 0 8.3402288e-006 0 0)
(-1.1078062e-005 4.0834664e-007 0 1.106108e-005 0 0)
(-1.4882382e-005 5.6370349e-007 0 1.4847381e-005 0 0)
(-2.0151139e-005 7.8303024e-007 0 2.0130953e-005 0 0)
(-2.7354775e-005 1.0834988e-006 0 2.7316751e-005 0 0)
(-3.7506102e-005 1.5078435e-006 0 3.744667e-005 0 0)
(-5.1538123e-005 2.1010858e-006 0 5.1441953e-005 0 0)
(-7.1128753e-005 2.9442689e-006 0 7.0968008e-005 0 0)
(-9.8649838e-005 4.1580938e-006 0 9.8372905e-005 0 0)
(-0.0001376576 5.9333812e-006 0 0.00013716644 0 0)
(-0.00019357656 8.5753163e-006 0 0.00019267195 0 0)
(-0.0002749098 1.2586483e-005 0 0.00027321903 0 0)
(-0.00039504404 1.8774288e-005 0 0.00039178351 0 0)
(-0.00057520946 2.8135706e-005 0 0.00056788483 0 0)
(-0.00084659985 4.3143424e-005 0 0.00083720551 0 0)
(-0.0012885078 6.0712075e-005 0 0.0012413179 0 0)
(-0.0017771717 7.8341105e-005 0 0.0017810109 0 0)
(-0.002678362 7.3534076e-005 0 0.0024324019 0 0)
(-0.0027849561 -9.5618972e-005 0 0.0029412016 0 0)
(0.00017497344 1.3030626e-005 0 -3.8528634e-006 0 0)
(-0.00031420996 -1.5454749e-006 0 1.7568865e-005 0 0)
(0.000190479 -7.4566094e-006 0 -7.4167846e-006 0 0)
(-8.5459206e-005 7.5501945e-006 0 7.7153771e-006 0 0)
(1.8541388e-005 -2.9458644e-006 0 4.9997749e-006 0 0)
(-1.1167354e-005 1.5627428e-006 0 6.527182e-006 0 0)
(-7.8772635e-006 6.8048895e-007 0 8.328896e-006 0 0)
(-1.0991249e-005 1.2152482e-006 0 1.0974083e-005 0 0)
(-1.4773865e-005 1.683806e-006 0 1.4678093e-005 0 0)
(-2.0013289e-005 2.3425056e-006 0 1.9922854e-005 0 0)
(-2.7190731e-005 3.241418e-006 0 2.7055256e-005 0 0)
(-3.7247441e-005 4.5048705e-006 0 3.7054099e-005 0 0)
(-5.1176883e-005 6.2744812e-006 0 5.0894979e-005 0 0)
(-7.0612208e-005 8.7876766e-006 0 7.0191746e-005 0 0)
(-9.7900035e-005 1.2403035e-005 0 9.7256602e-005 0 0)
(-0.00013655002 1.7685915e-005 0 0.00013553592 0 0)
(-0.00019191415 2.554143e-005 0 0.0001902527 0 0)
(-0.00027236232 3.7454452e-005 0 0.00026957171 0 0)
(-0.00039111383 5.5805903e-005 0 0.00038618742 0 0)
(-0.00056937015 8.3782355e-005 0 0.00055956753 0 0)
(-0.0008382944 0.00012775735 0 0.00082604944 0 0)
(-0.0012795666 0.00018402409 0 0.0012225209 0 0)
(-0.0017742665 0.00023305461 0 0.0017910372 0 0)
(-0.0027256113 0.00023634725 0 0.0024232005 0 0)
(-0.0028486242 -0.00029238994 0 0.0031095321 0 0)
(0.00017723893 1.3548e-005 0 3.4838493e-006 0 0)
(-0.00031749962 -1.6659412e-006 0 3.0305808e-006 0 0)
(0.00019149587 -7.5557902e-006 0 3.1854996e-006 0 0)
(-8.488792e-005 7.8251185e-006 0 2.1268195e-006 0 0)
(1.7817587e-005 -2.3719077e-006 0 6.5134115e-006 0 0)
(-1.0723662e-005 1.7313892e-006 0 6.0073473e-006 0 0)
(-7.8751765e-006 1.2900859e-006 0 8.2743454e-006 0 0)
(-1.0834398e-005 2.0054879e-006 0 1.0842833e-005 0 0)
(-1.4585365e-005 2.7944549e-006 0 1.4488367e-005 0 0)
(-1.9754218e-005 3.8900396e-006 0 1.966744e-005 0 0)
(-2.6829411e-005 5.3784675e-006 0 2.6699307e-005 0 0)
(-3.6743004e-005 7.4723579e-006 0 3.6557069e-005 0 0)
(-5.0464408e-005 1.0403897e-005 0 5.0193282e-005 0 0)
(-6.9592528e-005 1.4565256e-005 0 6.9188007e-005 0 0)
(-9.6419448e-005 2.0548711e-005 0 9.580013e-005 0 0)
(-0.00013436311 2.9287295e-005 0 0.00013338622 0 0)
(-0.00018862232 4.2277134e-005 0 0.00018701896 0 0)
(-0.00026732643 6.1979444e-005 0 0.00026463243 0 0)
(-0.0003833311 9.2341877e-005 0 0.00037852943 0 0)
(-0.0005574619 0.00013903373 0 0.00054784979 0 0)
(-0.00082148755 0.00021201869 0 0.000809697 0 0)
(-0.001262269 0.00030945283 0 0.0012021978 0 0)
(-0.0017650629 0.00039206284 0 0.001789796 0 0)
(-0.0028202363 0.00042054855 0 0.0024756632 0 0)
(-0.0029775715 -0.00050162197 0 0.0032876926 0 0)
(0.00017952761 1.4854526e-005 0 -2.3807183e-006 0 0)
(-0.00032097875 -1.8894739e-006 0 1.338268e-005 0 0)
(0.00019266568 -8.4363252e-006 0 -3.9738264e-006 0 0)
(-8.4174946e-005 8.7694434e-006 0 5.0098992e-006 0 0)
(1.7045547e-005 -2.1133271e-006 0 5.5916606e-006 0 0)
(-1.0256015e-005 2.0353773e-006 0 5.9516204e-006 0 0)
(-7.8103392e-006 1.8899593e-006 0 8.1318496e-006 0 0)
(-1.0615965e-005 2.7796582e-006 0 1.0643444e-005 0 0)
(-1.430355e-005 3.8852712e-006 0 1.4218466e-005 0 0)
(-1.9368317e-005 5.410051e-006 0 1.9296764e-005 0 0)
(-2.6291173e-005 7.4761668e-006 0 2.6182869e-005 0 0)
(-3.5992157e-005 1.0384293e-005 0 3.5835967e-005 0 0)
(-4.9404368e-005 1.4452688e-005 0 4.9174687e-005 0 0)
(-6.8076681e-005 2.0223075e-005 0 6.7730455e-005 0 0)
(-9.4220522e-005 2.8512375e-005 0 9.368419e-005 0 0)
(-0.00013111832 4.0605163e-005 0 0.00013026105 0 0)
(-0.00018374265 5.8561119e-005 0 0.00018231421 0 0)
(-0.00025986011 8.5778877e-005 0 0.0002574256 0 0)
(-0.00037177411 0.00012773313 0 0.00036733882 0 0)
(-0.00053970008 0.00019264843 0 0.00053063825 0 0)
(-0.00079586122 0.00029450867 0 0.00078468514 0 0)
(-0.0012347916 0.00043762237 0 0.0011736665 0 0)
(-0.0017476616 0.00056697868 0 0.0017753382 0 0)
(-0.0029669275 0.00063070431 0 0.0025876114 0 0)
(-0.0031719506 -0.00075826651 0 0.0035107728 0 0)
(0.00018209159 1.7209078e-005 0 -6.1448708e-006 0 0)
(-0.00032495089 -2.1659178e-006 0 2.0351783e-005 0 0)
(0.00019404376 -9.9340397e-006 0 -8.6829695e-006 0 0)
(-8.3280588e-005 1.0321936e-005 0 6.9147239e-006 0 0)
(1.6140599e-005 -2.1585041e-006 0 5.2641446e-006 0 0)
(-9.7203008e-006 2.3674903e-006 0 5.8709327e-006 0 0)
(-7.6916154e-006 2.4612546e-006 0 7.9267915e-006 0 0)
(-1.0335888e-005 3.5358379e-006 0 1.0371299e-005 0 0)
(-1.3928491e-005 4.9486501e-006 0 1.3846389e-005 0 0)
(-1.8854963e-005 6.8915547e-006 0 1.8785205e-005 0 0)
(-2.558402e-005 9.5212417e-006 0 2.5479083e-005 0 0)
(-3.5000803e-005 1.3219084e-005 0 3.4849441e-005 0 0)
(-4.8005834e-005 1.8388574e-005 0 4.7783367e-005 0 0)
(-6.6079693e-005 2.5712041e-005 0 6.5744493e-005 0 0)
(-9.1328642e-005 3.6217274e-005 0 9.0809653e-005 0 0)
(-0.0001268594 5.1517087e-005 0 0.00012603 0 0)
(-0.00017734978 7.4197993e-005 0 0.00017596709 0 0)
(-0.00025007802 0.0001085462 0 0.00024771903 0 0)
(-0.00035660522 0.00016150031 0 0.00035227404 0 0)
(-0.00051625961 0.00024383549 0 0.00050734312 0 0)
(-0.00076086684 0.00037522622 0 0.00074971569 0 0)
(-0.0011942053 0.00056763451 0 0.0011303433 0 0)
(-0.0017198014 0.00076205357 0 0.0017490422 0 0)
(-0.0031865295 0.00087612923 0 0.0027470777 0 0)
(-0.0034419125 -0.0011187661 0 0.003791151 0 0)
(0.0001850623 2.0240449e-005 0 -9.1327709e-006 0 0)
(-0.00032957828 -2.4766676e-006 0 2.5750591e-005 0 0)
(0.00019566403 -1.1835511e-005 0 -1.2516197e-005 0 0)
(-8.2195889e-005 1.2249145e-005 0 8.2534444e-006 0 0)
(1.5064798e-005 -2.3722334e-006 0 4.9675371e-006 0 0)
(-9.0993863e-006 2.6999784e-006 0 5.6966969e-006 0 0)
(-7.520893e-006 3.0113128e-006 0 7.6750797e-006 0 0)
(-9.9943628e-006 4.2682975e-006 0 1.0031216e-005 0 0)
(-1.3463957e-005 5.9779411e-006 0 1.3380803e-005 0 0)
(-1.8219282e-005 8.3241831e-006 0 1.8144915e-005 0 0)
(-2.4712195e-005 1.1499496e-005 0 2.460197e-005 0 0)
(-3.3777406e-005 1.5956177e-005 0 3.3619141e-005 0 0)
(-4.6281301e-005 2.2182832e-005 0 4.6050035e-005 0 0)
(-6.3619679e-005 3.0992903e-005 0 6.3273613e-005 0 0)
(-8.77696e-005 4.3611738e-005 0 8.7238005e-005 0 0)
(-0.00012162189 6.1957574e-005 0 0.00012077947 0 0)
(-0.00016948976 8.9104694e-005 0 0.00016809728 0 0)
(-0.000238033 0.00013016663 0 0.00023567439 0 0)
(-0.0003378267 0.00019350055 0 0.00033350112 0 0)
(-0.00048681196 0.00029261748 0 0.0004779096 0 0)
(-0.00071587782 0.00045302662 0 0.00070452435 0 0)
(-0.0011370992 0.00069745435 0 0.0010698279 0 0)
(-0.001676594 0.00099249439 0 0.0017052776 0 0)
(-0.0035256745 0.0011758839 0 0.0029915938 0 0)
(-0.003930258 -0.0016206406 0 0.0042519421 0 0)
(0.00018857526 2.4247807e-005 0 -1.3780874e-005 0 0)
(-0.00033505982 -2.8268263e-006 0 3.4288866e-005 0 0)
(0.00019757735 -1.4342426e-005 0 -1.8381287e-005 0 0)
(-8.0886965e-005 1.4671771e-005 0 1.0341313e-005 0 0)
(1.3769607e-005 -2.7953716e-006 0 4.5478337e-006 0 0)
(-8.3735052e-006 3.0466978e-006 0 5.4525609e-006 0 0)
(-7.3030453e-006 3.5406381e-006 0 7.3888277e-006 0 0)
(-9.5922594e-006 4.971557e-006 0 9.6325775e-006 0 0)
(-1.2915101e-005 6.9680027e-006 0 1.2839856e-005 0 0)
(-1.7468269e-005 9.7013586e-006 0 1.740035e-005 0 0)
(-2.3678067e-005 1.3398646e-005 0 2.3578051e-005 0 0)
(-3.2330846e-005 1.8580573e-005 0 3.2187135e-005 0 0)
(-4.4244078e-005 2.581385e-005 0 4.4033995e-005 0 0)
(-6.0717316e-005 3.6032954e-005 0 6.0402722e-005 0 0)
(-8.3577289e-005 5.0643187e-005 0 8.3093634e-005 0 0)
(-0.00011546305 7.1837368e-005 0 0.00011469558 0 0)
(-0.00016025814 0.00010312529 0 0.00015898692 0 0)
(-0.00022388002 0.00015036846 0 0.00022172156 0 0)
(-0.00031563393 0.0002232313 0 0.00031163664 0 0)
(-0.00045138768 0.00033795261 0 0.00044306576 0 0)
(-0.000659453 0.00052759764 0 0.00064887639 0 0)
(-0.0010591016 0.00082581149 0 0.00099105511 0 0)
(-0.0016082745 0.0012703245 0 0.0016388049 0 0)
(-0.0039956518 0.0015802521 0 0.0033753478 0 0)
(-0.004878863 -0.0018807115 0 0.0052660757 0 0)
(0.0001929018 3.0481754e-005 0 -2.1923057e-005 0 0)
(-0.00034175095 -3.1719016e-006 0 4.8812052e-005 0 0)
(0.00019984484 -1.8175428e-005 0 -2.837298e-005 0 0)
(-7.9275915e-005 1.810555e-005 0 1.3560519e-005 0 0)
(1.218144e-005 -3.5917087e-006 0 4.2586962e-006 0 0)
(-7.5155626e-006 3.4075621e-006 0 5.0970614e-006 0 0)
(-7.0443461e-006 4.0542322e-006 0 7.0779512e-006 0 0)
(-9.1302237e-006 5.6402049e-006 0 9.1900888e-006 0 0)
(-1.228975e-005 7.9184095e-006 0 1.2246724e-005 0 0)
(-1.661278e-005 1.1020488e-005 0 1.6583666e-005 0 0)
(-2.2487565e-005 1.5205795e-005 0 2.2442131e-005 0 0)
(-3.0678138e-005 2.1077824e-005 0 3.0610019e-005 0 0)
(-4.1922344e-005 2.9258165e-005 0 4.1818035e-005 0 0)
(-5.7419181e-005 4.0792436e-005 0 5.725415e-005 0 0)
(-7.8832101e-005 5.7243988e-005 0 7.856272e-005 0 0)
(-0.0001085252 8.1037902e-005 0 0.00010806951 0 0)
(-0.00014991414 0.00011604129 0 0.00014910713 0 0)
(-0.0002081223 0.0001687401 0 0.00020667054 0 0)
(-0.00029097488 0.00024980364 0 0.00028808335 0 0)
(-0.00041182774 0.00037786128 0 0.00040535182 0 0)
(-0.00059499521 0.00059383616 0 0.00058700768 0 0)
(-0.00095309555 0.00095396984 0 0.0008886968 0 0)
(-0.0014934485 0.0016007251 0 0.0015292001 0 0)
(-0.0044845779 0.0022823167 0 0.0037947322 0 0)
(-0.0060315227 -0.00089484725 0 0.0065221 0 0)
(0.00019874303 4.0557699e-005 0 -2.5453646e-005 0 0)
(-0.00035064267 -3.6071588e-006 0 5.372858e-005 0 0)
(0.00020263254 -2.4426149e-005 0 -3.1809519e-005 0 0)
(-7.7134786e-005 2.3564797e-005 0 1.344528e-005 0 0)
(1.0091798e-005 -4.9835253e-006 0 4.7207956e-006 0 0)
(-6.4631157e-006 3.7252939e-006 0 4.6545035e-006 0 0)
(-6.7482083e-006 4.5730488e-006 0 6.6681535e-006 0 0)
(-8.6143887e-006 6.2749979e-006 0 8.6606895e-006 0 0)
(-1.1580965e-005 8.8253275e-006 0 1.1525783e-005 0 0)
(-1.5637774e-005 1.2272912e-005 0 1.558526e-005 0 0)
(-2.1164173e-005 1.6942654e-005 0 2.1087582e-005 0 0)
(-2.8820201e-005 2.3459403e-005 0 2.8708645e-005 0 0)
(-3.9313494e-005 3.2536769e-005 0 3.9148195e-005 0 0)
(-5.37173e-005 4.5312517e-005 0 5.3465821e-005 0 0)
(-7.3509823e-005 6.349179e-005 0 7.3116442e-005 0 0)
(-0.0001007481 8.9709117e-005 0 0.00010011211 0 0)
(-0.00013832002 0.00012815101 0 0.0001372467 0 0)
(-0.00019037023 0.00018582031 0 0.00018851209 0 0)
(-0.0002629663 0.00027436566 0 0.000259409 0 0)
(-0.00036603375 0.00041524377 0 0.00035850083 0 0)
(-0.000514931 0.00065503515 0 0.00050322503 0 0)
(-0.00080428568 0.0010786019 0 0.00072894378 0 0)
(-0.0012426801 0.0020196409 0 0.0012276841 0 0)
(-0.0043768087 0.0033811263 0 0.0033491935 0 0)
(-0.0061213366 0.0024761071 0 0.0058878786 0 0)
(0.00020705219 5.0061683e-005 0 -6.4268657e-006 0 0)
(-0.00036310255 -3.964883e-006 0 1.8051603e-005 0 0)
(0.0002063641 -3.0492193e-005 0 -5.1911909e-006 0 0)
(-7.4086956e-005 2.8898563e-005 0 2.7561474e-006 0 0)
(7.0843284e-006 -6.0985142e-006 0 5.6160899e-006 0 0)
(-5.1104141e-006 3.84816e-006 0 4.4264731e-006 0 0)
(-6.4053182e-006 5.0870543e-006 0 6.0321629e-006 0 0)
(-8.0591189e-006 6.8754593e-006 0 7.9401875e-006 0 0)
(-1.0791373e-005 9.6669839e-006 0 1.0538588e-005 0 0)
(-1.4553888e-005 1.3431415e-005 0 1.422062e-005 0 0)
(-1.9703217e-005 1.8563221e-005 0 1.924346e-005 0 0)
(-2.6772016e-005 2.5668323e-005 0 2.6131581e-005 0 0)
(-3.6442118e-005 3.5563564e-005 0 3.554132e-005 0 0)
(-4.9654448e-005 4.9460613e-005 0 4.8371667e-005 0 0)
(-6.7690963e-005 6.9176188e-005 0 6.5837313e-005 0 0)
(-9.2292023e-005 9.7502537e-005 0 8.9564709e-005 0 0)
(-0.00012580894 0.00013884085 0 0.00012169501 0 0)
(-0.00017138878 0.00020044892 0 0.0001650164 0 0)
(-0.00023339264 0.00029455623 0 0.00022292592 0 0)
(-0.00031768081 0.000443963 0 0.00029947741 0 0)
(-0.00042884794 0.00069699616 0 0.00039741074 0 0)
(-0.00061198086 0.0011463713 0 0.00050204085 0 0)
(-0.00081500053 0.0023023654 0 0.00068682314 0 0)
(-0.0027750187 0.0040513818 0 0.0014148313 0 0)
(-0.0022425678 0.0051200814 0 0.0016005905 0 0)
(-0.0012412556 -0.00016033274 0 0.00095769061 0 0)
(-0.00032549063 -5.27898e-005 0 0.00045035337 0 0)
(-0.0002331546 -2.5263657e-005 0 0.00018380099 0 0)
(-5.1306439e-005 -1.253552e-005 0 5.9365394e-005 0 0)
(-2.2666216e-005 -5.044335e-006 0 2.2269811e-005 0 0)
(-8.4242299e-006 -3.1281967e-006 0 7.7492808e-006 0 0)
(-2.6470546e-006 -2.3639119e-006 0 2.7718659e-006 0 0)
(-9.6961199e-007 -2.0425119e-006 0 9.340265e-007 0 0)
(-3.3233826e-007 -1.9484129e-006 0 3.2403341e-007 0 0)
(-1.0854905e-007 -1.9131719e-006 0 1.0881173e-007 0 0)
(-3.8351262e-008 -1.9012347e-006 0 3.7489411e-008 0 0)
(-1.3408116e-008 -1.8973021e-006 0 1.3187055e-008 0 0)
(-4.4281213e-009 -1.8958465e-006 0 4.3425189e-009 0 0)
(-1.4783677e-009 -1.8953607e-006 0 1.4590881e-009 0 0)
(-4.5843836e-010 -1.8951954e-006 0 4.9020108e-010 0 0)
(-1.3202148e-010 -1.8951371e-006 0 1.6846938e-010 0 0)
(-6.1508322e-011 -1.8951178e-006 0 7.8888567e-011 0 0)
(-1.0997203e-010 -1.8951051e-006 0 6.1413824e-011 0 0)
(-2.1744001e-010 -1.8951004e-006 0 1.152466e-010 0 0)
(-3.7383885e-010 -1.8950977e-006 0 1.4873636e-010 0 0)
(-5.8997872e-010 -1.8950836e-006 0 2.8860124e-010 0 0)
(-9.6885371e-010 -1.8950505e-006 0 4.8804269e-010 0 0)
(-7.0105498e-010 -1.8949037e-006 0 9.3348561e-010 0 0)
(-2.7464103e-009 -1.8950995e-006 0 2.2253402e-009 0 0)
(-2.8162314e-009 -1.8933432e-006 0 1.5970796e-009 0 0)
(-0.0012351877 -0.00048448909 0 0.00084027339 0 0)
(-0.00029059826 -0.00013768856 0 0.00046335237 0 0)
(-0.00022363316 -7.0251502e-005 0 0.00015639146 0 0)
(-4.6180295e-005 -2.6080049e-005 0 5.4914151e-005 0 0)
(-2.0361651e-005 -6.0103648e-006 0 2.0155377e-005 0 0)
(-7.7877353e-006 -3.2115695e-007 0 6.7114174e-006 0 0)
(-2.3611444e-006 1.9462304e-006 0 2.4802967e-006 0 0)
(-8.7039142e-007 2.8428147e-006 0 8.1941723e-007 0 0)
(-3.009592e-007 3.1156829e-006 0 2.84058e-007 0 0)
(-9.7348776e-008 3.2168129e-006 0 9.6140909e-008 0 0)
(-3.4621002e-008 3.2507207e-006 0 3.2985239e-008 0 0)
(-1.2032944e-008 3.2621135e-006 0 1.1515818e-008 0 0)
(-4.0764329e-009 3.2662017e-006 0 3.929496e-009 0 0)
(-1.4329709e-009 3.2675735e-006 0 1.3694874e-009 0 0)
(-5.0788823e-010 3.2680492e-006 0 4.7035961e-010 0 0)
(-2.3427662e-010 3.2682046e-006 0 1.7648765e-010 0 0)
(-1.6488701e-010 3.2682688e-006 0 7.2749533e-011 0 0)
(-2.2083769e-010 3.2682956e-006 0 3.5855884e-011 0 0)
(-3.2263246e-010 3.2683079e-006 0 2.9715877e-011 0 0)
(-4.8182582e-010 3.2683186e-006 0 4.0074669e-011 0 0)
(-6.725322e-010 3.2683493e-006 0 1.109836e-010 0 0)
(-1.0039769e-009 3.2684089e-006 0 3.0453926e-010 0 0)
(-8.1143172e-010 3.2686466e-006 0 7.5787205e-010 0 0)
(-2.0174712e-009 3.2683663e-006 0 1.7044174e-009 0 0)
(-1.9628825e-009 3.2700924e-006 0 1.1562292e-009 0 0)
(-0.001212111 -0.00080189479 0 0.00074692235 0 0)
(-0.00022158712 -0.00018376053 0 0.00043036448 0 0)
(-0.00020652274 -8.9026185e-005 0 0.00012874018 0 0)
(-3.520858e-005 -9.6765257e-006 0 4.6035706e-005 0 0)
(-1.6350653e-005 2.0206715e-005 0 1.6481775e-005 0 0)
(-6.4980566e-006 2.9405816e-005 0 5.3144518e-006 0 0)
(-1.8166659e-006 3.3046039e-005 0 1.9783895e-006 0 0)
(-7.1171773e-007 3.4398807e-005 0 6.4998219e-007 0 0)
(-2.5577841e-007 3.4833053e-005 0 2.2206998e-007 0 0)
(-9.5365545e-008 3.4987712e-005 0 7.6560175e-008 0 0)
(-4.6233852e-008 3.5040571e-005 0 2.5966934e-008 0 0)
(-2.8563932e-008 3.5058209e-005 0 9.1574634e-009 0 0)
(-2.2227481e-008 3.5064611e-005 0 3.1086397e-009 0 0)
(-2.0160406e-008 3.5066725e-005 0 1.0822672e-009 0 0)
(-1.9431238e-008 3.5067463e-005 0 3.6982438e-010 0 0)
(-1.9223009e-008 3.50677e-005 0 1.3978477e-010 0 0)
(-1.9176575e-008 3.5067794e-005 0 5.114575e-011 0 0)
(-1.9240425e-008 3.506783e-005 0 1.2477299e-011 0 0)
(-1.9343625e-008 3.5067848e-005 0 9.0713829e-013 0 0)
(-1.9500617e-008 3.5067867e-005 0 7.0329092e-012 0 0)
(-1.9684951e-008 3.506791e-005 0 5.2469522e-011 0 0)
(-2.0000063e-008 3.5067996e-005 0 2.5769379e-010 0 0)
(-1.9843555e-008 3.5068204e-005 0 7.3506338e-010 0 0)
(-2.1062902e-008 3.5067964e-005 0 1.5183264e-009 0 0)
(-2.0984184e-008 3.5068e-005 0 9.6897665e-010 0 0)
(-0.0011629704 -0.0011544708 0 0.00063921698 0 0)
(-0.00011431432 -0.00022470602 0 0.00035213368 0 0)
(-0.00018280567 -0.00010033795 0 9.5926174e-005 0 0)
(-1.8975516e-005 1.1227988e-005 0 3.2108236e-005 0 0)
(-1.0914986e-005 4.9222266e-005 0 1.109424e-005 0 0)
(-4.6708003e-006 6.1230438e-005 0 3.4334426e-006 0 0)
(-1.1075337e-006 6.5929063e-005 0 1.2667814e-006 0 0)
(-5.2411524e-007 6.7611447e-005 0 4.1361311e-007 0 0)
(-2.2451057e-007 6.8170236e-005 0 1.381473e-007 0 0)
(-1.2285647e-007 6.8359674e-005 0 4.9051406e-008 0 0)
(-9.249123e-008 6.8427572e-005 0 1.6366208e-008 0 0)
(-8.128521e-008 6.844992e-005 0 5.7438461e-009 0 0)
(-7.7308347e-008 6.845796e-005 0 1.9343025e-009 0 0)
(-7.602467e-008 6.8460615e-005 0 6.6554581e-010 0 0)
(-7.5568778e-008 6.8461543e-005 0 2.2640841e-010 0 0)
(-7.544617e-008 6.8461841e-005 0 8.5182048e-011 0 0)
(-7.5433347e-008 6.8461954e-005 0 2.991357e-011 0 0)
(-7.5507627e-008 6.8461997e-005 0 6.8063379e-012 0 0)
(-7.561264e-008 6.8462015e-005 0 1.5150978e-013 0 0)
(-7.5764572e-008 6.8462037e-005 0 8.5429804e-012 0 0)
(-7.5936374e-008 6.8462094e-005 0 4.2047138e-011 0 0)
(-7.6224082e-008 6.8462225e-005 0 2.2148789e-010 0 0)
(-7.6116056e-008 6.8462482e-005 0 6.6293008e-010 0 0)
(-7.7280766e-008 6.846215e-005 0 1.6460493e-009 0 0)
(-7.7148826e-008 6.8460508e-005 0 1.1457178e-009 0 0)
(-0.0010937117 -0.0017571061 0 0.00047007727 0 0)
(3.6355468e-005 -0.00045656017 0 0.00024122708 0 0)
(-0.00015214856 -0.00028472015 0 5.0059288e-005 0 0)
(1.6328318e-006 -0.00014407969 0 1.4527414e-005 0 0)
(-4.3767039e-006 -9.9876099e-005 0 4.4354985e-006 0 0)
(-2.4358096e-006 -8.5848738e-005 0 1.1327886e-006 0 0)
(-2.3318486e-007 -8.0456719e-005 0 4.1764993e-007 0 0)
(-2.573839e-007 -7.8575897e-005 0 1.2788379e-007 0 0)
(-1.4522279e-007 -7.7942224e-005 0 4.1212715e-008 0 0)
(-1.0770864e-007 -7.7732839e-005 0 1.5019914e-008 0 0)
(-1.0052074e-007 -7.7655714e-005 0 4.8982978e-009 0 0)
(-9.6815375e-008 -7.7630293e-005 0 1.6942904e-009 0 0)
(-9.5588608e-008 -7.7621382e-005 0 5.7461582e-010 0 0)
(-9.5208718e-008 -7.7618402e-005 0 1.9905258e-010 0 0)
(-9.5068082e-008 -7.761736e-005 0 6.9237218e-011 0 0)
(-9.5046255e-008 -7.7617028e-005 0 2.7369451e-011 0 0)
(-9.507236e-008 -7.7616895e-005 0 1.0642538e-011 0 0)
(-9.5159533e-008 -7.7616848e-005 0 4.9750747e-012 0 0)
(-9.5266469e-008 -7.7616831e-005 0 4.9975362e-013 0 0)
(-9.5413085e-008 -7.7616814e-005 0 1.1725051e-011 0 0)
(-9.5567598e-008 -7.761676e-005 0 3.3304675e-011 0 0)
(-9.5824594e-008 -7.7616607e-005 0 1.678644e-010 0 0)
(-9.5770616e-008 -7.7616268e-005 0 5.7563651e-010 0 0)
(-9.7769848e-008 -7.7616762e-005 0 2.655019e-009 0 0)
(-9.7602102e-008 -7.7622823e-005 0 2.2064355e-009 0 0)
(-0.0011029194 -0.0029603338 0 0.0002802346 0 0)
(0.00023060144 -0.0011905311 0 8.1650411e-005 0 0)
(-0.00011823626 -0.00094958982 0 -1.5572675e-005 0 0)
(1.7808738e-005 -0.00078305243 0 -6.6202477e-006 0 0)
(-5.0567733e-006 -0.00073456035 0 -3.3828133e-006 0 0)
(-7.8745116e-006 -0.00071928333 0 -1.4878561e-006 0 0)
(-7.1695954e-006 -0.00071356485 0 -5.295207e-007 0 0)
(-7.8357753e-006 -0.00071160066 0 -1.9332589e-007 0 0)
(-7.9240459e-006 -0.00071093489 0 -6.5972376e-008 0 0)
(-7.953422e-006 -0.00071071283 0 -2.2840214e-008 0 0)
(-7.9707309e-006 -0.00071063601 0 -7.9868327e-009 0 0)
(-7.9751385e-006 -0.00071060923 0 -2.7257232e-009 0 0)
(-7.9767348e-006 -0.00071060008 0 -9.2700776e-010 0 0)
(-7.9773066e-006 -0.00071059697 0 -3.1882617e-010 0 0)
(-7.9774941e-006 -0.00071059589 0 -1.0849096e-010 0 0)
(-7.9775771e-006 -0.00071059552 0 -4.0593578e-011 0 0)
(-7.9776465e-006 -0.00071059538 0 -1.3136816e-011 0 0)
(-7.9777493e-006 -0.00071059533 0 -1.1213957e-012 0 0)
(-7.9778624e-006 -0.00071059532 0 2.421726e-012 0 0)
(-7.9780063e-006 -0.00071059531 0 1.3046126e-011 0 0)
(-7.9781433e-006 -0.00071059527 0 1.9312369e-011 0 0)
(-7.9783533e-006 -0.00071059511 0 1.0545341e-010 0 0)
(-7.9783681e-006 -0.0007105945 0 4.5967283e-010 0 0)
(-7.9829033e-006 -0.00071059502 0 5.4162159e-009 0 0)
(-7.9828925e-006 -0.00071060217 0 5.1476133e-009 0 0)
(-0.001374657 -0.0044666981 0 0.0002322189 0 0)
(0.00047841463 -0.0021180748 0 -0.00015375167 0 0)
(-9.2353925e-005 -0.0018389684 0 -0.00010367499 0 0)
(1.2477687e-005 -0.0016575808 0 -3.1482609e-005 0 0)
(-3.0254669e-005 -0.0016098792 0 -1.2407752e-005 0 0)
(-3.8464359e-005 -0.0015952619 0 -4.3065311e-006 0 0)
(-3.9361563e-005 -0.0015899079 0 -1.5619282e-006 0 0)
(-4.0713199e-005 -0.0015880638 0 -5.3818487e-007 0 0)
(-4.1011554e-005 -0.0015874504 0 -1.8082008e-007 0 0)
(-4.1112539e-005 -0.0015872443 0 -6.2319423e-008 0 0)
(-4.1154915e-005 -0.0015871733 0 -2.1188278e-008 0 0)
(-4.1167053e-005 -0.0015871502 0 -7.7099039e-009 0 0)
(-4.1171863e-005 -0.0015871412 0 -2.517608e-009 0 0)
(-4.1173414e-005 -0.0015871383 0 -8.717128e-010 0 0)
(-4.1173943e-005 -0.0015871373 0 -2.9843715e-010 0 0)
(-4.1174137e-005 -0.001587137 0 -1.0969606e-010 0 0)
(-4.1174247e-005 -0.0015871369 0 -3.9007723e-011 0 0)
(-4.117437e-005 -0.0015871368 0 -7.5460285e-012 0 0)
(-4.1174494e-005 -0.0015871368 0 3.5995092e-012 0 0)
(-4.1174639e-005 -0.0015871368 0 1.0636965e-011 0 0)
(-4.1174758e-005 -0.0015871367 0 -9.920359e-012 0 0)
(-4.1174854e-005 -0.0015871365 0 -1.3492731e-011 0 0)
(-4.1175002e-005 -0.0015871353 0 2.406825e-010 0 0)
(-4.1181392e-005 -0.0015871357 0 7.3495691e-009 0 0)
(-4.1180938e-005 -0.0015871287 0 7.595509e-009 0 0)
(-0.0016344472 -0.0037656782 0 0.00049140469 0 0)
(0.00090446411 -0.00084924572 0 -0.00044996436 0 0)
(1.0624525e-005 -0.00068634818 0 -0.0001899849 0 0)
(8.1299229e-005 -0.00052297569 0 -5.5791013e-005 0 0)
(1.4095945e-005 -0.00049002888 0 -2.093819e-005 0 0)
(-4.4500818e-007 -0.00047993698 0 -6.7043726e-006 0 0)
(-3.0422797e-006 -0.00047622318 0 -2.4450802e-006 0 0)
(-5.1119565e-006 -0.00047504743 0 -8.3552674e-007 0 0)
(-5.6378471e-006 -0.00047463448 0 -2.7562248e-007 0 0)
(-5.8118682e-006 -0.00047450103 0 -9.5320704e-008 0 0)
(-5.8779619e-006 -0.00047445672 0 -3.3971132e-008 0 0)
(-5.9005688e-006 -0.00047443997 0 -1.1203263e-008 0 0)
(-5.9079347e-006 -0.00047443466 0 -3.9015364e-009 0 0)
(-5.9105425e-006 -0.00047443281 0 -1.3390513e-009 0 0)
(-5.9114263e-006 -0.00047443219 0 -4.6646806e-010 0 0)
(-5.9117441e-006 -0.000474432 0 -1.7164785e-010 0 0)
(-5.9118961e-006 -0.00047443194 0 -6.3751913e-011 0 0)
(-5.9120328e-006 -0.00047443191 0 -1.9234497e-011 0 0)
(-5.9121599e-006 -0.00047443188 0 -6.6895465e-012 0 0)
(-5.9122992e-006 -0.00047443182 0 -8.6503785e-012 0 0)
(-5.9123938e-006 -0.00047443167 0 -5.552419e-011 0 0)
(-5.9122503e-006 -0.00047443129 0 -2.262214e-010 0 0)
(-5.9125655e-006 -0.00047442929 0 -4.6337642e-010 0 0)
(-5.9138113e-006 -0.00047442961 0 2.5108273e-009 0 0)
(-5.9129306e-006 -0.00047440398 0 3.2743317e-009 0 0)
(-0.0021382319 0.0053424995 0 0.00070055809 0 0)
(0.00026943519 0.0077068263 0 -0.00068256002 0 0)
(-0.0009599302 0.0077219486 0 -0.00020865857 0 0)
(-0.00086249017 0.0077556661 0 -6.5664292e-005 0 0)
(-0.0009459438 0.0077448982 0 -2.3115833e-005 0 0)
(-0.00096247818 0.0077436432 0 -7.0516615e-006 0 0)
(-0.00096538305 0.0077427789 0 -2.5454389e-006 0 0)
(-0.00096755415 0.0077423949 0 -8.839127e-007 0 0)
(-0.00096811926 0.0077422926 0 -2.9026015e-007 0 0)
(-0.00096830693 0.0077422499 0 -9.888469e-008 0 0)
(-0.00096837613 0.0077422362 0 -3.4943647e-008 0 0)
(-0.00096839934 0.0077422313 0 -1.1727844e-008 0 0)
(-0.00096840715 0.0077422296 0 -4.0272389e-009 0 0)
(-0.00096840984 0.0077422289 0 -1.384975e-009 0 0)
(-0.00096841073 0.0077422286 0 -4.9197847e-010 0 0)
(-0.00096841105 0.0077422285 0 -1.7755518e-010 0 0)
(-0.00096841117 0.0077422284 0 -7.5856512e-011 0 0)
(-0.00096841128 0.0077422284 0 -3.6938214e-011 0 0)
(-0.00096841141 0.0077422284 0 -3.8355778e-011 0 0)
(-0.00096841155 0.0077422286 0 -5.7360229e-011 0 0)
(-0.00096841167 0.0077422289 0 -1.3521369e-010 0 0)
(-0.00096841135 0.0077422295 0 -4.8794036e-010 0 0)
(-0.00096841211 0.0077422318 0 -1.593021e-009 0 0)
(-0.00096840514 0.0077422342 0 -7.5109089e-009 0 0)
(-0.0009684113 0.0077422571 0 -6.5880034e-009 0 0)
(-0.016610005 0.030966863 0 -0.0011097368 0 0)
(-0.012834496 0.028844837 0 -0.00041199035 0 0)
(-0.014922987 0.029755059 0 -9.273158e-005 0 0)
(-0.014367677 0.029371554 0 -4.8709505e-005 0 0)
(-0.01439116 0.029311451 0 -1.4584485e-005 0 0)
(-0.014387032 0.029297071 0 -4.544075e-006 0 0)
(-0.014380686 0.029288022 0 -1.6118206e-006 0 0)
(-0.014380376 0.029285952 0 -5.2545802e-007 0 0)
(-0.014379962 0.029285162 0 -1.8323086e-007 0 0)
(-0.014379819 0.02928487 0 -6.2974561e-008 0 0)
(-0.014379783 0.029284778 0 -2.1449394e-008 0 0)
(-0.014379767 0.029284746 0 -7.3969973e-009 0 0)
(-0.014379762 0.029284734 0 -2.5335786e-009 0 0)
(-0.01437976 0.02928473 0 -8.5295628e-010 0 0)
(-0.014379759 0.029284729 0 -2.7027565e-010 0 0)
(-0.014379759 0.029284728 0 -8.66222e-011 0 0)
(-0.014379759 0.029284728 0 -5.0468594e-011 0 0)
(-0.014379759 0.029284728 0 -6.1471464e-011 0 0)
(-0.014379759 0.029284728 0 -1.1328815e-010 0 0)
(-0.014379759 0.029284728 0 -1.8583266e-010 0 0)
(-0.014379759 0.029284728 0 -3.6712581e-010 0 0)
(-0.014379759 0.029284729 0 -8.6099523e-010 0 0)
(-0.014379758 0.029284728 0 -2.8241845e-009 0 0)
(-0.014379744 0.029284732 0 -1.830581e-008 0 0)
(-0.014379701 0.029284693 0 -1.6488598e-008 0 0)
(0.00022643657 3.9396034e-005 0 2.0771259e-005 0 0)
(-0.00039208367 -2.6121036e-006 0 -3.1879614e-005 0 0)
(0.00021525606 -2.5337667e-005 0 2.8971553e-005 0 0)
(-6.6763079e-005 2.3446964e-005 0 -7.8631807e-006 0 0)
(-2.2525269e-007 -3.1484456e-006 0 4.6154449e-006 0 0)
(-2.0826458e-006 3.8456534e-006 0 4.0797237e-006 0 0)
(-5.5338301e-006 5.8006777e-006 0 4.9248558e-006 0 0)
(-6.8730574e-006 7.941542e-006 0 6.5795648e-006 0 0)
(-9.0913467e-006 1.1119042e-005 0 8.715196e-006 0 0)
(-1.2224503e-005 1.5410391e-005 0 1.1702905e-005 0 0)
(-1.6510016e-005 2.1290443e-005 0 1.5800321e-005 0 0)
(-2.2339781e-005 2.9383946e-005 0 2.1368268e-005 0 0)
(-3.024415e-005 4.0610837e-005 0 2.8907714e-005 0 0)
(-4.0907118e-005 5.6293546e-005 0 3.9059109e-005 0 0)
(-5.5202424e-005 7.8387746e-005 0 5.2635923e-005 0 0)
(-7.4200751e-005 0.00010983829 0 7.0611033e-005 0 0)
(-9.9097464e-005 0.00015519588 0 9.4043134e-005 0 0)
(-0.00013093544 0.00022172167 0 0.00012379755 0 0)
(-0.00016981964 0.00032118791 0 0.00015965333 0 0)
(-0.00021193025 0.00047420966 0 0.00019840862 0 0)
(-0.00024078992 0.00072420364 0 0.00022732379 0 0)
(-0.00021691143 0.0011507813 0 0.00020034373 0 0)
(9.4157768e-005 0.0021382679 0 -8.8995842e-006 0 0)
(0.0010050252 0.0032803972 0 -0.0009697381 0 0)
(0.003874579 0.001221086 0 -0.0030565346 0 0)
(0.00023684811 1.9170405e-005 0 2.0121866e-005 0 0)
(-0.00040792396 -2.2193825e-007 0 -3.2792116e-005 0 0)
(0.00022014165 -1.0517317e-005 0 2.5990146e-005 0 0)
(-6.1453751e-005 1.0330984e-005 0 -5.590256e-006 0 0)
(-3.4572139e-006 1.8493052e-006 0 2.3495239e-006 0 0)
(1.044423e-008 4.1922015e-006 0 2.9757188e-006 0 0)
(-3.7653096e-006 6.5269092e-006 0 3.3985106e-006 0 0)
(-4.6573823e-006 9.140749e-006 0 4.4810538e-006 0 0)
(-6.0726119e-006 1.281134e-005 0 5.9356491e-006 0 0)
(-8.077473e-006 1.7635917e-005 0 7.8771412e-006 0 0)
(-1.0838939e-005 2.4356922e-005 0 1.0573e-005 0 0)
(-1.4515546e-005 3.351277e-005 0 1.4164357e-005 0 0)
(-1.9385175e-005 4.6126423e-005 0 1.8924502e-005 0 0)
(-2.5733423e-005 6.3583106e-005 0 2.5138758e-005 0 0)
(-3.3825092e-005 8.7857918e-005 0 3.3075917e-005 0 0)
(-4.3857059e-005 0.0001221074 0 4.2952401e-005 0 0)
(-5.5428431e-005 0.00017047271 0 5.4431831e-005 0 0)
(-6.6983822e-005 0.00023839629 0 6.6120009e-005 0 0)
(-7.4778358e-005 0.00033678458 0 7.4639632e-005 0 0)
(-6.8696606e-005 0.00047895894 0 7.0670171e-005 0 0)
(-2.8030003e-005 0.00068422139 0 3.3411495e-005 0 0)
(9.2232715e-005 0.00098357947 0 -9.3089403e-005 0 0)
(0.00044019051 0.0014411991 0 -0.00047616363 0 0)
(0.0015244293 0.0015266541 0 -0.0018187543 0 0)