/*--------------------------------*- C++ -*----------------------------------*\
| =========                 |                                                 |
| \\      /  F ield         | OpenFOAM: The Open Source CFD Toolbox           |
|  \\    /   O peration     | Version:  5.x                                   |
|   \\  /    A nd           | Web:      www.OpenFOAM.org                      |
|    \\/     M anipulation  |                                                 |
\*---------------------------------------------------------------------------*/
/*   Windows 32 and 64 bit porting by blueCAPE: http://www.bluecape.com.pt   *\
|  Based on Windows porting (2.0.x v4) by Symscape: http://www.symscape.com   |
\*---------------------------------------------------------------------------*/
FoamFile
{
    version     2.0;
    format      ascii;
    class       volSymmTensorField;
    location    "0.01";
    object      sigma;
}
// * * * * * * * * * * * * * * * * * * * * * * * * * * * * * * * * * * * * * //

dimensions      [0 2 -2 0 0 0 0];

internalField   nonuniform List<symmTensor> 
750
(
(0.0001727296 6.7451237e-006 0 -3.7998548e-005 0 0)
(-0.00031201118 -8.7236421e-007 0 8.0851438e-005 0 0)
(0.00019081364 -4.224819e-006 0 -5.2751725e-005 0 0)
(-8.7323871e-005 4.1687053e-006 0 2.8816793e-005 0 0)
(1.9787481e-005 -1.8432537e-006 0 -1.7585849e-006 0 0)
(-1.1978363e-005 8.4230338e-007 0 7.7942128e-006 0 0)
(-7.8999019e-006 1.8296341e-007 0 8.491308e-006 0 0)
(-1.1292542e-005 4.161521e-007 0 1.1268816e-005 0 0)
(-1.515602e-005 5.7321713e-007 0 1.5120904e-005 0 0)
(-2.0512156e-005 7.9640858e-007 0 2.0492187e-005 0 0)
(-2.78393e-005 1.1021772e-006 0 2.7800978e-005 0 0)
(-3.81701e-005 1.5341345e-006 0 3.8110104e-005 0 0)
(-5.2447099e-005 2.1378383e-006 0 5.2349717e-005 0 0)
(-7.2381811e-005 2.995947e-006 0 7.2218543e-005 0 0)
(-0.00010038758 4.2313041e-006 0 0.00010010549 0 0)
(-0.00014008443 6.0382242e-006 0 0.00013958287 0 0)
(-0.00019699397 8.7274109e-006 0 0.00019606775 0 0)
(-0.00027977569 1.2810784e-005 0 0.00027804006 0 0)
(-0.00040206096 1.9113463e-005 0 0.00039871737 0 0)
(-0.00058546719 2.8636431e-005 0 0.00057787857 0 0)
(-0.00086175864 4.3960544e-005 0 0.00085216203 0 0)
(-0.0013125625 6.1834219e-005 0 0.001263653 0 0)
(-0.0018095443 7.9859666e-005 0 0.001812758 0 0)
(-0.0027293734 7.4980078e-005 0 0.0024767886 0 0)
(-0.0028401133 -9.7344419e-005 0 0.0029937804 0 0)
(0.00017494195 1.3189591e-005 0 -3.8584057e-006 0 0)
(-0.00031501168 -1.6233959e-006 0 1.797843e-005 0 0)
(0.00019180477 -7.4595765e-006 0 -7.711418e-006 0 0)
(-8.6829029e-005 7.6422941e-006 0 8.0245343e-006 0 0)
(1.9111817e-005 -3.0173556e-006 0 5.0705243e-006 0 0)
(-1.1544577e-005 1.6091265e-006 0 6.6705725e-006 0 0)
(-7.9856233e-006 6.8215412e-007 0 8.4913301e-006 0 0)
(-1.1202825e-005 1.2372144e-006 0 1.1179785e-005 0 0)
(-1.5044459e-005 1.7123709e-006 0 1.4948071e-005 0 0)
(-2.0373992e-005 2.3830583e-006 0 2.0284119e-005 0 0)
(-2.7672025e-005 3.2975231e-006 0 2.7536489e-005 0 0)
(-3.7906462e-005 4.5837067e-006 0 3.7712944e-005 0 0)
(-5.2079396e-005 6.3846509e-006 0 5.1796811e-005 0 0)
(-7.1856035e-005 8.9424416e-006 0 7.1433758e-005 0 0)
(-9.9624378e-005 1.2622071e-005 0 9.8976712e-005 0 0)
(-0.00013895694 1.7999215e-005 0 0.00013793364 0 0)
(-0.00019530162 2.5995363e-005 0 0.00019361986 0 0)
(-0.00027718244 3.8123084e-005 0 0.00027434912 0 0)
(-0.00039805728 5.6812225e-005 0 0.00039304976 0 0)
(-0.00057951914 8.527885e-005 0 0.00056944233 0 0)
(-0.00085330135 0.00013014808 0 0.00084092565 0 0)
(-0.001303467 0.00018745392 0 0.0012444544 0 0)
(-0.0018065515 0.00023758492 0 0.0018232898 0 0)
(-0.0027775492 0.00024084908 0 0.0024674357 0 0)
(-0.0029049889 -0.00029752004 0 0.0031643698 0 0)
(0.00017722853 1.3763232e-005 0 3.504008e-006 0 0)
(-0.00031833111 -1.7693688e-006 0 3.347942e-006 0 0)
(0.00019284239 -7.5803612e-006 0 3.0079484e-006 0 0)
(-8.6266576e-005 7.9601114e-006 0 2.335943e-006 0 0)
(1.8380655e-005 -2.4567714e-006 0 6.6322369e-006 0 0)
(-1.1090691e-005 1.7832592e-006 0 6.1235266e-006 0 0)
(-7.9858413e-006 1.3027924e-006 0 8.4405334e-006 0 0)
(-1.1042007e-005 2.040139e-006 0 1.1045562e-005 0 0)
(-1.4852945e-005 2.8422628e-006 0 1.4755096e-005 0 0)
(-2.0110352e-005 3.9576695e-006 0 2.0024348e-005 0 0)
(-2.7304156e-005 5.4718115e-006 0 2.717423e-005 0 0)
(-3.7393051e-005 7.6034894e-006 0 3.7207257e-005 0 0)
(-5.135427e-005 1.0587068e-005 0 5.1082915e-005 0 0)
(-7.0818201e-005 1.4822452e-005 0 7.0412513e-005 0 0)
(-9.8117349e-005 2.0912577e-005 0 9.7494753e-005 0 0)
(-0.00013673079 2.9807558e-005 0 0.00013574614 0 0)
(-0.00019195026 4.3030726e-005 0 0.00019032871 0 0)
(-0.00027205494 6.3089918e-005 0 0.00026932195 0 0)
(-0.000390131 9.4011102e-005 0 0.00038525326 0 0)
(-0.00056738473 0.00014153587 0 0.00055750407 0 0)
(-0.0008361672 0.00021599098 0 0.00082427949 0 0)
(-0.00128583 0.00031522843 0 0.0012237079 0 0)
(-0.001797183 0.00039967541 0 0.0018220316 0 0)
(-0.0028739844 0.00042829777 0 0.0025209868 0 0)
(-0.003036172 -0.00051075117 0 0.0033445227 0 0)
(0.00017954187 1.5120214e-005 0 -2.3799883e-006 0 0)
(-0.00032185209 -2.0219556e-006 0 1.3738623e-005 0 0)
(0.00019404347 -8.4807209e-006 0 -4.2091876e-006 0 0)
(-8.5561202e-005 8.9459883e-006 0 5.2693669e-006 0 0)
(1.7596802e-005 -2.2145867e-006 0 5.6837317e-006 0 0)
(-1.0609278e-005 2.0961224e-006 0 6.0703186e-006 0 0)
(-7.9229131e-006 1.9133319e-006 0 8.2948408e-006 0 0)
(-1.0818711e-005 2.8266323e-006 0 1.0842308e-005 0 0)
(-1.4566284e-005 3.9519125e-006 0 1.4480117e-005 0 0)
(-1.9717499e-005 5.504141e-006 0 1.9646554e-005 0 0)
(-2.6756376e-005 7.605945e-006 0 2.6648069e-005 0 0)
(-3.6628849e-005 1.0566563e-005 0 3.6472514e-005 0 0)
(-5.0275414e-005 1.4707196e-005 0 5.0045108e-005 0 0)
(-6.9275376e-005 2.0580232e-005 0 6.8927434e-005 0 0)
(-9.5879168e-005 2.9017322e-005 0 9.5338796e-005 0 0)
(-0.00013342781 4.1326543e-005 0 0.00013256171 0 0)
(-0.00018698248 5.9604946e-005 0 0.00018553441 0 0)
(-0.00026445281 8.7315603e-005 0 0.00026197753 0 0)
(-0.0003783613 0.00013003919 0 0.0003738465 0 0)
(-0.00054929084 0.00019611377 0 0.00053996113 0 0)
(-0.00081005231 0.00029998076 0 0.00079876329 0 0)
(-0.0012577937 0.00044582124 0 0.0011946193 0 0)
(-0.0017795088 0.00057816882 0 0.001807156 0 0)
(-0.0030237408 0.00064194283 0 0.0026354333 0 0)
(-0.0032337261 -0.00077367267 0 0.0035694985 0 0)
(0.00018213359 1.753051e-005 0 -6.1738723e-006 0 0)
(-0.00032587628 -2.3310174e-006 0 2.0770835e-005 0 0)
(0.00019546257 -9.9951089e-006 0 -8.9836716e-006 0 0)
(-8.4674013e-005 1.0544633e-005 0 7.216327e-006 0 0)
(1.6675472e-005 -2.2807781e-006 0 5.3478161e-006 0 0)
(-1.0056088e-005 2.4375327e-006 0 5.9905164e-006 0 0)
(-7.8057345e-006 2.4941801e-006 0 8.0855301e-006 0 0)
(-1.0532753e-005 3.594909e-006 0 1.0565311e-005 0 0)
(-1.4184538e-005 5.0335632e-006 0 1.4101248e-005 0 0)
(-1.9194984e-005 7.0114149e-006 0 1.9125748e-005 0 0)
(-2.6036686e-005 9.6864831e-006 0 2.593167e-005 0 0)
(-3.5619836e-005 1.3451061e-005 0 3.5468212e-005 0 0)
(-4.8852021e-005 1.8712317e-005 0 4.8628767e-005 0 0)
(-6.7242846e-005 2.6165975e-005 0 6.6905701e-005 0 0)
(-9.2935715e-005 3.6858303e-005 0 9.2412363e-005 0 0)
(-0.00012909269 5.2431485e-005 0 0.00012825401 0 0)
(-0.00018047472 7.5518824e-005 0 0.00017907178 0 0)
(-0.00025449361 0.00011048795 0 0.00025209316 0 0)
(-0.00036291489 0.00016440917 0 0.00035850246 0 0)
(-0.000525416 0.00024821269 0 0.00051623453 0 0)
(-0.00077436534 0.00038222087 0 0.00076308601 0 0)
(-0.001216347 0.00057830325 0 0.001150442 0 0)
(-0.0017513359 0.00077713349 0 0.0017803541 0 0)
(-0.0032488323 0.00089127277 0 0.0027992679 0 0)
(-0.0035109535 -0.0011444831 0 0.0038549473 0 0)
(0.00018513628 2.0626135e-005 0 -9.1918497e-006 0 0)
(-0.00033056626 -2.6743678e-006 0 2.6229418e-005 0 0)
(0.00019713375 -1.1913769e-005 0 -1.2872103e-005 0 0)
(-8.3597312e-005 1.2522162e-005 0 8.586083e-006 0 0)
(1.5578524e-005 -2.5190594e-006 0 5.0423455e-006 0 0)
(-9.413729e-006 2.7795302e-006 0 5.8132308e-006 0 0)
(-7.6362013e-006 3.053375e-006 0 7.8292535e-006 0 0)
(-1.0184434e-005 4.3391597e-006 0 1.0219424e-005 0 0)
(-1.371146e-005 6.0804241e-006 0 1.3627138e-005 0 0)
(-1.8547981e-005 8.4689496e-006 0 1.8474147e-005 0 0)
(-2.5149431e-005 1.1699016e-005 0 2.5039186e-005 0 0)
(-3.4374654e-005 1.6236086e-005 0 3.4216209e-005 0 0)
(-4.7096852e-005 2.257325e-005 0 4.6864919e-005 0 0)
(-6.473907e-005 3.1539871e-005 0 6.4391228e-005 0 0)
(-8.9313183e-005 4.438335e-005 0 8.8777477e-005 0 0)
(-0.00012376133 6.3056838e-005 0 0.00012291002 0 0)
(-0.00017247303 9.0690185e-005 0 0.00017106095 0 0)
(-0.00024222962 0.000132494 0 0.00023983083 0 0)
(-0.00034379124 0.00019698247 0 0.00033938585 0 0)
(-0.00049542119 0.00029786442 0 0.0004862625 0 0)
(-0.00072851388 0.00046143023 0 0.0007170235 0 0)
(-0.001158058 0.00071047594 0 0.0010887636 0 0)
(-0.0017076902 0.0010123351 0 0.0017359048 0 0)
(-0.0035968603 0.0011966287 0 0.0030508349 0 0)
(-0.0040136922 -0.0016523474 0 0.0043269949 0 0)
(0.00018868816 2.4719494e-005 0 -1.3880394e-005 0 0)
(-0.00033612329 -3.0555852e-006 0 3.4855732e-005 0 0)
(0.0001991076 -1.4444623e-005 0 -1.8824933e-005 0 0)
(-8.2297579e-005 1.5001815e-005 0 1.0726798e-005 0 0)
(1.4257251e-005 -2.9710588e-006 0 4.6059246e-006 0 0)
(-8.6620459e-006 3.1367182e-006 0 5.5647458e-006 0 0)
(-7.419367e-006 3.5914708e-006 0 7.5380272e-006 0 0)
(-9.7748122e-006 5.0539666e-006 0 9.8141407e-006 0 0)
(-1.315219e-005 7.0871798e-006 0 1.307591e-005 0 0)
(-1.7783531e-005 9.8701329e-006 0 1.7716184e-005 0 0)
(-2.4096978e-005 1.3631202e-005 0 2.3997087e-005 0 0)
(-3.2902329e-005 1.8906624e-005 0 3.2758621e-005 0 0)
(-4.5023394e-005 2.6268355e-005 0 4.4812901e-005 0 0)
(-6.1784992e-005 3.6669123e-005 0 6.1468989e-005 0 0)
(-8.5045947e-005 5.1539561e-005 0 8.4558712e-005 0 0)
(-0.0001174919 7.311239e-005 0 0.00011671632 0 0)
(-0.00016307458 0.00010496083 0 0.00016178507 0 0)
(-0.00022781854 0.00015305787 0 0.00022562209 0 0)
(-0.00032118905 0.00022724854 0 0.00031711493 0 0)
(-0.00045933394 0.00034401112 0 0.00045076943 0 0)
(-0.00067098051 0.00053738692 0 0.00066026255 0 0)
(-0.0010783068 0.00084135685 0 0.0010082888 0 0)
(-0.0016382299 0.0012963493 0 0.0016679245 0 0)
(-0.0040768033 0.0016110159 0 0.00344193 0 0)
(-0.0049858373 -0.0018993973 0 0.0053596154 0 0)
(0.00019306898 3.1091201e-005 0 -2.2094709e-005 0 0)
(-0.00034291244 -3.4348814e-006 0 4.9519046e-005 0 0)
(0.00020144603 -1.831828e-005 0 -2.8969853e-005 0 0)
(-8.0695101e-005 1.8513707e-005 0 1.4040198e-005 0 0)
(1.2636392e-005 -3.8071337e-006 0 4.2971982e-006 0 0)
(-7.7733723e-006 3.5094979e-006 0 5.2004496e-006 0 0)
(-7.1616654e-006 4.1136314e-006 0 7.2219148e-006 0 0)
(-9.3045838e-006 5.7339504e-006 0 9.3641973e-006 0 0)
(-1.2514721e-005 8.0533063e-006 0 1.2470682e-005 0 0)
(-1.6912179e-005 1.1211911e-005 0 1.6883449e-005 0 0)
(-2.2885807e-005 1.547015e-005 0 2.2840342e-005 0 0)
(-3.1220355e-005 2.1447927e-005 0 3.1151991e-005 0 0)
(-4.2660543e-005 2.9773551e-005 0 4.2555477e-005 0 0)
(-5.8428378e-005 4.1512822e-005 0 5.8261462e-005 0 0)
(-8.0216534e-005 5.8257257e-005 0 7.9942935e-005 0 0)
(-0.00011043065 8.2475876e-005 0 0.00010996601 0 0)
(-0.00015254592 0.00011810519 0 0.00015171965 0 0)
(-0.00021177864 0.00017175447 0 0.00021028785 0 0)
(-0.00029608684 0.00025428959 0 0.0002931171 0 0)
(-0.00041905781 0.00038460772 0 0.00041234811 0 0)
(-0.00060529623 0.00060481458 0 0.00059715065 0 0)
(-0.00097005395 0.00097181861 0 0.00090376923 0 0)
(-0.0015206023 0.0016335161 0 0.0015550069 0 0)
(-0.0045689188 0.0023301119 0 0.003860641 0 0)
(-0.0061479172 -0.00086722213 0 0.0066168553 0 0)
(0.00019899459 4.1366904e-005 0 -2.5682592e-005 0 0)
(-0.00035194524 -3.9178621e-006 0 5.4490506e-005 0 0)
(0.00020432045 -2.4626865e-005 0 -3.2442764e-005 0 0)
(-7.8559491e-005 2.4089204e-005 0 1.3923324e-005 0 0)
(1.0501985e-005 -5.2609868e-006 0 4.781909e-006 0 0)
(-6.6828907e-006 3.8403129e-006 0 4.7424178e-006 0 0)
(-6.8666742e-006 4.6418709e-006 0 6.8052865e-006 0 0)
(-8.7786072e-006 6.3786624e-006 0 8.8256751e-006 0 0)
(-1.1793001e-005 8.9755737e-006 0 1.1736783e-005 0 0)
(-1.5920161e-005 1.2486532e-005 0 1.5867803e-005 0 0)
(-2.1538562e-005 1.7237027e-005 0 2.1461727e-005 0 0)
(-2.9329094e-005 2.3871301e-005 0 2.9216977e-005 0 0)
(-4.0005092e-005 3.3110046e-005 0 3.9838589e-005 0 0)
(-5.4660302e-005 4.6112966e-005 0 5.4406288e-005 0 0)
(-7.4798774e-005 6.4615993e-005 0 7.4400202e-005 0 0)
(-0.00010251335 9.130147e-005 0 0.00010186692 0 0)
(-0.00014074165 0.00013043128 0 0.00013964677 0 0)
(-0.00019370114 0.00018914117 0 0.0001918003 0 0)
(-0.00026755748 0.00027929276 0 0.00026391348 0 0)
(-0.00037240562 0.00042267279 0 0.00036463362 0 0)
(-0.00052364768 0.00066711534 0 0.00051171385 0 0)
(-0.00081799936 0.0010985176 0 0.00074067308 0 0)
(-0.0012633549 0.0020596366 0 0.0012461768 0 0)
(-0.0044439496 0.0034472243 0 0.0033944515 0 0)
(-0.0061987868 0.0025501443 0 0.0059422935 0 0)
(0.0002074268 5.1039708e-005 0 -6.5252422e-006 0 0)
(-0.00036460189 -4.3184864e-006 0 1.8486641e-005 0 0)
(0.00020816432 -3.074758e-005 0 -5.3699967e-006 0 0)
(-7.5515683e-005 2.9536082e-005 0 2.8865939e-006 0 0)
(7.4302787e-006 -6.4329908e-006 0 5.7869975e-006 0 0)
(-5.27988e-006 3.968774e-006 0 4.506716e-006 0 0)
(-6.5253018e-006 5.1668089e-006 0 6.157588e-006 0 0)
(-8.2124351e-006 6.9879947e-006 0 8.0953903e-006 0 0)
(-1.0989067e-005 9.8314621e-006 0 1.0735513e-005 0 0)
(-1.481572e-005 1.366414e-005 0 1.448257e-005 0 0)
(-2.0052947e-005 1.8887089e-005 0 1.9593075e-005 0 0)
(-2.7244191e-005 2.611886e-005 0 2.66034e-005 0 0)
(-3.7082317e-005 3.6190025e-005 0 3.6180561e-005 0 0)
(-5.0524665e-005 5.0334119e-005 0 4.9239559e-005 0 0)
(-6.8875384e-005 7.0400548e-005 0 6.7016541e-005 0 0)
(-9.3904891e-005 9.9232102e-005 0 9.1166599e-005 0 0)
(-0.00012800494 0.00014130921 0 0.00012386777 0 0)
(-0.00017437598 0.00020402433 0 0.00016795662 0 0)
(-0.00023745059 0.00029982617 0 0.00022688309 0 0)
(-0.00032319837 0.0004519024 0 0.00030474495 0 0)
(-0.00043597908 0.00070969995 0 0.00040422692 0 0)
(-0.0006218976 0.0011668044 0 0.0005098079 0 0)
(-0.00082621592 0.0023451998 0 0.00069628051 0 0)
(-0.0028023479 0.0041192674 0 0.0014270368 0 0)
(-0.0022320663 0.0051917157 0 0.00158373 0 0)
(-0.0012636592 -0.00016318433 0 0.00097610429 0 0)
(-0.00033155039 -5.3718835e-005 0 0.00045883872 0 0)
(-0.00023820288 -2.5659362e-005 0 0.00018733823 0 0)
(-5.171027e-005 -1.2703768e-005 0 6.0309449e-005 0 0)
(-2.3182984e-005 -5.0445122e-006 0 2.2688113e-005 0 0)
(-8.5525488e-006 -3.1069491e-006 0 7.8722624e-006 0 0)
(-2.6847788e-006 -2.3292301e-006 0 2.819604e-006 0 0)
(-9.8831133e-007 -2.0013683e-006 0 9.5014754e-007 0 0)
(-3.3726527e-007 -1.9059583e-006 0 3.2924115e-007 0 0)
(-1.0994098e-007 -1.8700646e-006 0 1.1036565e-007 0 0)
(-3.8933158e-008 -1.8579489e-006 0 3.8051778e-008 0 0)
(-1.3609326e-008 -1.8539643e-006 0 1.3400088e-008 0 0)
(-4.4853067e-009 -1.8524829e-006 0 4.4050704e-009 0 0)
(-1.4968999e-009 -1.8519903e-006 0 1.4799204e-009 0 0)
(-4.6372188e-010 -1.8518228e-006 0 4.9716625e-010 0 0)
(-1.3275925e-010 -1.8517638e-006 0 1.7065074e-010 0 0)
(-6.0757576e-011 -1.8517443e-006 0 7.9614368e-011 0 0)
(-1.081161e-010 -1.8517315e-006 0 6.1630605e-011 0 0)
(-2.1515221e-010 -1.8517265e-006 0 1.1527778e-010 0 0)
(-3.7141307e-010 -1.8517234e-006 0 1.497899e-010 0 0)
(-5.9004755e-010 -1.8517082e-006 0 2.9205049e-010 0 0)
(-9.7952091e-010 -1.8516726e-006 0 4.9867955e-010 0 0)
(-7.0173113e-010 -1.8515194e-006 0 9.5748707e-010 0 0)
(-2.8236968e-009 -1.8517227e-006 0 2.2898228e-009 0 0)
(-2.9093192e-009 -1.8498827e-006 0 1.6487453e-009 0 0)
(-0.0012575993 -0.00049245756 0 0.00085705887 0 0)
(-0.00029600228 -0.00013960441 0 0.00047247464 0 0)
(-0.00022851517 -7.0849022e-005 0 0.00015908491 0 0)
(-4.6479512e-005 -2.5811516e-005 0 5.5937996e-005 0 0)
(-2.0834655e-005 -5.3462465e-006 0 2.0523353e-005 0 0)
(-7.9072221e-006 4.3036585e-007 0 6.8124462e-006 0 0)
(-2.3931095e-006 2.7352135e-006 0 2.5262276e-006 0 0)
(-8.8734358e-007 3.6492494e-006 0 8.3312328e-007 0 0)
(-3.0552872e-007 3.9263105e-006 0 2.8867269e-007 0 0)
(-9.8657538e-008 4.0292724e-006 0 9.7581463e-008 0 0)
(-3.5206373e-008 4.0637056e-006 0 3.3449267e-008 0 0)
(-1.2326825e-008 4.0752287e-006 0 1.1724586e-008 0 0)
(-4.2200935e-009 4.079401e-006 0 3.9840026e-009 0 0)
(-1.5438322e-009 4.0807921e-006 0 1.38761e-009 0 0)
(-6.0613096e-010 4.0812746e-006 0 4.7578839e-010 0 0)
(-3.2940151e-010 4.0814318e-006 0 1.7873252e-010 0 0)
(-2.5815421e-010 4.0814969e-006 0 7.3381947e-011 0 0)
(-3.1309246e-010 4.0815239e-006 0 3.6312584e-011 0 0)
(-4.1422947e-010 4.0815367e-006 0 3.046535e-011 0 0)
(-5.7308139e-010 4.0815481e-006 0 4.1787591e-011 0 0)
(-7.6519861e-010 4.0815806e-006 0 1.1468397e-010 0 0)
(-1.1053993e-009 4.0816444e-006 0 3.138306e-010 0 0)
(-9.0496961e-010 4.0818917e-006 0 7.7939928e-010 0 0)
(-2.1522039e-009 4.0816012e-006 0 1.748161e-009 0 0)
(-2.107952e-009 4.0834057e-006 0 1.1863847e-009 0 0)
(-0.001233948 -0.00081454321 0 0.00076240934 0 0)
(-0.00022579154 -0.00018576511 0 0.00043883909 0 0)
(-0.00021109793 -8.9025945e-005 0 0.00013084337 0 0)
(-3.5296156e-005 -8.0639928e-006 0 4.6953182e-005 0 0)
(-1.6754096e-005 2.2344769e-005 0 1.6771767e-005 0 0)
(-6.6003657e-006 3.1712878e-005 0 5.3918833e-006 0 0)
(-1.8397721e-006 3.5411064e-005 0 2.0156017e-006 0 0)
(-7.2837276e-007 3.6789203e-005 0 6.6055546e-007 0 0)
(-2.61912e-007 3.7230764e-005 0 2.2562339e-007 0 0)
(-9.8970823e-008 3.7388171e-005 0 7.7691665e-008 0 0)
(-4.9383621e-008 3.7441805e-005 0 2.6345342e-008 0 0)
(-3.144573e-008 3.7459693e-005 0 9.3058987e-009 0 0)
(-2.5009021e-008 3.746621e-005 0 3.1511944e-009 0 0)
(-2.2918052e-008 3.7468353e-005 0 1.0964973e-009 0 0)
(-2.2178968e-008 3.7469103e-005 0 3.7394886e-010 0 0)
(-2.1968527e-008 3.7469342e-005 0 1.4153642e-010 0 0)
(-2.1920539e-008 3.7469438e-005 0 5.1687327e-011 0 0)
(-2.1983431e-008 3.7469474e-005 0 1.294574e-011 0 0)
(-2.2085934e-008 3.7469492e-005 0 1.6798711e-012 0 0)
(-2.2242469e-008 3.7469512e-005 0 8.6407971e-012 0 0)
(-2.242784e-008 3.7469557e-005 0 5.5828651e-011 0 0)
(-2.2751333e-008 3.7469647e-005 0 2.6601957e-010 0 0)
(-2.2588213e-008 3.7469862e-005 0 7.5645995e-010 0 0)
(-2.3849891e-008 3.7469613e-005 0 1.5585147e-009 0 0)
(-2.3780987e-008 3.7469611e-005 0 9.9483794e-010 0 0)
(-0.0011836445 -0.0011762503 0 0.00065302646 0 0)
(-0.00011662461 -0.00023060925 0 0.00035876068 0 0)
(-0.00018692055 -0.00010301517 0 9.7466561e-005 0 0)
(-1.8751033e-005 1.087534e-005 0 3.2751016e-005 0 0)
(-1.1223604e-005 4.9511828e-005 0 1.1277526e-005 0 0)
(-4.7415737e-006 6.1759154e-005 0 3.4800952e-006 0 0)
(-1.1151587e-006 6.6532192e-005 0 1.2896899e-006 0 0)
(-5.3573511e-007 6.8246303e-005 0 4.198389e-007 0 0)
(-2.2822512e-007 6.88149e-005 0 1.4023449e-007 0 0)
(-1.2502019e-007 6.9007832e-005 0 4.9696747e-008 0 0)
(-9.4528708e-008 6.9076653e-005 0 1.6596171e-008 0 0)
(-8.3129069e-008 6.9099364e-005 0 5.8242845e-009 0 0)
(-7.9101162e-008 6.9107536e-005 0 1.9589129e-009 0 0)
(-7.7804827e-008 6.911023e-005 0 6.7359291e-010 0 0)
(-7.7343569e-008 6.9111171e-005 0 2.2896842e-010 0 0)
(-7.7219448e-008 6.9111473e-005 0 8.6100527e-011 0 0)
(-7.7205614e-008 6.9111588e-005 0 3.0180627e-011 0 0)
(-7.7279059e-008 6.9111632e-005 0 7.0633553e-012 0 0)
(-7.7383352e-008 6.9111651e-005 0 6.4299058e-013 0 0)
(-7.7534677e-008 6.9111673e-005 0 9.6507405e-012 0 0)
(-7.7707058e-008 6.9111732e-005 0 4.4524768e-011 0 0)
(-7.8002294e-008 6.9111868e-005 0 2.2812864e-010 0 0)
(-7.788908e-008 6.9112134e-005 0 6.8158212e-010 0 0)
(-7.911412e-008 6.9111789e-005 0 1.7106616e-009 0 0)
(-7.8989359e-008 6.9110004e-005 0 1.1978718e-009 0 0)
(-0.0011145471 -0.001800276 0 0.00048242419 0 0)
(3.6668228e-005 -0.00047847829 0 0.00024504023 0 0)
(-0.00015554612 -0.00030107026 0 5.0575943e-005 0 0)
(2.2206716e-006 -0.00015740162 0 1.4801482e-005 0 0)
(-4.6072647e-006 -0.00011244737 0 4.4808913e-006 0 0)
(-2.4984754e-006 -9.8124881e-005 0 1.1386701e-006 0 0)
(-2.5394891e-007 -9.2647108e-005 0 4.2264736e-007 0 0)
(-2.938261e-007 -9.0729186e-005 0 1.2851771e-007 0 0)
(-1.7683652e-007 -9.0083926e-005 0 4.1448971e-008 0 0)
(-1.3894368e-007 -8.9870525e-005 0 1.5079366e-008 0 0)
(-1.3196101e-007 -8.9792377e-005 0 4.9192777e-009 0 0)
(-1.2817713e-007 -8.9766519e-005 0 1.7012566e-009 0 0)
(-1.2694437e-007 -8.975746e-005 0 5.7607227e-010 0 0)
(-1.2656476e-007 -8.9754434e-005 0 1.9912652e-010 0 0)
(-1.2642327e-007 -8.9753377e-005 0 6.9126034e-011 0 0)
(-1.2640116e-007 -8.975304e-005 0 2.7161173e-011 0 0)
(-1.2642688e-007 -8.9752905e-005 0 1.0482732e-011 0 0)
(-1.2651344e-007 -8.9752857e-005 0 5.0171957e-012 0 0)
(-1.2661971e-007 -8.975284e-005 0 8.9596855e-013 0 0)
(-1.2676564e-007 -8.9752821e-005 0 1.2603306e-011 0 0)
(-1.2692023e-007 -8.9752766e-005 0 3.520184e-011 0 0)
(-1.2718361e-007 -8.9752607e-005 0 1.7304362e-010 0 0)
(-1.2712498e-007 -8.9752252e-005 0 5.9038467e-010 0 0)
(-1.2924195e-007 -8.9752767e-005 0 2.7728291e-009 0 0)
(-1.2908308e-007 -8.9759024e-005 0 2.3146408e-009 0 0)
(-0.0011304942 -0.0030318321 0 0.00029463402 0 0)
(0.00023338433 -0.0012354235 0 8.1563917e-005 0 0)
(-0.00012109238 -0.00098654389 0 -1.6828845e-005 0 0)
(1.8159076e-005 -0.0008163923 0 -6.8366952e-006 0 0)
(-5.8840533e-006 -0.00076708339 0 -3.5087077e-006 0 0)
(-8.6121002e-006 -0.00075148101 0 -1.5308585e-006 0 0)
(-7.8897966e-006 -0.00074567511 0 -5.4609382e-007 0 0)
(-8.5844139e-006 -0.00074367039 0 -1.9943885e-007 0 0)
(-8.6712789e-006 -0.00074299255 0 -6.793074e-008 0 0)
(-8.7015836e-006 -0.00074276634 0 -2.346566e-008 0 0)
(-8.7194481e-006 -0.00074268839 0 -8.2163169e-009 0 0)
(-8.7239043e-006 -0.00074266119 0 -2.8064722e-009 0 0)
(-8.7255438e-006 -0.00074265188 0 -9.5307836e-010 0 0)
(-8.7261303e-006 -0.00074264872 0 -3.2816057e-010 0 0)
(-8.7263217e-006 -0.00074264762 0 -1.1191399e-010 0 0)
(-8.7264059e-006 -0.00074264726 0 -4.2139145e-011 0 0)
(-8.7264755e-006 -0.00074264711 0 -1.3810892e-011 0 0)
(-8.726578e-006 -0.00074264706 0 -1.2597841e-012 0 0)
(-8.7266905e-006 -0.00074264704 0 2.7828974e-012 0 0)
(-8.7268337e-006 -0.00074264704 0 1.38538e-011 0 0)
(-8.7269702e-006 -0.000742647 0 2.0715406e-011 0 0)
(-8.7271843e-006 -0.00074264683 0 1.0879977e-010 0 0)
(-8.7271918e-006 -0.00074264619 0 4.6417367e-010 0 0)
(-8.7318966e-006 -0.00074264672 0 5.5596148e-009 0 0)
(-8.7318978e-006 -0.00074265383 0 5.2870843e-009 0 0)
(-0.001413364 -0.0045313571 0 0.000252765 0 0)
(0.00048459467 -0.0021530595 0 -0.00015806738 0 0)
(-9.4081038e-005 -0.0018663704 0 -0.0001069203 0 0)
(1.2877012e-005 -0.0016813753 0 -3.2245947e-005 0 0)
(-3.1503006e-005 -0.0016330485 0 -1.2710974e-005 0 0)
(-3.9726265e-005 -0.0016181641 0 -4.3953467e-006 0 0)
(-4.0635476e-005 -0.0016127394 0 -1.5987709e-006 0 0)
(-4.2030452e-005 -0.0016108655 0 -5.5066497e-007 0 0)
(-4.233139e-005 -0.0016102429 0 -1.8486661e-007 0 0)
(-4.2434836e-005 -0.0016100336 0 -6.3599402e-008 0 0)
(-4.2478212e-005 -0.0016099618 0 -2.1628212e-008 0 0)
(-4.249052e-005 -0.0016099384 0 -7.8852584e-009 0 0)
(-4.2495442e-005 -0.0016099293 0 -2.5695359e-009 0 0)
(-4.2497025e-005 -0.0016099264 0 -8.8953517e-010 0 0)
(-4.2497563e-005 -0.0016099254 0 -3.0467581e-010 0 0)
(-4.2497761e-005 -0.0016099251 0 -1.1210503e-010 0 0)
(-4.2497872e-005 -0.0016099249 0 -4.0111429e-011 0 0)
(-4.2497994e-005 -0.0016099249 0 -7.9440223e-012 0 0)
(-4.2498117e-005 -0.0016099249 0 3.6039132e-012 0 0)
(-4.2498261e-005 -0.0016099248 0 1.0782061e-011 0 0)
(-4.2498379e-005 -0.0016099248 0 -9.8789564e-012 0 0)
(-4.2498474e-005 -0.0016099246 0 -1.3788391e-011 0 0)
(-4.2498621e-005 -0.0016099233 0 2.3808637e-010 0 0)
(-4.2505099e-005 -0.0016099237 0 7.3954544e-009 0 0)
(-4.2504623e-005 -0.0016099162 0 7.6575721e-009 0 0)
(-0.0016660468 -0.0037391071 0 0.00051491596 0 0)
(0.0009171384 -0.00078919281 0 -0.00045668807 0 0)
(1.2256797e-005 -0.00062377471 0 -0.00019381543 0 0)
(8.4578967e-005 -0.00045776934 0 -5.6928195e-005 0 0)
(1.517351e-005 -0.00042484106 0 -2.1349917e-005 0 0)
(5.1982915e-007 -0.00041463017 0 -6.8119484e-006 0 0)
(-2.1165872e-006 -0.00041090134 0 -2.4935769e-006 0 0)
(-4.2430801e-006 -0.00040971975 0 -8.5102633e-007 0 0)
(-4.7753117e-006 -0.0004093041 0 -2.8044936e-007 0 0)
(-4.9530691e-006 -0.00040917011 0 -9.6793113e-008 0 0)
(-5.0203191e-006 -0.00040912588 0 -3.4601111e-008 0 0)
(-5.0433501e-006 -0.00040910904 0 -1.1383188e-008 0 0)
(-5.0508412e-006 -0.00040910373 0 -3.9701562e-009 0 0)
(-5.0535026e-006 -0.00040910187 0 -1.359451e-009 0 0)
(-5.0544009e-006 -0.00040910125 0 -4.7280823e-010 0 0)
(-5.054723e-006 -0.00040910107 0 -1.7401216e-010 0 0)
(-5.0548762e-006 -0.00040910101 0 -6.4615943e-011 0 0)
(-5.0550124e-006 -0.00040910098 0 -1.9869316e-011 0 0)
(-5.0551384e-006 -0.00040910095 0 -7.5398937e-012 0 0)
(-5.0552757e-006 -0.00040910088 0 -1.0330585e-011 0 0)
(-5.0553676e-006 -0.00040910073 0 -5.8840833e-011 0 0)
(-5.0552172e-006 -0.00040910033 0 -2.3403316e-010 0 0)
(-5.0555405e-006 -0.00040909826 0 -4.852384e-010 0 0)
(-5.0566829e-006 -0.00040909861 0 2.3974866e-009 0 0)
(-5.055853e-006 -0.00040907226 0 3.18555e-009 0 0)
(-0.0022011747 0.0055377407 0 0.00072198535 0 0)
(0.00022317632 0.0079322277 0 -0.00068972783 0 0)
(-0.0010200587 0.0079471747 0 -0.00021097187 0 0)
(-0.00091868762 0.0079801646 0 -6.6848151e-005 0 0)
(-0.0010042941 0.0079686302 0 -2.3466907e-005 0 0)
(-0.00102079 0.0079672812 0 -7.1415558e-006 0 0)
(-0.0010236995 0.007966343 0 -2.5872611e-006 0 0)
(-0.0010259132 0.0079659357 0 -8.9554931e-007 0 0)
(-0.0010264779 0.0079658267 0 -2.9411292e-007 0 0)
(-0.0010266674 0.007965781 0 -1.0003045e-007 0 0)
(-0.0010267371 0.0079657664 0 -3.5454201e-008 0 0)
(-0.0010267604 0.0079657612 0 -1.1868013e-008 0 0)
(-0.0010267683 0.0079657594 0 -4.0724932e-009 0 0)
(-0.001026771 0.0079657587 0 -1.4020457e-009 0 0)
(-0.0010267719 0.0079657584 0 -4.9611898e-010 0 0)
(-0.0010267722 0.0079657582 0 -1.7860924e-010 0 0)
(-0.0010267724 0.0079657581 0 -7.5952323e-011 0 0)
(-0.0010267725 0.0079657581 0 -3.7466592e-011 0 0)
(-0.0010267726 0.0079657581 0 -3.9650726e-011 0 0)
(-0.0010267727 0.0079657583 0 -6.0488231e-011 0 0)
(-0.0010267728 0.0079657586 0 -1.4184526e-010 0 0)
(-0.0010267725 0.0079657593 0 -5.0463263e-010 0 0)
(-0.0010267733 0.0079657616 0 -1.6382963e-009 0 0)
(-0.0010267662 0.007965764 0 -7.7221645e-009 0 0)
(-0.0010267726 0.0079657873 0 -6.7830272e-009 0 0)
(-0.017056614 0.031346741 0 -0.001122445 0 0)
(-0.013218768 0.029214472 0 -0.00041331303 0 0)
(-0.015367966 0.030157842 0 -9.1749826e-005 0 0)
(-0.014790796 0.029764422 0 -4.9286029e-005 0 0)
(-0.014815951 0.0297047 0 -1.4652391e-005 0 0)
(-0.014811233 0.029690106 0 -4.5775435e-006 0 0)
(-0.014804626 0.029680878 0 -1.6199814e-006 0 0)
(-0.014804319 0.029678812 0 -5.2642791e-007 0 0)
(-0.01480388 0.029678012 0 -1.8393183e-007 0 0)
(-0.014803732 0.029677717 0 -6.3123381e-008 0 0)
(-0.014803694 0.029677625 0 -2.1478421e-008 0 0)
(-0.014803678 0.029677592 0 -7.406364e-009 0 0)
(-0.014803672 0.02967758 0 -2.5342402e-009 0 0)
(-0.01480367 0.029677576 0 -8.5203968e-010 0 0)
(-0.01480367 0.029677575 0 -2.6932542e-010 0 0)
(-0.014803669 0.029677574 0 -8.5702906e-011 0 0)
(-0.014803669 0.029677574 0 -4.9709385e-011 0 0)
(-0.014803669 0.029677574 0 -6.1373825e-011 0 0)
(-0.014803669 0.029677574 0 -1.1420241e-010 0 0)
(-0.014803669 0.029677574 0 -1.8884571e-010 0 0)
(-0.01480367 0.029677574 0 -3.7456205e-010 0 0)
(-0.014803669 0.029677575 0 -8.8221734e-010 0 0)
(-0.014803668 0.029677574 0 -2.8822465e-009 0 0)
(-0.014803654 0.029677578 0 -1.852271e-008 0 0)
(-0.014803609 0.029677538 0 -1.6673255e-008 0 0)
(0.00022709079 4.0190474e-005 0 2.1017641e-005 0 0)
(-0.00039402639 -2.9196244e-006 0 -3.2189625e-005 0 0)
(0.00021732369 -2.5592309e-005 0 2.9567868e-005 0 0)
(-6.8202006e-005 2.4007839e-005 0 -8.1640441e-006 0 0)
(-3.6383088e-008 -3.3967191e-006 0 4.827482e-006 0 0)
(-2.134378e-006 3.9353523e-006 0 4.1646801e-006 0 0)
(-5.6549462e-006 5.8956144e-006 0 5.0267847e-006 0 0)
(-7.0044821e-006 8.0709587e-006 0 6.7095953e-006 0 0)
(-9.2584839e-006 1.1308877e-005 0 8.8799213e-006 0 0)
(-1.2444037e-005 1.5677054e-005 0 1.1919053e-005 0 0)
(-1.680292e-005 2.1662716e-005 0 1.6088707e-005 0 0)
(-2.2733074e-005 2.9900545e-005 0 2.1755365e-005 0 0)
(-3.0774169e-005 4.1327229e-005 0 2.9429011e-005 0 0)
(-4.1621788e-005 5.7288828e-005 0 3.9761172e-005 0 0)
(-5.6164438e-005 7.9776174e-005 0 5.3579432e-005 0 0)
(-7.549049e-005 0.00011178691 0 7.1872846e-005 0 0)
(-0.00010081418 0.00015795353 0 9.571652e-005 0 0)
(-0.00013319121 0.00022566927 0 0.00012598608 0 0)
(-0.00017271517 0.00032690727 0 0.00016243819 0 0)
(-0.00021546762 0.00048265201 0 0.00020178638 0 0)
(-0.0002445893 0.00073715535 0 0.00023100008 0 0)
(-0.00022036163 0.0011713468 0 0.00020283369 0 0)
(9.7936088e-005 0.0021771498 0 -1.1354876e-005 0 0)
(0.0010174588 0.0033299676 0 -0.0009910157 0 0)
(0.0039354299 0.0012337489 0 -0.0031149661 0 0)
(0.00023761393 1.9605935e-005 0 2.0418752e-005 0 0)
(-0.00041010325 -3.7432217e-007 0 -3.3267121e-005 0 0)
(0.00022239723 -1.0654737e-005 0 2.6664432e-005 0 0)
(-6.2877619e-005 1.0605991e-005 0 -5.8617838e-006 0 0)
(-3.3649177e-006 1.7954458e-006 0 2.4692291e-006 0 0)
(3.2895098e-008 4.2486155e-006 0 3.0500952e-006 0 0)
(-3.8548946e-006 6.6297054e-006 0 3.4689389e-006 0 0)
(-4.7492247e-006 9.2898206e-006 0 4.5692827e-006 0 0)
(-6.1848058e-006 1.3029959e-005 0 6.0469137e-006 0 0)
(-8.2220307e-006 1.7939388e-005 0 8.0195336e-006 0 0)
(-1.1030614e-005 2.4782415e-005 0 1.0761833e-005 0 0)
(-1.4769642e-005 3.4101149e-005 0 1.4414588e-005 0 0)
(-1.9722373e-005 4.6938691e-005 0 1.9256271e-005 0 0)
(-2.6178847e-005 6.4704801e-005 0 2.5576495e-005 0 0)
(-3.4407768e-005 8.9409372e-005 0 3.3647437e-005 0 0)
(-4.4606335e-005 0.0001242566 0 4.3685066e-005 0 0)
(-5.637491e-005 0.00017350615 0 5.5352981e-005 0 0)
(-6.8107993e-005 0.00024260655 0 6.7204831e-005 0 0)
(-7.6008776e-005 0.00034271528 0 7.5802558e-005 0 0)
(-6.9777614e-005 0.00048732974 0 7.1632223e-005 0 0)
(-2.8371246e-005 0.00069617758 0 3.3451663e-005 0 0)
(9.3544852e-005 0.0010003811 0 -9.5737472e-005 0 0)
(0.00044877702 0.0014669121 0 -0.00048673594 0 0)
(0.0015522482 0.0015477059 0 -0.0018563564 0 0)