/*--------------------------------*- C++ -*----------------------------------*\
| =========                 |                                                 |
| \\      /  F ield         | OpenFOAM: The Open Source CFD Toolbox           |
|  \\    /   O peration     | Version:  5.x                                   |
|   \\  /    A nd           | Web:      www.OpenFOAM.org                      |
|    \\/     M anipulation  |                                                 |
\*---------------------------------------------------------------------------*/
/*   Windows 32 and 64 bit porting by blueCAPE: http://www.bluecape.com.pt   *\
|  Based on Windows porting (2.0.x v4) by Symscape: http://www.symscape.com   |
\*---------------------------------------------------------------------------*/
FoamFile
{
    version     2.0;
    format      ascii;
    class       volVectorField;
    location    "0.01";
    object      U;
}
// * * * * * * * * * * * * * * * * * * * * * * * * * * * * * * * * * * * * * //

dimensions      [0 1 -1 0 0 0 0];

internalField   nonuniform List<vector> 
750
(
(0.034708577 3.2155688e-005 0)
(0.041863575 -9.2281852e-005 0)
(0.037149938 8.2519563e-005 0)
(0.039648664 -6.2104228e-005 0)
(0.038729922 1.8265248e-005 0)
(0.039075949 -1.5204138e-005 0)
(0.039095271 -9.5858418e-006 0)
(0.039194635 -1.3638234e-005 0)
(0.039318325 -1.7924607e-005 0)
(0.03948062 -2.3915428e-005 0)
(0.039699752 -3.2376286e-005 0)
(0.039997256 -4.4136612e-005 0)
(0.040403995 -6.0538934e-005 0)
(0.040963141 -8.3486695e-005 0)
(0.041735866 -0.00011579055 0)
(0.0428101 -0.00016167207 0)
(0.044314124 -0.00022762894 0)
(0.046439565 -0.00032378297 0)
(0.04947569 -0.00046630634 0)
(0.053862625 -0.00068293926 0)
(0.060401294 -0.0010020691 0)
(0.069662631 -0.0015270221 0)
(0.085265537 -0.0021582852 0)
(0.10308126 -0.0030942049 0)
(0.13719267 -0.0035701366 0)
(0.034678672 4.5797692e-005 0)
(0.041869615 -0.00016875326 0)
(0.037152139 0.00014139371 0)
(0.039638589 -0.00011498443 0)
(0.038737519 1.6963345e-005 0)
(0.039070854 -3.6345132e-005 0)
(0.039095377 -3.0099733e-005 0)
(0.039192577 -4.0722224e-005 0)
(0.039315763 -5.3546851e-005 0)
(0.039477022 -7.1517585e-005 0)
(0.039694717 -9.6778829e-005 0)
(0.039990238 -0.00013193654 0)
(0.040394198 -0.00018094773 0)
(0.04094939 -0.00024949847 0)
(0.041716416 -0.00034596598 0)
(0.042782293 -0.0004829227 0)
(0.044273835 -0.00067968184 0)
(0.046380273 -0.00096641824 0)
(0.049386577 -0.0013913092 0)
(0.053729095 -0.0020347962 0)
(0.060192292 -0.0029990534 0)
(0.069369229 -0.0045256174 0)
(0.08487736 -0.0065633894 0)
(0.10270251 -0.0091810322 0)
(0.1377062 -0.011141483 0)
(0.034640814 3.8325983e-005 0)
(0.041878183 -0.0001964274 0)
(0.03715689 0.0001514425 0)
(0.039623257 -0.00013330436 0)
(0.038746692 -1.1747734e-006 0)
(0.039065142 -5.1313971e-005 0)
(0.03909412 -5.1609563e-005 0)
(0.039188769 -6.7487844e-005 0)
(0.039310632 -8.883442e-005 0)
(0.03946983 -0.00011870714 0)
(0.039684669 -0.00016059217 0)
(0.039976238 -0.00021891839 0)
(0.040374648 -0.00030019957 0)
(0.040921952 -0.000413851 0)
(0.041677611 -0.00057372372 0)
(0.04272683 -0.00080058656 0)
(0.044193498 -0.001126292 0)
(0.046262044 -0.0016006751 0)
(0.049209274 -0.0023033982 0)
(0.05346138 -0.0033650968 0)
(0.059779792 -0.0049735227 0)
(0.068769744 -0.0074709326 0)
(0.084107989 -0.011009217 0)
(0.1019133 -0.015308356 0)
(0.13870478 -0.019096412 0)
(0.034597275 3.6717342e-005 0)
(0.041889812 -0.0002337076 0)
(0.037165333 0.00017166847 0)
(0.039603022 -0.00015849379 0)
(0.038757275 -1.4253114e-005 0)
(0.03905836 -6.6377551e-005 0)
(0.039091357 -7.2841423e-005 0)
(0.03918327 -9.3826411e-005 0)
(0.039302963 -0.00012356149 0)
(0.039459092 -0.00016512622 0)
(0.039669677 -0.00022334505 0)
(0.039955353 -0.00030441263 0)
(0.04034549 -0.00041734894 0)
(0.040881047 -0.00057519312 0)
(0.041619789 -0.00079710424 0)
(0.042644239 -0.0011117706 0)
(0.044073954 -0.0015631198 0)
(0.046086211 -0.0022198735 0)
(0.048945876 -0.0031920781 0)
(0.053062165 -0.0046593267 0)
(0.059166142 -0.0068949003 0)
(0.067859531 -0.010361017 0)
(0.082925811 -0.015423034 0)
(0.10069026 -0.021701339 0)
(0.14039119 -0.027391509 0)
(0.034546183 4.1223012e-005 0)
(0.041905082 -0.00028401052 0)
(0.037176906 0.00020384166 0)
(0.039577396 -0.00019100225 0)
(0.038769809 -2.5771781e-005 0)
(0.039050425 -8.1850666e-005 0)
(0.039087266 -9.3544065e-005 0)
(0.039176093 -0.00011959305 0)
(0.03929281 -0.00015750826 0)
(0.039444888 -0.00021047234 0)
(0.039649852 -0.00028461576 0)
(0.039927744 -0.00038783632 0)
(0.040306962 -0.00053157314 0)
(0.040827027 -0.00073234879 0)
(0.041543486 -0.0010144001 0)
(0.042535354 -0.0014139497 0)
(0.043916516 -0.0019863507 0)
(0.045854858 -0.0028181176 0)
(0.04859956 -0.0040480234 0)
(0.052535993 -0.0059027416 0)
(0.058354285 -0.0087394566 0)
(0.066635681 -0.013167095 0)
(0.081263934 -0.019784965 0)
(0.099024896 -0.028527757 0)
(0.14356783 -0.036149704 0)
(0.034485966 5.0612711e-005 0)
(0.041923886 -0.00034370366 0)
(0.037191128 0.00024389625 0)
(0.039546016 -0.00022731197 0)
(0.038784683 -3.6583946e-005 0)
(0.039041372 -9.700069e-005 0)
(0.03908192 -0.00011368513 0)
(0.039167286 -0.00014463742 0)
(0.039280249 -0.00019046002 0)
(0.039427323 -0.00025445929 0)
(0.039625347 -0.00034400714 0)
(0.039893627 -0.00046863829 0)
(0.040259381 -0.00064209772 0)
(0.040760366 -0.00088421625 0)
(0.041449423 -0.0012240212 0)
(0.042401298 -0.0017047877 0)
(0.043722972 -0.0023924748 0)
(0.045570858 -0.0033899961 0)
(0.048174879 -0.0048626277 0)
(0.051889764 -0.0070810276 0)
(0.057351228 -0.010483386 0)
(0.065094602 -0.015847112 0)
(0.079032804 -0.024083077 0)
(0.096840019 -0.036076076 0)
(0.14902349 -0.045917561 0)
(0.034414164 6.5126194e-005 0)
(0.041945823 -0.00041351389 0)
(0.037208374 0.00029262608 0)
(0.039508405 -0.00026797216 0)
(0.038802334 -4.5864332e-005 0)
(0.039031094 -0.00011167365 0)
(0.039075364 -0.0001331846 0)
(0.039156912 -0.00016880675 0)
(0.039265367 -0.00022221666 0)
(0.039406518 -0.00029681528 0)
(0.039596335 -0.00040114492 0)
(0.039853257 -0.00054629999 0)
(0.040203118 -0.00074819715 0)
(0.040681619 -0.001029769 0)
(0.041338449 -0.0014244962 0)
(0.042243401 -0.0019821409 0)
(0.043495458 -0.0027782983 0)
(0.045237687 -0.0039306085 0)
(0.047677487 -0.0056280639 0)
(0.051132328 -0.0081810547 0)
(0.056167323 -0.012101865 0)
(0.063235621 -0.018348866 0)
(0.07613671 -0.028280894 0)
(0.093712688 -0.044747142 0)
(0.15504355 -0.057896249 0)
(0.034323308 8.882276e-005 0)
(0.041970182 -0.00050262245 0)
(0.03723107 0.00035860921 0)
(0.039462842 -0.00031780401 0)
(0.038823394 -5.2689029e-005 0)
(0.039019488 -0.00012569902 0)
(0.039067652 -0.00015200159 0)
(0.03914503 -0.0001919583 0)
(0.039248249 -0.00025259127 0)
(0.039382594 -0.00033728439 0)
(0.039562979 -0.00045568531 0)
(0.039806872 -0.00062034168 0)
(0.040138524 -0.00084920127 0)
(0.040591309 -0.0011680633 0)
(0.041211361 -0.001614481 0)
(0.042062905 -0.0022440636 0)
(0.04323596 -0.0031409437 0)
(0.044858605 -0.0044355376 0)
(0.047112705 -0.0063372098 0)
(0.050271802 -0.0091902723 0)
(0.054810866 -0.013569445 0)
(0.0610633 -0.020612276 0)
(0.072470082 -0.032260123 0)
(0.088685734 -0.054525993 0)
(0.15527923 -0.072967261 0)
(0.034197194 0.00012861025 0)
(0.041997566 -0.00062086813 0)
(0.037264197 0.0004520933 0)
(0.039403735 -0.00038189138 0)
(0.038850125 -5.742933e-005 0)
(0.039006437 -0.00013823543 0)
(0.039058759 -0.00017010481 0)
(0.039131704 -0.00021396069 0)
(0.039228963 -0.00028137582 0)
(0.039355649 -0.00037559191 0)
(0.039525423 -0.00050724886 0)
(0.039754674 -0.00069024205 0)
(0.040065901 -0.00094438797 0)
(0.040489889 -0.0012980924 0)
(0.041068854 -0.0017925612 0)
(0.041860907 -0.0024885489 0)
(0.042946256 -0.003477517 0)
(0.044436577 -0.0049004981 0)
(0.04648554 -0.0069833151 0)
(0.049316243 -0.010096235 0)
(0.053290094 -0.014860069 0)
(0.058588275 -0.022562167 0)
(0.067944686 -0.035754376 0)
(0.080669807 -0.064283012 0)
(0.14173842 -0.089075043 0)
(0.034020671 0.00016835724 0)
(0.042031156 -0.00072817244 0)
(0.037311873 0.00053034192 0)
(0.039322743 -0.00043170027 0)
(0.038886829 -6.9174017e-005 0)
(0.038991921 -0.00014861777 0)
(0.039048434 -0.00018710512 0)
(0.039117043 -0.00023470913 0)
(0.039207604 -0.00030832606 0)
(0.039325803 -0.00041142149 0)
(0.039483855 -0.00055539794 0)
(0.03969693 -0.00075540577 0)
(0.039985632 -0.0010329318 0)
(0.040377927 -0.001418697 0)
(0.040911791 -0.0019570855 0)
(0.041638733 -0.0027132098 0)
(0.042628477 -0.0037844731 0)
(0.043975104 -0.005320025 0)
(0.045802114 -0.0075569589 0)
(0.048276529 -0.010880392 0)
(0.051623554 -0.015932687 0)
(0.055845025 -0.024054034 0)
(0.062614093 -0.038280609 0)
(0.06940932 -0.071373224 0)
(0.11125095 -0.09902569 0)
(0.15744098 -0.0010085379 0)
(0.15669494 -0.00042463396 0)
(0.1615431 -0.00022156962 0)
(0.16142092 -4.3776402e-005 0)
(0.16176393 -2.3648745e-005 0)
(0.16187557 -7.905072e-006 0)
(0.16188781 -2.17268e-006 0)
(0.16190065 -9.0061197e-007 0)
(0.16190389 -2.8727976e-007 0)
(0.16190479 -9.2091806e-008 0)
(0.1619052 -3.2985397e-008 0)
(0.16190532 -1.0781741e-008 0)
(0.16190536 -3.6121694e-009 0)
(0.16190537 -1.2163823e-009 0)
(0.16190537 -3.8884149e-010 0)
(0.16190537 -1.1311101e-010 0)
(0.16190538 -2.2870128e-011 0)
(0.16190537 -1.048921e-011 0)
(0.16190537 -7.40534e-012 0)
(0.16190537 -2.7197673e-011 0)
(0.16190537 -2.8024975e-011 0)
(0.16190537 -2.0652168e-011 0)
(0.16190537 2.6901506e-012 0)
(0.16190537 2.1367584e-010 0)
(0.16190537 2.1105928e-010 0)
(0.15819997 -0.002653561 0)
(0.15684803 -0.0014492112 0)
(0.16162613 -0.00054517221 0)
(0.16144622 -0.00014882469 0)
(0.16175437 -6.685242e-005 0)
(0.16186225 -2.1251866e-005 0)
(0.16187088 -6.6717054e-006 0)
(0.1618826 -2.5059092e-006 0)
(0.16188557 -8.0868708e-007 0)
(0.16188634 -2.6802261e-007 0)
(0.16188671 -9.3015116e-008 0)
(0.16188682 -3.0756617e-008 0)
(0.16188685 -1.0304996e-008 0)
(0.16188687 -3.4533547e-009 0)
(0.16188687 -1.1178744e-009 0)
(0.16188687 -3.5148919e-010 0)
(0.16188687 -9.6389461e-011 0)
(0.16188687 -5.5500577e-011 0)
(0.16188687 -5.2224246e-011 0)
(0.16188687 -9.8500746e-011 0)
(0.16188687 -1.0079193e-010 0)
(0.16188687 -9.1132389e-011 0)
(0.16188687 -1.287524e-011 0)
(0.16188687 5.2528472e-010 0)
(0.16188687 5.575662e-010 0)
(0.15943306 -0.0040176795 0)
(0.15682005 -0.0025131768 0)
(0.16152633 -0.00077594885 0)
(0.16119888 -0.00025755191 0)
(0.1614576 -0.00010287855 0)
(0.16155317 -3.2038568e-005 0)
(0.16155522 -1.0868263e-005 0)
(0.16156503 -3.8230054e-006 0)
(0.16156738 -1.2516347e-006 0)
(0.16156792 -4.2234581e-007 0)
(0.16156821 -1.4347343e-007 0)
(0.16156829 -4.7864318e-008 0)
(0.16156832 -1.6061687e-008 0)
(0.16156833 -5.3719906e-009 0)
(0.16156833 -1.7565241e-009 0)
(0.16156833 -5.7600737e-010 0)
(0.16156833 -1.8031447e-010 0)
(0.16156833 -1.1111034e-010 0)
(0.16156833 -1.0536735e-010 0)
(0.16156833 -1.6653144e-010 0)
(0.16156833 -1.7233995e-010 0)
(0.16156833 -1.571397e-010 0)
(0.16156833 -2.0118563e-011 0)
(0.16156833 6.591394e-010 0)
(0.16156833 7.2433954e-010 0)
(0.16115158 -0.0051437843 0)
(0.15653129 -0.003406195 0)
(0.16115573 -0.00095704912 0)
(0.16059193 -0.0003408224 0)
(0.16079096 -0.00012885408 0)
(0.16086633 -3.9674106e-005 0)
(0.16085934 -1.3871327e-005 0)
(0.1608666 -4.7342963e-006 0)
(0.16086805 -1.5612003e-006 0)
(0.16086827 -5.2971085e-007 0)
(0.16086845 -1.7820968e-007 0)
(0.1608685 -5.9671506e-008 0)
(0.16086852 -2.0058615e-008 0)
(0.16086852 -6.7093365e-009 0)
(0.16086852 -2.2000657e-009 0)
(0.16086852 -7.3041252e-010 0)
(0.16086852 -2.3487442e-010 0)
(0.16086852 -1.4656676e-010 0)
(0.16086852 -1.3412927e-010 0)
(0.16086852 -2.0770615e-010 0)
(0.16086852 -2.1831788e-010 0)
(0.16086852 -1.8837429e-010 0)
(0.16086852 -1.8656771e-011 0)
(0.16086852 5.4280876e-010 0)
(0.16086852 6.4395076e-010 0)
(0.16504633 -0.0058786901 0)
(0.15755485 -0.0040378802 0)
(0.16192598 -0.0010631989 0)
(0.161033 -0.00038945864 0)
(0.16116127 -0.00014175245 0)
(0.16120938 -4.3110311e-005 0)
(0.16119121 -1.5294656e-005 0)
(0.16119532 -5.1246903e-006 0)
(0.1611956 -1.6957184e-006 0)
(0.16119543 -5.7634066e-007 0)
(0.16119549 -1.9284501e-007 0)
(0.16119549 -6.4690753e-008 0)
(0.16119549 -2.1739422e-008 0)
(0.16119549 -7.2594174e-009 0)
(0.16119549 -2.3714523e-009 0)
(0.16119549 -7.8319935e-010 0)
(0.16119549 -2.5035007e-010 0)
(0.16119549 -1.6165663e-010 0)
(0.16119549 -1.582859e-010 0)
(0.16119549 -2.5129501e-010 0)
(0.16119549 -2.7758225e-010 0)
(0.16119549 -2.4087371e-010 0)
(0.16119549 -8.0990145e-011 0)
(0.16119549 1.9310573e-010 0)
(0.16119549 3.5748515e-010 0)
(0.17475981 -0.0062994242 0)
(0.16339772 -0.0042922698 0)
(0.16712937 -0.0010266177 0)
(0.16581416 -0.00039458717 0)
(0.16585942 -0.00013833628 0)
(0.16587442 -4.1290224e-005 0)
(0.16584349 -1.4827115e-005 0)
(0.16584387 -4.8736458e-006 0)
(0.16584278 -1.6181193e-006 0)
(0.16584216 -5.5072323e-007 0)
(0.16584207 -1.8320721e-007 0)
(0.16584202 -6.1468861e-008 0)
(0.16584201 -2.0605236e-008 0)
(0.165842 -6.842423e-009 0)
(0.165842 -2.2030073e-009 0)
(0.165842 -7.092834e-010 0)
(0.165842 -2.1879683e-010 0)
(0.165842 -1.6602614e-010 0)
(0.165842 -2.0065248e-010 0)
(0.165842 -3.3738324e-010 0)
(0.165842 -4.0490239e-010 0)
(0.165842 -4.1544011e-010 0)
(0.165842 -3.0362796e-010 0)
(0.165842 7.1872534e-010 0)
(0.16584199 9.7926136e-010 0)
(0.19071242 -0.0068980099 0)
(0.1741869 -0.0040050203 0)
(0.177202 -0.00077062323 0)
(0.17542047 -0.00034681592 0)
(0.17537993 -0.0001158703 0)
(0.17536307 -3.3811267e-005 0)
(0.17531991 -1.2270799e-005 0)
(0.17531669 -3.9000484e-006 0)
(0.1753143 -1.3090794e-006 0)
(0.17531325 -4.4541749e-007 0)
(0.17531302 -1.4644831e-007 0)
(0.17531292 -4.9189989e-008 0)
(0.17531289 -1.6386483e-008 0)
(0.17531288 -5.3600116e-009 0)
(0.17531287 -1.6591468e-009 0)
(0.17531287 -4.9426477e-010 0)
(0.17531287 -1.3419551e-010 0)
(0.17531287 -1.5758165e-010 0)
(0.17531287 -2.5533943e-010 0)
(0.17531287 -4.5970543e-010 0)
(0.17531287 -5.9985744e-010 0)
(0.17531287 -7.4782928e-010 0)
(0.17531287 -6.6281983e-010 0)
(0.17531287 3.6119828e-009 0)
(0.17531285 4.087438e-009 0)
(0.20031657 -0.007856392 0)
(0.17708036 -0.0030813155 0)
(0.18063658 -0.00033471559 0)
(0.17842211 -0.00025182217 0)
(0.17833946 -7.6392211e-005 0)
(0.17830574 -2.2214227e-005 0)
(0.17825511 -8.0633942e-006 0)
(0.17825044 -2.3740106e-006 0)
(0.1782474 -8.2836648e-007 0)
(0.17824615 -2.7906993e-007 0)
(0.17824586 -8.951363e-008 0)
(0.17824574 -3.0179935e-008 0)
(0.1782457 -9.8441955e-009 0)
(0.17824568 -3.1246173e-009 0)
(0.17824568 -8.7985163e-010 0)
(0.17824568 -2.0998722e-010 0)
(0.17824568 -2.5441504e-011 0)
(0.17824568 -1.2672614e-010 0)
(0.17824567 -2.6376055e-010 0)
(0.17824567 -5.0144095e-010 0)
(0.17824567 -6.9438987e-010 0)
(0.17824567 -1.0045e-009 0)
(0.17824567 -9.4781669e-010 0)
(0.17824567 6.6026438e-009 0)
(0.17824566 7.3313373e-009 0)
(0.17647655 -0.0085753265 0)
(0.14719784 -0.0015877146 0)
(0.15342402 3.2496973e-005 0)
(0.1508985 -0.00013236319 0)
(0.15089781 -3.0071191e-005 0)
(0.15086648 -9.670884e-006 0)
(0.15081858 -3.3427653e-006 0)
(0.15081667 -8.0998824e-007 0)
(0.15081409 -3.2274099e-007 0)
(0.15081305 -1.0233077e-007 0)
(0.15081285 -3.0873672e-008 0)
(0.15081275 -1.0424018e-008 0)
(0.15081272 -3.2008768e-009 0)
(0.15081271 -9.3006705e-010 0)
(0.15081271 -1.9504104e-010 0)
(0.15081271 -1.4363702e-011 0)
(0.15081271 2.9125882e-011 0)
(0.15081271 -7.6699532e-011 0)
(0.15081271 -1.7782141e-010 0)
(0.15081271 -3.5218902e-010 0)
(0.15081271 -5.0120339e-010 0)
(0.15081271 -8.2798708e-010 0)
(0.1508127 -9.991189e-010 0)
(0.1508127 5.3666745e-009 0)
(0.15081273 6.1887089e-009 0)
(0.090904886 -0.0076917552 0)
(0.06780286 0.00013006073 0)
(0.074663344 0.00012879528 0)
(0.072661515 -1.1236226e-005 0)
(0.072809486 3.788176e-006 0)
(0.072787722 1.1475734e-007 0)
(0.072761335 3.2344025e-007 0)
(0.072763804 2.0960765e-007 0)
(0.072762598 4.4076223e-008 0)
(0.072762213 2.2247958e-008 0)
(0.07276219 8.7788021e-009 0)
(0.072762161 2.9728528e-009 0)
(0.072762154 1.2015097e-009 0)
(0.072762153 4.7366699e-010 0)
(0.072762152 2.0573478e-010 0)
(0.072762152 7.9991173e-011 0)
(0.072762152 3.7476084e-011 0)
(0.072762152 -2.5142603e-011 0)
(0.072762152 -6.7772841e-011 0)
(0.072762151 -1.3811531e-010 0)
(0.07276215 -1.7761851e-010 0)
(0.072762148 -2.5196732e-010 0)
(0.072762146 -5.4998298e-010 0)
(0.072762141 3.9157757e-009 0)
(0.072762176 4.5548313e-009 0)
(0.033618713 0.00014427779 0)
(0.042107379 -0.00073532649 0)
(0.037423517 0.00046120666 0)
(0.039132627 -0.00039239135 0)
(0.038971998 -0.00012598866 0)
(0.038962892 -0.0001697606 0)
(0.039024688 -0.00021715877 0)
(0.03908532 -0.00027325758 0)
(0.039161197 -0.00035789643 0)
(0.039260889 -0.00047720067 0)
(0.039393508 -0.00064364726 0)
(0.039571518 -0.000874578 0)
(0.03981148 -0.0011943994 0)
(0.040135366 -0.0016377717 0)
(0.040572174 -0.0022543268 0)
(0.041159528 -0.0031160709 0)
(0.041945362 -0.0043290516 0)
(0.042987453 -0.0060526767 0)
(0.044347765 -0.0085337044 0)
(0.046077295 -0.012161081 0)
(0.048130498 -0.017551562 0)
(0.050158806 -0.025845112 0)
(0.051619143 -0.040460673 0)
(0.045419143 -0.074657288 0)
(0.033233589 -0.091130988 0)
(0.033413307 -5.010393e-005 0)
(0.042168188 -0.00040493133 0)
(0.037490973 9.0434188e-005 0)
(0.039014765 -0.00023849714 0)
(0.039001113 -0.00018529103 0)
(0.03893718 -0.0002023325 0)
(0.038983501 -0.00025008781 0)
(0.039027672 -0.00031604106 0)
(0.039078328 -0.00041246708 0)
(0.039144641 -0.00054895859 0)
(0.039231998 -0.00073920965 0)
(0.039347951 -0.0010025499 0)
(0.039502318 -0.0013659682 0)
(0.039707177 -0.0018672933 0)
(0.03997718 -0.002559826 0)
(0.040328693 -0.0035189934 0)
(0.040777372 -0.0048526605 0)
(0.041331526 -0.0067166 0)
(0.041976209 -0.009337425 0)
(0.042639414 -0.013045063 0)
(0.043107775 -0.018304321 0)
(0.042947228 -0.025734595 0)
(0.041403585 -0.036934629 0)
(0.033362886 -0.056097847 0)
(0.010044367 -0.056977997 0)
(0.033292519 -0.0001124144 0)
(0.042198178 -0.00031632938 0)
(0.037540466 -4.7160107e-005 0)
(0.03893518 -0.0002051893 0)
(0.038998245 -0.00020752084 0)
(0.038913886 -0.0002241151 0)
(0.038939614 -0.00027111507 0)
(0.038963698 -0.00034174035 0)
(0.038986743 -0.00044467618 0)
(0.039016105 -0.00059057259 0)
(0.039053701 -0.00079377055 0)
(0.039101954 -0.0010743043 0)
(0.039163616 -0.0014599763 0)
(0.039240996 -0.0019891915 0)
(0.03933485 -0.0027149051 0)
(0.039442057 -0.0037102822 0)
(0.039550404 -0.0050763155 0)
(0.039629166 -0.0069517653 0)
(0.039610619 -0.0095256519 0)
(0.039354997 -0.013048339 0)
(0.038585884 -0.017827379 0)
(0.036824695 -0.024190376 0)
(0.033181697 -0.032948927 0)
(0.024717993 -0.046172271 0)
(0.0082927862 -0.047745908 0)
(0.033233089 -0.00016807182 0)
(0.042218132 -0.00028210476 0)
(0.037573855 -0.00013809097 0)
(0.038895059 -0.00020354196 0)
(0.038987714 -0.00021452856 0)
(0.038890142 -0.0002334026 0)
(0.038895934 -0.00027811826 0)
(0.038898141 -0.00034855305 0)
(0.038892367 -0.00045203962 0)
(0.038883481 -0.00059893561 0)
(0.038869843 -0.00080337098 0)
(0.038848957 -0.0010849584 0)
(0.038816793 -0.0014705638 0)
(0.038766629 -0.0019967609 0)
(0.038686959 -0.0027130427 0)
(0.03855822 -0.0036858455 0)
(0.038346869 -0.0050034421 0)
(0.037995267 -0.0067811325 0)
(0.037404522 -0.0091648838 0)
(0.036406258 -0.012329576 0)
(0.034715393 -0.016456062 0)
(0.031891194 -0.021681581 0)
(0.027201436 -0.028407384 0)
(0.018907123 -0.037654648 0)
(0.0066344081 -0.037203343 0)
(0.033202493 -0.00023659467 0)
(0.042226248 -0.00028606952 0)
(0.037594403 -0.00019257449 0)
(0.038876372 -0.00020653764 0)
(0.038975012 -0.00021288589 0)
(0.038865321 -0.00023016292 0)
(0.038852351 -0.00027029169 0)
(0.03883237 -0.00033622033 0)
(0.038798056 -0.0004343285 0)
(0.038751719 -0.00057401791 0)
(0.038688275 -0.00076837412 0)
(0.03860066 -0.001035468 0)
(0.038478866 -0.0013998533 0)
(0.03830823 -0.0018944969 0)
(0.038067116 -0.0025630859 0)
(0.037723246 -0.0034626775 0)
(0.037227942 -0.0046662672 0)
(0.036507139 -0.0062642074 0)
(0.035448138 -0.008362581 0)
(0.033879378 -0.011074186 0)
(0.031543444 -0.01448789 0)
(0.028088326 -0.018617503 0)
(0.023017497 -0.023628702 0)
(0.015226292 -0.030080687 0)
(0.0050646602 -0.028585865 0)
(0.033185271 -0.00019716955 0)
(0.042228728 -0.00026267448 0)
(0.037596175 -0.00021729127 0)
(0.038849305 -0.00020672346 0)
(0.038940115 -0.00020316886 0)
(0.038817174 -0.00021473106 0)
(0.038786509 -0.00024774073 0)
(0.038745294 -0.00030534832 0)
(0.038684262 -0.00039266846 0)
(0.038603293 -0.00051759864 0)
(0.038494216 -0.00069146643 0)
(0.038345953 -0.000929958 0)
(0.038143377 -0.0012542312 0)
(0.037865373 -0.0016923331 0)
(0.037482407 -0.0022807479 0)
(0.036952989 -0.0030658995 0)
(0.036218629 -0.0041050368 0)
(0.035196937 -0.0054654439 0)
(0.033772356 -0.0072200875 0)
(0.03178475 -0.0094358739 0)
(0.029016952 -0.012145113 0)
(0.02520693 -0.015300731 0)
(0.020037674 -0.018958532 0)
(0.0127869 -0.023508002 0)
(0.0040624146 -0.021885534 0)
(0.033127581 -0.00038317681 0)
(0.04217227 -0.00037544749 0)
(0.037589211 -0.00027083939 0)
(0.038844808 -0.00020887748 0)
(0.038927229 -0.00018453545 0)
(0.038790198 -0.00018734478 0)
(0.038742783 -0.00021131786 0)
(0.038682175 -0.00025765592 0)
(0.038597519 -0.00032972454 0)
(0.038486448 -0.00043349917 0)
(0.038338082 -0.00057805325 0)
(0.038137998 -0.00077605257 0)
(0.037866945 -0.00104451 0)
(0.037498806 -0.0014057403 0)
(0.036998211 -0.0018883033 0)
(0.036317363 -0.0025277024 0)
(0.035391991 -0.0033663232 0)
(0.034136394 -0.0044516354 0)
(0.032438205 -0.0058310485 0)
(0.03015345 -0.0075410344 0)
(0.027103805 -0.0095834753 0)
(0.023102676 -0.011893407 0)
(0.017955192 -0.014480721 0)
(0.011173097 -0.017629195 0)
(0.0034522658 -0.016195733 0)
(0.033804983 -2.9967423e-005 0)
(0.04324902 -0.00027579675 0)
(0.038550913 -0.00025322174 0)
(0.039735066 -0.00017797086 0)
(0.039781925 -0.00015000745 0)
(0.039621448 -0.00014727396 0)
(0.039556551 -0.00016167468 0)
(0.039477618 -0.00019470682 0)
(0.039371356 -0.00024787909 0)
(0.03923314 -0.00032506919 0)
(0.039049533 -0.00043274863 0)
(0.038803129 -0.0005801044 0)
(0.038471073 -0.00077945618 0)
(0.038022948 -0.0010468361 0)
(0.037418457 -0.0014024984 0)
(0.036604616 -0.001871145 0)
(0.035512552 -0.0024814483 0)
(0.034054249 -0.0032641653 0)
(0.032120201 -0.0042477857 0)
(0.029578945 -0.0054498025 0)
(0.026281748 -0.006859971 0)
(0.022094595 -0.0084200986 0)
(0.016900004 -0.010125486 0)
(0.010342801 -0.012173591 0)
(0.0031431783 -0.011085293 0)
(0.035606395 -0.0020635097 0)
(0.045765352 -0.00070663393 0)
(0.040998218 -0.00027933908 0)
(0.042245274 -0.0001409633 0)
(0.042286755 -0.0001041059 0)
(0.042107826 -9.2803393e-005 0)
(0.042026322 -9.7262142e-005 0)
(0.041929043 -0.00011527213 0)
(0.041801348 -0.00014574176 0)
(0.041636338 -0.00019049695 0)
(0.041417912 -0.00025311324 0)
(0.041125656 -0.00033879641 0)
(0.040733055 -0.00045455382 0)
(0.040205257 -0.0006094583 0)
(0.039496752 -0.00081486442 0)
(0.038548735 -0.0010844332 0)
(0.037286447 -0.0014336817 0)
(0.035617089 -0.0018787027 0)
(0.033429412 -0.0024334115 0)
(0.030596462 -0.0031045053 0)
(0.026984654 -0.0038821181 0)
(0.02248874 -0.0047287074 0)
(0.017033011 -0.0056395512 0)
(0.010321246 -0.0067273943 0)
(0.0031220348 -0.0060678248 0)
(0.029792363 -0.0036452708 0)
(0.036906088 -0.0010072633 0)
(0.031972135 -0.00014894928 0)
(0.033010425 -7.5508557e-005 0)
(0.032938034 -4.1721075e-005 0)
(0.032761531 -2.8680593e-005 0)
(0.032688343 -2.8025248e-005 0)
(0.032604531 -3.2322223e-005 0)
(0.032497476 -4.0262771e-005 0)
(0.032360711 -5.2234869e-005 0)
(0.032180645 -6.9114202e-005 0)
(0.031940533 -9.2250427e-005 0)
(0.031618836 -0.00012349008 0)
(0.031187475 -0.00016521361 0)
(0.030610074 -0.00022037422 0)
(0.029840078 -0.00029247298 0)
(0.028819005 -0.00038540694 0)
(0.027475342 -0.00050307784 0)
(0.025725055 -0.00064862313 0)
(0.023474759 -0.00082310534 0)
(0.020629697 -0.0010229981 0)
(0.017123775 -0.0012368624 0)
(0.012917235 -0.0014633193 0)
(0.0077726898 -0.0017463763 0)
(0.0023679964 -0.0016108995 0)
)
;

boundaryField
{
    inlet
    {
        type            fixedValue;
        value           uniform (0.03876 0 0);
    }
    walls
    {
        type            fixedValue;
        value           uniform (0 0 0);
    }
    outlet
    {
        type            zeroGradient;
    }
    centreline
    {
        type            symmetryPlane;
    }
    frontAndBack
    {
        type            empty;
    }
}


// ************************************************************************* //
