/*--------------------------------*- C++ -*----------------------------------*\
| =========                 |                                                 |
| \\      /  F ield         | OpenFOAM: The Open Source CFD Toolbox           |
|  \\    /   O peration     | Version:  5.x                                   |
|   \\  /    A nd           | Web:      www.OpenFOAM.org                      |
|    \\/     M anipulation  |                                                 |
\*---------------------------------------------------------------------------*/
/*   Windows 32 and 64 bit porting by blueCAPE: http://www.bluecape.com.pt   *\
|  Based on Windows porting (2.0.x v4) by Symscape: http://www.symscape.com   |
\*---------------------------------------------------------------------------*/
FoamFile
{
    version     2.0;
    format      ascii;
    class       volVectorField;
    location    "0.01";
    object      U_0;
}
// * * * * * * * * * * * * * * * * * * * * * * * * * * * * * * * * * * * * * //

dimensions      [0 1 -1 0 0 0 0];

internalField   nonuniform List<vector> 
750
(
(0.034631435 3.3337568e-005 0)
(0.041910548 -9.4195228e-005 0)
(0.037127862 8.417719e-005 0)
(0.03964648 -6.2641743e-005 0)
(0.038729256 1.827577e-005 0)
(0.039069621 -1.4983451e-005 0)
(0.039091285 -9.6252263e-006 0)
(0.039189705 -1.3594229e-005 0)
(0.039313246 -1.7899923e-005 0)
(0.039475367 -2.3893904e-005 0)
(0.039694319 -3.2355435e-005 0)
(0.039991655 -4.4115558e-005 0)
(0.040398208 -6.0514304e-005 0)
(0.040957123 -8.3454238e-005 0)
(0.04172953 -0.00011574369 0)
(0.042803289 -0.0001616002 0)
(0.044306582 -0.00022751252 0)
(0.046430821 -0.00032358717 0)
(0.049464798 -0.0004659884 0)
(0.053849216 -0.00068222618 0)
(0.060377239 -0.0010012013 0)
(0.069637705 -0.0015242468 0)
(0.085196591 -0.0021544399 0)
(0.1029873 -0.0030858476 0)
(0.13700679 -0.003562763 0)
(0.034601197 4.78079e-005 0)
(0.041916692 -0.00017124579 0)
(0.037130212 0.00014368503 0)
(0.039636144 -0.00011532494 0)
(0.038737002 1.6820721e-005 0)
(0.039064495 -3.5923901e-005 0)
(0.039091363 -3.0112864e-005 0)
(0.039187659 -4.0609674e-005 0)
(0.039310679 -5.3470493e-005 0)
(0.039471768 -7.1450856e-005 0)
(0.039689284 -9.6714864e-005 0)
(0.039984639 -0.0001318705 0)
(0.040388415 -0.00018087002 0)
(0.040943379 -0.00024939594 0)
(0.041710091 -0.00034581836 0)
(0.042775501 -0.00048269731 0)
(0.044266326 -0.00067932055 0)
(0.046371583 -0.00096581701 0)
(0.04937581 -0.0013903082 0)
(0.05371585 -0.0020327816 0)
(0.060168718 -0.002996038 0)
(0.069345091 -0.004517949 0)
(0.08480975 -0.0065516849 0)
(0.10260956 -0.0091545744 0)
(0.13752349 -0.011122538 0)
(0.034562992 4.0532476e-005 0)
(0.041925314 -0.00019818538 0)
(0.037135228 0.00015320209 0)
(0.039620513 -0.00013279625 0)
(0.038746242 -1.5697216e-006 0)
(0.039058814 -5.0788661e-005 0)
(0.039090065 -5.1534368e-005 0)
(0.039183861 -6.7322485e-005 0)
(0.039305542 -8.870501e-005 0)
(0.039464573 -0.00011859499 0)
(0.039679236 -0.00016048553 0)
(0.039970641 -0.00021880761 0)
(0.040368871 -0.00030006924 0)
(0.040915953 -0.00041367916 0)
(0.041671307 -0.00057347678 0)
(0.042720073 -0.00080021017 0)
(0.044186051 -0.0011256913 0)
(0.046253462 -0.0015996815 0)
(0.049198731 -0.0023017162 0)
(0.053448488 -0.0033619143 0)
(0.059757131 -0.004968246 0)
(0.068747074 -0.0074587921 0)
(0.084043425 -0.010989844 0)
(0.10182148 -0.015263155 0)
(0.13852468 -0.01906914 0)
(0.034519112 3.93159e-005 0)
(0.041936932 -0.0002352284 0)
(0.037144016 0.00017332048 0)
(0.039599989 -0.00015734252 0)
(0.038756795 -1.4810348e-005 0)
(0.039052106 -6.5732088e-005 0)
(0.039087252 -7.2681939e-005 0)
(0.039178366 -9.3609079e-005 0)
(0.039297866 -0.00012337969 0)
(0.039453831 -0.00016496958 0)
(0.039664243 -0.0002231969 0)
(0.039949759 -0.00030425897 0)
(0.040339722 -0.00041716857 0)
(0.040875064 -0.00057495577 0)
(0.041613514 -0.00079676382 0)
(0.042637534 -0.0011112527 0)
(0.044066596 -0.0015622956 0)
(0.046077788 -0.0022185164 0)
(0.048935645 -0.0031897695 0)
(0.053049803 -0.004655074 0)
(0.059144799 -0.0068876034 0)
(0.067839036 -0.010344663 0)
(0.082866409 -0.015396054 0)
(0.10059772 -0.021637086 0)
(0.14019478 -0.027359817 0)
(0.034467647 4.4383827e-005 0)
(0.041952134 -0.00028562699 0)
(0.037155992 0.00020565649 0)
(0.039574051 -0.00018931388 0)
(0.038769239 -2.6512669e-005 0)
(0.039044278 -8.1076923e-005 0)
(0.039083102 -9.3306228e-005 0)
(0.039171191 -0.00011932279 0)
(0.039287705 -0.00015727488 0)
(0.039439622 -0.00021027231 0)
(0.039644418 -0.00028442743 0)
(0.039922155 -0.00038764163 0)
(0.040301205 -0.00053134539 0)
(0.040821066 -0.00073204998 0)
(0.04153725 -0.0010139726 0)
(0.042528716 -0.0014133009 0)
(0.043909274 -0.0019853219 0)
(0.045846642 -0.0028164319 0)
(0.048589726 -0.0040451582 0)
(0.052524321 -0.0058975395 0)
(0.058334625 -0.0087304831 0)
(0.066618114 -0.01314697 0)
(0.081212484 -0.019750011 0)
(0.098928459 -0.02843979 0)
(0.14332039 -0.036109358 0)
(0.034407006 5.4365737e-005 0)
(0.041970825 -0.00034546679 0)
(0.037170679 0.00024592053 0)
(0.039542312 -0.00022509408 0)
(0.03878397 -3.7521792e-005 0)
(0.039035366 -9.6105319e-005 0)
(0.039077689 -0.00011336817 0)
(0.039162381 -0.00014431382 0)
(0.039275134 -0.00019017558 0)
(0.03942205 -0.00025421637 0)
(0.039619911 -0.00034377943 0)
(0.039888043 -0.00046840358 0)
(0.040253638 -0.00064182407 0)
(0.040754431 -0.0008838584 0)
(0.041443233 -0.001223511 0)
(0.042394739 -0.0017040161 0)
(0.043715868 -0.0023912569 0)
(0.045562888 -0.003388013 0)
(0.04816551 -0.0048592717 0)
(0.051878895 -0.0070750114 0)
(0.057333534 -0.010473123 0)
(0.065080814 -0.015823962 0)
(0.078992296 -0.024039041 0)
(0.096742759 -0.035953489 0)
(0.14874103 -0.045840477 0)
(0.034334784 6.9514569e-005 0)
(0.041992641 -0.00041550132 0)
(0.037188448 0.00029493815 0)
(0.039504285 -0.00026526574 0)
(0.038801437 -4.6989722e-005 0)
(0.039025264 -0.00011065939 0)
(0.039071057 -0.00013278731 0)
(0.039152001 -0.00016842927 0)
(0.039260242 -0.00022188149 0)
(0.039401238 -0.00029652972 0)
(0.039590898 -0.00040087826 0)
(0.039847678 -0.00054602573 0)
(0.040197391 -0.00074787835 0)
(0.040675716 -0.0010293535 0)
(0.041332314 -0.0014239061 0)
(0.042236937 -0.0019812526 0)
(0.043488515 -0.0027769044 0)
(0.04523 -0.003928356 0)
(0.047668645 -0.0056242775 0)
(0.05112235 -0.0081743519 0)
(0.056151858 -0.012090761 0)
(0.063226441 -0.018323789 0)
(0.076109573 -0.028227586 0)
(0.093634391 -0.044587125 0)
(0.1548669 -0.05776053 0)
(0.034243634 9.4020851e-005 0)
(0.042016891 -0.00050516991 0)
(0.037211698 0.00036147331 0)
(0.039458279 -0.00031467538 0)
(0.038822275 -5.4022441e-005 0)
(0.039013861 -0.00012456189 0)
(0.039063261 -0.00015152369 0)
(0.039140111 -0.00019152812 0)
(0.039243113 -0.0002522076 0)
(0.039377305 -0.00033695911 0)
(0.039557542 -0.00045538344 0)
(0.039801302 -0.00062003314 0)
(0.04013282 -0.00084884474 0)
(0.040585447 -0.001167601 0)
(0.041205296 -0.0016138274 0)
(0.042056558 -0.0022430841 0)
(0.043229212 -0.0031394157 0)
(0.044851257 -0.0044330884 0)
(0.047104477 -0.0063331248 0)
(0.050262863 -0.0091831322 0)
(0.054797991 -0.013558219 0)
(0.061059298 -0.020586968 0)
(0.072458002 -0.032201911 0)
(0.088655101 -0.054357261 0)
(0.15537369 -0.072835346 0)
(0.034117315 0.00013485939 0)
(0.042044156 -0.00062455915 0)
(0.037245512 0.00045601987 0)
(0.039398695 -0.0003784341 0)
(0.038848712 -5.9071554e-005 0)
(0.039001046 -0.00013698477 0)
(0.039054279 -0.00016954196 0)
(0.039126772 -0.00021348029 0)
(0.039223815 -0.00028094767 0)
(0.039350351 -0.00037523202 0)
(0.039519988 -0.00050691839 0)
(0.039749117 -0.00068990836 0)
(0.040060224 -0.00094400647 0)
(0.040484077 -0.0012976015 0)
(0.041062873 -0.0017918707 0)
(0.041854697 -0.0024875183 0)
(0.042939736 -0.0034759169 0)
(0.044429615 -0.0048979524 0)
(0.046477999 -0.0069790988 0)
(0.049308458 -0.010088977 0)
(0.0532801 -0.014849448 0)
(0.058588998 -0.022538328 0)
(0.067945927 -0.035698682 0)
(0.080693586 -0.064148794 0)
(0.14204492 -0.089072655 0)
(0.033940337 0.00017529718 0)
(0.042077615 -0.00073251816 0)
(0.037294245 0.00053500581 0)
(0.039317022 -0.00042783819 0)
(0.038885012 -7.1059093e-005 0)
(0.038986843 -0.00014732994 0)
(0.039043863 -0.0001864398 0)
(0.039112092 -0.00023417229 0)
(0.039202441 -0.00030785088 0)
(0.039320495 -0.00041102211 0)
(0.03947842 -0.00055503283 0)
(0.039691385 -0.00075503808 0)
(0.039979982 -0.0010325131 0)
(0.040372165 -0.0014181608 0)
(0.040905894 -0.0019563357 0)
(0.041632664 -0.0027120985 0)
(0.042622189 -0.0037827637 0)
(0.043968535 -0.0053173369 0)
(0.04579526 -0.0075525678 0)
(0.048269844 -0.01087304 0)
(0.051616385 -0.015922586 0)
(0.055848626 -0.024031912 0)
(0.062621194 -0.038228744 0)
(0.069462808 -0.0712721 0)
(0.11149818 -0.09917291 0)
(0.15720463 -0.001003806 0)
(0.1564609 -0.00042432326 0)
(0.16128376 -0.00022130548 0)
(0.16118512 -4.4499439e-005 0)
(0.16152067 -2.3565372e-005 0)
(0.16163402 -7.9742449e-006 0)
(0.1616469 -2.2086234e-006 0)
(0.16165962 -9.0600847e-007 0)
(0.16166294 -2.9209022e-007 0)
(0.16166387 -9.3932139e-008 0)
(0.16166428 -3.3576691e-008 0)
(0.1616644 -1.1050748e-008 0)
(0.16166444 -3.7126221e-009 0)
(0.16166446 -1.2523212e-009 0)
(0.16166446 -4.0397529e-010 0)
(0.16166446 -1.1856399e-010 0)
(0.16166446 -2.6832644e-011 0)
(0.16166446 -1.2726525e-011 0)
(0.16166446 -1.0861448e-011 0)
(0.16166446 -2.9835762e-011 0)
(0.16166446 -3.2561361e-011 0)
(0.16166446 -2.335784e-011 0)
(0.16166446 -1.6835059e-012 0)
(0.16166446 1.9763364e-010 0)
(0.16166446 1.9655228e-010 0)
(0.1579725 -0.0026362959 0)
(0.15662283 -0.0014487657 0)
(0.16137539 -0.00054572013 0)
(0.16121918 -0.00014984385 0)
(0.16151989 -6.6900758e-005 0)
(0.16162935 -2.1440934e-005 0)
(0.16163865 -6.7522812e-006 0)
(0.16165024 -2.5282203e-006 0)
(0.16165329 -8.217344e-007 0)
(0.16165409 -2.7294649e-007 0)
(0.16165446 -9.4785989e-008 0)
(0.16165457 -3.1501218e-008 0)
(0.1616546 -1.058553e-008 0)
(0.16165462 -3.55696e-009 0)
(0.16165462 -1.1590542e-009 0)
(0.16165462 -3.6651908e-010 0)
(0.16165462 -1.044814e-010 0)
(0.16165462 -5.9497614e-011 0)
(0.16165462 -5.7212621e-011 0)
(0.16165462 -1.0180239e-010 0)
(0.16165462 -1.0655032e-010 0)
(0.16165462 -9.5058592e-011 0)
(0.16165462 -1.9494997e-011 0)
(0.16165462 4.8692542e-010 0)
(0.16165462 5.214951e-010 0)
(0.15922498 -0.0039872431 0)
(0.1566154 -0.0025134346 0)
(0.16129686 -0.00077765686 0)
(0.16099306 -0.00025828035 0)
(0.16124424 -0.00010327146 0)
(0.1613413 -3.2314843e-005 0)
(0.16134403 -1.097829e-005 0)
(0.16135369 -3.8658239e-006 0)
(0.16135611 -1.2712247e-006 0)
(0.16135667 -4.2986556e-007 0)
(0.16135696 -1.4636079e-007 0)
(0.16135705 -4.901591e-008 0)
(0.16135708 -1.6497406e-008 0)
(0.16135709 -5.5359014e-009 0)
(0.16135709 -1.8195274e-009 0)
(0.16135709 -5.9960688e-010 0)
(0.16135709 -1.9055541e-010 0)
(0.16135709 -1.1543202e-010 0)
(0.16135709 -1.0866133e-010 0)
(0.16135709 -1.6770861e-010 0)
(0.16135709 -1.7452203e-010 0)
(0.16135709 -1.5998751e-010 0)
(0.16135709 -2.561848e-011 0)
(0.16135709 6.1727784e-010 0)
(0.16135709 6.841488e-010 0)
(0.16093325 -0.005103494 0)
(0.1563198 -0.0034081987 0)
(0.16092568 -0.00095970954 0)
(0.16038581 -0.00034136751 0)
(0.16057711 -0.00012957437 0)
(0.16065403 -4.0023824e-005 0)
(0.16064771 -1.4008134e-005 0)
(0.1606548 -4.794573e-006 0)
(0.16065631 -1.5859576e-006 0)
(0.16065655 -5.3933418e-007 0)
(0.16065674 -1.81997e-007 0)
(0.16065679 -6.1142387e-008 0)
(0.1606568 -2.0615599e-008 0)
(0.16065681 -6.9199514e-009 0)
(0.16065681 -2.2800859e-009 0)
(0.16065681 -7.6065435e-010 0)
(0.16065681 -2.4714597e-010 0)
(0.16065681 -1.5126719e-010 0)
(0.16065681 -1.3631701e-010 0)
(0.16065681 -2.0731846e-010 0)
(0.16065681 -2.1814507e-010 0)
(0.16065681 -1.9104431e-010 0)
(0.16065681 -2.2665658e-011 0)
(0.16065681 5.1737852e-010 0)
(0.16065681 6.1801646e-010 0)
(0.16470982 -0.0058273838 0)
(0.1572249 -0.0040444976 0)
(0.16159566 -0.0010676529 0)
(0.16072819 -0.00039006848 0)
(0.16084864 -0.00014279154 0)
(0.16089848 -4.3532554e-005 0)
(0.16088097 -1.5459061e-005 0)
(0.1608849 -5.1996422e-006 0)
(0.16088525 -1.7245799e-006 0)
(0.16088509 -5.8760638e-007 0)
(0.16088515 -1.9729722e-007 0)
(0.16088515 -6.638613e-008 0)
(0.16088515 -2.2381385e-008 0)
(0.16088515 -7.5023158e-009 0)
(0.16088515 -2.4635417e-009 0)
(0.16088515 -8.1840096e-010 0)
(0.16088515 -2.6439382e-010 0)
(0.16088515 -1.6666535e-010 0)
(0.16088515 -1.5935839e-010 0)
(0.16088515 -2.4877491e-010 0)
(0.16088515 -2.7425922e-010 0)
(0.16088515 -2.4138348e-010 0)
(0.16088515 -8.0232385e-011 0)
(0.16088515 1.7505099e-010 0)
(0.16088515 3.3363388e-010 0)
(0.17424631 -0.0062178375 0)
(0.16287195 -0.0043072932 0)
(0.1666259 -0.0010356307 0)
(0.16533829 -0.0003957065 0)
(0.16537563 -0.00013973893 0)
(0.16539245 -4.1788447e-005 0)
(0.16536212 -1.5022756e-005 0)
(0.16536231 -4.962818e-006 0)
(0.16536129 -1.6504496e-006 0)
(0.16536067 -5.6329335e-007 0)
(0.16536058 -1.8813535e-007 0)
(0.16536054 -6.3315281e-008 0)
(0.16536052 -2.1301008e-008 0)
(0.16536051 -7.1049192e-009 0)
(0.16536051 -2.3021983e-009 0)
(0.16536051 -7.4751811e-010 0)
(0.16536051 -2.3389576e-010 0)
(0.16536051 -1.7119706e-010 0)
(0.16536051 -2.0050228e-010 0)
(0.16536051 -3.3251903e-010 0)
(0.16536051 -3.978112e-010 0)
(0.16536051 -4.1063064e-010 0)
(0.16536051 -2.9524187e-010 0)
(0.16536051 6.2290148e-010 0)
(0.1653605 8.7371653e-010 0)
(0.19030766 -0.0067604167 0)
(0.17372555 -0.0040276669 0)
(0.17675993 -0.00078630631 0)
(0.17500573 -0.00034883825 0)
(0.17495624 -0.00011759237 0)
(0.17494089 -3.4339329e-005 0)
(0.17489815 -1.2489919e-005 0)
(0.17489468 -3.999415e-006 0)
(0.17489234 -1.3427071e-006 0)
(0.17489129 -4.5849623e-007 0)
(0.17489106 -1.5154052e-007 0)
(0.17489096 -5.1052381e-008 0)
(0.17489092 -1.7086362e-008 0)
(0.17489091 -5.6228363e-009 0)
(0.17489091 -1.7576143e-009 0)
(0.17489091 -5.3217064e-010 0)
(0.17489091 -1.4889687e-010 0)
(0.17489091 -1.6284364e-010 0)
(0.17489091 -2.553003e-010 0)
(0.17489091 -4.5538162e-010 0)
(0.17489091 -5.9292194e-010 0)
(0.17489091 -7.3948387e-010 0)
(0.17489091 -6.5317071e-010 0)
(0.17489091 3.3409037e-009 0)
(0.17489089 3.8034964e-009 0)
(0.20063114 -0.0076848959 0)
(0.1772868 -0.003102267 0)
(0.18081899 -0.00035338359 0)
(0.17862777 -0.00025426879 0)
(0.17853285 -7.8092203e-005 0)
(0.17850017 -2.2635025e-005 0)
(0.17844963 -8.2655606e-006 0)
(0.17844458 -2.465406e-006 0)
(0.17844155 -8.5687021e-007 0)
(0.17844028 -2.9046923e-007 0)
(0.17843997 -9.3919793e-008 0)
(0.17843985 -3.1749991e-008 0)
(0.17843981 -1.0436833e-008 0)
(0.1784398 -3.3459769e-009 0)
(0.17843979 -9.6224792e-010 0)
(0.17843979 -2.4235197e-010 0)
(0.17843979 -3.8816115e-011 0)
(0.17843979 -1.3190331e-010 0)
(0.17843979 -2.6522935e-010 0)
(0.17843979 -5.0090844e-010 0)
(0.17843979 -6.9188621e-010 0)
(0.17843979 -9.9732798e-010 0)
(0.17843979 -9.4298383e-010 0)
(0.17843979 6.2196808e-009 0)
(0.17843978 6.9331604e-009 0)
(0.17767709 -0.0084549273 0)
(0.14826754 -0.0015963863 0)
(0.15443594 2.0486333e-005 0)
(0.15192741 -0.00013403645 0)
(0.15190988 -3.1210402e-005 0)
(0.15187988 -9.8583323e-006 0)
(0.15183171 -3.4722479e-006 0)
(0.15182928 -8.661106e-007 0)
(0.15182668 -3.3838141e-007 0)
(0.15182561 -1.0918387e-007 0)
(0.15182539 -3.3429178e-008 0)
(0.1518253 -1.1318765e-008 0)
(0.15182526 -3.5395309e-009 0)
(0.15182525 -1.0540815e-009 0)
(0.15182525 -2.3702176e-010 0)
(0.15182525 -3.4216852e-011 0)
(0.15182525 2.0314679e-011 0)
(0.15182525 -8.1180817e-011 0)
(0.15182525 -1.8000269e-010 0)
(0.15182525 -3.5427695e-010 0)
(0.15182525 -5.009345e-010 0)
(0.15182524 -8.2325233e-010 0)
(0.15182524 -9.8605119e-010 0)
(0.15182524 5.0951417e-009 0)
(0.15182527 5.8996065e-009 0)
(0.091919794 -0.0076530451 0)
(0.068741976 0.00013273975 0)
(0.075570668 0.00012796221 0)
(0.073577409 -1.215036e-005 0)
(0.073711723 3.4192515e-006 0)
(0.073691828 9.5234345e-008 0)
(0.073665007 2.7700298e-007 0)
(0.073667103 1.9470054e-007 0)
(0.073665897 4.0449686e-008 0)
(0.073665486 2.0254368e-008 0)
(0.073665452 8.1270191e-009 0)
(0.073665421 2.7520315e-009 0)
(0.073665412 1.1160949e-009 0)
(0.07366541 4.4546959e-010 0)
(0.07366541 2.0046952e-010 0)
(0.07366541 7.5483032e-011 0)
(0.07366541 3.5625521e-011 0)
(0.073665409 -2.7136487e-011 0)
(0.073665409 -6.9385209e-011 0)
(0.073665408 -1.4089449e-010 0)
(0.073665407 -1.8046858e-010 0)
(0.073665405 -2.5710089e-010 0)
(0.073665403 -5.4185122e-010 0)
(0.073665398 3.7682552e-009 0)
(0.073665432 4.3921303e-009 0)
(0.033537042 0.00015093498 0)
(0.042153585 -0.00073728058 0)
(0.037408443 0.00046441758 0)
(0.039125205 -0.00038730209 0)
(0.038969187 -0.00012691605 0)
(0.038958591 -0.00016860614 0)
(0.03901996 -0.00021627168 0)
(0.039080309 -0.00027257353 0)
(0.039156 -0.00035730848 0)
(0.039255555 -0.00047669322 0)
(0.039388066 -0.00064317325 0)
(0.039565992 -0.00087408734 0)
(0.039805882 -0.0011938303 0)
(0.0401297 -0.0016370409 0)
(0.040566443 -0.002253317 0)
(0.041153734 -0.0031146067 0)
(0.041939529 -0.0043268629 0)
(0.042981642 -0.0060493498 0)
(0.044342213 -0.0085285177 0)
(0.046072614 -0.012153009 0)
(0.048128162 -0.017540967 0)
(0.050163588 -0.025825576 0)
(0.051622062 -0.040406079 0)
(0.045477043 -0.074550313 0)
(0.033180906 -0.09141567 0)
(0.03333071 -4.4617227e-005 0)
(0.042213572 -0.00040275497 0)
(0.037477187 9.2918276e-005 0)
(0.039006396 -0.00023442658 0)
(0.03899718 -0.00018400336 0)
(0.038933017 -0.00020103896 0)
(0.038978631 -0.00024897395 0)
(0.039022526 -0.00031517112 0)
(0.039073047 -0.00041175538 0)
(0.039139255 -0.00054835035 0)
(0.039226542 -0.00073864939 0)
(0.039342455 -0.0010019787 0)
(0.039496804 -0.0013653177 0)
(0.039701667 -0.001866478 0)
(0.039971705 -0.0025587309 0)
(0.040323301 -0.0035174575 0)
(0.04077215 -0.0048504657 0)
(0.04132663 -0.0067134356 0)
(0.041971924 -0.0093328626 0)
(0.042636207 -0.013038699 0)
(0.043106701 -0.018296761 0)
(0.042947102 -0.025725902 0)
(0.041398639 -0.036903561 0)
(0.033418445 -0.056012987 0)
(0.010095359 -0.057144208 0)
(0.033209337 -0.00010712522 0)
(0.042242546 -0.00031250428 0)
(0.037527077 -4.4177511e-005 0)
(0.038926577 -0.00020135929 0)
(0.038993414 -0.00020531622 0)
(0.038909465 -0.00022251233 0)
(0.038934556 -0.00026981762 0)
(0.038958378 -0.0003407349 0)
(0.038981339 -0.00044388029 0)
(0.039010645 -0.00058991105 0)
(0.039048217 -0.00079317937 0)
(0.039096478 -0.0010737221 0)
(0.039158178 -0.0014593366 0)
(0.039235633 -0.0019884154 0)
(0.039329614 -0.0027138968 0)
(0.039437026 -0.0037089194 0)
(0.039545695 -0.0050744413 0)
(0.039624973 -0.0069491865 0)
(0.0396072 -0.0095221557 0)
(0.039352739 -0.01304379 0)
(0.038585478 -0.017822163 0)
(0.036825441 -0.024184926 0)
(0.033182472 -0.0329282 0)
(0.024755976 -0.046120794 0)
(0.0083576471 -0.047854805 0)
(0.033149673 -0.00016204411 0)
(0.042261671 -0.00027669633 0)
(0.037560197 -0.00013410273 0)
(0.038886068 -0.00019960644 0)
(0.038982068 -0.00021183007 0)
(0.038885266 -0.000231508 0)
(0.038890582 -0.00027668001 0)
(0.038892585 -0.00034746562 0)
(0.038886793 -0.0004512022 0)
(0.038877907 -0.0005982622 0)
(0.038864294 -0.00080279236 0)
(0.038843463 -0.0010844123 0)
(0.03881139 -0.00146999 0)
(0.038761361 -0.0019960953 0)
(0.038681889 -0.0027122129 0)
(0.038553444 -0.0036847676 0)
(0.03834252 -0.0050020225 0)
(0.037991533 -0.0067792691 0)
(0.037401662 -0.0091624878 0)
(0.036404637 -0.012326621 0)
(0.034715586 -0.016452883 0)
(0.031893078 -0.021678368 0)
(0.027205784 -0.028393293 0)
(0.018929885 -0.03762449 0)
(0.0066657586 -0.037290201 0)
(0.033118779 -0.00022984297 0)
(0.042268951 -0.00027932694 0)
(0.037580226 -0.00018768207 0)
(0.038866965 -0.00020242927 0)
(0.038968779 -0.00020992924 0)
(0.038860086 -0.00022809241 0)
(0.03884682 -0.00026878708 0)
(0.038826731 -0.00033511699 0)
(0.038792474 -0.00043350562 0)
(0.038746197 -0.00057338268 0)
(0.038682827 -0.00076785632 0)
(0.038595311 -0.0010350107 0)
(0.038473648 -0.0013994073 0)
(0.038303188 -0.0018940158 0)
(0.038062318 -0.0025625243 0)
(0.037718787 -0.0034619913 0)
(0.037223954 -0.0046654161 0)
(0.036503798 -0.0062631641 0)
(0.035445675 -0.0083613449 0)
(0.033878113 -0.011072815 0)
(0.031543785 -0.014486778 0)
(0.028090191 -0.018616916 0)
(0.023021672 -0.023620322 0)
(0.015242055 -0.030062539 0)
(0.0050850725 -0.028654485 0)
(0.033102266 -0.00018744638 0)
(0.042271818 -0.00025405868 0)
(0.037582054 -0.00021151845 0)
(0.038840118 -0.00020243908 0)
(0.038934164 -0.00020013242 0)
(0.038812432 -0.00021262751 0)
(0.038781654 -0.00024626503 0)
(0.038740447 -0.00030430234 0)
(0.038679553 -0.00039191695 0)
(0.038598702 -0.00051704739 0)
(0.038489741 -0.00069104942 0)
(0.038341607 -0.00092962683 0)
(0.038139182 -0.0012539499 0)
(0.037861369 -0.0016920743 0)
(0.037478652 -0.002280492 0)
(0.036949566 -0.0030656358 0)
(0.036215653 -0.0041047684 0)
(0.035194555 -0.0054651953 0)
(0.03377076 -0.0072199109 0)
(0.031784168 -0.0094358705 0)
(0.029017685 -0.012145655 0)
(0.025208873 -0.015302057 0)
(0.02004143 -0.018954157 0)
(0.01279951 -0.023496577 0)
(0.0040798712 -0.021938131 0)
(0.033041854 -0.0003752336 0)
(0.042210201 -0.00036604982 0)
(0.03757078 -0.0002644777 0)
(0.038832142 -0.00020450007 0)
(0.038918114 -0.00018158755 0)
(0.038782545 -0.00018536395 0)
(0.038735212 -0.00020997958 0)
(0.038674747 -0.00025674201 0)
(0.038590322 -0.0003290946 0)
(0.038479433 -0.00043306485 0)
(0.03833123 -0.00057775721 0)
(0.038131312 -0.00077585749 0)
(0.037860443 -0.0010443935 0)
(0.037492524 -0.0014056919 0)
(0.036992207 -0.0018883245 0)
(0.03631172 -0.0025278083 0)
(0.035386822 -0.0033665447 0)
(0.034131851 -0.0044520252 0)
(0.032434469 -0.0058316868 0)
(0.030150757 -0.0075420349 0)
(0.027102476 -0.0095851534 0)
(0.023102675 -0.011895899 0)
(0.017957124 -0.014479192 0)
(0.011183097 -0.017622629 0)
(0.0034676123 -0.016235325 0)
(0.033703888 -1.156409e-005 0)
(0.043263523 -0.00026274946 0)
(0.038508609 -0.00024635731 0)
(0.039699469 -0.00017392548 0)
(0.039750163 -0.00014744911 0)
(0.039591531 -0.00014562448 0)
(0.039526987 -0.00016061703 0)
(0.039448382 -0.00019402508 0)
(0.039342495 -0.00024744885 0)
(0.039204593 -0.00032482031 0)
(0.039021288 -0.00043264193 0)
(0.03877521 -0.00058012106 0)
(0.038443537 -0.00077959418 0)
(0.037995889 -0.0010471082 0)
(0.037392011 -0.0014029331 0)
(0.036578973 -0.0018717897 0)
(0.035487967 -0.0024823722 0)
(0.034031058 -0.0032654615 0)
(0.032098834 -0.0042495685 0)
(0.029559961 -0.0054522289 0)
(0.026265848 -0.0068633197 0)
(0.022082256 -0.0084244762 0)
(0.016892324 -0.010127589 0)
(0.010346211 -0.012172806 0)
(0.0031557026 -0.011115648 0)
(0.035492737 -0.0020171142 0)
(0.045777303 -0.00068913834 0)
(0.040958173 -0.00027393974 0)
(0.042214728 -0.00013825205 0)
(0.042261196 -0.00010235215 0)
(0.042084625 -9.176278e-005 0)
(0.042003705 -9.6679384e-005 0)
(0.041906887 -0.00011496827 0)
(0.04177964 -0.00014564369 0)
(0.041614976 -0.0001905731 0)
(0.041396853 -0.00025335865 0)
(0.041104903 -0.000339227 0)
(0.040712638 -0.00045520562 0)
(0.04018524 -0.00061038864 0)
(0.039477233 -0.00081615456 0)
(0.038529853 -0.0010861932 0)
(0.037268394 -0.001436056 0)
(0.035600116 -0.0018818699 0)
(0.033413842 -0.0024375821 0)
(0.030582722 -0.0031099141 0)
(0.026973286 -0.0038890561 0)
(0.022480047 -0.0047373347 0)
(0.017027941 -0.0056481091 0)
(0.010326382 -0.0067358539 0)
(0.0031347354 -0.006093202 0)
(0.029779042 -0.0035771264 0)
(0.037042514 -0.00098911775 0)
(0.032061949 -0.00014836944 0)
(0.033108691 -7.4481345e-005 0)
(0.033041927 -4.1072931e-005 0)
(0.032867235 -2.8439892e-005 0)
(0.032794368 -2.7967287e-005 0)
(0.03271076 -3.2394897e-005 0)
(0.032603759 -4.0461014e-005 0)
(0.032466821 -5.2568255e-005 0)
(0.032286373 -6.9608986e-005 0)
(0.032045645 -9.2949603e-005 0)
(0.031723051 -0.00012445524 0)
(0.031290432 -0.00016652892 0)
(0.030711308 -0.0002221514 0)
(0.029938985 -0.00029485684 0)
(0.028914801 -0.00038857996 0)
(0.02756702 -0.00050726229 0)
(0.025811344 -0.00065407648 0)
(0.023554102 -0.00083010468 0)
(0.020700258 -0.0010318164 0)
(0.017183171 -0.0012477038 0)
(0.012963281 -0.0014758427 0)
(0.0078073648 -0.0017604706 0)
(0.0023864162 -0.0016272152 0)
)
;

boundaryField
{
    inlet
    {
        type            fixedValue;
        value           uniform (0.03876 0 0);
    }
    walls
    {
        type            fixedValue;
        value           uniform (0 0 0);
    }
    outlet
    {
        type            zeroGradient;
    }
    centreline
    {
        type            symmetryPlane;
    }
    frontAndBack
    {
        type            empty;
    }
}


// ************************************************************************* //
