# vtk DataFile Version 2.0
track0
ASCII
DATASET POLYDATA
POINTS 11930 float
-0.0205 0.001 1e-005
-0.020385 0.00100536 1.50254e-005
-0.02027 0.00101047 1.9666e-005
-0.020155 0.00101535 2.39747e-005
-0.02004 0.00102 2.79467e-005
-0.0198621 0.00102682 3.35588e-005
-0.0196931 0.00103275 3.81031e-005
-0.0195241 0.00103808 4.16164e-005
-0.019355 0.00104279 4.41078e-005
-0.0191859 0.0010469 4.55866e-005
-0.0190172 0.00105039 4.60611e-005
-0.0187132 0.00105589 4.60611e-005
-0.0184093 0.00106074 4.60611e-005
-0.0181054 0.00106506 4.60611e-005
-0.0178014 0.00106887 4.60611e-005
-0.0174976 0.00107215 4.60611e-005
-0.0172058 0.00107501 4.60611e-005
-0.016914 0.00107779 4.60611e-005
-0.0166222 0.00108051 4.60611e-005
-0.0163305 0.00108316 4.60611e-005
-0.0160387 0.00108575 4.60611e-005
-0.0157586 0.00108814 4.60611e-005
-0.0154784 0.00109047 4.60611e-005
-0.0151983 0.00109271 4.60611e-005
-0.0149182 0.00109487 4.60611e-005
-0.0146381 0.00109695 4.60611e-005
-0.0143692 0.00109882 4.60611e-005
-0.0141002 0.00110059 4.60611e-005
-0.0138313 0.00110229 4.60611e-005
-0.0135624 0.00110392 4.60611e-005
-0.0132934 0.00110548 4.60611e-005
-0.0130353 0.0011069 4.60611e-005
-0.0127771 0.00110826 4.60611e-005
-0.0125189 0.00110959 4.60611e-005
-0.0122607 0.00111089 4.60611e-005
-0.0120025 0.00111215 4.60611e-005
-0.0117547 0.00111333 4.60611e-005
-0.0115068 0.00111449 4.60611e-005
-0.0112589 0.00111563 4.60611e-005
-0.0110111 0.00111675 4.60611e-005
-0.0107632 0.00111786 4.60611e-005
-0.0105252 0.0011189 4.60611e-005
-0.0102873 0.00111993 4.60611e-005
-0.0100493 0.00112094 4.60611e-005
-0.00981133 0.00112194 4.60611e-005
-0.00957337 0.00112293 4.60611e-005
-0.00934491 0.00112387 4.60611e-005
-0.00911645 0.00112479 4.60611e-005
-0.00888799 0.00112571 4.60611e-005
-0.00865954 0.00112661 4.60611e-005
-0.00843108 0.00112751 4.60611e-005
-0.00821175 0.00112836 4.60611e-005
-0.00799242 0.0011292 4.60611e-005
-0.00777309 0.00113003 4.60611e-005
-0.00755376 0.00113086 4.60611e-005
-0.00733443 0.00113168 4.60611e-005
-0.00712387 0.00113246 4.60611e-005
-0.0069133 0.00113324 4.60611e-005
-0.00670273 0.00113401 4.60611e-005
-0.00649216 0.00113478 4.60611e-005
-0.0062816 0.00113554 4.60611e-005
-0.00607944 0.00113628 4.60611e-005
-0.00587729 0.00113701 4.60611e-005
-0.00567514 0.00113773 4.60611e-005
-0.00547298 0.00113845 4.60611e-005
-0.00527083 0.00113918 4.60611e-005
-0.00507675 0.00113987 4.60611e-005
-0.00488267 0.00114056 4.60611e-005
-0.0046886 0.00114125 4.60611e-005
-0.00449452 0.00114194 4.60611e-005
-0.00430044 0.00114263 4.60611e-005
-0.00411412 0.00114329 4.60611e-005
-0.0039278 0.00114395 4.60611e-005
-0.00374147 0.0011446 4.60611e-005
-0.00355515 0.00114526 4.60611e-005
-0.00336883 0.00114592 4.60611e-005
-0.00318995 0.00114656 4.60611e-005
-0.00301107 0.00114719 4.60611e-005
-0.00283219 0.00114782 4.60611e-005
-0.00265331 0.00114845 4.60611e-005
-0.00247443 0.00114909 4.60611e-005
-0.0023027 0.00114971 4.60611e-005
-0.00213097 0.00115032 4.60611e-005
-0.00195924 0.00115093 4.60611e-005
-0.0017875 0.00115154 4.60611e-005
-0.00161577 0.00115216 4.60611e-005
-0.0014509 0.00115276 4.60611e-005
-0.00128603 0.00115336 4.60611e-005
-0.00112116 0.00115395 4.60611e-005
-0.000956289 0.00115455 4.60611e-005
-0.000791418 0.00115515 4.60611e-005
-0.000633135 0.00115574 4.60611e-005
-0.000474851 0.00115633 4.60611e-005
-0.000316567 0.00115692 4.60611e-005
-0.000158284 0.00115752 4.60611e-005
0 0.00115812 4.60611e-005
0.000105677 0.00115853 4.60611e-005
0.000211355 0.00115894 4.60611e-005
0.000317032 0.00115934 4.60611e-005
0.00042271 0.00115975 4.60611e-005
0.000528387 0.00116017 4.60611e-005
0.000634886 0.0011606 4.60611e-005
0.000741385 0.00116103 4.60611e-005
0.000847885 0.00116145 4.60611e-005
0.000954384 0.00116188 4.60611e-005
0.00106088 0.00116233 4.60611e-005
0.00116821 0.00116278 4.60611e-005
0.00127554 0.00116324 4.60611e-005
0.00138286 0.00116369 4.60611e-005
0.00149019 0.00116415 4.60611e-005
0.00159752 0.00116461 4.60611e-005
0.00170568 0.00116509 4.60611e-005
0.00181384 0.00116556 4.60611e-005
0.001922 0.00116604 4.60611e-005
0.00203016 0.00116652 4.60611e-005
0.00213833 0.001167 4.60611e-005
0.00224733 0.00116749 4.60611e-005
0.00235633 0.00116798 4.60611e-005
0.00246533 0.00116848 4.60611e-005
0.00257434 0.00116897 4.60611e-005
0.00268334 0.00116946 4.60611e-005
0.00279319 0.00116996 4.60611e-005
0.00290304 0.00117047 4.60611e-005
0.00301289 0.00117097 4.60611e-005
0.00312274 0.00117148 4.60611e-005
0.00323259 0.00117198 4.60611e-005
0.00334329 0.00117248 4.60611e-005
0.003454 0.001173 4.60611e-005
0.0035647 0.00117352 4.60611e-005
0.0036754 0.00117403 4.60611e-005
0.00378611 0.00117455 4.60611e-005
0.00389767 0.00117505 4.60611e-005
0.00400924 0.00117557 4.60611e-005
0.0041208 0.0011761 4.60611e-005
0.00423237 0.00117662 4.60611e-005
0.00434393 0.00117715 4.60611e-005
0.00445636 0.00117765 4.60611e-005
0.00456879 0.00117818 4.60611e-005
0.00468123 0.00117871 4.60611e-005
0.00479366 0.00117925 4.60611e-005
0.00490609 0.00117977 4.60611e-005
0.0050194 0.00118028 4.60611e-005
0.0051327 0.00118081 4.60611e-005
0.00524601 0.00118135 4.60611e-005
0.00535931 0.00118189 4.60611e-005
0.00547262 0.00118242 4.60611e-005
0.00558681 0.00118293 4.60611e-005
0.005701 0.00118347 4.60611e-005
0.00581518 0.00118401 4.60611e-005
0.00592937 0.00118454 4.60611e-005
0.00604356 0.00118508 4.60611e-005
0.00615863 0.0011856 4.60611e-005
0.00627371 0.00118614 4.60611e-005
0.00638878 0.00118668 4.60611e-005
0.00650386 0.00118722 4.60611e-005
0.00661893 0.00118776 4.60611e-005
0.0067349 0.00118828 4.60611e-005
0.00685087 0.00118881 4.60611e-005
0.00696684 0.00118935 4.60611e-005
0.00708281 0.00118989 4.60611e-005
0.00719878 0.00119043 4.60611e-005
0.00731565 0.00119095 4.60611e-005
0.00743252 0.00119148 4.60611e-005
0.00754939 0.00119202 4.60611e-005
0.00766626 0.00119255 4.60611e-005
0.00778313 0.00119309 4.60611e-005
0.00790091 0.00119361 4.60611e-005
0.00801869 0.00119414 4.60611e-005
0.00813647 0.00119467 4.60611e-005
0.00825425 0.00119519 4.60611e-005
0.00837203 0.00119572 4.60611e-005
0.00849073 0.00119624 4.60611e-005
0.00860942 0.00119677 4.60611e-005
0.00872812 0.00119729 4.60611e-005
0.00884682 0.00119781 4.60611e-005
0.00896551 0.00119833 4.60611e-005
0.00908513 0.00119885 4.60611e-005
0.00920475 0.00119936 4.60611e-005
0.00932437 0.00119988 4.60611e-005
0.00944398 0.0012004 4.60611e-005
0.0095636 0.00120091 4.60611e-005
0.00968415 0.00120142 4.60611e-005
0.0098047 0.00120193 4.60611e-005
0.00992525 0.00120244 4.60611e-005
0.0100458 0.00120294 4.60611e-005
0.0101663 0.00120344 4.60611e-005
0.0102878 0.00120394 4.60611e-005
0.0104093 0.00120445 4.60611e-005
0.0105308 0.00120495 4.60611e-005
0.0106523 0.00120544 4.60611e-005
0.0107738 0.00120594 4.60611e-005
0.0108962 0.00120643 4.60611e-005
0.0110186 0.00120692 4.60611e-005
0.0111411 0.00120741 4.60611e-005
0.0112635 0.00120789 4.60611e-005
0.0113859 0.00120838 4.60611e-005
0.0115093 0.00120886 4.60611e-005
0.0116327 0.00120934 4.60611e-005
0.0117561 0.00120982 4.60611e-005
0.0118795 0.00121029 4.60611e-005
0.0120028 0.00121076 4.60611e-005
0.0121272 0.00121123 4.60611e-005
0.0122515 0.0012117 4.60611e-005
0.0123759 0.00121217 4.60611e-005
0.0125002 0.00121263 4.60611e-005
0.0126245 0.00121309 4.60611e-005
0.0127498 0.00121354 4.60611e-005
0.0128752 0.001214 4.60611e-005
0.0130005 0.00121445 4.60611e-005
0.0131258 0.0012149 4.60611e-005
0.0132511 0.00121535 4.60611e-005
0.0133774 0.00121579 4.60611e-005
0.0135036 0.00121623 4.60611e-005
0.0136299 0.00121667 4.60611e-005
0.0137562 0.0012171 4.60611e-005
0.0138825 0.00121753 4.60611e-005
0.0140098 0.00121796 4.60611e-005
0.014137 0.00121838 4.60611e-005
0.0142643 0.00121881 4.60611e-005
0.0143915 0.00121923 4.60611e-005
0.0145188 0.00121964 4.60611e-005
0.0146471 0.00122005 4.60611e-005
0.0147753 0.00122045 4.60611e-005
0.0149036 0.00122086 4.60611e-005
0.0150318 0.00122126 4.60611e-005
0.0151601 0.00122165 4.60611e-005
0.0152893 0.00122204 4.60611e-005
0.0154186 0.00122243 4.60611e-005
0.0155478 0.00122282 4.60611e-005
0.0156771 0.0012232 4.60611e-005
0.0158063 0.00122357 4.60611e-005
0.0159366 0.00122394 4.60611e-005
0.0160668 0.0012243 4.60611e-005
0.0161971 0.00122467 4.60611e-005
0.0163274 0.00122502 4.60611e-005
0.0164576 0.00122537 4.60611e-005
0.0165889 0.00122572 4.60611e-005
0.0167201 0.00122606 4.60611e-005
0.0168514 0.0012264 4.60611e-005
0.0169827 0.00122673 4.60611e-005
0.0171139 0.00122705 4.60611e-005
0.0172065 0.00122728 4.60611e-005
0.0172991 0.0012275 4.60611e-005
0.0173917 0.00122772 4.60611e-005
0.0174842 0.00122793 4.60611e-005
0.017574 0.00122814 4.60611e-005
0.0176143 0.00122823 4.60611e-005
0.0176546 0.00122832 4.60611e-005
0.0176949 0.00122841 4.60611e-005
0.0177351 0.0012285 4.60611e-005
0.0177754 0.00122859 4.60611e-005
0.0179087 0.00122888 4.60611e-005
0.018042 0.00122916 4.60611e-005
0.0181753 0.00122944 4.60611e-005
0.0183087 0.00122971 4.60611e-005
0.018442 0.00122997 4.60611e-005
0.0185763 0.00123023 4.60611e-005
0.0187107 0.00123048 4.60611e-005
0.018845 0.00123072 4.60611e-005
0.0189794 0.00123096 4.60611e-005
0.0191137 0.00123118 4.60611e-005
0.0192491 0.0012314 4.60611e-005
0.0193845 0.00123161 4.60611e-005
0.0195199 0.00123182 4.60611e-005
0.0196553 0.00123202 4.60611e-005
0.0197907 0.0012322 4.60611e-005
0.0199272 0.00123238 4.60611e-005
0.0200636 0.00123255 4.60611e-005
0.0202001 0.00123271 4.60611e-005
0.0203365 0.00123287 4.60611e-005
0.020473 0.00123301 4.60611e-005
0.0206105 0.00123315 4.60611e-005
0.020748 0.00123327 4.60611e-005
0.0208855 0.00123339 4.60611e-005
0.021023 0.0012335 4.60611e-005
0.0211606 0.0012336 4.60611e-005
0.0212991 0.00123369 4.60611e-005
0.0214377 0.00123376 4.60611e-005
0.0215763 0.00123383 4.60611e-005
0.0217149 0.00123389 4.60611e-005
0.0218535 0.00123394 4.60611e-005
0.0219931 0.00123398 4.60611e-005
0.0221328 0.00123401 4.60611e-005
0.0222724 0.00123403 4.60611e-005
0.0224121 0.00123403 4.60611e-005
0.0225517 0.00123403 4.60611e-005
0.0226925 0.00123402 4.60611e-005
[...]
POINT_DATA 11930
 FIELD attributes 2
p 1 11930 float
-1547.94 -1535.33 -1521.52 -1507.85 -1494.33 -1473.67 -1459 -1444.25 -1429.43 -1414.53 -1393.76 -1345.61 -1297.54 -1249.54 -1201.61 -1159.13 -1127.54 -1102.12 -1076.7 -1051.3 -1034.49 -1022.75 -1013.26 -1003.77 -994.287 -986.619 -979.802 -971.847 -963.891 -955.935 -946.862 -938.372 -929.726 -921.076 -912.446 -904.073 -896.126 -888.982 -881.931 -875.034 -869.061 -863.334 -858.187 -853.163 -848.295 -844.017 -839.897 -836.001 -832.175 -828.438 -824.943 -821.569 -818.323 -815.131 -812.012 -809.047 -806.175 -803.425 -800.74 -798.139 -795.677 -793.278 -790.988 -788.77 -786.638 -784.624 -782.648 -780.751 -778.917 -777.159 -775.488 -773.83 -772.232 -770.691 -769.218 -767.812 -766.395 -765.023 -763.702 -762.445 -761.242 -760.006 -758.809 -757.667 -756.595 -755.573 -754.492 -753.437 -752.423 -751.482 -750.586 -749.609 -748.68 -747.837 -747.114 -746.452 -745.723 -745.053 -744.496 -744.076 -743.736 -743.232 -742.769 -742.364 -742.051 -741.807 -741.388 -741.07 -740.87 -740.788 -740.813 -740.66 -740.589 -740.594 -740.663 -740.807 -740.912 -741.003 -741.082 -741.152 -741.207 -741.478 -741.644 -741.746 -741.786 -741.713 -742.101 -742.316 -742.448 -742.493 -742.332 -742.803 -743.047 -743.207 -743.276 -743.064 -743.563 -743.792 -743.946 -744.022 -743.768 -744.228 -744.405 -744.524 -744.589 -744.318 -744.703 -744.833 -744.929 -744.997 -744.761 -745.071 -745.175 -745.265 -745.347 -745.177 -745.414 -745.495 -745.574 -745.653 -745.552 -745.71 -745.771 -745.831 -745.892 -745.852 -745.947 -745.998 -746.049 -746.1 -746.112 -746.174 -746.227 -746.28 -746.333 -746.387 -746.434 -746.491 -746.549 -746.606 -746.685 -746.731 -746.792 -746.853 -746.913 -747.004 -747.061 -747.127 -747.194 -747.261 -747.353 -747.43 -747.505 -747.581 -747.656 -747.745 -747.848 -747.936 -748.024 -748.112 -748.198 -748.329 -748.43 -748.532 -748.634 -748.719 -748.873 -748.988 -749.102 -749.217 -749.304 -749.476 -749.603 -749.73 -749.856 -749.948 -750.134 -750.273 -750.412 -750.551 -750.653 -750.849 -751 -751.152 -751.303 -751.42 -751.621 -751.785 -751.949 -752.112 -752.248 -752.454 -752.633 -752.811 -752.99 -753.15 -753.363 -753.559 -753.755 -753.952 -754.14 -754.294 -754.442 -754.59 -754.738 -754.881 -754.945 -755.009 -755.073 -755.138 -755.212 -755.426 -755.65 -755.873 -756.097 -756.365 -756.561 -756.798 -757.034 -757.271 -757.583 -757.767 -758.017 -758.267 -758.516 -758.866 -759.044 -759.306 -759.569 -759.831 -760.212 -760.389 -760.664 -760.938 -761.213 -761.616 -761.801 -762.087 -762.374 -762.66 -763.077 -763.277 -763.574 -763.872 -764.17 -764.59 -764.812 -765.12 -765.429 -765.737 -766.152 -766.402 -766.72 -767.038 -767.356 -767.757 -768.042 -768.369 -768.695 -769.023 -769.403 -769.724 -770.06 -770.395 -770.731 -771.086 -771.446 -771.79 -772.133 -772.476 -772.804 -773.202 -773.555 -773.907 -774.253 -774.557 -774.984 -775.353 -775.712 -776.056 -776.343 -776.793 -777.181 -777.547 -777.885 -778.161 -778.628 -779.036 -779.409 -779.739 -780.01 -780.489 -780.918 -781.299 -781.622 -781.895 -782.384 -782.834 -783.223 -783.539 -783.813 -784.311 -784.781 -785.177 -785.482 -785.759 -786.261 -786.746 -787.145 -787.439 -787.719 -788.216 -788.711 -789.109 -789.396 -789.681 -790.17 -790.66 -791.054 -791.35 -791.645 -792.122 -792.6 -792.993 -793.3 -793.607 -794.07 -794.534 -794.926 -795.245 -795.563 -796.012 -796.46 -796.85 -797.18 -797.51 -797.943 -798.375 -798.762 -799.102 -799.442 -799.859 -800.275 -800.658 -801.007 -801.355 -801.756 -802.157 -802.536 -802.891 -803.247 -803.634 -804.021 -804.394 -804.754 -805.113 -805.486 -805.858 -806.226 -806.587 -806.947 -807.306 -807.665 -808.025 -808.383 -808.74 -809.085 -809.432 -809.783 -810.134 -810.487 -810.817 -811.153 -811.493 -811.834 -812.179 -812.495 -812.819 -813.146 -813.474 -813.808 -814.108 -814.419 -814.732 -815.045 -815.365 -815.648 -815.943 -816.238 -816.534 -816.836 -817.101 -817.377 -817.653 -817.929 -818.213 -818.457 -818.712 -818.967 -819.223 -819.486 -819.709 -819.942 -820.175 -820.409 -820.648 -820.851 -821.06 -821.27 -821.48 -821.693 -821.874 -822.059 -822.243 -822.428 -822.613 -822.617 -822.62 -822.623 -822.626 -822.629 -822.785 -822.941 -823.096 -823.252 -823.406 -823.538 -823.667 -823.796 -823.925 -824.05 -824.153 -824.25 -824.347 -824.445 -824.536 -824.608 -824.672 -824.736 -824.8 -824.854 -824.895 -824.923 -824.951 -824.979 -824.993 -825.001 -824.99 -824.979 -824.967 -824.94 -824.909 -824.861 -824.81 -824.752 -824.683 -824.61 -824.525 -824.431 -824.326 -824.212 -824.095 -823.971 -823.831 -823.676 -823.515 -823.353 -823.188 -823 -822.791 -822.581 -822.37 -822.16 -821.922 -821.66 -821.398 -821.136 -820.875 -820.585 -820.27 -819.954 -819.638 -819.323 -818.98 -818.608 -818.235 -817.864 -817.493 -817.094 -816.662 -816.23 -815.8 -815.367 -814.907 -814.419 -813.926 -813.434 -812.931 -812.407 -811.865 -811.308 -810.752 -810.176 -809.587 -808.988 -808.364 -807.742 -807.09 -806.433 -805.776 -805.084 -804.388 -803.66 -802.933 -802.205 -801.453 -800.675 -799.875 -799.075 -798.275 -797.46 -796.598 -795.722 -794.847 -793.971 -793.094 -792.89 -792.683 -792.476 -792.27 -792.066 -791.323 -790.581 -789.839 -789.097 -788.343 -787.329 -786.302 -785.276 -784.25 -783.196 -782.118 -781.01 -779.903 -778.797 -777.644 -776.501 -775.311 -774.122 -772.924 -771.679 -770.454 -769.196 -767.922 -766.622 -765.291 -763.981 -762.656 -761.297 -759.891 -758.473 -757.076 -755.679 -754.23 -752.723 -751.217 -749.732 -748.248 -746.709 -745.113 -743.518 -741.944 -740.371 -738.74 -737.054 -735.369 -733.704 -732.029 -730.301 -728.54 -726.763 -725.007 -723.216 -721.396 -719.563 -717.694 -715.846 -713.936 -712.023 -710.11 -708.157 -706.194 -704.186 -702.179 -700.171 -698.146 -696.567 -694.968 -693.369 -691.77 -690.25 -689.734 -689.218 -688.702 -688.187 -687.664 -685.485 -683.301 -681.117 -678.934 -676.716 -674.466 -672.188 -669.909 -667.631 -665.29 -662.96 -660.597 -658.224 -655.822 -653.386 -650.961 -648.529 -646.062 -643.536 -641.004 -638.486 -635.968 -633.398 -630.773 -628.148 -625.535 -622.923 -620.253 -617.535 -614.817 -612.111 -609.38 -606.61 -603.826 -601.015 -598.217 -595.359 -592.497 -589.635 -586.744 -583.825 -580.871 -577.917 -574.963 -572.009 -571.929 -571.848 -571.767 -571.686 -571.605 -568.647 -565.69 -562.734 -559.778 -556.798 -553.686 -550.559 -547.432 -544.304 -541.132 -537.94 -534.733 -531.519 -528.278 -525.019 -521.739 -518.46 -515.153 -511.809 -508.463 -505.097 -501.732 -498.331 -494.902 -491.473 -488.023 -484.559 -481.067 -477.568 -474.057 -470.524 -466.954 -463.38 -459.808 -456.224 -453.53 -450.819 -448.107 -445.396 -442.795 -441.834 -440.873 -439.911 -438.95 -437.981 -434.261 -430.538 -426.815 -423.093 -419.335 -415.554 -411.757 -407.959 -404.145 -400.304 -396.45 -392.594 -388.723 -384.813 -380.902 -376.977 -373.052 -369.097 -365.12 -361.141 -357.149 -353.143 -349.114 -345.081 -341.038 -336.979 -332.887 -328.795 -324.704 -320.607 -318.901 -317.185 -315.47 -313.755 -312.076 -309.634 -307.193 -304.752 -302.311 -299.856 -295.656 -291.452 -287.248 -283.042 -278.803 -274.554 -270.301 -266.044 -261.763 -257.473 -253.173 -248.873 -244.555 -240.22 -235.884 -231.536 -227.182 -222.808 -218.432 -214.053 -209.661 -205.246 -200.831 -196.416 -191.999 -190.482 -188.96 -187.437 -185.915 -184.418 -181.482 -178.548 -175.613 -172.679 -169.731 -165.246 -160.76 -156.274 -151.783 -147.273 -142.757 -138.24 -133.724 -129.188 -124.651 -120.106 -115.561 -111.002 -106.441 -101.878 -97.3056 -92.7259 -88.1415 -83.5576 -78.9744 -75.7057 -72.4324 -69.1594 -65.8866 -62.7157 -61.3671 -60.0185 -58.6699 -57.3214 -55.9699 -51.3513 -46.7344 -42.118 -37.5015 -32.8719 -28.2373 -23.6055 -18.9771 -14.3409 -9.70159 -5.0566 -0.412185 4.23477 8.87702 13.5214 18.1721 22.8241 27.4768 32.129 36.7761 39.738 42.7 45.6618 48.6234 51.5092 53.2178 54.9264 56.6349 58.3434 60.053 64.7147 69.3713 74.0274 78.6832 83.3414 88.0029 92.6623 97.3121 101.96 106.609 111.263 115.916 120.564 125.202 129.841 134.483 139.119 143.754 148.388 153.02 153.966 154.909 155.853 156.797 157.733 161.418 165.103 168.788 172.472 176.153 180.778 185.391 190.001 194.605 199.208 203.813 208.416 213.008 217.586 222.166 226.748 231.321 235.888 240.455 245.013 247.189 249.358 251.527 253.696 255.83 258.215 260.601 262.986 265.371 267.75 272.287 276.812 281.336 285.853 290.364 294.873 299.381 303.873 308.349 312.827 317.303 321.769 326.226 330.682 335.128 337.318 339.499 341.679 343.859 346.007 348.261 350.516 352.771 355.025 357.271 361.683 366.082 370.48 374.867 379.248 383.622 387.995 392.351 396.689 401.028 405.361 409.679 413.989 418.299 422.603 423.806 425.004 426.2 427.397 428.585 431.669 434.754 437.838 440.921 443.991 448.245 452.489 456.728 460.947 465.165 469.372 473.579 477.763 481.935 486.105 489.702 493.279 496.854 500.429 503.933 504.508 505.083 505.659 506.234 506.806 510.913 515.016 519.118 523.214 527.294 531.359 535.423 539.468 543.492 547.519 551.529 555.525 559.508 563.492 567.469 568.462 569.45 570.436 571.423 572.405 575.363 578.322 581.28 584.235 587.173 591.08 594.982 598.87 602.731 606.593 610.439 614.275 618.09 621.904 625.702 627.273 628.833 630.39 631.946 633.497 635.706 637.914 640.123 642.327 644.517 648.244 651.958 655.665 659.339 663.011 666.666 670.313 673.927 677.539 681.128 682.754 684.37 685.983 687.595 689.215 691.157 693.099 695.041 696.979 698.905 702.426 705.912 709.378 712.762 716.137 719.491 722.87 726.368 729.876 733.433 735.101 736.456 737.713 738.97 740.254 741.893 743.531 745.168 746.706 747.901 750.137 753.011 756.118 760.686 765.472 770.142 774.232 776.687 779.146 781.24 781.409 781.614 781.878 782.143 782.408 784.231 786.054 787.878 790.192 792.824 795.789 798.745 801.563 804.382 807.135 807.685 808.223 808.741 809.259 809.786 811.996 814.206 816.414 818.551 820.642 823.265 825.886 828.412 830.92 833.376 833.994 834.599 835.177 835.755 836.352 838.189 840.023 841.855 843.618 845.334 847.619 849.901 852.02 854.057 856.044 856.72 857.365 857.961 858.555 859.187 860.443 861.697 862.947 864.115 865.22 866.864 868.502 869.94 871.168 872.386 873.048 873.622 874.095 874.565 875.097 875.529 875.96 876.389 876.761 877.066 877.709 878.239 878.653 878.722 878.78 878.704 878.422 877.908 877.387 876.775 876.656 876.495 876.313 876.13 875.94 874.997 874.041 873.074 871.971 870.584 868.77 866.943 864.676 861.995 859.301 856.35 853.001 849.4 845.792 842.011 841.111 840.094 839.056 838.019 836.91 833.275 829.629 825.972 822.264 818.112 812.438 806.47 800.224 793.228 786.132 778.567 770.988 762.829 754.2 745.504 736.285 725.882 715.195 704.507 693.327 688.717 684.097 679.475 674.853 669.616 662.035 654.448 646.857 639.262 631.623 617.798 602.072 586.313 569.575 550.226 529.905 510.149 492.569 478.592 464.656 449.971 435.287 407.81 368.003 328.163 286.528 253.788 237.353 228.507 231.384 234.069 177.101 119.726 62.0577 0