# vtk DataFile Version 2.0
track0
ASCII
DATASET POLYDATA
POINTS 11930 float
-0.0205 0.001 1e-005
-0.0203851 0.00100536 1.50242e-005
-0.0202701 0.00101047 1.96638e-005
-0.0201551 0.00101535 2.39717e-005
-0.0200401 0.00102 2.79431e-005
-0.0198624 0.00102682 3.35497e-005
-0.0196934 0.00103276 3.80973e-005
-0.0195243 0.00103809 4.1613e-005
-0.0193551 0.00104282 4.4106e-005
-0.019186 0.00104693 4.55854e-005
-0.0190172 0.00105043 4.60596e-005
-0.0187132 0.00105595 4.60596e-005
-0.0184093 0.00106082 4.60596e-005
-0.0181054 0.00106517 4.60596e-005
-0.0178014 0.00106899 4.60596e-005
-0.0174976 0.00107229 4.60596e-005
-0.0172058 0.00107517 4.60596e-005
-0.016914 0.00107797 4.60596e-005
-0.0166222 0.00108071 4.60596e-005
-0.0163305 0.00108338 4.60596e-005
-0.0160387 0.00108599 4.60596e-005
-0.0157586 0.0010884 4.60596e-005
-0.0154784 0.00109073 4.60596e-005
-0.0151983 0.00109299 4.60596e-005
-0.0149182 0.00109515 4.60596e-005
-0.0146381 0.00109724 4.60596e-005
-0.0143692 0.00109912 4.60596e-005
-0.0141002 0.0011009 4.60596e-005
-0.0138313 0.0011026 4.60596e-005
-0.0135624 0.00110422 4.60596e-005
-0.0132934 0.00110576 4.60596e-005
-0.0130353 0.00110717 4.60596e-005
-0.0127771 0.00110852 4.60596e-005
-0.0125189 0.00110983 4.60596e-005
-0.0122607 0.00111111 4.60596e-005
-0.0120025 0.00111235 4.60596e-005
-0.0117547 0.0011135 4.60596e-005
-0.0115068 0.00111463 4.60596e-005
-0.0112589 0.00111575 4.60596e-005
-0.0110111 0.00111685 4.60596e-005
-0.0107632 0.00111794 4.60596e-005
-0.0105252 0.00111896 4.60596e-005
-0.0102873 0.00111998 4.60596e-005
-0.0100493 0.00112098 4.60596e-005
-0.00981133 0.00112198 4.60596e-005
-0.00957337 0.00112297 4.60596e-005
-0.00934491 0.0011239 4.60596e-005
-0.00911645 0.00112482 4.60596e-005
-0.00888799 0.00112574 4.60596e-005
-0.00865954 0.00112665 4.60596e-005
-0.00843108 0.00112755 4.60596e-005
-0.00821175 0.00112841 4.60596e-005
-0.00799242 0.00112926 4.60596e-005
-0.00777309 0.00113011 4.60596e-005
-0.00755376 0.00113095 4.60596e-005
-0.00733443 0.00113179 4.60596e-005
-0.00712387 0.00113259 4.60596e-005
-0.0069133 0.00113338 4.60596e-005
-0.00670273 0.00113417 4.60596e-005
-0.00649216 0.00113496 4.60596e-005
-0.0062816 0.00113575 4.60596e-005
-0.00607944 0.0011365 4.60596e-005
-0.00587729 0.00113725 4.60596e-005
-0.00567514 0.00113799 4.60596e-005
-0.00547298 0.00113874 4.60596e-005
-0.00527083 0.00113948 4.60596e-005
-0.00507675 0.0011402 4.60596e-005
-0.00488267 0.0011409 4.60596e-005
-0.0046886 0.00114161 4.60596e-005
-0.00449452 0.00114231 4.60596e-005
-0.00430044 0.00114302 4.60596e-005
-0.00411412 0.0011437 4.60596e-005
-0.0039278 0.00114437 4.60596e-005
-0.00374147 0.00114504 4.60596e-005
-0.00355515 0.00114571 4.60596e-005
-0.00336883 0.00114638 4.60596e-005
-0.00318995 0.00114703 4.60596e-005
-0.00301107 0.00114767 4.60596e-005
-0.00283219 0.00114831 4.60596e-005
-0.00265331 0.00114895 4.60596e-005
-0.00247443 0.00114959 4.60596e-005
-0.0023027 0.00115022 4.60596e-005
-0.00213097 0.00115084 4.60596e-005
-0.00195924 0.00115145 4.60596e-005
-0.0017875 0.00115206 4.60596e-005
-0.00161577 0.00115268 4.60596e-005
-0.0014509 0.00115329 4.60596e-005
-0.00128603 0.00115388 4.60596e-005
-0.00112116 0.00115447 4.60596e-005
-0.000956289 0.00115507 4.60596e-005
-0.000791418 0.00115567 4.60596e-005
-0.000633135 0.00115626 4.60596e-005
-0.000474851 0.00115685 4.60596e-005
-0.000316567 0.00115743 4.60596e-005
-0.000158284 0.00115802 4.60596e-005
0 0.00115861 4.60596e-005
0.000105677 0.00115902 4.60596e-005
0.000211355 0.00115942 4.60596e-005
0.000317032 0.00115982 4.60596e-005
0.00042271 0.00116023 4.60596e-005
0.000528387 0.00116064 4.60596e-005
0.000634886 0.00116107 4.60596e-005
0.000741385 0.00116149 4.60596e-005
0.000847885 0.00116191 4.60596e-005
0.000954384 0.00116233 4.60596e-005
0.00106088 0.00116277 4.60596e-005
0.00116821 0.00116322 4.60596e-005
0.00127554 0.00116366 4.60596e-005
0.00138286 0.00116411 4.60596e-005
0.00149019 0.00116456 4.60596e-005
0.00159752 0.00116502 4.60596e-005
0.00170568 0.00116549 4.60596e-005
0.00181384 0.00116596 4.60596e-005
0.001922 0.00116643 4.60596e-005
0.00203016 0.00116691 4.60596e-005
0.00213833 0.00116738 4.60596e-005
0.00224733 0.00116787 4.60596e-005
0.00235633 0.00116836 4.60596e-005
0.00246533 0.00116885 4.60596e-005
0.00257434 0.00116934 4.60596e-005
0.00268334 0.00116983 4.60596e-005
0.00279319 0.00117032 4.60596e-005
0.00290304 0.00117082 4.60596e-005
0.00301289 0.00117132 4.60596e-005
0.00312274 0.00117183 4.60596e-005
0.00323259 0.00117233 4.60596e-005
0.00334329 0.00117282 4.60596e-005
0.003454 0.00117334 4.60596e-005
0.0035647 0.00117385 4.60596e-005
0.0036754 0.00117437 4.60596e-005
0.00378611 0.00117488 4.60596e-005
0.00389767 0.00117538 4.60596e-005
0.00400924 0.0011759 4.60596e-005
0.0041208 0.00117643 4.60596e-005
0.00423237 0.00117696 4.60596e-005
0.00434393 0.00117748 4.60596e-005
0.00445636 0.00117799 4.60596e-005
0.00456879 0.00117852 4.60596e-005
0.00468123 0.00117905 4.60596e-005
0.00479366 0.00117958 4.60596e-005
0.00490609 0.00118011 4.60596e-005
0.0050194 0.00118062 4.60596e-005
0.0051327 0.00118116 4.60596e-005
0.00524601 0.00118169 4.60596e-005
0.00535931 0.00118223 4.60596e-005
0.00547262 0.00118277 4.60596e-005
0.00558681 0.00118328 4.60596e-005
0.005701 0.00118382 4.60596e-005
0.00581518 0.00118436 4.60596e-005
0.00592937 0.0011849 4.60596e-005
0.00604356 0.00118543 4.60596e-005
0.00615863 0.00118595 4.60596e-005
0.00627371 0.00118649 4.60596e-005
0.00638878 0.00118703 4.60596e-005
0.00650386 0.00118757 4.60596e-005
0.00661893 0.00118811 4.60596e-005
0.0067349 0.00118863 4.60596e-005
0.00685087 0.00118917 4.60596e-005
0.00696684 0.00118971 4.60596e-005
0.00708281 0.00119024 4.60596e-005
0.00719878 0.00119078 4.60596e-005
0.00731565 0.0011913 4.60596e-005
0.00743252 0.00119184 4.60596e-005
0.00754939 0.00119237 4.60596e-005
0.00766626 0.00119291 4.60596e-005
0.00778313 0.00119344 4.60596e-005
0.00790091 0.00119396 4.60596e-005
0.00801869 0.00119449 4.60596e-005
0.00813647 0.00119502 4.60596e-005
0.00825425 0.00119555 4.60596e-005
0.00837203 0.00119608 4.60596e-005
0.00849073 0.0011966 4.60596e-005
0.00860942 0.00119713 4.60596e-005
0.00872812 0.00119766 4.60596e-005
0.00884682 0.00119818 4.60596e-005
0.00896551 0.0011987 4.60596e-005
0.00908513 0.00119922 4.60596e-005
0.00920475 0.00119974 4.60596e-005
0.00932437 0.00120026 4.60596e-005
0.00944398 0.00120078 4.60596e-005
0.0095636 0.0012013 4.60596e-005
0.00968415 0.00120181 4.60596e-005
0.0098047 0.00120233 4.60596e-005
0.00992525 0.00120284 4.60596e-005
0.0100458 0.00120335 4.60596e-005
0.0101663 0.00120386 4.60596e-005
0.0102878 0.00120437 4.60596e-005
0.0104093 0.00120488 4.60596e-005
0.0105308 0.00120538 4.60596e-005
0.0106523 0.00120589 4.60596e-005
0.0107738 0.00120639 4.60596e-005
0.0108962 0.00120689 4.60596e-005
0.0110186 0.00120739 4.60596e-005
0.0111411 0.00120789 4.60596e-005
0.0112635 0.00120838 4.60596e-005
0.0113859 0.00120888 4.60596e-005
0.0115093 0.00120936 4.60596e-005
0.0116327 0.00120986 4.60596e-005
0.0117561 0.00121035 4.60596e-005
0.0118795 0.00121083 4.60596e-005
0.0120028 0.00121131 4.60596e-005
0.0121272 0.00121179 4.60596e-005
0.0122515 0.00121227 4.60596e-005
0.0123759 0.00121275 4.60596e-005
0.0125002 0.00121322 4.60596e-005
0.0126245 0.0012137 4.60596e-005
0.0127498 0.00121416 4.60596e-005
0.0128752 0.00121463 4.60596e-005
0.0130005 0.00121509 4.60596e-005
0.0131258 0.00121555 4.60596e-005
0.0132511 0.00121601 4.60596e-005
0.0133774 0.00121646 4.60596e-005
0.0135036 0.00121691 4.60596e-005
0.0136299 0.00121736 4.60596e-005
0.0137562 0.00121781 4.60596e-005
0.0138825 0.00121825 4.60596e-005
0.0140098 0.00121868 4.60596e-005
0.014137 0.00121912 4.60596e-005
0.0142643 0.00121955 4.60596e-005
0.0143915 0.00121998 4.60596e-005
0.0145188 0.0012204 4.60596e-005
0.0146471 0.00122082 4.60596e-005
0.0147753 0.00122123 4.60596e-005
0.0149036 0.00122165 4.60596e-005
0.0150318 0.00122205 4.60596e-005
0.0151601 0.00122245 4.60596e-005
0.0152893 0.00122285 4.60596e-005
0.0154186 0.00122324 4.60596e-005
0.0155478 0.00122363 4.60596e-005
0.0156771 0.00122402 4.60596e-005
0.0158063 0.00122439 4.60596e-005
0.0159366 0.00122476 4.60596e-005
0.0160668 0.00122513 4.60596e-005
0.0161971 0.0012255 4.60596e-005
0.0163274 0.00122586 4.60596e-005
0.0164576 0.00122621 4.60596e-005
0.0165889 0.00122655 4.60596e-005
0.0167201 0.00122689 4.60596e-005
0.0168514 0.00122723 4.60596e-005
0.0169827 0.00122756 4.60596e-005
0.0171139 0.00122788 4.60596e-005
0.0172245 0.00122814 4.60596e-005
0.017335 0.0012284 4.60596e-005
0.0174455 0.00122866 4.60596e-005
0.017556 0.00122891 4.60596e-005
0.0176621 0.00122915 4.60596e-005
0.0176848 0.0012292 4.60596e-005
0.0177074 0.00122925 4.60596e-005
0.0177301 0.00122929 4.60596e-005
0.0177527 0.00122934 4.60596e-005
0.0177754 0.00122939 4.60596e-005
0.0179087 0.00122968 4.60596e-005
0.018042 0.00122995 4.60596e-005
0.0181753 0.00123022 4.60596e-005
0.0183087 0.00123048 4.60596e-005
0.018442 0.00123074 4.60596e-005
0.0185763 0.00123098 4.60596e-005
0.0187107 0.00123122 4.60596e-005
0.018845 0.00123145 4.60596e-005
0.0189794 0.00123168 4.60596e-005
0.0191137 0.00123189 4.60596e-005
0.0192491 0.0012321 4.60596e-005
0.0193845 0.00123229 4.60596e-005
0.0195199 0.00123249 4.60596e-005
0.0196553 0.00123267 4.60596e-005
0.0197907 0.00123284 4.60596e-005
0.0199272 0.001233 4.60596e-005
0.0200636 0.00123316 4.60596e-005
0.0202001 0.00123331 4.60596e-005
0.0203365 0.00123344 4.60596e-005
0.020473 0.00123357 4.60596e-005
0.0206105 0.00123369 4.60596e-005
0.020748 0.0012338 4.60596e-005
0.0208855 0.0012339 4.60596e-005
0.021023 0.00123399 4.60596e-005
0.0211606 0.00123407 4.60596e-005
0.0212991 0.00123415 4.60596e-005
0.0214377 0.00123421 4.60596e-005
0.0215763 0.00123426 4.60596e-005
0.0217149 0.0012343 4.60596e-005
0.0218535 0.00123434 4.60596e-005
0.0219931 0.00123436 4.60596e-005
0.0221328 0.00123437 4.60596e-005
0.0222724 0.00123437 4.60596e-005
0.0224121 0.00123436 4.60596e-005
0.0225517 0.00123434 4.60596e-005
0.0226925 0.00123432 4.60596e-005
[...]
POINT_DATA 11930
 FIELD attributes 2
p 1 11930 float
-1547.26 -1534.68 -1520.88 -1507.23 -1493.74 -1473.13 -1458.48 -1443.75 -1428.94 -1414.06 -1393.31 -1345.27 -1297.31 -1249.42 -1201.6 -1159.23 -1127.71 -1102.39 -1077.09 -1051.79 -1035.12 -1023.4 -1013.91 -1004.43 -994.958 -987.3 -980.42 -972.41 -964.399 -956.388 -947.31 -938.785 -930.115 -921.443 -912.792 -904.421 -896.474 -889.316 -882.252 -875.342 -869.343 -863.605 -858.437 -853.391 -848.5 -844.19 -840.057 -836.146 -832.305 -828.553 -825.04 -821.668 -818.419 -815.222 -812.096 -809.116 -806.248 -803.498 -800.812 -798.205 -795.73 -793.337 -791.049 -788.83 -786.691 -784.664 -782.691 -780.795 -778.961 -777.198 -775.516 -773.862 -772.265 -770.725 -769.25 -767.838 -766.425 -765.055 -763.736 -762.48 -761.275 -760.042 -758.848 -757.708 -756.638 -755.616 -754.535 -753.479 -752.466 -751.523 -750.623 -749.637 -748.697 -747.846 -747.114 -746.442 -745.689 -744.996 -744.418 -743.983 -743.629 -743.092 -742.596 -742.162 -741.832 -741.576 -741.124 -740.779 -740.56 -740.469 -740.496 -740.32 -740.234 -740.233 -740.305 -740.461 -740.55 -740.631 -740.708 -740.779 -740.845 -741.093 -741.246 -741.339 -741.375 -741.31 -741.673 -741.874 -741.996 -742.036 -741.887 -742.333 -742.567 -742.72 -742.785 -742.588 -743.064 -743.286 -743.434 -743.506 -743.267 -743.706 -743.876 -743.99 -744.051 -743.793 -744.16 -744.284 -744.376 -744.438 -744.212 -744.507 -744.606 -744.691 -744.766 -744.604 -744.828 -744.905 -744.98 -745.055 -744.958 -745.109 -745.168 -745.227 -745.285 -745.248 -745.342 -745.393 -745.445 -745.497 -745.511 -745.575 -745.632 -745.689 -745.745 -745.802 -745.856 -745.92 -745.984 -746.047 -746.13 -746.188 -746.258 -746.328 -746.398 -746.493 -746.565 -746.643 -746.721 -746.799 -746.896 -746.991 -747.079 -747.168 -747.256 -747.351 -747.472 -747.574 -747.675 -747.777 -747.871 -748.019 -748.134 -748.249 -748.365 -748.458 -748.628 -748.756 -748.883 -749.011 -749.106 -749.293 -749.432 -749.57 -749.709 -749.809 -750.008 -750.158 -750.308 -750.457 -750.568 -750.775 -750.936 -751.098 -751.259 -751.384 -751.596 -751.769 -751.942 -752.114 -752.258 -752.474 -752.661 -752.848 -753.035 -753.203 -753.424 -753.627 -753.83 -754.033 -754.227 -754.415 -754.595 -754.775 -754.955 -755.128 -755.165 -755.202 -755.239 -755.276 -755.319 -755.539 -755.765 -755.991 -756.217 -756.483 -756.683 -756.919 -757.155 -757.391 -757.697 -757.883 -758.129 -758.376 -758.622 -758.963 -759.14 -759.396 -759.653 -759.909 -760.279 -760.454 -760.721 -760.989 -761.256 -761.646 -761.828 -762.107 -762.386 -762.665 -763.067 -763.264 -763.554 -763.844 -764.134 -764.54 -764.76 -765.061 -765.362 -765.663 -766.064 -766.313 -766.625 -766.937 -767.249 -767.637 -767.921 -768.243 -768.565 -768.887 -769.257 -769.579 -769.911 -770.243 -770.575 -770.922 -771.283 -771.625 -771.966 -772.306 -772.628 -773.027 -773.379 -773.729 -774.073 -774.373 -774.801 -775.171 -775.529 -775.872 -776.157 -776.609 -776.999 -777.365 -777.703 -777.978 -778.448 -778.859 -779.233 -779.564 -779.835 -780.318 -780.749 -781.131 -781.455 -781.729 -782.223 -782.675 -783.065 -783.382 -783.657 -784.158 -784.631 -785.027 -785.332 -785.609 -786.112 -786.599 -786.998 -787.292 -787.571 -788.069 -788.565 -788.963 -789.248 -789.533 -790.022 -790.511 -790.905 -791.199 -791.493 -791.969 -792.446 -792.838 -793.142 -793.447 -793.908 -794.369 -794.759 -795.074 -795.389 -795.833 -796.278 -796.663 -796.988 -797.313 -797.74 -798.167 -798.547 -798.88 -799.213 -799.621 -800.03 -800.403 -800.743 -801.083 -801.472 -801.863 -802.229 -802.573 -802.917 -803.289 -803.662 -804.02 -804.367 -804.713 -805.069 -805.424 -805.775 -806.122 -806.468 -806.808 -807.148 -807.49 -807.833 -808.177 -808.502 -808.829 -809.162 -809.497 -809.836 -810.145 -810.461 -810.783 -811.107 -811.438 -811.732 -812.037 -812.346 -812.657 -812.978 -813.257 -813.551 -813.847 -814.143 -814.452 -814.717 -814.998 -815.279 -815.56 -815.853 -816.103 -816.368 -816.633 -816.898 -817.174 -817.408 -817.656 -817.904 -818.152 -818.41 -818.628 -818.857 -819.087 -819.316 -819.553 -819.754 -819.963 -820.173 -820.382 -820.595 -820.768 -820.945 -821.122 -821.3 -821.469 -821.481 -821.493 -821.505 -821.517 -821.529 -821.694 -821.858 -822.023 -822.188 -822.351 -822.491 -822.629 -822.767 -822.905 -823.04 -823.154 -823.263 -823.373 -823.482 -823.586 -823.674 -823.752 -823.831 -823.91 -823.981 -824.039 -824.085 -824.13 -824.176 -824.209 -824.237 -824.247 -824.256 -824.263 -824.257 -824.248 -824.223 -824.193 -824.157 -824.111 -824.062 -824 -823.929 -823.847 -823.757 -823.666 -823.567 -823.451 -823.32 -823.184 -823.047 -822.909 -822.746 -822.561 -822.376 -822.191 -822.007 -821.794 -821.556 -821.319 -821.083 -820.848 -820.583 -820.291 -819.999 -819.709 -819.419 -819.101 -818.751 -818.402 -818.055 -817.708 -817.332 -816.923 -816.513 -816.106 -815.697 -815.259 -814.791 -814.319 -813.849 -813.368 -812.865 -812.342 -811.804 -811.268 -810.712 -810.141 -809.56 -808.952 -808.347 -807.712 -807.07 -806.429 -805.75 -805.069 -804.354 -803.639 -802.925 -802.183 -801.417 -800.626 -799.836 -799.046 -798.24 -797.386 -796.517 -795.648 -794.78 -793.909 -793.654 -793.396 -793.138 -792.88 -792.627 -791.939 -791.252 -790.565 -789.877 -789.179 -788.166 -787.141 -786.116 -785.092 -784.039 -782.96 -781.851 -780.743 -779.635 -778.48 -777.334 -776.14 -774.946 -773.744 -772.492 -771.262 -769.996 -768.716 -767.407 -766.066 -764.748 -763.413 -762.044 -760.625 -759.194 -757.786 -756.378 -754.914 -753.392 -751.869 -750.369 -748.871 -747.314 -745.699 -744.084 -742.492 -740.901 -739.25 -737.542 -735.833 -734.148 -732.451 -730.701 -728.913 -727.111 -725.331 -723.516 -721.67 -719.81 -717.913 -716.039 -714.102 -712.161 -710.22 -708.236 -706.246 -704.208 -702.17 -700.133 -698.078 -696.453 -694.808 -693.163 -691.518 -689.956 -689.454 -688.952 -688.45 -687.949 -687.44 -685.229 -683.012 -680.796 -678.581 -676.33 -674.047 -671.735 -669.423 -667.111 -664.735 -662.371 -659.973 -657.565 -655.128 -652.655 -650.195 -647.727 -645.224 -642.66 -640.091 -637.535 -634.981 -632.373 -629.709 -627.045 -624.395 -621.745 -619.036 -616.279 -613.521 -610.777 -608.005 -605.196 -602.373 -599.523 -596.685 -593.786 -590.885 -587.983 -585.054 -582.129 -579.171 -576.212 -573.255 -570.473 -570.403 -570.333 -570.262 -570.192 -570.121 -567.044 -563.968 -560.891 -557.816 -554.715 -551.566 -548.401 -545.237 -542.07 -538.862 -535.632 -532.39 -529.14 -525.863 -522.57 -519.255 -515.94 -512.6 -509.225 -505.848 -502.45 -499.053 -495.621 -492.165 -488.708 -485.23 -481.736 -478.219 -474.697 -471.163 -467.606 -464.012 -460.418 -456.825 -453.223 -450.846 -448.454 -446.062 -443.671 -441.363 -440.072 -438.781 -437.49 -436.2 -434.9 -431.17 -427.436 -423.702 -419.97 -416.203 -412.414 -408.613 -404.811 -400.992 -397.152 -393.295 -389.439 -385.568 -381.664 -377.759 -373.839 -369.919 -365.971 -362.006 -358.04 -354.058 -350.063 -346.048 -342.033 -338.009 -333.965 -329.893 -325.823 -321.752 -317.679 -316.374 -315.062 -313.751 -312.44 -311.149 -308.334 -305.518 -302.703 -299.888 -297.057 -292.889 -288.716 -284.544 -280.367 -276.164 -271.949 -267.732 -263.512 -259.268 -255.019 -250.757 -246.497 -242.219 -237.928 -233.636 -229.331 -225.019 -220.691 -216.362 -212.03 -207.684 -203.317 -198.95 -194.584 -190.215 -189.023 -187.826 -186.629 -185.432 -184.251 -181.042 -177.833 -174.625 -171.417 -168.195 -163.76 -159.325 -154.89 -150.449 -145.991 -141.525 -137.059 -132.593 -128.108 -123.622 -119.127 -114.633 -110.124 -105.612 -101.099 -96.5762 -92.0448 -87.5086 -82.9729 -78.4375 -75.3509 -72.2591 -69.1675 -66.0761 -63.0763 -61.5944 -60.1125 -58.6306 -57.1488 -55.6633 -51.089 -46.5161 -41.9437 -37.3709 -32.7833 -28.191 -23.6008 -19.0133 -14.4157 -9.81478 -5.20857 -0.602929 4.00765 8.61532 13.2251 17.8408 22.4594 27.0801 31.7002 36.3167 39.2573 42.1998 45.142 48.084 50.9493 52.6495 54.3495 56.0496 57.7495 59.4516 64.0877 68.7198 73.3514 77.9831 82.6196 87.2592 91.8967 96.5266 101.157 105.789 110.425 115.06 119.694 124.319 128.944 133.573 138.198 142.822 147.445 152.068 153.094 154.118 155.143 156.168 157.184 160.781 164.377 167.974 171.57 175.164 179.784 184.392 188.999 193.601 198.203 202.806 207.408 212 216.58 221.162 225.745 230.322 234.892 239.463 244.025 246.311 248.59 250.869 253.147 255.386 257.669 259.951 262.234 264.516 266.793 271.337 275.87 280.403 284.928 289.449 293.968 298.486 302.988 307.476 311.966 316.453 320.932 325.401 329.869 334.327 336.615 338.892 341.169 343.447 345.687 347.859 350.031 352.202 354.374 356.537 360.962 365.375 369.787 374.189 378.584 382.972 387.36 391.73 396.082 400.437 404.784 409.117 413.441 417.765 422.083 423.348 424.606 425.864 427.122 428.37 431.407 434.444 437.482 440.518 443.54 447.807 452.065 456.317 460.549 464.78 469 473.219 477.415 481.598 485.78 489.414 493.028 496.639 500.25 503.789 504.339 504.888 505.438 505.988 506.534 510.651 514.763 518.875 522.981 527.069 531.142 535.215 539.267 543.298 547.332 551.349 555.35 559.339 563.328 567.31 568.312 569.308 570.302 571.297 572.287 575.241 578.196 581.15 584.1 587.033 590.943 594.848 598.738 602.6 606.463 610.309 614.147 617.96 621.774 625.571 627.142 628.701 630.257 631.813 633.363 635.571 637.778 639.985 642.188 644.376 648.099 651.811 655.513 659.183 662.851 666.5 670.142 673.751 677.356 680.938 682.565 684.181 685.793 687.405 689.025 690.96 692.895 694.83 696.761 698.679 702.192 705.669 709.127 712.501 715.867 719.212 722.581 726.069 729.568 733.114 734.791 736.152 737.414 738.676 739.967 741.587 743.206 744.826 746.346 747.526 749.75 752.623 755.719 760.264 765.039 769.697 773.792 776.236 778.683 780.746 780.922 781.137 781.413 781.69 781.968 783.768 785.569 787.371 789.66 792.265 795.216 798.161 800.966 803.771 806.509 807.075 807.63 808.164 808.698 809.242 811.421 813.6 815.777 817.884 819.945 822.555 825.162 827.675 830.168 832.61 833.248 833.87 834.465 835.061 835.676 837.48 839.282 841.082 842.813 844.5 846.771 849.039 851.149 853.171 855.145 855.838 856.499 857.108 857.717 858.364 859.592 860.817 862.039 863.18 864.259 865.892 867.519 868.945 870.164 871.374 872.044 872.625 873.102 873.578 874.115 874.531 874.945 875.358 875.715 876.007 876.642 877.156 877.571 877.635 877.69 877.609 877.331 876.814 876.289 875.664 875.532 875.355 875.153 874.951 874.74 873.809 872.866 871.912 870.825 869.459 867.645 865.819 863.553 860.876 858.186 855.239 851.906 848.312 844.71 840.924 839.962 838.875 837.767 836.659 835.469 831.91 828.34 824.76 821.13 817.066 811.404 805.434 799.201 792.232 785.152 777.602 770.039 761.906 753.284 744.607 735.407 725.044 714.377 703.708 692.53 687.748 682.957 678.165 673.371 667.916 660.536 653.152 645.764 638.372 630.938 617.095 601.395 585.664 568.991 549.669 529.375 509.685 492.132 478.149 464.245 449.592 434.941 407.488 367.705 327.887 286.276 253.379 236.98 228.351 231.267 233.992 177.377 119.993 62.315 0