# vtk DataFile Version 2.0
track0
ASCII
DATASET POLYDATA
POINTS 11930 float
-0.0205 0.001 1e-005
-0.0203851 0.00100536 1.50243e-005
-0.0202701 0.00101047 1.96639e-005
-0.0201551 0.00101536 2.39717e-005
-0.0200401 0.00102 2.7943e-005
-0.0198625 0.00102682 3.3548e-005
-0.0196934 0.00103276 3.80955e-005
-0.0195243 0.0010381 4.16112e-005
-0.0193552 0.00104282 4.4104e-005
-0.019186 0.00104694 4.55833e-005
-0.0190172 0.00105044 4.60574e-005
-0.0187132 0.00105596 4.60574e-005
-0.0184093 0.00106083 4.60574e-005
-0.0181054 0.00106519 4.60574e-005
-0.0178014 0.00106902 4.60574e-005
-0.0174976 0.00107233 4.60574e-005
-0.0172058 0.00107522 4.60574e-005
-0.016914 0.00107803 4.60574e-005
-0.0166222 0.00108076 4.60574e-005
-0.0163305 0.00108344 4.60574e-005
-0.0160387 0.00108604 4.60574e-005
-0.0157586 0.00108845 4.60574e-005
-0.0154784 0.00109078 4.60574e-005
-0.0151983 0.00109303 4.60574e-005
-0.0149182 0.0010952 4.60574e-005
-0.0146381 0.00109728 4.60574e-005
-0.0143692 0.00109915 4.60574e-005
-0.0141002 0.00110093 4.60574e-005
-0.0138313 0.00110263 4.60574e-005
-0.0135624 0.00110425 4.60574e-005
-0.0132934 0.0011058 4.60574e-005
-0.0130353 0.00110721 4.60574e-005
-0.0127771 0.00110856 4.60574e-005
-0.0125189 0.00110988 4.60574e-005
-0.0122607 0.00111115 4.60574e-005
-0.0120025 0.00111239 4.60574e-005
-0.0117547 0.00111355 4.60574e-005
-0.0115068 0.00111468 4.60574e-005
-0.0112589 0.0011158 4.60574e-005
-0.0110111 0.0011169 4.60574e-005
-0.0107632 0.00111798 4.60574e-005
-0.0105252 0.001119 4.60574e-005
-0.0102873 0.00112 4.60574e-005
-0.0100493 0.00112099 4.60574e-005
-0.00981133 0.00112197 4.60574e-005
-0.00957337 0.00112294 4.60574e-005
-0.00934491 0.00112385 4.60574e-005
-0.00911645 0.00112475 4.60574e-005
-0.00888799 0.00112565 4.60574e-005
-0.00865954 0.00112653 4.60574e-005
-0.00843108 0.0011274 4.60574e-005
-0.00821175 0.00112823 4.60574e-005
-0.00799242 0.00112906 4.60574e-005
-0.00777309 0.00112987 4.60574e-005
-0.00755376 0.00113068 4.60574e-005
-0.00733443 0.00113149 4.60574e-005
-0.00712387 0.00113225 4.60574e-005
-0.0069133 0.00113302 4.60574e-005
-0.00670273 0.00113378 4.60574e-005
-0.00649216 0.00113453 4.60574e-005
-0.0062816 0.00113529 4.60574e-005
-0.00607944 0.00113601 4.60574e-005
-0.00587729 0.00113673 4.60574e-005
-0.00567514 0.00113744 4.60574e-005
-0.00547298 0.00113816 4.60574e-005
-0.00527083 0.00113887 4.60574e-005
-0.00507675 0.00113956 4.60574e-005
-0.00488267 0.00114024 4.60574e-005
-0.0046886 0.00114092 4.60574e-005
-0.00449452 0.0011416 4.60574e-005
-0.00430044 0.00114228 4.60574e-005
-0.00411412 0.00114294 4.60574e-005
-0.0039278 0.0011436 4.60574e-005
-0.00374147 0.00114425 4.60574e-005
-0.00355515 0.0011449 4.60574e-005
-0.00336883 0.00114556 4.60574e-005
-0.00318995 0.00114619 4.60574e-005
-0.00301107 0.00114682 4.60574e-005
-0.00283219 0.00114745 4.60574e-005
-0.00265331 0.00114808 4.60574e-005
-0.00247443 0.00114872 4.60574e-005
-0.0023027 0.00114933 4.60574e-005
-0.00213097 0.00114995 4.60574e-005
-0.00195924 0.00115056 4.60574e-005
-0.0017875 0.00115117 4.60574e-005
-0.00161577 0.00115178 4.60574e-005
-0.0014509 0.00115238 4.60574e-005
-0.00128603 0.00115298 4.60574e-005
-0.00112116 0.00115357 4.60574e-005
-0.000956289 0.00115417 4.60574e-005
-0.000791418 0.00115477 4.60574e-005
-0.000633135 0.00115537 4.60574e-005
-0.000474851 0.00115596 4.60574e-005
-0.000316567 0.00115654 4.60574e-005
-0.000158284 0.00115714 4.60574e-005
0 0.00115774 4.60574e-005
0.000105677 0.00115815 4.60574e-005
0.000211355 0.00115856 4.60574e-005
0.000317032 0.00115897 4.60574e-005
0.00042271 0.00115938 4.60574e-005
0.000528387 0.0011598 4.60574e-005
0.000634886 0.00116023 4.60574e-005
0.000741385 0.00116066 4.60574e-005
0.000847885 0.00116109 4.60574e-005
0.000954384 0.00116152 4.60574e-005
0.00106088 0.00116196 4.60574e-005
0.00116821 0.00116242 4.60574e-005
0.00127554 0.00116288 4.60574e-005
0.00138286 0.00116333 4.60574e-005
0.00149019 0.00116379 4.60574e-005
0.00159752 0.00116425 4.60574e-005
0.00170568 0.00116473 4.60574e-005
0.00181384 0.00116521 4.60574e-005
0.001922 0.00116568 4.60574e-005
0.00203016 0.00116616 4.60574e-005
0.00213833 0.00116664 4.60574e-005
0.00224733 0.00116713 4.60574e-005
0.00235633 0.00116763 4.60574e-005
0.00246533 0.00116812 4.60574e-005
0.00257434 0.00116861 4.60574e-005
0.00268334 0.00116911 4.60574e-005
0.00279319 0.00116961 4.60574e-005
0.00290304 0.00117011 4.60574e-005
0.00301289 0.00117062 4.60574e-005
0.00312274 0.00117113 4.60574e-005
0.00323259 0.00117163 4.60574e-005
0.00334329 0.00117214 4.60574e-005
0.003454 0.00117266 4.60574e-005
0.0035647 0.00117318 4.60574e-005
0.0036754 0.0011737 4.60574e-005
0.00378611 0.00117422 4.60574e-005
0.00389767 0.00117473 4.60574e-005
0.00400924 0.00117525 4.60574e-005
0.0041208 0.00117578 4.60574e-005
0.00423237 0.00117632 4.60574e-005
0.00434393 0.00117684 4.60574e-005
0.00445636 0.00117736 4.60574e-005
0.00456879 0.00117789 4.60574e-005
0.00468123 0.00117843 4.60574e-005
0.00479366 0.00117897 4.60574e-005
0.00490609 0.0011795 4.60574e-005
0.0050194 0.00118002 4.60574e-005
0.0051327 0.00118056 4.60574e-005
0.00524601 0.0011811 4.60574e-005
0.00535931 0.00118164 4.60574e-005
0.00547262 0.00118218 4.60574e-005
0.00558681 0.0011827 4.60574e-005
0.005701 0.00118324 4.60574e-005
0.00581518 0.00118379 4.60574e-005
0.00592937 0.00118433 4.60574e-005
0.00604356 0.00118487 4.60574e-005
0.00615863 0.00118539 4.60574e-005
0.00627371 0.00118594 4.60574e-005
0.00638878 0.00118648 4.60574e-005
0.00650386 0.00118703 4.60574e-005
0.00661893 0.00118757 4.60574e-005
0.0067349 0.0011881 4.60574e-005
0.00685087 0.00118864 4.60574e-005
0.00696684 0.00118919 4.60574e-005
0.00708281 0.00118973 4.60574e-005
0.00719878 0.00119027 4.60574e-005
0.00731565 0.0011908 4.60574e-005
0.00743252 0.00119134 4.60574e-005
0.00754939 0.00119188 4.60574e-005
0.00766626 0.00119242 4.60574e-005
0.00778313 0.00119296 4.60574e-005
0.00790091 0.00119348 4.60574e-005
0.00801869 0.00119402 4.60574e-005
0.00813647 0.00119455 4.60574e-005
0.00825425 0.00119508 4.60574e-005
0.00837203 0.00119562 4.60574e-005
0.00849073 0.00119614 4.60574e-005
0.00860942 0.00119667 4.60574e-005
0.00872812 0.0011972 4.60574e-005
0.00884682 0.00119772 4.60574e-005
0.00896551 0.00119825 4.60574e-005
0.00908513 0.00119877 4.60574e-005
0.00920475 0.00119929 4.60574e-005
0.00932437 0.00119981 4.60574e-005
0.00944398 0.00120033 4.60574e-005
0.0095636 0.00120085 4.60574e-005
0.00968415 0.00120136 4.60574e-005
0.0098047 0.00120188 4.60574e-005
0.00992525 0.0012024 4.60574e-005
0.0100458 0.00120291 4.60574e-005
0.0101663 0.00120342 4.60574e-005
0.0102878 0.00120392 4.60574e-005
0.0104093 0.00120443 4.60574e-005
0.0105308 0.00120494 4.60574e-005
0.0106523 0.00120544 4.60574e-005
0.0107738 0.00120594 4.60574e-005
0.0108962 0.00120644 4.60574e-005
0.0110186 0.00120694 4.60574e-005
0.0111411 0.00120744 4.60574e-005
0.0112635 0.00120793 4.60574e-005
0.0113859 0.00120842 4.60574e-005
0.0115093 0.00120891 4.60574e-005
0.0116327 0.0012094 4.60574e-005
0.0117561 0.00120989 4.60574e-005
0.0118795 0.00121037 4.60574e-005
0.0120028 0.00121085 4.60574e-005
0.0121272 0.00121133 4.60574e-005
0.0122515 0.00121181 4.60574e-005
0.0123759 0.00121229 4.60574e-005
0.0125002 0.00121276 4.60574e-005
0.0126245 0.00121323 4.60574e-005
0.0127498 0.00121369 4.60574e-005
0.0128752 0.00121416 4.60574e-005
0.0130005 0.00121462 4.60574e-005
0.0131258 0.00121508 4.60574e-005
0.0132511 0.00121554 4.60574e-005
0.0133774 0.00121599 4.60574e-005
0.0135036 0.00121644 4.60574e-005
0.0136299 0.00121689 4.60574e-005
0.0137562 0.00121734 4.60574e-005
0.0138825 0.00121778 4.60574e-005
0.0140098 0.00121821 4.60574e-005
0.014137 0.00121865 4.60574e-005
0.0142643 0.00121908 4.60574e-005
0.0143915 0.00121951 4.60574e-005
0.0145188 0.00121993 4.60574e-005
0.0146471 0.00122035 4.60574e-005
0.0147753 0.00122077 4.60574e-005
0.0149036 0.00122118 4.60574e-005
0.0150318 0.00122159 4.60574e-005
0.0151601 0.001222 4.60574e-005
0.0152893 0.00122239 4.60574e-005
0.0154186 0.00122279 4.60574e-005
0.0155478 0.00122318 4.60574e-005
0.0156771 0.00122357 4.60574e-005
0.0158063 0.00122395 4.60574e-005
0.0159366 0.00122433 4.60574e-005
0.0160668 0.0012247 4.60574e-005
0.0161971 0.00122507 4.60574e-005
0.0163274 0.00122544 4.60574e-005
0.0164576 0.00122579 4.60574e-005
0.0165889 0.00122614 4.60574e-005
0.0167201 0.00122649 4.60574e-005
0.0168514 0.00122684 4.60574e-005
0.0169827 0.00122717 4.60574e-005
0.0171139 0.0012275 4.60574e-005
0.0172169 0.00122776 4.60574e-005
0.0173199 0.00122801 4.60574e-005
0.0174229 0.00122825 4.60574e-005
0.0175259 0.00122849 4.60574e-005
0.0176252 0.00122872 4.60574e-005
0.0176553 0.00122879 4.60574e-005
0.0176853 0.00122886 4.60574e-005
0.0177153 0.00122893 4.60574e-005
0.0177454 0.001229 4.60574e-005
0.0177754 0.00122906 4.60574e-005
0.0179087 0.00122936 4.60574e-005
0.018042 0.00122965 4.60574e-005
0.0181753 0.00122993 4.60574e-005
0.0183087 0.0012302 4.60574e-005
0.018442 0.00123047 4.60574e-005
0.0185763 0.00123073 4.60574e-005
0.0187107 0.00123098 4.60574e-005
0.018845 0.00123122 4.60574e-005
0.0189794 0.00123146 4.60574e-005
0.0191137 0.00123169 4.60574e-005
0.0192491 0.00123191 4.60574e-005
0.0193845 0.00123213 4.60574e-005
0.0195199 0.00123233 4.60574e-005
0.0196553 0.00123253 4.60574e-005
0.0197907 0.00123272 4.60574e-005
0.0199272 0.0012329 4.60574e-005
0.0200636 0.00123307 4.60574e-005
0.0202001 0.00123323 4.60574e-005
0.0203365 0.00123339 4.60574e-005
0.020473 0.00123353 4.60574e-005
0.0206105 0.00123367 4.60574e-005
0.020748 0.0012338 4.60574e-005
0.0208855 0.00123391 4.60574e-005
0.021023 0.00123402 4.60574e-005
0.0211606 0.00123412 4.60574e-005
0.0212991 0.00123421 4.60574e-005
0.0214377 0.00123429 4.60574e-005
0.0215763 0.00123436 4.60574e-005
0.0217149 0.00123442 4.60574e-005
0.0218535 0.00123446 4.60574e-005
0.0219931 0.0012345 4.60574e-005
0.0221328 0.00123453 4.60574e-005
0.0222724 0.00123455 4.60574e-005
0.0224121 0.00123456 4.60574e-005
0.0225517 0.00123455 4.60574e-005
0.0226925 0.00123454 4.60574e-005
[...]
POINT_DATA 11930
 FIELD attributes 2
p 1 11930 float
-1551.69 -1539.06 -1525.22 -1511.52 -1497.98 -1477.31 -1462.6 -1447.82 -1432.97 -1418.03 -1397.19 -1348.99 -1300.92 -1252.91 -1204.97 -1162.58 -1131.04 -1105.71 -1080.39 -1055.08 -1038.4 -1026.68 -1017.23 -1007.78 -998.343 -990.763 -983.976 -976.07 -968.164 -960.257 -951.264 -942.835 -934.213 -925.587 -916.978 -908.585 -900.613 -893.424 -886.327 -879.386 -873.354 -867.555 -862.345 -857.26 -852.337 -848.023 -843.847 -839.902 -836.031 -832.255 -828.741 -825.333 -822.05 -818.82 -815.666 -812.672 -809.769 -806.984 -804.262 -801.622 -799.124 -796.701 -794.383 -792.134 -789.969 -787.92 -785.929 -784.016 -782.164 -780.383 -778.686 -777.027 -775.427 -773.88 -772.395 -770.972 -769.564 -768.199 -766.881 -765.62 -764.407 -763.183 -761.997 -760.861 -759.787 -758.757 -757.686 -756.64 -755.63 -754.685 -753.78 -752.808 -751.884 -751.043 -750.314 -749.644 -748.915 -748.246 -747.687 -747.26 -746.911 -746.398 -745.925 -745.509 -745.185 -744.93 -744.491 -744.153 -743.932 -743.831 -743.843 -743.666 -743.572 -743.556 -743.609 -743.744 -743.833 -743.914 -743.989 -744.059 -744.123 -744.392 -744.563 -744.678 -744.734 -744.682 -745.077 -745.303 -745.45 -745.511 -745.37 -745.845 -746.096 -746.265 -746.345 -746.148 -746.648 -746.881 -747.042 -747.126 -746.883 -747.344 -747.524 -747.649 -747.721 -747.459 -747.847 -747.981 -748.082 -748.156 -747.928 -748.242 -748.35 -748.444 -748.531 -748.368 -748.609 -748.695 -748.78 -748.865 -748.77 -748.936 -749.004 -749.072 -749.14 -749.106 -749.212 -749.271 -749.33 -749.389 -749.408 -749.48 -749.542 -749.604 -749.666 -749.726 -749.785 -749.851 -749.918 -749.985 -750.07 -750.129 -750.201 -750.272 -750.343 -750.441 -750.511 -750.589 -750.667 -750.744 -750.844 -750.936 -751.024 -751.111 -751.199 -751.298 -751.416 -751.517 -751.618 -751.719 -751.816 -751.96 -752.075 -752.19 -752.305 -752.401 -752.569 -752.697 -752.824 -752.951 -753.05 -753.235 -753.374 -753.513 -753.652 -753.754 -753.952 -754.102 -754.251 -754.401 -754.512 -754.719 -754.88 -755.04 -755.201 -755.326 -755.537 -755.709 -755.882 -756.054 -756.197 -756.412 -756.598 -756.784 -756.97 -757.137 -757.355 -757.556 -757.757 -757.957 -758.15 -758.323 -758.489 -758.654 -758.82 -758.98 -759.029 -759.077 -759.125 -759.174 -759.23 -759.446 -759.67 -759.894 -760.118 -760.384 -760.582 -760.817 -761.053 -761.288 -761.596 -761.781 -762.029 -762.276 -762.524 -762.868 -763.047 -763.306 -763.566 -763.826 -764.2 -764.379 -764.65 -764.922 -765.194 -765.59 -765.777 -766.061 -766.345 -766.629 -767.038 -767.241 -767.537 -767.833 -768.128 -768.541 -768.767 -769.074 -769.381 -769.688 -770.095 -770.35 -770.668 -770.986 -771.303 -771.697 -771.988 -772.315 -772.643 -772.971 -773.346 -773.674 -774.011 -774.349 -774.686 -775.037 -775.405 -775.751 -776.097 -776.442 -776.767 -777.171 -777.528 -777.882 -778.23 -778.532 -778.966 -779.339 -779.7 -780.046 -780.332 -780.788 -781.18 -781.548 -781.888 -782.164 -782.635 -783.047 -783.422 -783.754 -784.025 -784.507 -784.938 -785.321 -785.645 -785.918 -786.41 -786.862 -787.252 -787.567 -787.841 -788.34 -788.81 -789.205 -789.509 -789.784 -790.283 -790.767 -791.163 -791.455 -791.732 -792.226 -792.717 -793.112 -793.395 -793.678 -794.161 -794.644 -795.034 -795.326 -795.617 -796.087 -796.557 -796.944 -797.246 -797.548 -798.002 -798.457 -798.842 -799.155 -799.468 -799.906 -800.345 -800.726 -801.05 -801.373 -801.795 -802.216 -802.594 -802.927 -803.26 -803.665 -804.07 -804.442 -804.784 -805.125 -805.513 -805.901 -806.269 -806.616 -806.963 -807.335 -807.708 -808.069 -808.42 -808.771 -809.128 -809.485 -809.84 -810.192 -810.544 -810.887 -811.231 -811.579 -811.928 -812.277 -812.606 -812.94 -813.278 -813.621 -813.966 -814.281 -814.605 -814.934 -815.266 -815.604 -815.906 -816.219 -816.537 -816.857 -817.185 -817.474 -817.777 -818.082 -818.387 -818.703 -818.977 -819.267 -819.557 -819.847 -820.147 -820.406 -820.679 -820.952 -821.225 -821.508 -821.75 -822.005 -822.26 -822.515 -822.779 -823.004 -823.24 -823.475 -823.711 -823.953 -824.16 -824.374 -824.588 -824.803 -825.02 -825.184 -825.352 -825.52 -825.687 -825.847 -825.873 -825.898 -825.923 -825.948 -825.973 -826.139 -826.305 -826.471 -826.637 -826.801 -826.94 -827.075 -827.211 -827.347 -827.478 -827.588 -827.691 -827.794 -827.897 -827.992 -828.071 -828.139 -828.207 -828.275 -828.331 -828.378 -828.408 -828.438 -828.468 -828.482 -828.494 -828.483 -828.472 -828.458 -828.429 -828.398 -828.349 -828.294 -828.231 -828.156 -828.08 -827.991 -827.888 -827.773 -827.648 -827.525 -827.393 -827.241 -827.07 -826.893 -826.719 -826.543 -826.338 -826.107 -825.876 -825.648 -825.42 -825.16 -824.872 -824.585 -824.3 -824.015 -823.699 -823.352 -823.005 -822.661 -822.317 -821.942 -821.533 -821.124 -820.719 -820.314 -819.877 -819.404 -818.931 -818.462 -817.987 -817.484 -816.954 -816.415 -815.879 -815.329 -814.759 -814.17 -813.564 -812.96 -812.332 -811.692 -811.045 -810.368 -809.694 -808.985 -808.274 -807.563 -806.818 -806.064 -805.279 -804.495 -803.711 -802.904 -802.065 -801.205 -800.346 -799.487 -798.617 -797.785 -796.942 -796.1 -795.258 -794.466 -794.363 -794.26 -794.157 -794.054 -793.949 -792.942 -791.933 -790.925 -789.917 -788.892 -787.822 -786.734 -785.647 -784.56 -783.439 -782.305 -781.137 -779.969 -778.801 -777.582 -776.379 -775.134 -773.884 -772.619 -771.314 -770.029 -768.718 -767.385 -766.018 -764.628 -763.259 -761.882 -760.465 -758.994 -757.518 -756.063 -754.608 -753.101 -751.538 -749.976 -748.434 -746.892 -745.296 -743.646 -741.995 -740.365 -738.735 -737.044 -735.308 -733.568 -731.848 -730.106 -728.324 -726.518 -724.687 -722.877 -721.021 -719.147 -717.271 -715.348 -713.44 -711.473 -709.507 -707.541 -705.545 -703.518 -701.458 -699.399 -697.339 -695.273 -694.673 -694.065 -693.457 -692.849 -692.251 -690.713 -689.174 -687.636 -686.098 -684.541 -682.322 -680.087 -677.852 -675.618 -673.336 -671.046 -668.717 -666.387 -664.045 -661.652 -659.271 -656.868 -654.445 -651.977 -649.49 -647.014 -644.538 -642.014 -639.432 -636.85 -634.279 -631.71 -629.086 -626.41 -623.734 -621.071 -618.397 -615.67 -612.916 -610.148 -607.392 -604.594 -601.775 -598.955 -596.097 -593.237 -590.327 -587.418 -584.509 -581.586 -580.049 -578.494 -576.94 -575.386 -573.88 -572.429 -570.979 -569.529 -568.08 -566.618 -563.547 -560.468 -557.391 -554.314 -551.203 -548.059 -544.898 -541.736 -538.561 -535.359 -532.132 -528.902 -525.659 -522.38 -519.097 -515.79 -512.484 -509.151 -505.791 -502.43 -499.045 -495.659 -492.238 -488.806 -485.371 -481.911 -478.429 -474.934 -471.44 -467.933 -464.392 -460.826 -457.26 -453.695 -450.128 -449.314 -448.496 -447.677 -446.859 -446.05 -443.236 -440.421 -437.608 -434.794 -431.962 -428.273 -424.577 -420.882 -417.184 -413.451 -409.702 -405.947 -402.188 -398.403 -394.607 -390.794 -386.983 -383.152 -379.296 -375.439 -371.566 -367.693 -363.786 -359.873 -355.957 -352.024 -348.069 -344.104 -340.139 -336.166 -332.312 -328.437 -324.563 -320.689 -316.998 -316.813 -316.628 -316.444 -316.259 -316.073 -311.998 -307.922 -303.847 -299.772 -295.671 -291.549 -287.418 -283.288 -279.143 -274.976 -270.8 -266.623 -262.434 -258.214 -253.993 -249.762 -245.531 -241.272 -236.998 -232.723 -228.438 -224.135 -219.817 -215.499 -211.17 -206.968 -202.742 -198.516 -194.291 -190.267 -190.081 -189.896 -189.71 -189.524 -189.337 -184.917 -180.497 -176.077 -171.658 -167.209 -162.748 -158.278 -153.807 -149.318 -144.811 -140.299 -135.788 -131.259 -126.704 -122.147 -117.586 -113.022 -108.429 -103.831 -99.2264 -94.6172 -89.9814 -85.3431 -80.7054 -76.0619 -74.4459 -72.8223 -71.1988 -69.5754 -67.981 -64.9196 -61.8584 -58.7975 -55.7368 -52.6596 -47.9484 -43.2312 -38.5146 -33.7884 -29.0415 -24.2935 -19.5463 -14.7872 -10.0069 -5.22391 -0.439198 4.34611 9.15198 13.9608 18.7744 23.5906 28.4231 33.2563 38.0889 42.9253 43.9061 44.8895 45.8728 46.8561 47.8294 51.7061 55.5823 59.4582 63.3337 67.2223 72.0977 76.9736 81.8491 86.731 91.6206 96.5107 101.4 106.292 111.186 116.084 120.983 125.882 130.781 135.68 140.579 143.634 146.686 149.738 152.79 155.757 157.622 159.487 161.353 163.218 165.083 169.985 174.883 179.78 184.674 189.567 194.46 199.352 204.232 209.103 213.977 218.85 223.719 228.575 233.429 238.276 241.677 245.064 248.449 251.835 255.132 256.595 258.058 259.521 260.984 262.441 267.256 272.062 276.868 281.667 286.452 291.235 296.016 300.776 305.514 310.254 314.992 319.717 324.423 329.128 333.819 336.276 338.717 341.156 343.596 345.999 348.23 350.46 352.691 354.921 357.137 361.771 366.388 371.005 375.602 380.186 384.764 389.341 393.888 398.406 402.926 407.439 411.923 416.396 420.868 425.335 426.053 426.764 427.475 428.186 428.894 432.61 436.325 440.04 443.752 447.435 451.816 456.189 460.546 464.863 469.181 473.489 477.79 482.055 486.311 490.553 493.33 496.082 498.83 501.578 504.301 505.756 507.21 508.665 510.118 511.559 515.714 519.852 523.99 528.107 532.205 536.287 540.37 544.419 548.435 552.452 556.454 560.421 564.38 568.339 572.297 572.416 572.534 572.651 572.769 572.886 576.676 580.465 584.255 588.037 591.786 595.636 599.486 603.301 607.084 610.868 614.635 618.379 622.104 625.828 629.539 630.406 631.266 632.123 632.98 633.838 636.646 639.454 642.262 645.064 647.84 651.454 655.063 658.645 662.191 665.737 669.265 672.778 676.264 679.75 683.212 684.445 685.665 686.882 688.098 689.321 691.521 693.72 695.919 698.113 700.284 703.65 707.004 710.343 713.65 716.954 720.239 723.503 726.696 729.883 733.013 734.489 736.018 737.562 739.105 740.681 742.355 744.029 745.704 747.392 749.137 752.452 755.396 758.247 760.42 762.439 764.423 766.407 770.038 774.199 778.724 780.922 782.621 783.727 784.835 785.969 787.744 789.519 791.292 792.517 793.253 794.717 796.18 798.237 800.904 803.566 805.451 807.295 809.08 810.865 812.749 813.523 814.297 815.071 815.823 816.557 819.098 821.586 824.049 826.382 828.708 830.681 832.623 834.516 836.408 838.488 838.809 839.129 839.449 839.763 840.072 842.288 844.456 846.62 848.672 850.69 852.688 854.618 856.436 858.251 860.042 860.118 860.19 860.256 860.322 860.389 861.977 863.559 865.135 866.602 867.975 869.354 870.726 871.849 872.928 873.906 874.225 874.491 874.703 874.914 875.142 875.672 876.199 876.721 877.161 877.499 877.916 878.325 878.45 878.325 878.19 877.939 877.461 876.833 876.198 875.397 875.383 875.369 875.355 875.337 875.311 874.096 872.844 871.577 870.152 868.426 866.481 864.524 862.159 859.383 856.596 853.553 850.045 846.381 842.709 838.951 838.489 837.969 837.441 836.912 836.366 832.213 828.046 823.865 819.634 814.912 809.224 803.332 797.079 790.026 782.948 775.405 767.849 759.685 751.159 742.516 733.356 722.93 712.318 701.703 690.689 686.9 683.109 679.317 675.523 671.322 662.973 654.618 646.258 637.892 629.485 615.966 600.344 584.689 567.884 548.635 528.422 508.604 491.269 477.486 463.696 449.166 434.637 407.26 367.477 327.662 286.055 254.441 238.168 228.435 231.562 232.191 175.077 117.648 59.9184 0