/*--------------------------------*- C++ -*----------------------------------*\
| =========                 |                                                 |
| \\      /  F ield         | OpenFOAM: The Open Source CFD Toolbox           |
|  \\    /   O peration     | Version:  5.x                                   |
|   \\  /    A nd           | Web:      www.OpenFOAM.org                      |
|    \\/     M anipulation  |                                                 |
\*---------------------------------------------------------------------------*/
/*   Windows 32 and 64 bit porting by blueCAPE: http://www.bluecape.com.pt   *\
|  Based on Windows porting (2.0.x v4) by Symscape: http://www.symscape.com   |
\*---------------------------------------------------------------------------*/
FoamFile
{
    version     2.0;
    format      ascii;
    class       volScalarField;
    location    "0.17";
    object      p;
}
// * * * * * * * * * * * * * * * * * * * * * * * * * * * * * * * * * * * * * //

dimensions      [0 2 -2 0 0 0 0];

internalField   nonuniform List<scalar> 
750
(
0.40114059
0.40138632
0.40109279
0.4009612
0.40069051
0.40042043
0.40011404
0.39979201
0.39945817
0.39911618
0.39876587
0.39841309
0.39805165
0.39767435
0.39728915
0.39687748
0.3964134
0.39590356
0.3952708
0.39437999
0.39346447
0.39091852
0.38975857
0.38097559
0.37696436
0.40114673
0.40138617
0.4011001
0.40096264
0.40069302
0.40042194
0.40011519
0.39979262
0.39945862
0.39911647
0.39876628
0.39841341
0.39805197
0.39767528
0.39729039
0.39687915
0.39641696
0.39590853
0.39527712
0.39440155
0.3934652
0.39100694
0.38972754
0.38121258
0.37714316
0.40115445
0.40139381
0.40110876
0.4009677
0.40069754
0.40042491
0.40011739
0.39979412
0.39945964
0.3991173
0.39876714
0.39841429
0.39805315
0.39767732
0.39729349
0.39688396
0.39642508
0.39592133
0.39529774
0.39443984
0.39351688
0.39112671
0.38982991
0.38146655
0.37772264
0.40116521
0.40140705
0.40112052
0.4009757
0.40070435
0.40042921
0.40012062
0.39979645
0.39946117
0.3991186
0.39876836
0.39841562
0.3980551
0.39768031
0.39729814
0.39689148
0.39643705
0.39594073
0.3953303
0.39449345
0.39360558
0.39128072
0.39005836
0.38179518
0.37850922
0.40117965
0.40142484
0.40113624
0.40098639
0.40071343
0.40043488
0.40012489
0.39979947
0.39946318
0.39912029
0.39876992
0.39841736
0.39805771
0.39768413
0.39730416
0.39690132
0.39645246
0.39596606
0.39537313
0.39456276
0.39372385
0.39147365
0.39038889
0.3822403
0.37960963
0.40119785
0.40144719
0.40115602
0.40099971
0.40072472
0.40044195
0.40013017
0.39980315
0.39946564
0.39912236
0.39877184
0.3984195
0.39806082
0.39768874
0.39731154
0.39691328
0.39647109
0.3959966
0.39542438
0.39464876
0.39387271
0.39170241
0.39082243
0.3827546
0.38133176
0.40121971
0.40147447
0.40117984
0.40101558
0.40073819
0.40045034
0.40013639
0.3998075
0.3994685
0.39912477
0.39877416
0.39842199
0.3980644
0.39769421
0.39732016
0.39692727
0.39649283
0.39603221
0.39548317
0.39474991
0.39405587
0.39196951
0.39140728
0.38340679
0.38385959
0.40124506
0.40150691
0.4012077
0.40103396
0.40075387
0.40046002
0.40014351
0.39981253
0.39947177
0.39912746
0.39877684
0.39842481
0.39806849
0.39770053
0.39733001
0.3969432
0.39651745
0.3960731
0.39554913
0.3948598
0.39427267
0.39228291
0.39214885
0.38437653
0.38774995
0.40127496
0.40154283
0.4012405
0.40105473
0.40077166
0.4004711
0.40015143
0.39981818
0.39947547
0.39913035
0.39877982
0.39842793
0.39807288
0.39770756
0.39734098
0.39696072
0.39654459
0.39611826
0.395623
0.39497578
0.39450939
0.39268395
0.39301648
0.38564302
0.39258637
0.4013143
0.40157615
0.40128176
0.40107762
0.40079112
0.40048377
0.40015981
0.39982413
0.39947952
0.39913331
0.39878282
0.39843108
0.39807739
0.39771502
0.39735241
0.39697888
0.39657393
0.39616496
0.39570221
0.3951061
0.39471292
0.39321083
0.39380848
0.38742536
0.39753689
0.35536461
0.34461864
0.32856761
0.31483663
0.30003904
0.28548662
0.27079166
0.25615666
0.24150973
0.226871
0.21223322
0.19759654
0.18295977
0.16832302
0.15368622
0.13904944
0.12441265
0.10977587
0.09513909
0.080502308
0.065865525
0.051228742
0.03659196
0.021955175
0.0073183935
0.35522935
0.3444842
0.32853005
0.31477749
0.30001028
0.28547196
0.27079222
0.25615514
0.24150959
0.22687086
0.21223313
0.19759645
0.18295977
0.16832302
0.15368622
0.13904944
0.12441265
0.10977587
0.095139089
0.080502307
0.065865525
0.051228742
0.03659196
0.021955175
0.0073183942
0.35484138
0.34454554
0.32834913
0.31469999
0.29996683
0.28544726
0.27078686
0.25615318
0.24150901
0.22687076
0.21223312
0.19759645
0.18295978
0.16832302
0.15368622
0.13904944
0.12441265
0.10977587
0.095139089
0.080502307
0.065865525
0.051228743
0.03659196
0.021955175
0.0073183943
0.35430541
0.344666
0.32809318
0.31463925
0.29994426
0.28543124
0.27078254
0.25615192
0.24150821
0.22687061
0.21223314
0.19759651
0.1829598
0.16832302
0.15368622
0.13904943
0.12441265
0.10977587
0.095139089
0.080502307
0.065865524
0.051228743
0.03659196
0.021955175
0.0073183937
0.35378604
0.34463799
0.3279624
0.31455973
0.29992082
0.28542635
0.27078037
0.25615092
0.24150737
0.22687039
0.21223316
0.19759657
0.18295982
0.16832302
0.15368622
0.13904943
0.12441265
0.10977587
0.095139089
0.080502308
0.065865525
0.051228743
0.03659196
0.021955175
0.0073183927
0.35312753
0.34463058
0.32788582
0.31447997
0.29988548
0.28542301
0.270778
0.25614976
0.24150667
0.22687016
0.21223319
0.19759663
0.18295983
0.16832302
0.15368622
0.13904943
0.12441265
0.10977587
0.095139089
0.080502307
0.065865525
0.051228743
0.03659196
0.021955176
0.0073183913
0.35220968
0.34470826
0.32770678
0.31443728
0.29986226
0.28542205
0.27077534
0.25614855
0.24150619
0.22687006
0.21223323
0.19759667
0.18295983
0.16832302
0.15368621
0.13904943
0.12441265
0.10977587
0.095139089
0.080502307
0.065865525
0.051228743
0.03659196
0.021955177
0.0073183898
0.35148314
0.34465946
0.3274977
0.31443959
0.29985523
0.2854246
0.27077278
0.25614749
0.24150581
0.22687012
0.2122333
0.1975967
0.18295983
0.16832301
0.15368621
0.13904943
0.12441265
0.10977587
0.095139089
0.080502307
0.065865525
0.051228743
0.03659196
0.021955177
0.0073183885
0.35035405
0.34460274
0.32744849
0.31448509
0.2998607
0.28542985
0.27077072
0.25614651
0.24150537
0.22687026
0.21223342
0.19759674
0.18295982
0.168323
0.15368621
0.13904943
0.12441265
0.10977587
0.095139089
0.080502307
0.065865525
0.051228743
0.03659196
0.021955176
0.0073183871
0.34608982
0.34515557
0.32745435
0.31457192
0.29984524
0.28543456
0.27076672
0.25614619
0.24150486
0.22687041
0.21223351
0.19759678
0.18295982
0.168323
0.1536862
0.13904943
0.12441265
0.10977587
0.095139089
0.080502307
0.065865525
0.051228743
0.036591959
0.021955174
0.0073183855
0.40141632
0.40163775
0.40138192
0.40112866
0.40083229
0.40051111
0.40017726
0.39983602
0.39948771
0.39913893
0.39878834
0.39843734
0.39808661
0.39773013
0.39737442
0.39701505
0.39663593
0.39625871
0.39586308
0.39539532
0.39504378
0.39435732
0.39506454
0.39244806
0.41041777
0.40157523
0.40182701
0.40153964
0.40123556
0.40090786
0.40056196
0.40021068
0.39985788
0.39950247
0.3991497
0.39879885
0.39844938
0.39810349
0.39775718
0.39741126
0.39707682
0.39673812
0.39640395
0.39609674
0.39575911
0.39551691
0.39519969
0.39542038
0.39385549
0.39972854
0.40178723
0.40208877
0.40172623
0.40136257
0.40099324
0.40061696
0.40024561
0.3998791
0.39951695
0.39916014
0.39880853
0.39846012
0.3981179
0.39778381
0.39744944
0.3971323
0.39683111
0.39653814
0.39629738
0.39607111
0.39595455
0.39589783
0.39618617
0.39609669
0.39876209
0.40208996
0.40241166
0.40194217
0.40150192
0.40108115
0.40067166
0.40027878
0.39989687
0.39952787
0.399168
0.39881524
0.39846842
0.39813007
0.3978027
0.39748343
0.39717829
0.39690428
0.39665007
0.39645593
0.39630734
0.39625672
0.39631797
0.39663413
0.39709353
0.39803664
0.40254764
0.40277991
0.40218283
0.40164492
0.40116307
0.40071813
0.40030556
0.39990972
0.39953384
0.39917091
0.39881736
0.3984721
0.39813716
0.39781191
0.39750388
0.39721138
0.39695188
0.39672634
0.39656002
0.39646171
0.3964496
0.39656307
0.39690299
0.39751488
0.39783626
0.40326617
0.40316521
0.4024372
0.40177918
0.40123032
0.40075052
0.40032026
0.39991548
0.39953396
0.39916807
0.3988134
0.39846894
0.39813513
0.39781248
0.39750711
0.39722222
0.39696807
0.39675515
0.39659851
0.39651824
0.39652332
0.39665603
0.39695891
0.39757096
0.39767395
0.4043813
0.40354075
0.40266681
0.40188261
0.40127156
0.40076496
0.40031928
0.39991052
0.39952617
0.39915891
0.39880317
0.39845815
0.39812293
0.39779973
0.39749186
0.39720527
0.39694797
0.39673184
0.39656937
0.39648182
0.39648307
0.39660388
0.39686227
0.39742861
0.39747278
0.40627899
0.40375183
0.40280319
0.40190987
0.40126413
0.40074937
0.40029995
0.39989264
0.39950955
0.39914251
0.39878626
0.39843927
0.39810086
0.39777253
0.39745753
0.39716097
0.39689055
0.39665737
0.39647407
0.39635938
0.39633539
0.39642877
0.39665695
0.39716855
0.39722993
0.4098632
0.403488
0.40282663
0.40181609
0.40117909
0.40068357
0.40025235
0.39985591
0.39947951
0.39911547
0.39875939
0.39840961
0.39806556
0.39772783
0.39739929
0.39708395
0.39678847
0.39652266
0.39629964
0.39613907
0.39606822
0.39612808
0.39634599
0.39682666
0.39694755
0.41145836
0.40247557
0.40327362
0.40188861
0.40124258
0.40070796
0.40026188
0.39985859
0.3994792
0.39911334
0.39875593
0.39840486
0.39805922
0.39771941
0.39738808
0.39706874
0.39676773
0.39649383
0.39625954
0.39608498
0.39599733
0.39604115
0.39622213
0.39666114
0.39681568
)
;

boundaryField
{
    inlet
    {
        type            zeroGradient;
    }
    walls
    {
        type            zeroGradient;
    }
    outlet
    {
        type            fixedValue;
        value           uniform 0;
    }
    centreline
    {
        type            symmetryPlane;
    }
    frontAndBack
    {
        type            empty;
    }
}


// ************************************************************************* //
