/*--------------------------------*- C++ -*----------------------------------*\
| =========                 |                                                 |
| \\      /  F ield         | OpenFOAM: The Open Source CFD Toolbox           |
|  \\    /   O peration     | Version:  5.x                                   |
|   \\  /    A nd           | Web:      www.OpenFOAM.org                      |
|    \\/     M anipulation  |                                                 |
\*---------------------------------------------------------------------------*/
/*   Windows 32 and 64 bit porting by blueCAPE: http://www.bluecape.com.pt   *\
|  Based on Windows porting (2.0.x v4) by Symscape: http://www.symscape.com   |
\*---------------------------------------------------------------------------*/
FoamFile
{
    version     2.0;
    format      ascii;
    class       surfaceScalarField;
    location    "0.17";
    object      phi;
}
// * * * * * * * * * * * * * * * * * * * * * * * * * * * * * * * * * * * * * //

dimensions      [0 3 -1 0 0 0 0];

internalField   nonuniform List<scalar> 
1430
(
5.1334614e-006
-1.3218107e-007
5.2994478e-006
-1.6598636e-007
5.4625449e-006
-1.6309719e-007
5.6024619e-006
-1.3991695e-007
5.719143e-006
-1.166811e-007
5.8116735e-006
-9.2530541e-008
5.885469e-006
-7.3795499e-008
5.9454504e-006
-5.9981417e-008
5.9967806e-006
-5.1330211e-008
6.0446009e-006
-4.7820303e-008
6.0943522e-006
-4.9751251e-008
6.1523334e-006
-5.7981263e-008
6.2258893e-006
-7.3555867e-008
6.3251166e-006
-9.9227284e-008
6.4644831e-006
-1.3936652e-007
6.6641204e-006
-1.9963728e-007
6.9559821e-006
-2.9186168e-007
7.3932454e-006
-4.3726338e-007
8.0631257e-006
-6.6988023e-007
9.1182104e-006
-1.0550847e-006
1.0731362e-005
-1.6131518e-006
1.3185058e-005
-2.4536956e-006
1.6589607e-005
-3.4045494e-006
2.0936989e-005
-4.3473821e-006
-4.854786e-006
2.5791775e-005
5.1325482e-006
-2.6344897e-007
5.3016827e-006
-3.3512082e-007
5.4633551e-006
-3.2476959e-007
5.6041056e-006
-2.8066752e-007
5.7203196e-006
-2.3289507e-007
5.8127359e-006
-1.8494684e-007
5.8862239e-006
-1.472835e-007
5.9458856e-006
-1.1964312e-007
5.996884e-006
-1.0232862e-007
6.0443713e-006
-9.5307643e-008
6.0937135e-006
-9.9093385e-008
6.1511929e-006
-1.1546069e-007
6.2241033e-006
-1.4646631e-007
6.3223548e-006
-1.9747876e-007
6.4603176e-006
-2.773293e-007
6.6578986e-006
-3.9721835e-007
6.9463333e-006
-5.802963e-007
7.3780826e-006
-8.6901275e-007
8.0391287e-006
-1.3309263e-006
9.0748274e-006
-2.0907834e-006
1.066815e-005
-3.2064745e-006
1.3057512e-005
-4.8430578e-006
1.6427486e-005
-6.7745229e-006
2.0650156e-005
-8.5700517e-006
-9.7272572e-006
2.5522627e-005
5.1336104e-006
-3.9577903e-007
5.3035729e-006
-5.0508333e-007
5.4660724e-006
-4.8726909e-007
5.6069061e-006
-4.2150126e-007
5.7228662e-006
-3.4885515e-007
5.8148199e-006
-2.7690053e-007
5.8877367e-006
-2.2020032e-007
5.9467828e-006
-1.7868921e-007
5.9971321e-006
-1.5267797e-007
6.0439273e-006
-1.421028e-007
6.0924964e-006
-1.4766252e-007
6.1489875e-006
-1.7195173e-007
6.2205576e-006
-2.1803645e-007
6.316948e-006
-2.9386918e-007
6.4521408e-006
-4.1252214e-007
6.6454875e-006
-5.9056502e-007
6.9273246e-006
-8.6213344e-007
7.348174e-006
-1.2898621e-006
7.9906098e-006
-1.9733621e-006
8.9939323e-006
-3.0941059e-006
1.0530721e-005
-4.7432627e-006
1.2834369e-005
-7.1467059e-006
1.6070991e-005
-1.0011145e-005
2.015321e-005
-1.265227e-005
-1.445023e-005
2.4876183e-005
5.135146e-006
-5.2964475e-007
5.3064963e-006
-6.7643361e-007
5.470147e-006
-6.5091979e-007
5.6111563e-006
-5.6251054e-007
5.72675e-006
-4.6444881e-007
5.817985e-006
-3.681356e-007
5.8900286e-006
-2.9224392e-007
5.9481614e-006
-2.3682195e-007
5.99754e-006
-2.0205659e-007
6.0432997e-006
-1.878625e-007
6.0907082e-006
-1.9507104e-007
6.1457361e-006
-2.269797e-007
6.2153237e-006
-2.8762401e-007
6.3089353e-006
-3.8748081e-007
6.44003e-006
-5.4361683e-007
6.6271216e-006
-7.7765663e-007
6.8991735e-006
-1.1341853e-006
7.3040475e-006
-1.6947361e-006
7.9190143e-006
-2.5883289e-006
8.874202e-006
-4.0492936e-006
1.0329147e-005
-6.1982079e-006
1.2504639e-005
-9.3221977e-006
1.5538443e-005
-1.304495e-005
1.9397392e-005
-1.6511219e-005
-1.8926734e-005
2.3873896e-005
5.1372321e-006
-6.6559649e-007
5.3104651e-006
-8.4966665e-007
5.4756675e-006
-8.1612215e-007
5.6169171e-006
-7.0376022e-007
5.7320221e-006
-5.7955381e-007
5.822273e-006
-4.5838649e-007
5.8931349e-006
-3.6310576e-007
5.9500458e-006
-2.9373291e-007
5.9981384e-006
-2.501492e-007
6.0425275e-006
-2.3225155e-007
6.0883951e-006
-2.4093865e-007
6.141495e-006
-2.8007962e-007
6.2084831e-006
-3.546121e-007
6.298449e-006
-4.7744674e-007
6.424188e-006
-6.693558e-007
6.6031096e-006
-9.5657829e-007
6.8623681e-006
-1.3934438e-006
7.2464369e-006
-2.078805e-006
7.8254954e-006
-3.1673874e-006
8.7189979e-006
-4.9427961e-006
1.0067209e-005
-7.5464193e-006
1.2071633e-005
-1.1326621e-005
1.4835039e-005
-1.5808356e-005
1.838973e-005
-2.0065909e-005
-2.3048713e-005
2.2511709e-005
5.1399546e-006
-8.042708e-007
5.3155815e-006
-1.0252936e-006
5.4827779e-006
-9.8331851e-007
5.6243332e-006
-8.4531548e-007
5.7387998e-006
-6.9402042e-007
5.8277855e-006
-5.4737226e-007
5.8971458e-006
-4.3246602e-007
5.9525191e-006
-3.4910624e-007
5.9990148e-006
-2.966449e-007
6.0417071e-006
-2.7494378e-007
6.0856639e-006
-2.8489554e-007
6.1363878e-006
-3.3080345e-007
6.2001889e-006
-4.1841328e-007
6.2856733e-006
-5.6293111e-007
6.4048399e-006
-7.8852243e-007
6.5737942e-006
-1.1255325e-006
6.8174616e-006
-1.6371112e-006
7.1763311e-006
-2.4376745e-006
7.7122367e-006
-3.7032931e-006
8.531222e-006
-5.7617813e-006
9.7484243e-006
-8.7636216e-006
1.1542579e-005
-1.3120776e-005
1.3968701e-005
-1.8234478e-005
1.7134644e-005
-2.3231853e-005
-2.6730848e-005
2.0816779e-005
5.1434399e-006
-9.4643041e-007
5.3220139e-006
-1.2038675e-006
5.4916875e-006
-1.1529921e-006
5.6336249e-006
-9.8725291e-007
5.7472663e-006
-8.0766182e-007
5.8346847e-006
-6.3479068e-007
5.9022132e-006
-4.9999452e-007
5.9557178e-006
-4.0261084e-007
6.0003153e-006
-3.4124232e-007
6.0409965e-006
-3.1562501e-007
6.0826753e-006
-3.2657441e-007
6.1306008e-006
-3.7872888e-007
6.1906545e-006
-4.7846703e-007
6.2708727e-006
-6.4314931e-007
6.3823376e-006
-8.9998733e-007
6.5397016e-006
-1.2828965e-006
6.7652894e-006
-1.862699e-006
7.0950061e-006
-2.7673912e-006
7.5813885e-006
-4.1896755e-006
8.3142967e-006
-6.4946895e-006
9.3789489e-006
-9.8282738e-006
1.0925687e-005
-1.4667514e-005
1.2942375e-005
-2.0251166e-005
1.5667304e-005
-2.5956782e-005
-2.9797859e-005
1.8734316e-005
5.1479026e-006
-1.0930527e-006
5.3300111e-006
-1.385976e-006
5.502706e-006
-1.325687e-006
5.645094e-006
-1.1296409e-006
5.757671e-006
-9.2023883e-007
5.8431981e-006
-7.2031776e-007
5.9085487e-006
-5.6534511e-007
5.9598332e-006
-4.5389536e-007
6.002244e-006
-3.8365311e-007
6.0406167e-006
-3.539977e-007
6.0796543e-006
-3.65612e-007
6.1243693e-006
-4.2344395e-007
6.1801677e-006
-5.3426542e-007
6.2544264e-006
-7.1740794e-007
6.3571608e-006
-1.0027218e-006
6.5014923e-006
-1.427228e-006
6.7068309e-006
-2.0680375e-006
7.0039848e-006
-3.0645452e-006
7.4358146e-006
-4.6215052e-006
8.0727718e-006
-7.1316466e-006
8.9661672e-006
-1.0721669e-005
1.0233154e-005
-1.59345e-005
1.1801444e-005
-2.1819456e-005
1.4038868e-005
-2.8194206e-005
-3.1900482e-005
1.614149e-005
5.1536899e-006
-1.2454623e-006
5.339856e-006
-1.5721421e-006
5.5162167e-006
-1.5020477e-006
5.6590775e-006
-1.2725017e-006
5.7702791e-006
-1.0314405e-006
5.8535851e-006
-8.0362376e-007
5.9163934e-006
-6.2815339e-007
5.9651022e-006
-5.0260413e-007
6.005024e-006
-4.2357491e-007
6.0407911e-006
-3.8976485e-007
6.0768659e-006
-4.0168677e-007
6.1179889e-006
-4.6456696e-007
6.1690767e-006
-5.8535327e-007
6.236774e-006
-7.8510522e-007
6.3298715e-006
-1.0958193e-006
6.4598705e-006
-1.557227e-006
6.6432172e-006
-2.2513842e-006
6.9051175e-006
-3.3264455e-006
7.2777831e-006
-4.9941708e-006
7.8116003e-006
-7.6654639e-006
8.519829e-006
-1.1429898e-005
9.4840957e-006
-1.6898767e-005
1.0560245e-005
-2.2895605e-005
1.2253896e-005
-2.9887857e-005
-3.2644126e-005
1.299754e-005
5.1601787e-006
-1.4043607e-006
5.3526874e-006
-1.7646508e-006
5.5324233e-006
-1.6817835e-006
5.6759697e-006
-1.4160482e-006
5.7853274e-006
-1.1407982e-006
5.8660769e-006
-8.8437332e-007
5.9259555e-006
-6.8803194e-007
5.9717444e-006
-5.4839308e-007
6.008837e-006
-4.6066746e-007
6.0417043e-006
-4.226322e-007
6.0745376e-006
-4.3452002e-007
6.1117399e-006
-5.0176931e-007
6.1577143e-006
-6.3132759e-007
6.2183041e-006
-8.4569509e-007
6.3009919e-006
-1.1785071e-006
6.4154808e-006
-1.6717159e-006
6.5753224e-006
-2.4112258e-006
6.7998376e-006
-3.5509607e-006
7.1099788e-006
-5.3043119e-006
7.53568e-006
-8.0911651e-006
8.0607858e-006
-1.1955004e-005
8.6887988e-006
-1.752678e-005
9.2201431e-006
-2.342695e-005
1.004288e-005
-3.0710594e-005
8.7848998e-006
-3.1386145e-005
2.8396239e-005
-2.6044636e-006
2.9273263e-005
-8.7702382e-007
2.9404066e-005
-1.3080282e-007
2.9362234e-005
4.1831703e-008
2.9292795e-005
6.9438801e-008
2.9238508e-005
5.4286455e-008
2.9217133e-005
2.1375515e-008
2.9214936e-005
2.1967829e-009
2.9218107e-005
-3.1706034e-009
2.9220202e-005
-2.09528e-009
2.9220678e-005
-4.7606472e-010
2.9220535e-005
1.4321208e-010
2.9220402e-005
1.3301147e-010
2.9220378e-005
2.3444973e-011
2.9220393e-005
-1.4194458e-011
2.9220401e-005
-8.0751627e-012
2.9220401e-005
-3.3633754e-013
2.92204e-005
1.35472e-012
2.9220399e-005
6.8146763e-013
2.9220399e-005
1.7500422e-013
2.9220399e-005
3.3425402e-014
2.9220399e-005
-3.7264178e-013
2.92204e-005
-9.0280948e-013
2.9220401e-005
-8.3718225e-013
-4.7936261e-013
2.7912201e-005
-4.9940382e-006
2.875195e-005
-1.7167724e-006
2.8853186e-005
-2.3203902e-007
2.8813159e-005
8.1858357e-008
2.8742808e-005
1.3979011e-007
2.8698106e-005
9.8988723e-008
2.8682033e-005
3.7447675e-008
2.8681576e-005
2.6537848e-009
2.8684549e-005
-6.1430424e-009
2.8686286e-005
-3.8326054e-009
2.868659e-005
-7.800159e-010
2.8686426e-005
3.0701786e-010
2.8686312e-005
2.4733525e-010
2.8686299e-005
3.6241574e-011
2.8686313e-005
-2.8041331e-011
2.868632e-005
-1.4776018e-011
2.868632e-005
-3.3231077e-013
2.8686319e-005
2.5672456e-012
2.8686318e-005
1.181269e-012
2.8686318e-005
2.4509018e-013
2.8686318e-005
8.085602e-014
2.8686318e-005
-6.7908951e-013
2.8686319e-005
-1.8502322e-012
2.8686321e-005
-2.3825773e-012
-1.7489365e-012
2.6986191e-005
-7.1040463e-006
2.7690177e-005
-2.4207588e-006
2.7763481e-005
-3.0534274e-007
2.7702368e-005
1.4297123e-007
2.7643658e-005
1.9850029e-007
2.7619111e-005
1.2353522e-007
2.7612982e-005
4.3577324e-008
2.761486e-005
7.7550002e-010
2.7617393e-005
-8.6758725e-009
2.7618437e-005
-4.8768968e-009
2.7618464e-005
-8.0655041e-010
2.7618287e-005
4.8398321e-010
2.7618213e-005
3.2125471e-010
2.7618216e-005
3.3133707e-011
2.7618228e-005
-4.0470269e-011
2.7618232e-005
-1.8799797e-011
2.7618232e-005
2.2307802e-013
2.7618231e-005
3.4539692e-012
2.7618231e-005
1.4152174e-012
2.7618231e-005
2.1653777e-013
2.7618231e-005
1.0168765e-013
2.7618231e-005
-7.4496776e-013
2.7618231e-005
-2.6352396e-012
2.7618234e-005
-5.0973664e-012
-4.1255684e-012
2.5593661e-005
-8.8238113e-006
2.6096538e-005
-2.923636e-006
2.6098599e-005
-3.0740416e-007
2.6035055e-005
2.0651572e-007
2.6005145e-005
2.2841007e-007
2.6002721e-005
1.2595934e-007
2.600588e-005
4.0417574e-008
2.6009371e-005
-2.7150233e-009
2.6010943e-005
-1.0247977e-008
2.6011117e-005
-5.0512061e-009
2.6010872e-005
-5.6115084e-010
2.6010725e-005
6.3132185e-010
2.6010706e-005
3.3961415e-010
2.6010723e-005
1.6076705e-011
2.6010732e-005
-4.8781025e-011
2.6010732e-005
-1.9352028e-011
2.6010731e-005
1.2036185e-012
2.6010731e-005
3.8256395e-012
2.6010731e-005
1.4530272e-012
2.6010731e-005
2.0903092e-013
2.6010731e-005
5.5010087e-014
2.6010731e-005
-6.5079387e-013
2.6010731e-005
-3.1730085e-012
2.6010735e-005
-8.5361738e-012
-7.2038609e-012
2.3709334e-005
-1.0021437e-005
2.3908302e-005
-3.1226042e-006
2.3838074e-005
-2.3717602e-007
2.3814715e-005
2.2987499e-007
2.3819398e-005
2.2372661e-007
2.3833923e-005
1.1143477e-007
2.3843252e-005
3.1088221e-008
2.3846742e-005
-6.2045074e-009
2.3846871e-005
-1.0377197e-008
2.3846217e-005
-4.3968877e-009
2.3845827e-005
-1.7120091e-010
2.3845766e-005
6.9170878e-010
2.3845806e-005
3.0028967e-010
2.3845828e-005
-6.7417206e-012
2.384583e-005
-5.015147e-011
2.3845827e-005
-1.6546927e-011
2.3845826e-005
2.2274536e-012
2.3845826e-005
3.6228486e-012
2.3845826e-005
1.2669893e-012
2.3845826e-005
2.3109178e-013
2.3845826e-005
8.8347763e-014
2.3845826e-005
-4.9398863e-013
2.3845826e-005
-3.5060988e-012
2.3845829e-005
-1.1494438e-011
-9.8505081e-012
2.1270918e-005
-1.0475575e-005
2.1078805e-005
-2.9304919e-006
2.0992269e-005
-1.5063976e-007
2.1018215e-005
2.0392857e-007
2.1052564e-005
1.893779e-007
2.1079155e-005
8.4843419e-008
2.1090927e-005
1.9316107e-008
2.1092802e-005
-8.0792351e-009
2.1091332e-005
-8.9072026e-009
2.1090126e-005
-3.1905576e-009
2.108978e-005
1.7484532e-010
2.1089841e-005
6.3004743e-010
2.1089922e-005
2.1972897e-010
2.108994e-005
-2.4436068e-011
2.1089933e-005
-4.3472565e-011
2.1089928e-005
-1.1569954e-011
2.1089927e-005
2.8223737e-012
2.1089928e-005
2.938382e-012
2.1089929e-005
8.7326965e-013
2.1089929e-005
1.8952812e-013
2.1089928e-005
1.8513525e-013
2.1089928e-005
-2.5408002e-013
2.1089928e-005
-3.462918e-012
2.1089929e-005
-1.2629721e-011
-1.0844692e-011
1.8175787e-005
-9.9170465e-006
1.7616541e-005
-2.3712454e-006
1.7550187e-005
-8.4285836e-008
1.7607441e-005
1.4667379e-007
1.7661044e-005
1.3577556e-007
1.7692787e-005
5.3100076e-008
1.7703288e-005
8.8152314e-009
1.7702733e-005
-7.5239101e-009
1.7700051e-005
-6.2258788e-009
1.7698717e-005
-1.8560142e-009
1.7698559e-005
3.3232855e-010
1.7698728e-005
4.6096046e-010
1.7698821e-005
1.2746019e-010
1.7698826e-005
-2.9354229e-011
1.7698813e-005
-3.0543525e-011
1.7698807e-005
-6.2465704e-012
1.7698808e-005
2.6367775e-012
1.7698809e-005
1.9618868e-012
1.7698809e-005
4.6928285e-013
1.7698809e-005
1.2560717e-013
1.7698809e-005
2.3224301e-013
1.7698809e-005
-4.4293725e-014
1.7698808e-005
-2.9147419e-012
1.7698807e-005
-1.1127819e-011
-9.527772e-012
1.4322674e-005
-8.09823e-006
1.3520614e-005
-1.5691853e-006
1.3475471e-005
-3.9142942e-008
1.354146e-005
8.0685059e-008
1.3601811e-005
7.5423934e-008
1.3630596e-005
2.4315607e-008
1.3637296e-005
2.1151807e-009
1.3634719e-005
-4.947303e-009
1.3631715e-005
-3.2220602e-009
1.3630637e-005
-7.7739426e-010
1.3630691e-005
2.781508e-010
1.3630905e-005
2.4648324e-010
1.3630981e-005
5.2258538e-011
1.3630973e-005
-2.1425862e-011
1.3630958e-005
-1.5759477e-011
1.3630954e-005
-2.230862e-012
1.3630955e-005
1.7318037e-012
1.3630956e-005
9.7848559e-013
1.3630956e-005
1.8165323e-013
1.3630956e-005
8.1488007e-014
1.3630956e-005
1.9385346e-013
1.3630956e-005
5.4238106e-014
1.3630955e-005
-1.889178e-012
1.3630951e-005
-7.2622619e-012
-6.2178688e-012
9.6846225e-006
-4.7853128e-006
8.7755112e-006
-6.6007408e-007
8.7395778e-006
-3.2095417e-009
8.7962113e-006
2.4051542e-008
8.8469128e-006
2.4722352e-008
8.866053e-006
5.1754207e-009
8.8684049e-006
-2.3677316e-010
8.8652787e-006
-1.8210891e-009
8.8629541e-006
-8.9746719e-010
8.8623418e-006
-1.6498949e-010
8.8625075e-006
1.1241463e-010
8.8626844e-006
6.9560733e-011
8.8627266e-006
1.0054875e-011
8.8627131e-006
-7.9498134e-012
8.8627017e-006
-4.2801296e-012
8.8626997e-006
-2.7574479e-013
8.8627008e-006
6.1354479e-013
8.8627016e-006
2.6946031e-013
8.8627017e-006
3.6969314e-014
8.8627017e-006
3.8697722e-014
8.8627018e-006
9.2919107e-014
8.8627018e-006
5.8336596e-014
8.8627005e-006
-6.8225099e-013
8.8626959e-006
-2.64431e-012
-2.2932126e-012
3.999587e-006
3.3395129e-006
3.3363033e-006
3.3603548e-006
3.3850772e-006
3.3902526e-006
3.3900158e-006
3.3881947e-006
3.3872973e-006
3.3871323e-006
3.3872447e-006
3.3873143e-006
3.3873243e-006
3.3873164e-006
3.3873121e-006
3.3873118e-006
3.3873124e-006
3.3873127e-006
3.3873127e-006
3.3873128e-006
3.3873128e-006
3.3873129e-006
3.3873122e-006
3.3873095e-006
1.5510711e-005
-1.9112306e-006
1.6165813e-005
-2.4197529e-006
1.6713907e-005
-2.2298778e-006
1.7147772e-005
-1.8499126e-006
1.7462602e-005
-1.4556281e-006
1.7686623e-005
-1.1083942e-006
1.7845778e-005
-8.4718764e-007
1.7963733e-005
-6.6634748e-007
1.8055955e-005
-5.5289015e-007
1.8135678e-005
-5.023544e-007
1.8213252e-005
-5.1209397e-007
1.8299078e-005
-5.8759537e-007
1.8404297e-005
-7.3654719e-007
1.8540121e-005
-9.8151935e-007
1.8721595e-005
-1.3599809e-006
1.8968204e-005
-1.9183251e-006
1.9298097e-005
-2.7411181e-006
1.9737532e-005
-3.9903956e-006
2.0296706e-005
-5.863486e-006
2.0924369e-005
-8.7188288e-006
2.1525017e-005
-1.2555651e-005
2.1424108e-005
-1.7425871e-005
1.9835756e-005
-2.1838597e-005
1.461315e-005
-2.5487989e-005
-1.6772995e-005
1.5637104e-005
-2.5444933e-006
1.6391869e-005
-3.1745182e-006
1.6984804e-005
-2.8228123e-006
1.7409551e-005
-2.2746596e-006
1.7691837e-005
-1.7379144e-006
1.7873757e-005
-1.2903144e-006
1.7990654e-005
-9.6408512e-007
1.8069868e-005
-7.4556134e-007
1.8126604e-005
-6.0962622e-007
1.8171296e-005
-5.4704581e-007
1.8211311e-005
-5.5210933e-007
1.8252156e-005
-6.2844018e-007
1.8299746e-005
-7.8413756e-007
1.8358244e-005
-1.0400168e-006
1.8429913e-005
-1.4316505e-006
1.8518185e-005
-2.0065968e-006
1.8615838e-005
-2.8387714e-006
1.8705886e-005
-4.0804431e-006
1.8737114e-005
-5.8947145e-006
1.8570402e-005
-8.5521166e-006
1.7989312e-005
-1.1974561e-005
1.6379359e-005
-1.5815919e-005
1.3140235e-005
-1.8599473e-005
6.8486676e-006
-1.9196421e-005
-9.9243273e-006
1.5835215e-005
-3.3758675e-006
1.6707715e-005
-4.0470178e-006
1.7326166e-005
-3.4412636e-006
1.7718077e-005
-2.6665707e-006
1.7943955e-005
-1.9637919e-006
1.8065531e-005
-1.4118906e-006
1.8127652e-005
-1.0262059e-006
1.8158924e-005
-7.7683398e-007
1.8173624e-005
-6.2432576e-007
1.817861e-005
-5.520322e-007
1.8177435e-005
-5.5093425e-007
1.817077e-005
-6.2177476e-007
1.8158018e-005
-7.7138557e-007
1.8136071e-005
-1.0180701e-006
1.8096764e-005
-1.3923431e-006
1.8030338e-005
-1.940171e-006
1.7911343e-005
-2.7197766e-006
1.7689272e-005
-3.858372e-006
1.7279464e-005
-5.4849065e-006
1.6492848e-005
-7.7655005e-006
1.5090085e-005
-1.0571798e-005
1.2631851e-005
-1.3357685e-005
8.870545e-006
-1.4838166e-005
3.5021805e-006
-1.3828057e-005
-6.4221468e-006
1.6096127e-005
-4.4681537e-006
1.7044283e-005
-4.9951735e-006
1.7622146e-005
-4.0191267e-006
1.7927453e-005
-2.9718777e-006
1.8061139e-005
-2.0974779e-006
1.8100367e-005
-1.4511189e-006
1.8095014e-005
-1.0208523e-006
1.8071279e-005
-7.5309922e-007
1.8040448e-005
-5.9349443e-007
1.8004518e-005
-5.1610283e-007
1.7962183e-005
-5.0859877e-007
1.7908801e-005
-5.6839275e-007
1.7837923e-005
-7.0050749e-007
1.7740234e-005
-9.20381e-007
1.7600229e-005
-1.2523383e-006
1.7394618e-005
-1.73456e-006
1.7088996e-005
-2.414155e-006
1.6612226e-005
-3.3816021e-006
1.5865587e-005
-4.7382676e-006
1.4665703e-005
-6.5656158e-006
1.2807303e-005
-8.7133984e-006
1.0061265e-005
-1.0611647e-005
6.4562857e-006
-1.1233187e-005
2.2355779e-006
-9.607349e-006
-4.1865689e-006
1.6354991e-005
-5.8193032e-006
1.7229948e-005
-5.8701315e-006
1.7634868e-005
-4.4240459e-006
1.7766271e-005
-3.1032815e-006
1.7760116e-005
-2.0913225e-006
1.7694253e-005
-1.3852555e-006
1.7612414e-005
-9.3901321e-007
1.7531503e-005
-6.7218904e-007
1.7456139e-005
-5.1813021e-007
1.738241e-005
-4.4237354e-007
1.7303443e-005
-4.29632e-007
1.7209781e-005
-4.7473098e-007
1.7091099e-005
-5.8182555e-007
1.6931836e-005
-7.611172e-007
1.6711326e-005
-1.0318291e-006
1.6397485e-005
-1.4207185e-006
1.5949834e-005
-1.966504e-006
1.5294718e-005
-2.726486e-006
1.4329428e-005
-3.7729777e-006
1.2896606e-005
-5.1327938e-006
1.0843828e-005
-6.6606202e-006
8.1004731e-006
-7.8682926e-006
4.8476539e-006
-7.9803674e-006
1.5909342e-006
-6.3506292e-006
-2.5956346e-006
1.6477304e-005
-7.2927667e-006
1.7011858e-005
-6.4046849e-006
1.7056123e-005
-4.4683116e-006
1.6908024e-005
-2.9551817e-006
1.6713507e-005
-1.8968059e-006
1.652782e-005
-1.1995686e-006
1.6369083e-005
-7.8027671e-007
1.6236643e-005
-5.3974823e-007
1.6124289e-005
-4.0577692e-007
1.6021625e-005
-3.3970964e-007
1.5916791e-005
-3.2479716e-007
1.5796874e-005
-3.5481482e-007
1.5647477e-005
-4.3242815e-007
1.5449908e-005
-5.6354785e-007
1.5179711e-005
-7.6163211e-007
1.4803821e-005
-1.0448289e-006
1.4277524e-005
-1.440207e-006
1.3533828e-005
-1.9827903e-006
1.2477747e-005
-2.7168963e-006
1.0988214e-005
-3.6432608e-006
8.963512e-006
-4.6359182e-006
6.4320568e-006
-5.3368374e-006
3.6582067e-006
-5.2065173e-006
1.1622031e-006
-3.8546256e-006
-1.4334316e-006
1.628568e-005
-8.5746056e-006
1.6105813e-005
-6.2248175e-006
1.5602673e-005
-3.9651722e-006
1.5098276e-005
-2.4507848e-006
1.4693483e-005
-1.4920122e-006
1.4394173e-005
-9.0025866e-007
1.4174299e-005
-5.6040327e-007
1.4007643e-005
-3.7309169e-007
1.3874731e-005
-2.7286547e-007
1.3758674e-005
-2.2365227e-007
1.3644225e-005
-2.103485e-007
1.3516846e-005
-2.2743542e-007
1.3359824e-005
-2.7540677e-007
1.3154539e-005
-3.5826234e-007
1.2876102e-005
-4.8319522e-007
1.2493245e-005
-6.6197173e-007
1.1963294e-005
-9.1025576e-007
1.1228854e-005
-1.2483511e-006
1.0211688e-005
-1.6997302e-006
8.8245467e-006
-2.2561193e-006
7.0134325e-006
-2.8248039e-006
4.8560173e-006
-3.1794221e-006
2.6337162e-006
-2.9842162e-006
8.0104452e-007
-2.0219539e-006
-6.3238703e-007
1.5442815e-005
-9.0135794e-006
1.4165511e-005
-4.9475138e-006
1.3048664e-005
-2.8483254e-006
1.2216872e-005
-1.6189929e-006
1.1655258e-005
-9.303975e-007
1.1289408e-005
-5.3440857e-007
1.1046652e-005
-3.1764798e-007
1.0876185e-005
-2.0262402e-007
1.0746816e-005
-1.4349645e-007
1.063797e-005
-1.1480681e-007
1.0533771e-005
-1.0614928e-007
1.0419871e-005
-1.1353512e-007
1.0281151e-005
-1.3668724e-007
1.0100757e-005
-1.7786865e-007
9.8574757e-006
-2.3991353e-007
9.524375e-006
-3.2887105e-007
9.0660582e-006
-4.5193899e-007
8.4369317e-006
-6.1922454e-007
7.5783961e-006
-8.4119462e-007
6.4322422e-006
-1.1099653e-006
4.9805412e-006
-1.3731029e-006
3.3148093e-006
-1.5136902e-006
1.6942794e-006
-1.3636862e-006
4.7954768e-007
-8.072221e-007
-1.5283932e-007
1.3268944e-005
-7.2786824e-006
1.0821279e-005
-2.4998493e-006
9.2251764e-006
-1.2522225e-006
8.2563754e-006
-6.5019181e-007
7.6815191e-006
-3.5554127e-007
7.3419719e-006
-1.9486134e-007
7.1349268e-006
-1.1060291e-007
6.9993899e-006
-6.7087161e-008
6.9012977e-006
-4.5404236e-008
6.8215742e-006
-3.5083286e-008
6.7471536e-006
-3.1728675e-008
6.6670779e-006
-3.3459481e-008
6.5704629e-006
-4.0072284e-008
6.4448519e-006
-5.225759e-008
6.2755012e-006
-7.0562865e-008
6.0434867e-006
-9.6856565e-008
5.7245185e-006
-1.3297077e-007
5.2872604e-006
-1.819665e-007
4.6926839e-006
-2.4661807e-007
3.9060851e-006
-3.2336655e-007
2.9284111e-006
-3.9542886e-007
1.8378933e-006
-4.231724e-007
8.3490463e-007
-3.606975e-007
1.8521301e-007
-1.5753044e-007
3.2373709e-008
7.7251586e-006
5.2253093e-006
3.9730868e-006
3.322895e-006
2.9673537e-006
2.7724924e-006
2.6618895e-006
2.5948023e-006
2.5493981e-006
2.5143148e-006
2.4825861e-006
2.4491266e-006
2.4090543e-006
2.3567967e-006
2.2862339e-006
2.1893773e-006
2.0564065e-006
1.87444e-006
1.627822e-006
1.3044554e-006
9.0902658e-007
4.8585419e-007
1.2515671e-007
-3.2373709e-008
)
;

boundaryField
{
    inlet
    {
        type            calculated;
        value           nonuniform List<scalar> 
20
(
-5.0012803e-006
-5.0012803e-006
-5.0012803e-006
-5.0012803e-006
-5.0012803e-006
-5.0012803e-006
-5.0012803e-006
-5.0012803e-006
-5.0012803e-006
-5.0012803e-006
-1.5003841e-005
-1.5003841e-005
-1.5003841e-005
-1.5003841e-005
-1.5003841e-005
-1.5003841e-005
-1.5003841e-005
-1.5003841e-005
-1.5003841e-005
-1.5003841e-005
)
;
    }
    walls
    {
        type            calculated;
        value           uniform 0;
    }
    outlet
    {
        type            calculated;
        value           nonuniform List<scalar> 10(2.9220401e-005 2.8686322e-005 2.7618236e-005 2.6010738e-005 2.3845832e-005 2.108993e-005 1.7698805e-005 1.3630948e-005 8.8626919e-006 3.3873072e-006);
    }
    centreline
    {
        type            symmetryPlane;
        value           uniform 0;
    }
    frontAndBack
    {
        type            empty;
        value           nonuniform 0();
    }
}


// ************************************************************************* //
