/*--------------------------------*- C++ -*----------------------------------*\
| =========                 |                                                 |
| \\      /  F ield         | OpenFOAM: The Open Source CFD Toolbox           |
|  \\    /   O peration     | Version:  5.x                                   |
|   \\  /    A nd           | Web:      www.OpenFOAM.org                      |
|    \\/     M anipulation  |                                                 |
\*---------------------------------------------------------------------------*/
/*   Windows 32 and 64 bit porting by blueCAPE: http://www.bluecape.com.pt   *\
|  Based on Windows porting (2.0.x v4) by Symscape: http://www.symscape.com   |
\*---------------------------------------------------------------------------*/
FoamFile
{
    version     2.0;
    format      ascii;
    class       surfaceScalarField;
    location    "0.17";
    object      phi_0;
}
// * * * * * * * * * * * * * * * * * * * * * * * * * * * * * * * * * * * * * //

dimensions      [0 3 -1 0 0 0 0];

internalField   nonuniform List<scalar> 
1430
(
5.1333617e-006
-1.3208138e-007
5.2992202e-006
-1.6585848e-007
5.4621819e-006
-1.6296171e-007
5.6019708e-006
-1.3978891e-007
5.7185397e-006
-1.1656888e-007
5.8109838e-006
-9.2444108e-008
5.8847166e-006
-7.3732816e-008
5.9446554e-006
-5.9938781e-008
5.9959585e-006
-5.1303136e-008
6.0437617e-006
-4.7803156e-008
6.0935011e-006
-4.9739483e-008
6.1514745e-006
-5.7973423e-008
6.2250241e-006
-7.3549557e-008
6.3242434e-006
-9.9219338e-008
6.4635968e-006
-1.3935335e-007
6.6632106e-006
-1.9961386e-007
6.955024e-006
-2.9181342e-007
7.3921821e-006
-4.3715802e-007
8.0618785e-006
-6.6969642e-007
9.1167455e-006
-1.054867e-006
1.072981e-005
-1.6130641e-006
1.3183765e-005
-2.4539555e-006
1.6588977e-005
-3.405212e-006
2.0937123e-005
-4.3481453e-006
-4.8551249e-006
2.5792247e-005
5.1324498e-006
-2.6325083e-007
5.3014534e-006
-3.3486216e-007
5.4629916e-006
-3.2449989e-007
5.6036129e-006
-2.8041021e-007
5.7197153e-006
-2.3267121e-007
5.8120451e-006
-1.84774e-007
5.8854708e-006
-1.4715852e-007
5.9450904e-006
-1.195583e-007
5.9960618e-006
-1.0227461e-007
6.0435323e-006
-9.5273589e-008
6.0928628e-006
-9.9070012e-008
6.1503345e-006
-1.1544513e-007
6.2232388e-006
-1.4645389e-007
6.3214826e-006
-1.9746313e-007
6.4594324e-006
-2.7730317e-007
6.6569906e-006
-3.9717201e-007
6.9453778e-006
-5.8020067e-007
7.3770245e-006
-8.6880474e-007
8.0378917e-006
-1.3305636e-006
9.0733799e-006
-2.0903553e-006
1.0666616e-005
-3.2063006e-006
1.3056223e-005
-4.8435621e-006
1.6426825e-005
-6.7758144e-006
2.0650232e-005
-8.571552e-006
-9.7279438e-006
2.5523051e-005
5.1335115e-006
-3.9548201e-007
5.3033426e-006
-5.0469323e-007
5.4657065e-006
-4.8686379e-007
5.6064104e-006
-4.2111417e-007
5.722259e-006
-3.4851982e-007
5.814127e-006
-2.7664194e-007
5.8869823e-006
-2.2001382e-007
5.9459868e-006
-1.7856287e-007
5.9963096e-006
-1.5259741e-007
6.0430882e-006
-1.420522e-007
6.0916461e-006
-1.4762789e-007
6.1481298e-006
-1.7192883e-007
6.2196942e-006
-2.1801828e-007
6.3160773e-006
-2.9384628e-007
6.4512578e-006
-4.1248369e-007
6.6445824e-006
-5.9049662e-007
6.9263743e-006
-8.6199249e-007
7.3471262e-006
-1.2895567e-006
7.989394e-006
-1.9728314e-006
8.9925169e-006
-3.0934782e-006
1.0529216e-005
-4.7429999e-006
1.2833086e-005
-7.1474316e-006
1.6070287e-005
-1.0013015e-005
2.0153195e-005
-1.265446e-005
-1.4451255e-005
2.4876506e-005
5.1350462e-006
-5.2924787e-007
5.3062634e-006
-6.759105e-007
5.4697765e-006
-6.5037685e-007
5.6106552e-006
-5.6199286e-007
5.7261377e-006
-4.6400234e-007
5.8172882e-006
-3.6779238e-007
5.8892714e-006
-2.9199709e-007
5.9473634e-006
-2.3665483e-007
5.9967161e-006
-2.0195017e-007
6.0424599e-006
-1.8779599e-007
6.0898576e-006
-1.9502561e-007
6.1448788e-006
-2.2694999e-007
6.2144613e-006
-2.8760079e-007
6.3080663e-006
-3.8745128e-007
6.4391495e-006
-5.4356694e-007
6.6262204e-006
-7.7756751e-007
6.8982299e-006
-1.134002e-006
7.3030136e-006
-1.6943404e-006
7.9178258e-006
-2.5876436e-006
8.8728274e-006
-4.0484798e-006
1.0327684e-005
-6.197856e-006
1.2503372e-005
-9.3231201e-006
1.5537692e-005
-1.3047335e-005
1.9397246e-005
-1.6514014e-005
-1.8928057e-005
2.3874048e-005
5.1371301e-006
-6.650977e-007
5.3102274e-006
-8.4900772e-007
5.4752893e-006
-8.1543873e-007
5.6164074e-006
-7.0311097e-007
5.7314017e-006
-5.789967e-007
5.8215696e-006
-4.5796024e-007
5.8923726e-006
-3.6280014e-007
5.9492438e-006
-2.9352604e-007
5.9973116e-006
-2.5001788e-007
6.0416855e-006
-2.3216994e-007
6.0875429e-006
-2.4088304e-007
6.1406367e-006
-2.8004378e-007
6.2076207e-006
-3.545848e-007
6.2975809e-006
-4.7741146e-007
6.4233096e-006
-6.6929562e-007
6.6022123e-006
-9.5647027e-007
6.861432e-006
-1.3932216e-006
7.2454186e-006
-2.078327e-006
7.8243367e-006
-3.1665617e-006
8.717674e-006
-4.941817e-006
1.0065807e-005
-7.5459892e-006
1.20704e-005
-1.1327713e-005
1.4834222e-005
-1.5811157e-005
1.8389395e-005
-2.0069187e-005
-2.3050353e-005
2.2511691e-005
5.139849e-006
-8.0366633e-007
5.3153356e-006
-1.0244943e-006
5.4823877e-006
-9.8249088e-007
5.6238104e-006
-8.4453359e-007
5.738167e-006
-6.9335334e-007
5.8270718e-006
-5.4686502e-007
5.8963752e-006
-4.3210357e-007
5.9517103e-006
-3.488611e-007
5.9981823e-006
-2.9648989e-007
6.0408603e-006
-2.7484799e-007
6.0848079e-006
-2.8483059e-007
6.1355264e-006
-3.3076233e-007
6.1993246e-006
-4.18383e-007
6.2848042e-006
-5.6289104e-007
6.4039621e-006
-7.884535e-007
6.5728998e-006
-1.125408e-006
6.8165326e-006
-1.6368545e-006
7.1753291e-006
-2.4371235e-006
7.711111e-006
-3.7023436e-006
8.5299553e-006
-5.7606613e-006
9.7470971e-006
-8.763131e-006
1.1541394e-005
-1.312201e-005
1.3967845e-005
-1.8237607e-005
1.713417e-005
-2.3235513e-005
-2.6732824e-005
2.0816642e-005
5.1433281e-006
-9.4571408e-007
5.3217554e-006
-1.2029217e-006
5.4912802e-006
-1.1520157e-006
5.6330839e-006
-9.8633726e-007
5.7466161e-006
-8.0688551e-007
5.833956e-006
-6.3420491e-007
5.9014301e-006
-4.9957774e-007
5.9548984e-006
-4.0232939e-007
5.9994736e-006
-3.4106502e-007
6.0401417e-006
-3.1551613e-007
6.0818124e-006
-3.2650127e-007
6.1297335e-006
-3.7868345e-007
6.1897854e-006
-4.7843489e-007
6.27e-006
-6.4310566e-007
6.381458e-006
-8.9991156e-007
6.5388082e-006
-1.2827582e-006
6.7643665e-006
-1.8624127e-006
7.0940199e-006
-2.766777e-006
7.5802966e-006
-4.1886203e-006
8.3130907e-006
-6.4934554e-006
9.3777049e-006
-9.8277452e-006
1.0924573e-005
-1.4668879e-005
1.2941537e-005
-2.0254571e-005
1.5666771e-005
-2.5960747e-005
-2.9800111e-005
1.8734058e-005
5.1477814e-006
-1.0922152e-006
5.3297352e-006
-1.3848755e-006
5.502276e-006
-1.3245564e-006
5.6445291e-006
-1.1285904e-006
5.7569976e-006
-9.1935405e-007
5.8424492e-006
-7.1965645e-007
5.9077485e-006
-5.6487708e-007
5.9589991e-006
-4.5358e-007
6.0013892e-006
-3.8345515e-007
6.0397502e-006
-3.5387714e-007
6.0787811e-006
-3.6553208e-007
6.1234926e-006
-4.2339504e-007
6.1792904e-006
-5.3423261e-007
6.253547e-006
-7.1736228e-007
6.3562767e-006
-1.0026413e-006
6.5005976e-006
-1.4270792e-006
6.7059124e-006
-2.0677274e-006
7.0030136e-006
-3.0638782e-006
7.4347577e-006
-4.6203643e-006
8.0716304e-006
-7.1303282e-006
8.9650159e-006
-1.0721131e-005
1.0232132e-005
-1.5935995e-005
1.1800647e-005
-2.1823086e-005
1.4038334e-005
-2.8198434e-005
-3.1902947e-005
1.614117e-005
5.1535557e-006
-1.2444906e-006
5.3395578e-006
-1.5708776e-006
5.5157581e-006
-1.5007568e-006
5.658483e-006
-1.2713152e-006
5.7695772e-006
-1.0304483e-006
5.8528112e-006
-8.0289047e-007
5.9155716e-006
-6.2763749e-007
5.9642493e-006
-5.0225766e-007
6.0041524e-006
-4.2335825e-007
6.0399096e-006
-3.8963437e-007
6.0759792e-006
-4.0160172e-007
6.1170998e-006
-4.6451558e-007
6.1681881e-006
-5.8532091e-007
6.235885e-006
-7.8505925e-007
6.3289803e-006
-1.0957365e-006
6.4589726e-006
-1.5570715e-006
6.6423019e-006
-2.2510568e-006
6.9041613e-006
-3.3257376e-006
7.2767634e-006
-4.9929665e-006
7.8105268e-006
-7.6640916e-006
8.5187755e-006
-1.1429379e-005
9.4831757e-006
-1.6900395e-005
1.0559521e-005
-2.2899432e-005
1.2253408e-005
-2.9892321e-005
-3.2646753e-005
1.2997214e-005
5.1600287e-006
-1.4032389e-006
5.3523616e-006
-1.7632105e-006
5.5319316e-006
-1.6803267e-006
5.6753411e-006
-1.4147248e-006
5.7845937e-006
-1.1397008e-006
5.8652747e-006
-8.8357149e-007
5.9251087e-006
-6.8747143e-007
5.9708698e-006
-5.4801883e-007
6.007946e-006
-4.6043447e-007
6.0408055e-006
-4.2249385e-007
6.0736356e-006
-4.3443177e-007
6.1108367e-006
-5.0171676e-007
6.1568124e-006
-6.3129658e-007
6.2174037e-006
-8.4565053e-007
6.3000922e-006
-1.1784251e-006
6.4145791e-006
-1.6715583e-006
6.57441e-006
-2.4108876e-006
6.7988984e-006
-3.550226e-006
7.1089987e-006
-5.3030667e-006
7.5346739e-006
-8.0897669e-006
8.0598272e-006
-1.1954533e-005
8.687988e-006
-1.7528556e-005
9.2195247e-006
-2.3430969e-005
1.0042434e-005
-3.071523e-005
8.7845865e-006
-3.1388905e-005
2.8396272e-005
-2.6040242e-006
2.9272317e-005
-8.7604505e-007
2.9401892e-005
-1.295755e-007
2.9358918e-005
4.2974186e-008
2.9288739e-005
7.0178959e-008
2.9234202e-005
5.4537258e-008
2.9212878e-005
2.1324028e-008
2.9210774e-005
2.1039969e-009
2.9213982e-005
-3.2083148e-009
2.9216075e-005
-2.0935822e-009
2.9216542e-005
-4.6696493e-010
2.9216395e-005
1.4702603e-010
2.9216263e-005
1.326498e-010
2.921624e-005
2.2612371e-011
2.9216255e-005
-1.4430942e-011
2.9216263e-005
-8.0285207e-012
2.9216263e-005
-2.8732502e-013
2.9216262e-005
1.3618647e-012
2.9216261e-005
6.7796624e-013
2.9216261e-005
1.744586e-013
2.9216261e-005
3.4307736e-014
2.9216261e-005
-3.7236366e-013
2.9216262e-005
-9.0457919e-013
2.9216263e-005
-8.5746295e-013
-5.0100826e-013
2.7912239e-005
-4.9932125e-006
2.8751173e-005
-1.7149792e-006
2.8851397e-005
-2.2979944e-007
2.8810416e-005
8.3956019e-008
2.8739474e-005
1.411203e-007
2.8694625e-005
9.9386404e-008
2.8678622e-005
3.7327224e-008
2.8678246e-005
2.4793667e-009
2.8681246e-005
-6.2074918e-009
2.8682977e-005
-3.8252075e-009
2.8683273e-005
-7.6231334e-010
2.8683106e-005
3.1356483e-010
2.8682992e-005
2.4634817e-010
2.868298e-005
3.4644341e-011
2.8682994e-005
-2.8443578e-011
2.8683001e-005
-1.4670533e-011
2.8683001e-005
-2.4114822e-013
2.8683e-005
2.5779868e-012
2.8682999e-005
1.1724999e-012
2.8682999e-005
2.4283593e-013
2.8682999e-005
8.3069776e-014
2.8682999e-005
-6.7842654e-013
2.8683e-005
-1.8535032e-012
2.8683002e-005
-2.4226279e-012
-1.7930969e-012
2.6986255e-005
-7.1029607e-006
2.7689733e-005
-2.418458e-006
2.7762341e-005
-3.024072e-007
2.7700575e-005
1.4572183e-007
2.764158e-005
2.0011586e-007
2.7617045e-005
1.239214e-007
2.7611004e-005
4.336799e-008
2.7612937e-005
5.460637e-010
2.7615477e-005
-8.7472064e-009
2.7616511e-005
-4.85913e-009
2.7616531e-005
-7.820164e-010
2.7616353e-005
4.9150279e-010
2.761628e-005
3.1929976e-010
2.7616283e-005
3.0970348e-011
2.7616296e-005
-4.0917388e-011
2.76163e-005
-1.862798e-011
2.7616299e-005
3.4194263e-013
2.7616298e-005
3.4627126e-012
2.7616298e-005
1.400288e-012
2.7616298e-005
2.118987e-013
2.7616298e-005
1.0476075e-013
2.7616298e-005
-7.4203775e-013
2.7616299e-005
-2.6381263e-012
2.7616302e-005
-5.1554103e-012
-4.1897337e-012
2.5593773e-005
-8.8226861e-006
2.6096478e-005
-2.921163e-006
2.6098169e-005
-3.0409793e-007
2.6034404e-005
2.0948661e-007
2.6004557e-005
2.2996267e-007
2.6002273e-005
1.2620631e-007
2.6005518e-005
4.012302e-008
2.6009025e-005
-2.9610646e-009
2.6010584e-005
-1.0306372e-008
2.6010746e-005
-5.0216673e-009
2.6010497e-005
-5.3310651e-010
2.6010351e-005
6.3789864e-010
2.6010334e-005
3.3660933e-010
2.6010351e-005
1.3680709e-011
2.6010359e-005
-4.9150423e-011
2.601036e-005
-1.9123101e-011
2.6010359e-005
1.3291605e-012
2.6010358e-005
3.8273658e-012
2.6010358e-005
1.4343259e-012
2.6010358e-005
2.030181e-013
2.6010358e-005
5.7221634e-014
2.6010358e-005
-6.4435881e-013
2.6010359e-005
-3.1728561e-012
2.6010362e-005
-8.6071065e-012
-7.2824429e-012
2.3709452e-005
-1.0020447e-005
2.3908487e-005
-3.1201979e-006
2.3838325e-005
-2.3393565e-007
2.381521e-005
2.3260165e-007
2.3820201e-005
2.2497121e-007
2.3834912e-005
1.1149542e-007
2.3844286e-005
3.074844e-008
2.3847753e-005
-6.4272542e-009
2.3847857e-005
-1.0410936e-008
2.3847195e-005
-4.3591109e-009
2.3846806e-005
-1.4421315e-010
2.3846748e-005
6.9595859e-010
2.3846788e-005
2.9659874e-010
2.384681e-005
-8.9763802e-012
2.3846812e-005
-5.0362873e-011
2.3846809e-005
-1.6290268e-011
2.3846808e-005
2.3372381e-012
2.3846808e-005
3.6159552e-012
2.3846808e-005
1.2481944e-012
2.3846808e-005
2.2536235e-013
2.3846808e-005
8.9608183e-014
2.3846808e-005
-4.8524454e-013
2.3846808e-005
-3.5018322e-012
2.3846811e-005
-1.1569088e-011
-9.9344425e-012
2.1270962e-005
-1.0474767e-005
2.1079122e-005
-2.9283583e-006
2.0993109e-005
-1.4792286e-007
2.1019642e-005
2.0606846e-007
2.1054399e-005
1.9021478e-007
2.1081135e-005
8.4758763e-008
2.1092888e-005
1.8996152e-008
2.1094709e-005
-8.2485102e-009
2.1093214e-005
-8.9160482e-009
2.1092007e-005
-3.152223e-009
2.1091666e-005
1.9640531e-010
2.1091731e-005
6.3165338e-010
2.1091811e-005
2.1607726e-010
2.1091828e-005
-2.617603e-011
2.1091822e-005
-4.3517787e-011
2.1091817e-005
-1.1330321e-011
2.1091816e-005
2.9010184e-012
2.1091817e-005
2.9254186e-012
2.1091817e-005
8.5730446e-013
2.1091817e-005
1.8500726e-013
2.1091817e-005
1.8598338e-013
2.1091817e-005
-2.444311e-013
2.1091817e-005
-3.4546268e-012
2.1091818e-005
-1.2696997e-011
-1.0922647e-011
1.8175739e-005
-9.9164491e-006
1.7616998e-005
-2.369617e-006
1.7551444e-005
-8.2368917e-008
1.7609431e-005
1.4808146e-007
1.7663413e-005
1.3623291e-007
1.7695212e-005
5.295992e-008
1.7705632e-005
8.5754583e-009
1.7705012e-005
-7.6279825e-009
1.7702315e-005
-6.2192064e-009
1.7700989e-005
-1.8256862e-009
1.7700839e-005
3.4608158e-010
1.770101e-005
4.6068992e-010
1.7701101e-005
1.2461073e-010
1.7701106e-005
-3.0440079e-011
1.7701092e-005
-3.0482123e-011
1.7701087e-005
-6.066932e-012
1.7701087e-005
2.6808231e-012
1.7701088e-005
1.9480579e-012
1.7701089e-005
4.5822402e-013
1.7701089e-005
1.2257109e-013
1.7701089e-005
2.3289884e-013
1.7701089e-005
-3.5456025e-014
1.7701088e-005
-2.9039565e-012
1.7701086e-005
-1.1177204e-011
-9.5884138e-012
1.4322574e-005
-8.0978526e-006
1.3521171e-005
-1.5682144e-006
1.3476892e-005
-3.8090412e-008
1.3543575e-005
8.1399088e-008
1.3604196e-005
7.5611213e-008
1.363295e-005
2.4206179e-008
1.3639541e-005
1.9844234e-009
1.3636907e-005
-4.9941362e-009
1.3633901e-005
-3.2123954e-009
1.3632835e-005
-7.6016205e-010
1.3632897e-005
2.8444423e-010
1.3633112e-005
2.4562151e-010
1.3633186e-005
5.0644142e-011
1.3633177e-005
-2.1913339e-011
1.3633162e-005
-1.5679767e-011
1.3633158e-005
-2.1323243e-012
1.3633159e-005
1.748659e-012
1.363316e-005
9.6883414e-013
1.3633161e-005
1.7601303e-013
1.3633161e-005
7.9903118e-014
1.3633161e-005
1.9429699e-013
1.3633161e-005
6.0509321e-014
1.3633159e-005
-1.8788911e-012
1.3633156e-005
-7.2878982e-012
-6.2535132e-012
9.6845039e-006
-4.7851422e-006
8.7760235e-006
-6.59734e-007
8.7408115e-006
-2.8784937e-009
8.7979504e-006
2.4260198e-008
8.8487959e-006
2.4765694e-008
8.8678666e-006
5.1354479e-009
8.8701253e-006
-2.7435634e-010
8.8669632e-006
-1.8319406e-009
8.8646437e-006
-8.9292709e-010
8.8640434e-006
-1.5983209e-010
8.864214e-006
1.1381717e-010
8.8643905e-006
6.9085361e-011
8.8644316e-006
9.5656483e-012
8.8644178e-006
-8.0586403e-012
8.8644063e-006
-4.2423136e-012
8.8644045e-006
-2.4677441e-013
8.8644056e-006
6.1615195e-013
8.8644063e-006
2.6597266e-013
8.8644064e-006
3.5441045e-014
8.8644065e-006
3.8208352e-014
8.8644065e-006
9.3120421e-014
8.8644065e-006
6.1017793e-014
8.8644053e-006
-6.7646963e-013
8.8644006e-006
-2.6502249e-012
-2.3047068e-012
3.9994443e-006
3.3397102e-006
3.3368317e-006
3.3610919e-006
3.3858576e-006
3.3909931e-006
3.3907187e-006
3.3888868e-006
3.3879938e-006
3.387834e-006
3.3879478e-006
3.3880169e-006
3.3880265e-006
3.3880184e-006
3.3880142e-006
3.3880139e-006
3.3880146e-006
3.3880148e-006
3.3880148e-006
3.3880149e-006
3.3880149e-006
3.388015e-006
3.3880143e-006
3.3880116e-006
1.551017e-005
-1.9095677e-006
1.6164639e-005
-2.4176802e-006
1.6712222e-005
-2.2279094e-006
1.7145674e-005
-1.8481769e-006
1.7460209e-005
-1.4542359e-006
1.7684041e-005
-1.1074034e-006
1.7843086e-005
-8.4651594e-007
1.796098e-005
-6.659127e-007
1.8053171e-005
-5.526253e-007
1.8132882e-005
-5.0220531e-007
1.8210458e-005
-5.1200768e-007
1.829629e-005
-5.8754907e-007
1.840152e-005
-7.3652659e-007
1.8537361e-005
-9.814918e-007
1.8718854e-005
-1.3599179e-006
1.8965486e-005
-1.9181899e-006
1.9295395e-005
-2.740797e-006
1.9734837e-005
-3.9896681e-006
2.0294012e-005
-5.8622418e-006
2.0921753e-005
-8.7175071e-006
2.1522688e-005
-1.2555468e-005
2.1422333e-005
-1.7428201e-005
1.9834659e-005
-2.1843295e-005
1.4612555e-005
-2.5493126e-005
-1.677635e-005
1.5636368e-005
-2.5420944e-006
1.6390447e-005
-3.1717598e-006
1.6982875e-005
-2.820337e-006
1.7407246e-005
-2.2725485e-006
1.7689281e-005
-1.7362703e-006
1.7871053e-005
-1.2891761e-006
1.7987893e-005
-9.6335505e-007
1.8067088e-005
-7.4510839e-007
1.8123823e-005
-6.0936038e-007
1.8168525e-005
-5.4690664e-007
1.8208557e-005
-5.5204041e-007
1.8249426e-005
-6.2841765e-007
1.8297044e-005
-7.8414513e-007
1.8355578e-005
-1.040025e-006
1.8427294e-005
-1.4316347e-006
1.8515632e-005
-2.0065271e-006
1.8613379e-005
-2.8385442e-006
1.8703561e-005
-4.0798507e-006
1.8734987e-005
-5.8936671e-006
1.8568553e-005
-8.5510734e-006
1.7987839e-005
-1.1974753e-005
1.6378391e-005
-1.5818753e-005
1.3139815e-005
-1.8604719e-005
6.8485759e-006
-1.9201887e-005
-9.9277741e-006
1.5834392e-005
-3.3726449e-006
1.6706338e-005
-4.0437063e-006
1.7324426e-005
-3.4384246e-006
1.7716072e-005
-2.6641952e-006
1.7941777e-005
-1.9619751e-006
1.8063274e-005
-1.4106731e-006
1.8125392e-005
-1.0254727e-006
1.8156692e-005
-7.7640842e-007
1.8171422e-005
-6.2409083e-007
1.8176439e-005
-5.5192332e-007
1.8175297e-005
-5.5089828e-007
1.8168668e-005
-6.217888e-007
1.8155958e-005
-7.7143541e-007
1.8134064e-005
-1.018131e-006
1.8094827e-005
-1.3923979e-006
1.8028494e-005
-1.940194e-006
1.7909642e-005
-2.7196916e-006
1.7687803e-005
-3.8580123e-006
1.7278331e-005
-5.4841949e-006
1.6492131e-005
-7.7648736e-006
1.5089787e-005
-1.0572409e-005
1.2631872e-005
-1.3360838e-005
8.8707725e-006
-1.484362e-005
3.5024386e-006
-1.3833553e-005
-6.4253354e-006
1.6095523e-005
-4.4643266e-006
1.7043546e-005
-4.9917301e-006
1.7621374e-005
-4.0162523e-006
1.7926638e-005
-2.9694596e-006
1.8060291e-005
-2.095628e-006
1.8099532e-005
-1.4499141e-006
1.8094231e-005
-1.0201716e-006
1.8070562e-005
-7.5273973e-007
1.8039789e-005
-5.9331738e-007
1.8003907e-005
-5.1604157e-007
1.7961615e-005
-5.0860638e-007
1.7908273e-005
-5.6844653e-007
1.7837439e-005
-7.0060094e-007
1.7739804e-005
-9.2049608e-007
1.7599871e-005
-1.2524653e-006
1.7394357e-005
-1.7346803e-006
1.7088881e-005
-2.4142157e-006
1.6612356e-005
-3.3814868e-006
1.5866081e-005
-4.7379194e-006
1.4666636e-005
-6.5654293e-006
1.2808573e-005
-8.7143456e-006
1.0062528e-005
-1.0614793e-005
6.4571975e-006
-1.1238289e-005
2.2359891e-006
-9.6123446e-006
-4.1893463e-006
1.6354975e-005
-5.8154607e-006
1.7230416e-005
-5.8671707e-006
1.7635741e-005
-4.421578e-006
1.7767411e-005
-3.1011297e-006
1.7761417e-005
-2.089634e-006
1.7695676e-005
-1.3841727e-006
1.7613944e-005
-9.3843911e-007
1.7533128e-005
-6.719238e-007
1.7457837e-005
-5.1802649e-007
1.7384159e-005
-4.4236422e-007
1.7305231e-005
-4.2967759e-007
1.7211598e-005
-4.7481355e-007
1.7092943e-005
-5.8194604e-007
1.6933711e-005
-7.6126445e-007
1.6713244e-005
-1.031998e-006
1.6399466e-005
-1.4209023e-006
1.5951913e-005
-1.9666635e-006
1.5296974e-005
-2.726547e-006
1.4331964e-005
-3.77291e-006
1.2899453e-005
-5.1329177e-006
1.0846787e-005
-6.6616796e-006
8.1030318e-006
-7.8710379e-006
4.8492725e-006
-7.9845299e-006
1.591525e-006
-6.3545971e-006
-2.5978213e-006
1.6478018e-005
-7.2896372e-006
1.7013545e-005
-6.4026977e-006
1.7058567e-005
-4.4666004e-006
1.6911018e-005
-2.9535803e-006
1.6716871e-005
-1.8954875e-006
1.6531419e-005
-1.198721e-006
1.6372833e-005
-7.7985256e-007
1.6240496e-005
-5.3958657e-007
1.6128212e-005
-4.0574297e-007
1.6025588e-005
-3.3973992e-007
1.5920773e-005
-3.2486245e-007
1.5800865e-005
-3.5490543e-007
1.5651465e-005
-4.3254619e-007
1.5453889e-005
-5.6368922e-007
1.5183686e-005
-7.6179456e-007
1.4807797e-005
-1.0450128e-006
1.4281516e-005
-1.440383e-006
1.353788e-005
-1.9829105e-006
1.2481925e-005
-2.716956e-006
1.0992496e-005
-3.6434886e-006
8.9676325e-006
-4.6368157e-006
6.4354367e-006
-5.3388421e-006
3.6602715e-006
-5.2093647e-006
1.1628905e-006
-3.857216e-006
-1.4349308e-006
1.628684e-005
-8.5726359e-006
1.6108027e-005
-6.2238851e-006
1.5605713e-005
-3.964286e-006
1.5101995e-005
-2.4498629e-006
1.4697701e-005
-1.4911935e-006
1.4398702e-005
-8.9972178e-007
1.4178997e-005
-5.6014805e-007
1.4012431e-005
-3.7302015e-007
1.3879567e-005
-2.7287932e-007
1.3763528e-005
-2.2370043e-007
1.3649078e-005
-2.1041213e-007
1.3521683e-005
-2.2751081e-007
1.3364632e-005
-2.7549534e-007
1.3159307e-005
-3.5836453e-007
1.2880825e-005
-4.8331184e-007
1.2497914e-005
-6.621022e-007
1.1967911e-005
-9.1038022e-007
1.123344e-005
-1.248439e-006
1.0216267e-005
-1.699783e-006
8.8290541e-006
-2.2562759e-006
7.017598e-006
-2.8253595e-006
4.8593358e-006
-3.1805799e-006
2.6357201e-006
-2.9857489e-006
8.0172786e-007
-2.0232237e-006
-6.3320291e-007
1.5443932e-005
-9.0127274e-006
1.4167309e-005
-4.947262e-006
1.3051086e-005
-2.8480623e-006
1.221988e-005
-1.6186576e-006
1.1658734e-005
-9.3004752e-007
1.1293182e-005
-5.3416888e-007
1.1050576e-005
-3.1754275e-007
1.0880169e-005
-2.0261253e-007
1.0750816e-005
-1.4352644e-007
1.0641964e-005
-1.1484893e-007
1.0537746e-005
-1.0619366e-007
1.0423816e-005
-1.1358139e-007
1.0285057e-005
-1.3673594e-007
1.0104614e-005
-1.7792148e-007
9.8612743e-006
-2.3997233e-007
9.5281055e-006
-3.2893336e-007
9.0697185e-006
-4.5199329e-007
8.4405352e-006
-6.1925564e-007
7.5819561e-006
-8.4120382e-007
6.4356893e-006
-1.1100092e-006
4.9836387e-006
-1.3733089e-006
3.3172038e-006
-1.514145e-006
1.6957072e-006
-1.3642523e-006
4.8007449e-007
-8.0759096e-007
-1.531284e-007
1.326961e-005
-7.2784967e-006
1.0822176e-005
-2.4998274e-006
9.2263377e-006
-1.2522244e-006
8.2578407e-006
-6.5016068e-007
7.6832672e-006
-3.5547405e-007
7.343907e-006
-1.9480865e-007
7.1369481e-006
-1.1058383e-007
7.0014304e-006
-6.7094876e-008
6.9033272e-006
-4.5423253e-008
6.8235823e-006
-3.5104065e-008
6.7491367e-006
-3.174802e-008
6.6690331e-006
-3.3477761e-008
6.5723868e-006
-4.0089655e-008
6.4467407e-006
-5.2275449e-008
6.2773503e-006
-7.0581909e-008
6.0452923e-006
-9.6875376e-008
5.726284e-006
-1.3298503e-007
5.289e-006
-1.8197164e-007
4.6944088e-006
-2.4661258e-007
3.9077607e-006
-3.2336099e-007
2.9299046e-006
-3.9545281e-007
1.8390055e-006
-4.2324593e-007
8.3553634e-007
-3.6078305e-007
1.8547184e-007
-1.5752643e-007
3.234347e-008
7.7253443e-006
5.2255169e-006
3.9732925e-006
3.3231318e-006
2.9676578e-006
2.7728491e-006
2.6622653e-006
2.5951704e-006
2.5497472e-006
2.5146431e-006
2.4828951e-006
2.4494173e-006
2.4093276e-006
2.3570522e-006
2.2864703e-006
2.1895949e-006
2.0566099e-006
1.8746382e-006
1.6280257e-006
1.3046647e-006
9.0921188e-007
4.8596596e-007
1.2518293e-007
-3.234347e-008
)
;

boundaryField
{
    inlet
    {
        type            calculated;
        value           nonuniform List<scalar> 
20
(
-5.0012803e-006
-5.0012803e-006
-5.0012803e-006
-5.0012803e-006
-5.0012803e-006
-5.0012803e-006
-5.0012803e-006
-5.0012803e-006
-5.0012803e-006
-5.0012803e-006
-1.5003841e-005
-1.5003841e-005
-1.5003841e-005
-1.5003841e-005
-1.5003841e-005
-1.5003841e-005
-1.5003841e-005
-1.5003841e-005
-1.5003841e-005
-1.5003841e-005
)
;
    }
    walls
    {
        type            calculated;
        value           uniform 0;
    }
    outlet
    {
        type            calculated;
        value           nonuniform List<scalar> 10(2.9216263e-005 2.8683003e-005 2.7616304e-005 2.6010365e-005 2.3846814e-005 2.1091819e-005 1.7701085e-005 1.3633152e-005 8.8643966e-006 3.3880093e-006);
    }
    centreline
    {
        type            symmetryPlane;
        value           uniform 0;
    }
    frontAndBack
    {
        type            empty;
        value           nonuniform 0();
    }
}


// ************************************************************************* //
