/*--------------------------------*- C++ -*----------------------------------*\
| =========                 |                                                 |
| \\      /  F ield         | OpenFOAM: The Open Source CFD Toolbox           |
|  \\    /   O peration     | Version:  5.x                                   |
|   \\  /    A nd           | Web:      www.OpenFOAM.org                      |
|    \\/     M anipulation  |                                                 |
\*---------------------------------------------------------------------------*/
/*   Windows 32 and 64 bit porting by blueCAPE: http://www.bluecape.com.pt   *\
|  Based on Windows porting (2.0.x v4) by Symscape: http://www.symscape.com   |
\*---------------------------------------------------------------------------*/
FoamFile
{
    version     2.0;
    format      ascii;
    class       volSymmTensorField;
    location    "0.17";
    object      sigma_0;
}
// * * * * * * * * * * * * * * * * * * * * * * * * * * * * * * * * * * * * * //

dimensions      [0 2 -2 0 0 0 0];

internalField   nonuniform List<symmTensor> 
750
(
(-0.00032575557 2.1864572e-005 0 0.00031815121 0 0)
(-0.0004227914 2.3372884e-006 0 0.00042719641 0 0)
(-0.00043307431 -4.6884436e-006 0 0.00042276707 0 0)
(-0.00036682687 -7.4692877e-006 0 0.00036569432 0 0)
(-0.00030489405 -7.2359792e-006 0 0.00030176287 0 0)
(-0.00024757287 -6.4982572e-006 0 0.0002461776 0 0)
(-0.00019870692 -5.0205338e-006 0 0.00019766578 0 0)
(-0.00016417179 -3.4200256e-006 0 0.00016346625 0 0)
(-0.00014340932 -1.7877259e-006 0 0.00014283623 0 0)
(-0.00013635852 8.6403392e-008 0 0.00013593639 0 0)
(-0.00014308033 1.917219e-006 0 0.00014247574 0 0)
(-0.00016703507 4.2970226e-006 0 0.00016623153 0 0)
(-0.000215164 7.5920326e-006 0 0.00021404892 0 0)
(-0.00028591317 1.1721561e-005 0 0.00028356542 0 0)
(-0.00039998284 1.7812278e-005 0 0.00039547869 0 0)
(-0.00057530929 2.7322769e-005 0 0.00056673301 0 0)
(-0.00083058437 4.1375938e-005 0 0.00081145022 0 0)
(-0.0012370291 6.4475037e-005 0 0.0011962544 0 0)
(-0.0018879542 0.00010529815 0 0.0017992979 0 0)
(-0.0029513435 0.00016590832 0 0.0027221109 0 0)
(-0.0046854837 0.00027086796 0 0.0041964911 0 0)
(-0.007364098 0.00041365306 0 0.0060764369 0 0)
(-0.010956003 0.00056928416 0 0.0085588216 0 0)
(-0.015034461 0.0008266987 0 0.010449197 0 0)
(-0.018460924 0.00058753455 0 0.012165685 0 0)
(-0.00032745747 6.591612e-005 0 0.00031768782 0 0)
(-0.00042341973 7.2071326e-006 0 0.00043154556 0 0)
(-0.00043420481 -1.4333848e-005 0 0.00042169237 0 0)
(-0.00036689419 -2.2131161e-005 0 0.00036659925 0 0)
(-0.0003051054 -2.1719394e-005 0 0.00030154861 0 0)
(-0.00024663552 -1.9311432e-005 0 0.0002453268 0 0)
(-0.00019790353 -1.4855637e-005 0 0.00019679361 0 0)
(-0.00016351698 -1.0069132e-005 0 0.00016272906 0 0)
(-0.00014253227 -5.1220811e-006 0 0.00014187797 0 0)
(-0.00013544368 4.2209853e-007 0 0.00013496775 0 0)
(-0.00014192132 5.9129087e-006 0 0.00014122747 0 0)
(-0.00016565045 1.3080546e-005 0 0.00016474132 0 0)
(-0.00021341825 2.2897147e-005 0 0.0002121842 0 0)
(-0.00028316085 3.515675e-005 0 0.00028059278 0 0)
(-0.00039607859 5.3384344e-005 0 0.00039127229 0 0)
(-0.00056962745 8.1585099e-005 0 0.00056062732 0 0)
(-0.00082109606 0.00012311613 0 0.00080111879 0 0)
(-0.0012221475 0.00019175197 0 0.0011801764 0 0)
(-0.0018642159 0.00031128671 0 0.0017741171 0 0)
(-0.0029046585 0.00048035695 0 0.0026708897 0 0)
(-0.0046191718 0.00081571791 0 0.0041303725 0 0)
(-0.0072118749 0.001178197 0 0.0059121588 0 0)
(-0.010782485 0.001706159 0 0.0084311996 0 0)
(-0.014788413 0.0025180743 0 0.010116358 0 0)
(-0.018046099 0.001795705 0 0.012029392 0 0)
(-0.00032990008 0.00011047123 0 0.00031902923 0 0)
(-0.0004255949 1.1929162e-005 0 0.00043502882 0 0)
(-0.00043617181 -2.4234316e-005 0 0.00042273688 0 0)
(-0.00036742833 -3.6676956e-005 0 0.0003673558 0 0)
(-0.00030461312 -3.6315116e-005 0 0.00030098221 0 0)
(-0.00024554322 -3.213667e-005 0 0.00024425685 0 0)
(-0.00019648179 -2.464011e-005 0 0.00019541191 0 0)
(-0.00016188827 -1.6615643e-005 0 0.0001611503 0 0)
(-0.00014080615 -8.3745776e-006 0 0.00014020071 0 0)
(-0.00013355122 7.8967308e-007 0 0.00013314638 0 0)
(-0.00013970954 9.9194187e-006 0 0.00013907589 0 0)
(-0.00016291903 2.186987e-005 0 0.00016209168 0 0)
(-0.00020982566 3.8070999e-005 0 0.00020870589 0 0)
(-0.00027786297 5.8265739e-005 0 0.00027543819 0 0)
(-0.00038832872 8.8476147e-005 0 0.00038373046 0 0)
(-0.00055813074 0.00013487516 0 0.00054948356 0 0)
(-0.00080276096 0.0002031224 0 0.00078328613 0 0)
(-0.0011931221 0.00031605488 0 0.001152133 0 0)
(-0.0018158015 0.00051017834 0 0.0017272731 0 0)
(-0.0028150232 0.00080530213 0 0.0025834847 0 0)
(-0.0044740597 0.0013235764 0 0.0039954035 0 0)
(-0.0069546457 0.0019578441 0 0.0056695128 0 0)
(-0.010384893 0.0028101196 0 0.0081024681 0 0)
(-0.014495909 0.0041972973 0 0.0096350285 0 0)
(-0.017091024 0.0029678631 0 0.011616207 0 0)
(-0.00033339571 0.00015547053 0 0.00032217942 0 0)
(-0.00042913083 1.6522537e-005 0 0.00043847454 0 0)
(-0.00043912821 -3.454542e-005 0 0.00042571751 0 0)
(-0.0003683078 -5.1691709e-005 0 0.00036805972 0 0)
(-0.00030371808 -5.1244136e-005 0 0.00030016767 0 0)
(-0.00024399786 -4.5185578e-005 0 0.00024264466 0 0)
(-0.00019437442 -3.4569569e-005 0 0.00019331783 0 0)
(-0.0001593981 -2.3224474e-005 0 0.00015867806 0 0)
(-0.00013823538 -1.1729698e-005 0 0.00013763813 0 0)
(-0.00013071419 1.0312687e-006 0 0.00013032927 0 0)
(-0.00013648763 1.3765428e-005 0 0.00013587093 0 0)
(-0.00015877559 3.0352891e-005 0 0.00015796213 0 0)
(-0.00020430657 5.2832763e-005 0 0.00020321607 0 0)
(-0.00027011071 8.0720167e-005 0 0.00026771682 0 0)
(-0.00037687221 0.00012261583 0 0.0003723065 0 0)
(-0.00054064071 0.00018672676 0 0.00053209734 0 0)
(-0.00077558296 0.00028101575 0 0.00075621142 0 0)
(-0.0011490355 0.00043762724 0 0.0011081844 0 0)
(-0.0017402516 0.00070594803 0 0.0016522118 0 0)
(-0.0026934611 0.001100059 0 0.0024637372 0 0)
(-0.0042438913 0.0018231545 0 0.0037719616 0 0)
(-0.0065848513 0.0027068768 0 0.0053160586 0 0)
(-0.0097438829 0.0039231169 0 0.0075466818 0 0)
(-0.014097173 0.0055476842 0 0.0090927816 0 0)
(-0.016141871 0.0041017774 0 0.011096263 0 0)
(-0.00033811857 0.00020065621 0 0.00032640052 0 0)
(-0.00043383054 2.0868515e-005 0 0.00044300858 0 0)
(-0.00044302522 -4.5102942e-005 0 0.00042966647 0 0)
(-0.00036947586 -6.7248956e-005 0 0.000368993 0 0)
(-0.00030246022 -6.6490604e-005 0 0.00029898086 0 0)
(-0.00024187294 -5.840558e-005 0 0.00024046543 0 0)
(-0.0001914841 -4.4591683e-005 0 0.00019044659 0 0)
(-0.00015615222 -2.9854038e-005 0 0.00015545286 0 0)
(-0.00013481437 -1.51024e-005 0 0.00013423542 0 0)
(-0.00012694877 1.2036978e-006 0 0.00012658644 0 0)
(-0.00013225315 1.7504707e-005 0 0.0001316659 0 0)
(-0.00015335982 3.8502595e-005 0 0.00015257578 0 0)
(-0.00019699146 6.7041665e-005 0 0.0001959553 0 0)
(-0.00025993477 0.00010236629 0 0.00025756199 0 0)
(-0.00036182921 0.00015545243 0 0.00035729633 0 0)
(-0.0005177926 0.00023623548 0 0.00050938178 0 0)
(-0.00074023571 0.00035461319 0 0.00072106201 0 0)
(-0.0010923925 0.000550027 0 0.0010519581 0 0)
(-0.0016447902 0.0008842868 0 0.0015581396 0 0)
(-0.0025275695 0.0013858792 0 0.0022994281 0 0)
(-0.0039435253 0.0022834974 0 0.0034801839 0 0)
(-0.0061154326 0.0033774526 0 0.0048707498 0 0)
(-0.0089076931 0.0049426266 0 0.0068122847 0 0)
(-0.013237303 0.0072162595 0 0.008175296 0 0)
(-0.015138483 0.0051914954 0 0.010550243 0 0)
(-0.00034422881 0.0002461037 0 0.00033178148 0 0)
(-0.00043972932 2.4860208e-005 0 0.00044877981 0 0)
(-0.00044800857 -5.64472e-005 0 0.0004346107 0 0)
(-0.00037094251 -8.3776403e-005 0 0.00037020437 0 0)
(-0.00030078743 -8.2386835e-005 0 0.00029737669 0 0)
(-0.00023912006 -7.2043374e-005 0 0.00023765969 0 0)
(-0.00018780484 -5.4928839e-005 0 0.00018679462 0 0)
(-0.0001521162 -3.6707062e-005 0 0.00015144073 0 0)
(-0.00013053118 -1.8654986e-005 0 0.00012997888 0 0)
(-0.00012227737 1.0439116e-006 0 0.00012194518 0 0)
(-0.00012703527 2.0924632e-005 0 0.00012649098 0 0)
(-0.00014667814 4.6020096e-005 0 0.00014592613 0 0)
(-0.00018796391 8.0497885e-005 0 0.00018694765 0 0)
(-0.00024758652 0.0001229641 0 0.0002452753 0 0)
(-0.00034350146 0.00018593608 0 0.00033902951 0 0)
(-0.00049016217 0.00028244693 0 0.00048185066 0 0)
(-0.00069755144 0.00042334815 0 0.00067857396 0 0)
(-0.0010225093 0.00065552483 0 0.00098245342 0 0)
(-0.0015251942 0.0010531777 0 0.0014395663 0 0)
(-0.0023298649 0.0016393042 0 0.002104829 0 0)
(-0.0035766709 0.0026946921 0 0.0031243612 0 0)
(-0.0055454157 0.0039913512 0 0.0043250015 0 0)
(-0.00781976 0.0059314677 0 0.0058300031 0 0)
(-0.012380783 0.0084809074 0 0.0072362827 0 0)
(-0.012908468 0.005983767 0 0.0093177101 0 0)
(-0.00035188538 0.00029159156 0 0.00033874267 0 0)
(-0.00044685389 2.8170774e-005 0 0.00045554786 0 0)
(-0.00045418535 -6.895778e-005 0 0.0004408323 0 0)
(-0.0003727321 -0.00010170964 0 0.0003716714 0 0)
(-0.00029862664 -9.9259388e-005 0 0.00029528062 0 0)
(-0.00023567235 -8.6426617e-005 0 0.00023414247 0 0)
(-0.00018333019 -6.5797777e-005 0 0.00018233804 0 0)
(-0.0001472526 -4.3966055e-005 0 0.00014659484 0 0)
(-0.00012549946 -2.2719855e-005 0 0.00012497485 0 0)
(-0.00011673917 4.5725954e-007 0 0.00011643762 0 0)
(-0.00012077302 2.3656401e-005 0 0.00012025896 0 0)
(-0.00013875671 5.2622135e-005 0 0.00013801392 0 0)
(-0.00017758321 9.2911285e-005 0 0.00017659818 0 0)
(-0.00023302518 0.00014164188 0 0.00023077816 0 0)
(-0.00032197739 0.00021424584 0 0.00031753558 0 0)
(-0.00045767315 0.00032543101 0 0.00044941717 0 0)
(-0.00064791242 0.00048606986 0 0.00062916043 0 0)
(-0.00094330386 0.00074880472 0 0.00090373186 0 0)
(-0.0013922157 0.0011982468 0 0.0013080621 0 0)
(-0.0020976122 0.0018614504 0 0.0018774302 0 0)
(-0.0031380892 0.0030609272 0 0.0027007767 0 0)
(-0.0048928222 0.0044957455 0 0.0037006228 0 0)
(-0.0065579066 0.0067873792 0 0.0046909476 0 0)
(-0.011364057 0.0094796405 0 0.0061693532 0 0)
(-0.0095350302 0.0073109694 0 0.0066577821 0 0)
(-0.00036155587 0.00033748666 0 0.0003478078 0 0)
(-0.0004550444 3.0362554e-005 0 0.00046327128 0 0)
(-0.00046151109 -8.2722267e-005 0 0.00044831779 0 0)
(-0.00037479292 -0.00012152876 0 0.00037334659 0 0)
(-0.0002959045 -0.0001175017 0 0.00029263716 0 0)
(-0.00023143535 -0.00010178119 0 0.00022974859 0 0)
(-0.00017805203 -7.7512289e-005 0 0.00017705499 0 0)
(-0.0001415344 -5.1978913e-005 0 0.00014088462 0 0)
(-0.00011960196 -2.7429674e-005 0 0.00011908191 0 0)
(-0.00011036422 -1.0130926e-006 0 0.00011007814 0 0)
(-0.00011364813 2.5649404e-005 0 0.00011316876 0 0)
(-0.00012975798 5.8031354e-005 0 0.00012904368 0 0)
(-0.00016539971 0.00010355751 0 0.00016447415 0 0)
(-0.00021645894 0.00015851863 0 0.0002142296 0 0)
(-0.00029770484 0.00023922475 0 0.00029322536 0 0)
(-0.00042123095 0.00036370317 0 0.00041307105 0 0)
(-0.00059186515 0.00054233545 0 0.00057339419 0 0)
(-0.00085221416 0.00083227413 0 0.00081324147 0 0)
(-0.0012389879 0.0013269075 0 0.0011560788 0 0)
(-0.0018382129 0.002044904 0 0.0016235586 0 0)
(-0.0026343867 0.0033620349 0 0.0022160006 0 0)
(-0.0041287556 0.0048961425 0 0.0029666411 0 0)
(-0.0050280978 0.0075391637 0 0.0032853798 0 0)
(-0.0095463089 0.010612067 0 0.0044870527 0 0)
(-0.006998899 0.0081683483 0 0.0045296346 0 0)
(-0.0003739776 0.00038323207 0 0.00035807965 0 0)
(-0.00046448628 3.126156e-005 0 0.00047426146 0 0)
(-0.00047046027 -9.8619373e-005 0 0.0004563581 0 0)
(-0.00037708444 -0.00014384264 0 0.00037524907 0 0)
(-0.00029237475 -0.00013772598 0 0.00028918057 0 0)
(-0.00022627935 -0.00011853443 0 0.00022450224 0 0)
(-0.00017186695 -9.0424104e-005 0 0.0001708942 0 0)
(-0.00013488619 -6.0944486e-005 0 0.00013429059 0 0)
(-0.00011287296 -3.2944467e-005 0 0.00011236549 0 0)
(-0.00010320784 -3.8650579e-006 0 0.00010296999 0 0)
(-0.00010553297 2.6412328e-005 0 0.00010514136 0 0)
(-0.00011969946 6.1937595e-005 0 0.0001190719 0 0)
(-0.00015190001 0.00011235781 0 0.00015105037 0 0)
(-0.00019795011 0.00017291227 0 0.00019585707 0 0)
(-0.0002705231 0.00026083204 0 0.00026625907 0 0)
(-0.00038023945 0.00039753188 0 0.0003725016 0 0)
(-0.00053100519 0.00058981314 0 0.00051287111 0 0)
(-0.00075473865 0.00090124576 0 0.00071695111 0 0)
(-0.0010755204 0.0014319354 0 0.00099580187 0 0)
(-0.0015764081 0.0021662299 0 0.0013648574 0 0)
(-0.0020940416 0.0035940181 0 0.0017158705 0 0)
(-0.0033033368 0.0050911347 0 0.0021791098 0 0)
(-0.0031871916 0.0080325502 0 0.0016796316 0 0)
(-0.0071926187 0.01106068 0 0.0024353651 0 0)
(-0.00068709856 0.011008 0 -0.0020470093 0 0)
(-0.00038987625 0.00042922295 0 0.00036639947 0 0)
(-0.00047549342 3.0794409e-005 0 0.00049321492 0 0)
(-0.00048085921 -0.00011721128 0 0.00046256559 0 0)
(-0.00037955239 -0.00016910321 0 0.00037732433 0 0)
(-0.00028832059 -0.00016022337 0 0.00028538979 0 0)
(-0.00021941062 -0.00013698429 0 0.00021790864 0 0)
(-0.0001647264 -0.00010472637 0 0.00016393592 0 0)
(-0.00012727367 -7.1022722e-005 0 0.00012694874 0 0)
(-0.00010526573 -3.94614e-005 0 0.00010494538 0 0)
(-9.5352198e-005 -8.2750069e-006 0 9.5427824e-005 0 0)
(-9.6597549e-005 2.566937e-005 0 9.6503883e-005 0 0)
(-0.00010859393 6.3989956e-005 0 0.00010818507 0 0)
(-0.00013737131 0.0001192373 0 0.00013681981 0 0)
(-0.00017778656 0.00018415672 0 0.00017607479 0 0)
(-0.0002408944 0.00027877174 0 0.00023724487 0 0)
(-0.00033701785 0.00042539706 0 0.00033021861 0 0)
(-0.00046491251 0.00062836754 0 0.00044695114 0 0)
(-0.00064882678 0.0009566999 0 0.00061191075 0 0)
(-0.00089929455 0.0015161486 0 0.00082401413 0 0)
(-0.0012895767 0.0022413421 0 0.0010751236 0 0)
(-0.0015211612 0.0037154304 0 0.0011846117 0 0)
(-0.0022403718 0.0051512077 0 0.0011705012 0 0)
(-0.0010375494 0.0078138923 0 -9.7374312e-005 0 0)
(-0.0030323214 0.010027476 0 -0.00093125541 0 0)
(0.0033280181 0.011557451 0 -0.0076658632 0 0)
(-0.014204916 0.00052779347 0 0.0093485629 0 0)
(-0.0077866633 0.00093570294 0 0.0056464311 0 0)
(-0.0027041468 0.0013041765 0 0.0019230634 0 0)
(-0.00057950789 0.0015070375 0 0.00037018835 0 0)
(-0.00012272424 0.0016037668 0 -1.319871e-005 0 0)
(-2.0723292e-005 0.0016151876 0 -7.2613608e-005 0 0)
(-7.1598053e-005 0.0016077726 0 -2.1551929e-005 0 0)
(-9.2326288e-005 0.0016044676 0 1.2275282e-006 0 0)
(-9.5870698e-005 0.0016047755 0 4.5981051e-006 0 0)
(-9.1911287e-005 0.0016054772 0 8.7006648e-007 0 0)
(-9.0042797e-005 0.0016056517 0 -9.8594671e-007 0 0)
(-9.0189468e-005 0.0016055495 0 -7.9769361e-007 0 0)
(-9.0823268e-005 0.0016054198 0 -1.6730823e-007 0 0)
(-9.1028598e-005 0.0016053816 0 4.0213459e-008 0 0)
(-9.1030321e-005 0.0016053785 0 4.3414637e-008 0 0)
(-9.0998708e-005 0.0016053831 0 1.1455563e-008 0 0)
(-9.0985137e-005 0.0016053847 0 -2.2608349e-009 0 0)
(-9.0985509e-005 0.0016053847 0 -1.9644073e-009 0 0)
(-9.0986695e-005 0.0016053845 0 -7.4660746e-010 0 0)
(-9.09871e-005 0.0016053841 0 -3.116657e-010 0 0)
(-9.098735e-005 0.0016053842 0 -1.3004724e-010 0 0)
(-9.0987605e-005 0.0016053845 0 8.0779872e-011 0 0)
(-9.0987527e-005 0.0016053848 0 2.656673e-010 0 0)
(-9.0995263e-005 0.0016053847 0 6.9539952e-009 0 0)
(-9.0995046e-005 0.0016053868 0 7.8895305e-009 0 0)
(-0.013725267 0.0016622582 0 0.0089965922 0 0)
(-0.0075378518 0.0028423888 0 0.0053748345 0 0)
(-0.0029962825 0.0039135121 0 0.001852906 0 0)
(-0.001101214 0.004662727 0 0.00033631591 0 0)
(-0.00081600556 0.0048522065 0 5.6062136e-006 0 0)
(-0.00076711266 0.0048773575 0 -4.2595079e-005 0 0)
(-0.00080524449 0.004866673 0 -1.4719904e-005 0 0)
(-0.00082434955 0.0048616755 0 3.5164093e-006 0 0)
(-0.00082519553 0.0048637161 0 3.3171877e-006 0 0)
(-0.00082188171 0.0048654347 0 1.6754977e-007 0 0)
(-0.00082038151 0.0048658379 0 -9.6618107e-007 0 0)
(-0.00082055017 0.0048654862 0 -5.5338296e-007 0 0)
(-0.00082095611 0.0048652415 0 -8.9665875e-008 0 0)
(-0.00082108262 0.0048651685 0 5.323795e-008 0 0)
(-0.00082107561 0.0048651712 0 4.3358518e-008 0 0)
(-0.0008210408 0.0048651864 0 7.4832197e-009 0 0)
(-0.00082103169 0.0048651904 0 -2.0359174e-009 0 0)
(-0.0008210319 0.0048651905 0 -1.6503294e-009 0 0)
(-0.00082103288 0.0048651893 0 -2.905517e-010 0 0)
(-0.0008210338 0.0048651902 0 2.4871503e-012 0 0)
(-0.00082103347 0.0048651895 0 -8.6508576e-011 0 0)
(-0.00082103316 0.0048651886 0 -1.6803246e-010 0 0)
(-0.00082103379 0.004865191 0 -1.186359e-010 0 0)
(-0.00082104077 0.0048651914 0 6.0032523e-009 0 0)
(-0.00082104078 0.0048651981 0 6.3295123e-009 0 0)
(-0.012863666 0.0029026308 0 0.0084596195 0 0)
(-0.0069326593 0.004862813 0 0.0048229617 0 0)
(-0.0035195081 0.0069505104 0 0.0015287721 0 0)
(-0.0024825599 0.0078364656 0 0.00045703692 0 0)
(-0.0022730732 0.0081594832 0 9.5570697e-005 0 0)
(-0.0022530815 0.0082634943 0 -1.0842183e-005 0 0)
(-0.0022898811 0.0082561473 0 -3.7615621e-006 0 0)
(-0.0022977893 0.0082506733 0 3.0519722e-006 0 0)
(-0.0022973299 0.0082534147 0 1.3698378e-006 0 0)
(-0.0022950418 0.0082553125 0 -5.1726832e-007 0 0)
(-0.0022938804 0.0082554456 0 -8.5153609e-007 0 0)
(-0.0022938932 0.0082548915 0 -3.5171665e-007 0 0)
(-0.0022940978 0.0082545766 0 -2.5142149e-008 0 0)
(-0.0022941477 0.0082545019 0 4.9616581e-008 0 0)
(-0.0022941324 0.0082545131 0 3.0275582e-008 0 0)
(-0.0022941109 0.0082545338 0 3.8449465e-009 0 0)
(-0.0022941066 0.0082545394 0 -1.6805708e-009 0 0)
(-0.0022941071 0.0082545387 0 -9.2466611e-010 0 0)
(-0.0022941091 0.0082545393 0 -3.1772003e-011 0 0)
(-0.0022941086 0.0082545381 0 1.7566252e-010 0 0)
(-0.0022941086 0.0082545386 0 -6.9630396e-011 0 0)
(-0.0022941084 0.008254539 0 -1.7328109e-010 0 0)
(-0.0022941082 0.0082545386 0 8.2122384e-011 0 0)
(-0.0022941117 0.0082545393 0 3.1655834e-009 0 0)
(-0.002294114 0.00825455 0 3.5128552e-009 0 0)
(-0.011600335 0.0041497818 0 0.0075526235 0 0)
(-0.0061167648 0.0078515237 0 0.0035086271 0 0)
(-0.0048223073 0.0098717593 0 0.0015217746 0 0)
(-0.0042530923 0.011334821 0 0.00036833088 0 0)
(-0.0044293595 0.011760381 0 5.7565741e-005 0 0)
(-0.0045133869 0.011821874 0 1.3108274e-005 0 0)
(-0.0045394747 0.011811595 0 3.914588e-006 0 0)
(-0.0045390192 0.011807071 0 1.4000107e-006 0 0)
(-0.0045379137 0.01180906 0 -6.3161335e-007 0 0)
(-0.0045365546 0.011810256 0 -1.0609043e-006 0 0)
(-0.0045356758 0.011809885 0 -5.5130197e-007 0 0)
(-0.0045355189 0.011809303 0 -1.0131219e-007 0 0)
(-0.0045355212 0.011809043 0 3.4345236e-008 0 0)
(-0.0045355049 0.011809001 0 3.3616526e-008 0 0)
(-0.004535494 0.011809019 0 1.322115e-008 0 0)
(-0.0045354895 0.011809041 0 5.2067697e-011 0 0)
(-0.0045354902 0.011809045 0 -9.2558642e-010 0 0)
(-0.0045354922 0.011809046 0 -1.1783256e-010 0 0)
(-0.004535492 0.011809045 0 1.5588605e-010 0 0)
(-0.0045354912 0.011809044 0 2.3821353e-010 0 0)
(-0.0045354905 0.011809043 0 1.4185036e-010 0 0)
(-0.0045354899 0.011809044 0 -3.2723732e-010 0 0)
(-0.0045354914 0.011809046 0 -4.2738983e-010 0 0)
(-0.0045354926 0.011809047 0 2.964962e-010 0 0)
(-0.0045354953 0.011809057 0 4.5689396e-010 0 0)
(-0.0095451465 0.0057708662 0 0.0059824072 0 0)
(-0.0064130765 0.010720329 0 0.0025557902 0 0)
(-0.0064771574 0.013317249 0 0.0010684879 0 0)
(-0.007005607 0.015008992 0 0.00031093355 0 0)
(-0.0074853503 0.01545152 0 9.4061344e-005 0 0)
(-0.0075754159 0.015522048 0 3.5563038e-005 0 0)
(-0.0075821657 0.01551825 0 7.4912011e-006 0 0)
(-0.0075733137 0.015514935 0 -8.2765895e-007 0 0)
(-0.0075715273 0.015515148 0 -2.1055687e-006 0 0)
(-0.0075703548 0.015514936 0 -1.0669082e-006 0 0)
(-0.007569772 0.015514162 0 -1.2492576e-007 0 0)
(-0.007569477 0.015513752 0 9.8537324e-008 0 0)
(-0.0075693301 0.015513621 0 5.2556448e-008 0 0)
(-0.0075692778 0.015513614 0 6.0131031e-009 0 0)
(-0.0075692818 0.015513633 0 -4.4387915e-009 0 0)
(-0.0075692938 0.015513648 0 -2.0325081e-009 0 0)
(-0.007569298 0.015513651 0 1.1752154e-010 0 0)
(-0.0075692983 0.015513651 0 5.1768669e-010 0 0)
(-0.0075692977 0.01551365 0 2.1278435e-010 0 0)
(-0.0075692987 0.015513651 0 8.4531129e-011 0 0)
(-0.0075692982 0.015513651 0 1.3788131e-010 0 0)
(-0.0075692973 0.01551365 0 -1.9047607e-010 0 0)
(-0.0075692973 0.015513652 0 -7.4926567e-010 0 0)
(-0.0075692958 0.015513653 0 -2.1869386e-009 0 0)
(-0.0075692974 0.015513659 0 -2.0325512e-009 0 0)
(-0.0074789994 0.0087375028 0 0.0036422713 0 0)
(-0.006941499 0.014123838 0 0.0012913334 0 0)
(-0.0092251098 0.017363525 0 0.00046771321 0 0)
(-0.010811303 0.018909273 0 0.00023755722 0 0)
(-0.011389271 0.019261237 0 0.00011306419 0 0)
(-0.011437058 0.019324616 0 4.4741192e-005 0 0)
(-0.011419201 0.019323483 0 7.7428052e-006 0 0)
(-0.011403926 0.019321396 0 -2.7431199e-006 0 0)
(-0.011400479 0.019319005 0 -2.5637472e-006 0 0)
(-0.011399632 0.019317666 0 -4.6614054e-007 0 0)
(-0.011399512 0.019317112 0 3.0386686e-007 0 0)
(-0.011399143 0.019317009 0 2.1677718e-007 0 0)
(-0.011398925 0.019317013 0 3.2961466e-008 0 0)
(-0.011398866 0.019317024 0 -2.5479106e-008 0 0)
(-0.011398888 0.019317031 0 -1.6479359e-008 0 0)
(-0.01139891 0.019317036 0 -2.0590727e-009 0 0)
(-0.011398916 0.019317038 0 1.2173512e-009 0 0)
(-0.011398916 0.019317039 0 7.5674373e-010 0 0)
(-0.011398915 0.019317039 0 1.6821545e-010 0 0)
(-0.011398915 0.019317039 0 3.585817e-011 0 0)
(-0.011398915 0.019317039 0 3.5520451e-011 0 0)
(-0.011398915 0.019317039 0 9.4684536e-011 0 0)
(-0.011398914 0.019317039 0 -8.250387e-010 0 0)
(-0.01139891 0.019317041 0 -3.9391091e-009 0 0)
(-0.01139891 0.019317043 0 -3.5204584e-009 0 0)
(-0.0064571526 0.011353543 0 0.0014597132 0 0)
(-0.0089601832 0.018753468 0 -0.00024533961 0 0)
(-0.013783409 0.021699818 0 7.4264081e-005 0 0)
(-0.01559681 0.022873735 0 0.00019256355 0 0)
(-0.016073947 0.023102017 0 0.00012340349 0 0)
(-0.016056672 0.023157787 0 4.6775847e-005 0 0)
(-0.016021362 0.023161242 0 6.4485207e-006 0 0)
(-0.016004806 0.023160534 0 -3.30867e-006 0 0)
(-0.016000764 0.023156658 0 -2.2131061e-006 0 0)
(-0.016001131 0.023155372 0 1.0571817e-007 0 0)
(-0.016001489 0.023155289 0 5.7601841e-007 0 0)
(-0.016001137 0.023155505 0 2.3150903e-007 0 0)
(-0.016000906 0.023155584 0 -7.0665974e-009 0 0)
(-0.016000855 0.023155583 0 -4.5962431e-008 0 0)
(-0.016000882 0.023155572 0 -2.0866438e-008 0 0)
(-0.016000908 0.023155569 0 -9.6654914e-010 0 0)
(-0.016000913 0.023155571 0 1.885911e-009 0 0)
(-0.016000913 0.023155572 0 6.3891446e-010 0 0)
(-0.016000912 0.023155572 0 1.1742546e-010 0 0)
(-0.016000912 0.023155572 0 7.3386461e-011 0 0)
(-0.016000912 0.023155572 0 -5.2094386e-012 0 0)
(-0.016000912 0.023155572 0 1.9687752e-010 0 0)
(-0.016000911 0.023155572 0 -8.1735238e-010 0 0)
(-0.016000905 0.023155572 0 -4.6468875e-009 0 0)
(-0.016000904 0.023155572 0 -4.2382588e-009 0 0)
(-0.0063935309 0.016002283 0 -0.0017363749 0 0)
(-0.013450875 0.024080893 0 -0.0016179015 0 0)
(-0.019846817 0.02610079 0 -0.00012143386 0 0)
(-0.021109901 0.026779246 0 0.00015105565 0 0)
(-0.021462301 0.026918192 0 0.00011937256 0 0)
(-0.021400938 0.026977406 0 4.1908652e-005 0 0)
(-0.021370645 0.0269895 0 4.0752584e-006 0 0)
(-0.021355733 0.026989238 0 -3.6895791e-006 0 0)
(-0.021355746 0.026985704 0 -1.5407566e-006 0 0)
(-0.021357706 0.026985097 0 4.7710349e-007 0 0)
(-0.021358542 0.026985588 0 6.2269853e-007 0 0)
(-0.021358305 0.026986028 0 1.7876979e-007 0 0)
(-0.021358077 0.02698611 0 -3.8666964e-008 0 0)
(-0.021358016 0.026986073 0 -5.1153797e-008 0 0)
(-0.021358044 0.026986046 0 -1.4998054e-008 0 0)
(-0.021358063 0.026986042 0 5.826941e-010 0 0)
(-0.021358067 0.026986044 0 1.9255122e-009 0 0)
(-0.021358066 0.026986045 0 4.2337824e-010 0 0)
(-0.021358065 0.026986045 0 2.0875096e-011 0 0)
(-0.021358065 0.026986045 0 2.8592313e-011 0 0)
(-0.021358066 0.026986045 0 9.4605586e-011 0 0)
(-0.021358065 0.026986045 0 3.3419675e-010 0 0)
(-0.021358064 0.026986044 0 -4.6601488e-010 0 0)
(-0.021358057 0.026986044 0 -4.2956957e-009 0 0)
(-0.021358056 0.026986041 0 -4.2810343e-009 0 0)
(-0.011431227 0.024824256 0 -0.0052624799 0 0)
(-0.02140648 0.030112358 0 -0.0026610318 0 0)
(-0.02693603 0.030421083 0 -0.00016496945 0 0)
(-0.027270646 0.030611523 0 8.954823e-005 0 0)
(-0.02752327 0.03071128 0 0.00010806205 0 0)
(-0.027488242 0.030793199 0 2.9813802e-005 0 0)
(-0.027487946 0.030811203 0 3.6105149e-006 0 0)
(-0.027479786 0.030811567 0 -3.2159172e-006 0 0)
(-0.027483878 0.030808873 0 -8.3352669e-007 0 0)
(-0.027486688 0.030809061 0 4.2656116e-007 0 0)
(-0.027487942 0.030809913 0 4.2961459e-007 0 0)
(-0.027487778 0.030810335 0 7.6378411e-008 0 0)
(-0.02748756 0.030810347 0 -5.0066103e-008 0 0)
(-0.027487474 0.030810271 0 -3.9159112e-008 0 0)
(-0.027487487 0.030810238 0 -8.1729404e-009 0 0)
(-0.0274875 0.030810236 0 1.68609e-009 0 0)
(-0.027487503 0.030810239 0 1.4494515e-009 0 0)
(-0.027487502 0.03081024 0 1.9909051e-010 0 0)
(-0.027487501 0.03081024 0 -5.1132704e-011 0 0)
(-0.027487501 0.03081024 0 -3.5565458e-011 0 0)
(-0.027487501 0.030810239 0 1.5415374e-010 0 0)
(-0.027487501 0.030810239 0 4.7584071e-010 0 0)
(-0.027487501 0.030810239 0 5.2612711e-010 0 0)
(-0.027487496 0.030810237 0 -2.3621276e-009 0 0)
(-0.027487497 0.030810234 0 -3.0801291e-009 0 0)
(-0.034012881 0.041893835 0 -0.0098126562 0 0)
(-0.032195028 0.035333562 0 -0.0017840339 0 0)
(-0.038562667 0.036491024 0 -0.00011705276 0 0)
(-0.03717527 0.035908254 0 4.9506709e-005 0 0)
(-0.038072631 0.036323187 0 5.2901272e-005 0 0)
(-0.037990964 0.036350814 0 1.0696731e-005 0 0)
(-0.038073934 0.036389882 0 1.9084712e-007 0 0)
(-0.03805429 0.036378302 0 -1.9304939e-006 0 0)
(-0.038062936 0.036377724 0 -3.7820236e-007 0 0)
(-0.03806332 0.036377351 0 1.4404037e-007 0 0)
(-0.038065211 0.036378516 0 1.5596224e-007 0 0)
(-0.038065004 0.036378746 0 1.4925615e-008 0 0)
(-0.038064831 0.036378704 0 -2.5197619e-008 0 0)
(-0.038064688 0.036378603 0 -1.4437155e-008 0 0)
(-0.038064686 0.036378579 0 -1.8612119e-009 0 0)
(-0.038064694 0.03637858 0 1.1190175e-009 0 0)
(-0.038064698 0.036378584 0 6.0642001e-010 0 0)
(-0.038064697 0.036378585 0 4.9785515e-011 0 0)
(-0.038064696 0.036378584 0 -9.2465118e-012 0 0)
(-0.038064696 0.036378584 0 -3.6518539e-011 0 0)
(-0.038064697 0.036378584 0 7.7020827e-011 0 0)
(-0.038064698 0.036378585 0 4.1003844e-010 0 0)
(-0.0380647 0.036378585 0 1.0354315e-009 0 0)
(-0.038064701 0.036378586 0 -7.4902173e-010 0 0)
(-0.038064704 0.036378581 0 -2.0214511e-009 0 0)
(-0.00042911155 0.00052637186 0 0.00039260466 0 0)
(-0.00050161306 2.4178882e-005 0 0.0005412984 0 0)
(-0.00050448982 -0.0001665762 0 0.00047995648 0 0)
(-0.00038411226 -0.00022575363 0 0.00037907634 0 0)
(-0.00027982131 -0.0002114154 0 0.0002763515 0 0)
(-0.00020156325 -0.00017522554 0 0.00019854889 0 0)
(-0.00014987005 -0.00013693848 0 0.0001479074 0 0)
(-0.00011071605 -9.4048766e-005 0 0.00010967548 0 0)
(-8.8827575e-005 -5.6107879e-005 0 8.780029e-005 0 0)
(-7.8181014e-005 -1.8980107e-005 0 7.7575763e-005 0 0)
(-7.7499765e-005 2.0996292e-005 0 7.6738004e-005 0 0)
(-8.6011576e-005 6.5436127e-005 0 8.4737006e-005 0 0)
(-0.00010553763 0.00012533028 0 0.00010470134 0 0)
(-0.00013504338 0.00019794819 0 0.00013247028 0 0)
(-0.00018016955 0.00030046272 0 0.00017469317 0 0)
(-0.00024740349 0.00046705167 0 0.00023993255 0 0)
(-0.00032852536 0.00068204204 0 0.00030927706 0 0)
(-0.00044363959 0.0010181812 0 0.00040469878 0 0)
(-0.00055889771 0.0016068493 0 0.0004927607 0 0)
(-0.00071199607 0.0023131453 0 0.00052090735 0 0)
(-0.00066756696 0.0036807436 0 0.00038645166 0 0)
(-0.00060897508 0.0049134663 0 -0.00026851142 0 0)
(0.0012065963 0.0069581895 0 -0.0018625529 0 0)
(0.0018447416 0.0075063599 0 -0.0042291274 0 0)
(0.0097791226 0.0068546534 0 -0.012683692 0 0)
(-0.0005243458 0.00069044935 0 0.00046910423 0 0)
(-0.00057464402 -3.0371922e-006 0 0.00062722438 0 0)
(-0.0005508682 -0.00026563681 0 0.00051794176 0 0)
(-0.00038589338 -0.00032401217 0 0.00037670492 0 0)
(-0.0002540734 -0.00029368039 0 0.00025102441 0 0)
(-0.00016725595 -0.00023649312 0 0.00016426663 0 0)
(-0.00011533144 -0.00018291963 0 0.00011384784 0 0)
(-7.7267476e-005 -0.0001258358 0 7.7056401e-005 0 0)
(-5.7331786e-005 -7.8261773e-005 0 5.6754481e-005 0 0)
(-4.6613923e-005 -3.4147183e-005 0 4.6311505e-005 0 0)
(-4.2315272e-005 1.2051626e-005 0 4.270123e-005 0 0)
(-4.41101e-005 6.0487011e-005 0 4.3672759e-005 0 0)
(-5.1313287e-005 0.00012794675 0 5.1228822e-005 0 0)
(-6.278605e-005 0.00021166972 0 6.2299687e-005 0 0)
(-7.8518384e-005 0.00031608213 0 7.364084e-005 0 0)
(-9.9625445e-005 0.00049093392 0 9.425924e-005 0 0)
(-0.0001132409 0.00071523721 0 0.00010093309 0 0)
(-0.00012619092 0.0010331016 0 9.1111748e-005 0 0)
(-6.8593475e-005 0.0015873895 0 1.2856581e-005 0 0)
(2.9244555e-005 0.0022150839 0 -0.00018864866 0 0)
(0.00048829708 0.0031795076 0 -0.00074241439 0 0)
(0.0010923343 0.0038122536 0 -0.001790347 0 0)
(0.0030874234 0.0042495448 0 -0.0037976556 0 0)
(0.0051679627 0.0018447938 0 -0.0073163898 0 0)
(0.0063472733 -0.0015683986 0 -0.0093423806 0 0)
(-0.00068545493 0.00087798896 0 0.00061392381 0 0)
(-0.00067985274 -5.4555688e-005 0 0.00073965473 0 0)
(-0.0005995101 -0.0003808627 0 0.00055838657 0 0)
(-0.00037053505 -0.00042013038 0 0.00035780141 0 0)
(-0.00020986398 -0.00035612738 0 0.0002064637 0 0)
(-0.00011746288 -0.00026872601 0 0.00011404637 0 0)
(-6.8499632e-005 -0.00019667403 0 6.6837482e-005 0 0)
(-3.5961624e-005 -0.00012562483 0 3.5585756e-005 0 0)
(-1.9398942e-005 -6.8035685e-005 0 1.9046063e-005 0 0)
(-1.0372698e-005 -2.1887092e-005 0 1.025332e-005 0 0)
(-3.6137067e-006 2.9730591e-005 0 4.2081923e-006 0 0)
(5.0104367e-007 8.0720691e-005 0 -7.3008046e-007 0 0)
(4.8456448e-006 0.00014997072 0 -6.5396274e-006 0 0)
(1.3609867e-005 0.00023331062 0 -1.3353678e-005 0 0)
(2.4002447e-005 0.00033866906 0 -2.7445098e-005 0 0)
(4.4329999e-005 0.00049205123 0 -5.1726476e-005 0 0)
(9.1360919e-005 0.00072539219 0 -0.00010204318 0 0)
(0.00015539421 0.0010009692 0 -0.00018796491 0 0)
(0.00032726759 0.001476066 0 -0.00038007156 0 0)
(0.00059746216 0.0019840674 0 -0.00072517408 0 0)
(0.0011820651 0.0026582705 0 -0.0013854088 0 0)
(0.0020165718 0.0029528486 0 -0.0024412803 0 0)
(0.0034555946 0.0027640432 0 -0.0038289509 0 0)
(0.004670734 0.00057818053 0 -0.0054221116 0 0)
(0.0036305848 -0.0031557345 0 -0.003908436 0 0)
(-0.00093176719 0.0011218551 0 0.0008325729 0 0)
(-0.00078601227 -0.0001132314 0 0.00085449775 0 0)
(-0.00061261352 -0.00046261792 0 0.00056037181 0 0)