/*--------------------------------*- C++ -*----------------------------------*\
| =========                 |                                                 |
| \\      /  F ield         | OpenFOAM: The Open Source CFD Toolbox           |
|  \\    /   O peration     | Version:  5.x                                   |
|   \\  /    A nd           | Web:      www.OpenFOAM.org                      |
|    \\/     M anipulation  |                                                 |
\*---------------------------------------------------------------------------*/
/*   Windows 32 and 64 bit porting by blueCAPE: http://www.bluecape.com.pt   *\
|  Based on Windows porting (2.0.x v4) by Symscape: http://www.symscape.com   |
\*---------------------------------------------------------------------------*/
FoamFile
{
    version     2.0;
    format      ascii;
    class       volSymmTensorField;
    location    "0.17";
    object      sigma;
}
// * * * * * * * * * * * * * * * * * * * * * * * * * * * * * * * * * * * * * //

dimensions      [0 2 -2 0 0 0 0];

internalField   nonuniform List<symmTensor> 
750
(
(-0.00032607218 2.1884769e-005 0 0.00031845069 0 0)
(-0.00042321623 2.3418012e-006 0 0.00042762906 0 0)
(-0.00043357627 -4.6918077e-006 0 0.00042324586 0 0)
(-0.0003672835 -7.4777258e-006 0 0.00036614786 0 0)
(-0.00030528764 -7.2456852e-006 0 0.00030214683 0 0)
(-0.00024787956 -6.5078826e-006 0 0.00024648121 0 0)
(-0.0001989214 -5.0281212e-006 0 0.00019787709 0 0)
(-0.00016432583 -3.4259964e-006 0 0.00016361913 0 0)
(-0.00014350963 -1.7913248e-006 0 0.00014293572 0 0)
(-0.0001364271 8.4327301e-008 0 0.00013600438 0 0)
(-0.00014312392 1.9156849e-006 0 0.00014251869 0 0)
(-0.00016707523 4.2974087e-006 0 0.00016627157 0 0)
(-0.00021519124 7.5932376e-006 0 0.00021407579 0 0)
(-0.00028594091 1.1723812e-005 0 0.0002835921 0 0)
(-0.00040004067 1.7817148e-005 0 0.00039553566 0 0)
(-0.00057538878 2.7329893e-005 0 0.00056680883 0 0)
(-0.00083073553 4.1389116e-005 0 0.00081159404 0 0)
(-0.001237337 6.4498983e-005 0 0.0011965401 0 0)
(-0.0018885519 0.00010533778 0 0.0017998355 0 0)
(-0.0029523536 0.00016596765 0 0.0027229631 0 0)
(-0.0046866063 0.00027092389 0 0.0041973087 0 0)
(-0.0073646393 0.00041367778 0 0.0060766528 0 0)
(-0.010954875 0.00056927333 0 0.0085578341 0 0)
(-0.015031704 0.00082656219 0 0.010447453 0 0)
(-0.018456404 0.00058743001 0 0.012163576 0 0)
(-0.00032777622 6.5977686e-005 0 0.00031798644 0 0)
(-0.00042384591 7.2206074e-006 0 0.00043198432 0 0)
(-0.00043470836 -1.4344645e-005 0 0.00042216987 0 0)
(-0.0003673502 -2.215644e-005 0 0.00036705401 0 0)
(-0.00030549955 -2.1749087e-005 0 0.0003019315 0 0)
(-0.00024693999 -1.9340663e-005 0 0.00024562908 0 0)
(-0.00019811459 -1.487813e-005 0 0.00019700151 0 0)
(-0.00016367371 -1.0087782e-005 0 0.00016288426 0 0)
(-0.00014263159 -5.1332524e-006 0 0.00014197653 0 0)
(-0.00013551168 4.1562799e-007 0 0.00013503502 0 0)
(-0.00014196448 5.9080564e-006 0 0.00014126999 0 0)
(-0.00016568992 1.3081349e-005 0 0.00016478071 0 0)
(-0.00021344466 2.2900282e-005 0 0.00021221022 0 0)
(-0.00028318745 3.5163099e-005 0 0.00028061816 0 0)
(-0.00039613622 5.3398623e-005 0 0.00039132899 0 0)
(-0.00056970468 8.1605725e-005 0 0.00056070081 0 0)
(-0.0008212448 0.00012315505 0 0.00080125982 0 0)
(-0.001222449 0.00019182268 0 0.0011804549 0 0)
(-0.0018647982 0.00031140396 0 0.0017746375 0 0)
(-0.0029056359 0.00048052358 0 0.0026717093 0 0)
(-0.004620256 0.00081584716 0 0.0041311574 0 0)
(-0.007212425 0.0011782364 0 0.0059123857 0 0)
(-0.010781488 0.0017060783 0 0.0084303142 0 0)
(-0.014785882 0.0025178972 0 0.01011472 0 0)
(-0.01804182 0.0017955243 0 0.012027423 0 0)
(-0.0003302227 0.00011057488 0 0.0003193297 0 0)
(-0.00042602403 1.1951299e-005 0 0.0004354726 0 0)
(-0.00043667862 -2.4253237e-005 0 0.00042321602 0 0)
(-0.00036788489 -3.6718942e-005 0 0.00036781166 0 0)
(-0.00030500619 -3.6365707e-005 0 0.00030136382 0 0)
(-0.00024584583 -3.2186747e-005 0 0.00024455735 0 0)
(-0.00019669127 -2.4678116e-005 0 0.00019561816 0 0)
(-0.00016204295 -1.6647397e-005 0 0.00016130361 0 0)
(-0.0001409036 -8.393858e-006 0 0.00014029745 0 0)
(-0.00013361795 7.7791563e-007 0 0.00013321246 0 0)
(-0.00013975149 9.9106103e-006 0 0.00013911728 0 0)
(-0.00016295786 2.1870649e-005 0 0.00016213049 0 0)
(-0.0002098503 3.8075135e-005 0 0.00020873013 0 0)
(-0.00027788804 5.8275806e-005 0 0.00027546198 0 0)
(-0.00038838423 8.8498965e-005 0 0.00038378531 0 0)
(-0.00055820412 0.00013490851 0 0.00054955334 0 0)
(-0.00080290426 0.00020318559 0 0.00078342182 0 0)
(-0.0011934123 0.00031616858 0 0.0011524005 0 0)
(-0.001816355 0.00051036346 0 0.0017277674 0 0)
(-0.0028159533 0.00080553194 0 0.0025842644 0 0)
(-0.0044750608 0.001323823 0 0.0039961238 0 0)
(-0.0069551406 0.0019580099 0 0.0056697015 0 0)
(-0.010384059 0.0028100937 0 0.0081016663 0 0)
(-0.014493919 0.0041967044 0 0.0096337242 0 0)
(-0.017087705 0.0029674792 0 0.011614536 0 0)
(-0.00033372414 0.00015561705 0 0.00032248444 0 0)
(-0.00042956479 1.6553047e-005 0 0.00043892355 0 0)
(-0.00043964016 -3.4574294e-005 0 0.00042620128 0 0)
(-0.00036876559 -5.1752393e-005 0 0.00036851656 0 0)
(-0.00030410949 -5.1317505e-005 0 0.00030054782 0 0)
(-0.00024429821 -4.5258215e-005 0 0.00024294261 0 0)
(-0.00019458245 -3.462502e-005 0 0.00019352253 0 0)
(-0.00015954815 -2.3269988e-005 0 0.00015882694 0 0)
(-0.00013833007 -1.1757956e-005 0 0.00013773204 0 0)
(-0.00013077899 1.0125113e-006 0 0.00013039347 0 0)
(-0.00013652818 1.3751553e-005 0 0.00013591096 0 0)
(-0.00015881213 3.0352007e-005 0 0.00015799866 0 0)
(-0.00020432974 5.2837202e-005 0 0.0002032388 0 0)
(-0.0002701334 8.0732183e-005 0 0.00026773835 0 0)
(-0.00037692375 0.00012264481 0 0.00037235741 0 0)
(-0.00054070988 0.00018677131 0 0.00053216296 0 0)
(-0.00077571713 0.00028110212 0 0.00075633807 0 0)
(-0.0011493079 0.00043778291 0 0.0011084342 0 0)
(-0.0017407634 0.00070620302 0 0.0016526653 0 0)
(-0.0026942932 0.0011004106 0 0.0024644232 0 0)
(-0.0042447993 0.0018234404 0 0.003772607 0 0)
(-0.0065852762 0.002707007 0 0.0053162213 0 0)
(-0.0097431563 0.0039230952 0 0.0075459782 0 0)
(-0.01409514 0.0055473676 0 0.0090915529 0 0)
(-0.016140027 0.0041016656 0 0.01109508 0 0)
(-0.00033845503 0.00020084567 0 0.00032671209 0 0)
(-0.00043427142 2.0905803e-005 0 0.00044346456 0 0)
(-0.00044354417 -4.5144118e-005 0 0.00043015691 0 0)
(-0.00036993537 -6.73312e-005 0 0.00036945122 0 0)
(-0.00030284949 -6.6589678e-005 0 0.00029935894 0 0)
(-0.00024217032 -5.8503636e-005 0 0.00024076019 0 0)
(-0.00019168865 -4.4667101e-005 0 0.00019064792 0 0)
(-0.00015629744 -2.99155e-005 0 0.00015559695 0 0)
(-0.00013490575 -1.5141961e-005 0 0.00013432602 0 0)
(-0.00012701081 1.1756504e-006 0 0.00012664797 0 0)
(-0.00013229159 1.7483264e-005 0 0.0001317038 0 0)
(-0.00015339301 3.8497473e-005 0 0.00015260887 0 0)
(-0.00019701384 6.7044322e-005 0 0.00019597753 0 0)
(-0.00025995296 0.00010237687 0 0.00025757919 0 0)
(-0.00036187654 0.00015548559 0 0.00035734284 0 0)
(-0.00051785627 0.0002362878 0 0.00050944168 0 0)
(-0.00074035897 0.00035471646 0 0.00072117772 0 0)
(-0.0010926429 0.0005502208 0 0.0010521863 0 0)
(-0.0016452577 0.00088458975 0 0.0015585481 0 0)
(-0.002528314 0.001386275 0 0.0023000374 0 0)
(-0.0039443205 0.0022837913 0 0.0034807364 0 0)
(-0.0061157925 0.0033775743 0 0.0048708851 0 0)
(-0.0089070495 0.0049425796 0 0.00681166 0 0)
(-0.013235521 0.0072164395 0 0.0081741218 0 0)
(-0.015136878 0.0051920818 0 0.010548994 0 0)
(-0.00034457607 0.00024633595 0 0.00033210222 0 0)
(-0.00044017998 2.4901644e-005 0 0.00044924547 0 0)
(-0.00044853629 -5.6503617e-005 0 0.00043510944 0 0)
(-0.00037140451 -8.3884942e-005 0 0.00037066467 0 0)
(-0.00030117408 -8.2515844e-005 0 0.00029775225 0 0)
(-0.00023941361 -7.217084e-005 0 0.00023795032 0 0)
(-0.00018800416 -5.5027996e-005 0 0.00018699091 0 0)
(-0.00015225594 -3.6787663e-005 0 0.0001515793 0 0)
(-0.00013061871 -1.8709304e-005 0 0.00013006566 0 0)
(-0.00012233591 1.0032876e-006 0 0.00012200327 0 0)
(-0.00012707125 2.0892582e-005 0 0.00012652638 0 0)
(-0.00014670864 4.6007725e-005 0 0.00014595665 0 0)
(-0.00018798228 8.0493929e-005 0 0.00018696604 0 0)
(-0.00024760145 0.00012297065 0 0.00024528893 0 0)
(-0.00034354179 0.00018597167 0 0.00033906929 0 0)
(-0.00049021722 0.00028250314 0 0.0004819021 0 0)
(-0.00069766011 0.00042346516 0 0.00067867471 0 0)
(-0.0010227393 0.0006557453 0 0.00098266184 0 0)
(-0.0015256059 0.0010535243 0 0.0014399206 0 0)
(-0.0023305034 0.0016397459 0 0.0021053376 0 0)
(-0.0035772805 0.0026950462 0 0.0031247628 0 0)
(-0.005545648 0.0039914495 0 0.0043250416 0 0)
(-0.0078190908 0.0059315037 0 0.0058293739 0 0)
(-0.012379743 0.0084806602 0 0.0072356106 0 0)
(-0.012908195 0.0059844984 0 0.0093172033 0 0)
(-0.00035224757 0.00029186675 0 0.00033907646 0 0)
(-0.00044731769 2.8212579e-005 0 0.00045602649 0 0)
(-0.00045472514 -6.9035964e-005 0 0.00044134254 0 0)
(-0.0003731976 -0.00010185053 0 0.00037213458 0 0)
(-0.00029900962 -9.9424143e-005 0 0.00029565249 0 0)
(-0.0002359613 -8.6588508e-005 0 0.00023442827 0 0)
(-0.00018352287 -6.5924571e-005 0 0.00018252769 0 0)
(-0.00014738623 -4.4069898e-005 0 0.00014672727 0 0)
(-0.00012558245 -2.2792249e-005 0 0.00012505701 0 0)
(-0.00011679376 3.9926674e-007 0 0.0001164919 0 0)
(-0.00012080598 2.3610077e-005 0 0.00012029146 0 0)
(-0.00013878228 5.2597401e-005 0 0.00013803967 0 0)
(-0.00017759816 9.2898029e-005 0 0.00017661286 0 0)
(-0.00023303698 0.00014164031 0 0.00023078869 0 0)
(-0.0003220114 0.00021427355 0 0.00031756937 0 0)
(-0.00045771741 0.00032548676 0 0.00044945831 0 0)
(-0.00064800457 0.00048619499 0 0.00062924479 0 0)
(-0.00094349922 0.00074905231 0 0.00090390475 0 0)
(-0.0013925723 0.0011986231 0 0.0013083628 0 0)
(-0.0020981359 0.0018619171 0 0.0018778385 0 0)
(-0.0031385944 0.0030612295 0 0.00270111 0 0)
(-0.0048928935 0.0044958311 0 0.0037005614 0 0)
(-0.006557399 0.0067872686 0 0.0046905115 0 0)
(-0.011362967 0.0094799853 0 0.006168552 0 0)
(-0.0095353843 0.0073123036 0 0.0066574079 0 0)
(-0.00036193879 0.00033780278 0 0.00034815977 0 0)
(-0.00045552535 3.040041e-005 0 0.00046376737 0 0)
(-0.00046206586 -8.2827499e-005 0 0.00044884214 0 0)
(-0.00037526317 -0.00012170884 0 0.00037381367 0 0)
(-0.00029628262 -0.00011770661 0 0.00029300409 0 0)
(-0.00023171883 -0.00010198193 0 0.00023002856 0 0)
(-0.00017823604 -7.7672397e-005 0 0.00017723594 0 0)
(-0.00014166049 -5.2109908e-005 0 0.00014100948 0 0)
(-0.00011967968 -2.7524344e-005 0 0.00011915862 0 0)
(-0.0001104144 -1.0931025e-006 0 0.00011012819 0 0)
(-0.0001136766 2.5584277e-005 0 0.00011319684 0 0)
(-0.00012977859 5.7989943e-005 0 0.0001290643 0 0)
(-0.00016541307 0.00010353285 0 0.00016448776 0 0)
(-0.00021646406 0.00015850172 0 0.00021423395 0 0)
(-0.00029772913 0.00023924255 0 0.00029324956 0 0)
(-0.00042126591 0.00036375423 0 0.00041310331 0 0)
(-0.0005919374 0.00054245988 0 0.00057345899 0 0)
(-0.00085237893 0.00083253339 0 0.0008133855 0 0)
(-0.0012392843 0.0013273039 0 0.0011563214 0 0)
(-0.001838625 0.0020453777 0 0.0016238623 0 0)
(-0.0026347044 0.0033623571 0 0.00221618 0 0)
(-0.004128817 0.0048961095 0 0.0029666041 0 0)
(-0.0050275794 0.0075390393 0 0.0032849111 0 0)
(-0.009545559 0.010612414 0 0.0044864552 0 0)
(-0.0069996757 0.0081698197 0 0.0045295916 0 0)
(-0.00037438907 0.00038358926 0 0.00035845458 0 0)
(-0.00046498907 3.1291075e-005 0 0.00047478248 0 0)
(-0.00047103369 -9.875685e-005 0 0.00045689867 0 0)
(-0.0003775604 -0.00014406758 0 0.00037572102 0 0)
(-0.00029274486 -0.00013797495 0 0.00028954013 0 0)
(-0.00022655738 -0.00011877715 0 0.00022477496 0 0)
(-0.00017204133 -9.0620576e-005 0 0.00017106611 0 0)
(-0.00013500349 -6.1105474e-005 0 0.00013440688 0 0)
(-0.00011294404 -3.3063359e-005 0 0.00011243548 0 0)
(-0.00010325361 -3.9708159e-006 0 0.00010301543 0 0)
(-0.0001055573 2.632903e-005 0 0.00010516549 0 0)
(-0.00011971555 6.1877431e-005 0 0.00011908843 0 0)
(-0.00015190737 0.00011231422 0 0.00015105831 0 0)
(-0.00019795071 0.00017287887 0 0.00019585688 0 0)
(-0.00027053773 0.00026083574 0 0.0002662737 0 0)
(-0.0003802619 0.00039757462 0 0.0003725218 0 0)
(-0.00053105834 0.00058992985 0 0.00051291694 0 0)
(-0.00075486271 0.00090151858 0 0.00071705709 0 0)
(-0.0010757488 0.0014323483 0 0.00099597837 0 0)
(-0.0015767966 0.002166686 0 0.0013651333 0 0)
(-0.0020942994 0.0035942871 0 0.0017159922 0 0)
(-0.0033032231 0.0050911121 0 0.002178928 0 0)
(-0.0031867723 0.0080323527 0 0.001679224 0 0)
(-0.0071927096 0.011061115 0 0.0024350525 0 0)
(-0.00068856971 0.011010055 0 -0.0020468968 0 0)
(-0.0003903249 0.00042962235 0 0.00036679703 0 0)
(-0.00047602382 3.0811319e-005 0 0.00049377421 0 0)
(-0.00048145467 -0.00011738345 0 0.00046312085 0 0)
(-0.0003800342 -0.00016937459 0 0.00037780202 0 0)
(-0.00028867436 -0.00016051538 0 0.00028573316 0 0)
(-0.0002196902 -0.00013727314 0 0.00021818286 0 0)
(-0.00016488727 -0.00010495624 0 0.00016409431 0 0)
(-0.00012738074 -7.121107e-005 0 0.00012705572 0 0)
(-0.00010532935 -3.9603307e-005 0 0.00010500843 0 0)
(-9.5392588e-005 -8.4038002e-006 0 9.5468107e-005 0 0)
(-9.6617152e-005 2.5569794e-005 0 9.6524027e-005 0 0)
(-0.00010860316 6.3907797e-005 0 0.00010819461 0 0)
(-0.00013737645 0.00011918115 0 0.00013682505 0 0)
(-0.00017778181 0.00018410749 0 0.00017606934 0 0)
(-0.00024090073 0.0002787651 0 0.00023725239 0 0)
(-0.00033702951 0.0004254266 0 0.00033022877 0 0)
(-0.00046493796 0.0006284798 0 0.00044697004 0 0)
(-0.0006489141 0.00095698017 0 0.00061198007 0 0)
(-0.00089946148 0.0015165692 0 0.00082412908 0 0)
(-0.0012897674 0.0022418523 0 0.0010752201 0 0)
(-0.0015212542 0.0037156656 0 0.0011845682 0 0)
(-0.002240118 0.0051511195 0 0.0011702259 0 0)
(-0.0010369711 0.0078136998 0 -9.7927556e-005 0 0)
(-0.0030322628 0.010028058 0 -0.0009316478 0 0)
(0.0033259019 0.011560486 0 -0.007665566 0 0)
(-0.014202159 0.00052764431 0 0.0093472938 0 0)
(-0.0077861447 0.00093551426 0 0.005646352 0 0)
(-0.002704746 0.0013043396 0 0.0019235968 0 0)
(-0.00057993509 0.0015073386 0 0.00037061337 0 0)
(-0.00012229668 0.0016041082 0 -1.3597385e-005 0 0)
(-2.0056576e-005 0.0016155243 0 -7.3239969e-005 0 0)
(-7.1110775e-005 0.0016080105 0 -2.1967349e-005 0 0)
(-9.208856e-005 0.0016046374 0 1.0717915e-006 0 0)
(-9.581014e-005 0.0016049132 0 4.6224371e-006 0 0)
(-9.1886229e-005 0.0016056117 0 9.2891914e-007 0 0)
(-8.9978869e-005 0.0016057944 0 -9.6581192e-007 0 0)
(-9.0106253e-005 0.0016056959 0 -7.9709967e-007 0 0)
(-9.0736266e-005 0.0016055668 0 -1.7051262e-007 0 0)
(-9.094325e-005 0.0016055283 0 3.8656099e-008 0 0)
(-9.0946577e-005 0.001605525 0 4.3465909e-008 0 0)
(-9.0915126e-005 0.0016055296 0 1.1670013e-008 0 0)
(-9.0901387e-005 0.0016055312 0 -2.215477e-009 0 0)
(-9.0901697e-005 0.0016055312 0 -1.9810912e-009 0 0)
(-9.0902886e-005 0.001605531 0 -7.6009366e-010 0 0)
(-9.0903304e-005 0.0016055305 0 -3.132937e-010 0 0)
(-9.0903555e-005 0.0016055306 0 -1.2992096e-010 0 0)
(-9.0903823e-005 0.001605531 0 9.1441429e-011 0 0)
(-9.0903756e-005 0.0016055312 0 2.9761092e-010 0 0)
(-9.0911464e-005 0.0016055312 0 6.9487709e-009 0 0)
(-9.0911278e-005 0.0016055333 0 7.8878512e-009 0 0)
(-0.013722622 0.0016618897 0 0.0089953403 0 0)
(-0.0075372651 0.002842066 0 0.0053746296 0 0)
(-0.0029962583 0.0039135996 0 0.001853067 0 0)
(-0.0011011753 0.0046631151 0 0.00033659736 0 0)
(-0.00081499642 0.0048531017 0 5.0994775e-006 0 0)
(-0.00076597886 0.0048779985 0 -4.3102173e-005 0 0)
(-0.00080412155 0.0048670581 0 -1.5114908e-005 0 0)
(-0.00082354327 0.0048618309 0 3.4418191e-006 0 0)
(-0.00082450904 0.0048638072 0 3.3612281e-006 0 0)
(-0.00082120088 0.0048655329 0 2.1136254e-007 0 0)
(-0.00081967817 0.0048659536 0 -9.5069697e-007 0 0)
(-0.00081983016 0.0048656112 0 -5.5502514e-007 0 0)
(-0.00082023439 0.0048653672 0 -9.2636295e-008 0 0)
(-0.0008203628 0.0048652932 0 5.2360603e-008 0 0)
(-0.00082035672 0.0048652955 0 4.3456788e-008 0 0)
(-0.00082032199 0.0048653107 0 7.6599992e-009 0 0)
(-0.00082031274 0.0048653147 0 -2.0045964e-009 0 0)
(-0.00082031291 0.0048653148 0 -1.6658978e-009 0 0)
(-0.00082031389 0.0048653136 0 -3.0279116e-010 0 0)
(-0.00082031482 0.0048653145 0 1.4643655e-013 0 0)
(-0.00082031449 0.0048653138 0 -8.5847819e-011 0 0)
(-0.0008203142 0.0048653129 0 -1.5865316e-010 0 0)
(-0.00082031482 0.0048653153 0 -9.9088417e-011 0 0)
(-0.00082032182 0.0048653157 0 6.0272037e-009 0 0)
(-0.00082032185 0.0048653223 0 6.3525627e-009 0 0)
(-0.012861401 0.0029021445 0 0.0084585285 0 0)
(-0.0069322391 0.0048619194 0 0.0048228933 0 0)
(-0.0035185972 0.0069497786 0 0.001528827 0 0)
(-0.0024806387 0.00783719 0 0.00045606409 0 0)
(-0.0022713823 0.0081597108 0 9.5253747e-005 0 0)
(-0.0022510672 0.0082634514 0 -1.1166769e-005 0 0)
(-0.0022879197 0.0082557544 0 -3.930176e-006 0 0)
(-0.0022959404 0.0082500534 0 3.042305e-006 0 0)
(-0.0022955341 0.0082527253 0 1.4161294e-006 0 0)
(-0.0022932444 0.0082546386 0 -4.845209e-007 0 0)
(-0.0022920696 0.0082547986 0 -8.4402297e-007 0 0)
(-0.0022920731 0.0082542547 0 -3.543067e-007 0 0)
(-0.0022922776 0.00825394 0 -2.7351149e-008 0 0)
(-0.0022923287 0.0082538641 0 4.9142176e-008 0 0)
(-0.002292314 0.0082538747 0 3.0403656e-008 0 0)
(-0.0022922925 0.0082538954 0 3.9872095e-009 0 0)
(-0.0022922881 0.008253901 0 -1.6654132e-009 0 0)
(-0.0022922885 0.0082539004 0 -9.3708213e-010 0 0)
(-0.0022922905 0.008253901 0 -4.2344064e-011 0 0)
(-0.0022922901 0.0082538997 0 1.7370818e-010 0 0)
(-0.0022922901 0.0082539003 0 -6.7988042e-011 0 0)
(-0.0022922899 0.0082539007 0 -1.6906631e-010 0 0)
(-0.0022922897 0.0082539003 0 1.000697e-010 0 0)
(-0.0022922932 0.0082539009 0 3.2127635e-009 0 0)
(-0.0022922955 0.0082539116 0 3.5582348e-009 0 0)
(-0.01159876 0.0041497335 0 0.0075516516 0 0)
(-0.0061154685 0.0078496942 0 0.0035084777 0 0)
(-0.0048205974 0.0098706218 0 0.0015211727 0 0)
(-0.0042505458 0.011334127 0 0.00036769342 0 0)
(-0.0044263915 0.011759263 0 5.7235228e-005 0 0)
(-0.0045103485 0.011820369 0 1.2966314e-005 0 0)
(-0.0045364329 0.011809738 0 3.9096827e-006 0 0)
(-0.004535976 0.01180503 0 1.4469501e-006 0 0)
(-0.0045348659 0.011806985 0 -5.9450272e-007 0 0)
(-0.0045335065 0.011808203 0 -1.045213e-006 0 0)
(-0.0045326248 0.011807861 0 -5.5232764e-007 0 0)
(-0.0045324664 0.011807286 0 -1.0408552e-007 0 0)
(-0.0045324696 0.011807025 0 3.3296531e-008 0 0)
(-0.0045324538 0.011806982 0 3.3578008e-008 0 0)
(-0.004532443 0.011807 0 1.3380288e-008 0 0)
(-0.0045324384 0.011807021 0 1.1049634e-010 0 0)
(-0.004532439 0.011807025 0 -9.2886341e-010 0 0)
(-0.0045324411 0.011807027 0 -1.2614032e-010 0 0)
(-0.0045324408 0.011807025 0 1.5201755e-010 0 0)
(-0.00453244 0.011807025 0 2.3628655e-010 0 0)
(-0.0045324393 0.011807024 0 1.4198933e-010 0 0)
(-0.0045324387 0.011807024 0 -3.2652065e-010 0 0)
(-0.0045324402 0.011807027 0 -4.1659922e-010 0 0)
(-0.0045324415 0.011807028 0 3.6223735e-010 0 0)
(-0.0045324443 0.011807037 0 5.1717413e-010 0 0)
(-0.0095453398 0.0057692839 0 0.0059828179 0 0)
(-0.006411087 0.010719847 0 0.0025547114 0 0)
(-0.0064746779 0.013315391 0 0.0010679016 0 0)
(-0.0070020922 0.015006696 0 0.00031044033 0 0)
(-0.0074816126 0.015448734 0 9.3960088e-005 0 0)
(-0.0075717045 0.015518929 0 3.5670296e-005 0 0)
(-0.0075783882 0.01551492 0 7.6161214e-006 0 0)
(-0.0075694574 0.015511534 0 -7.6142683e-007 0 0)
(-0.0075676383 0.015511755 0 -2.0876037e-006 0 0)
(-0.0075664718 0.015511573 0 -1.0721683e-006 0 0)
(-0.0075658962 0.015510817 0 -1.3062615e-007 0 0)
(-0.0075656054 0.01551041 0 9.6870095e-008 0 0)
(-0.0075654596 0.015510276 0 5.2767347e-008 0 0)
(-0.0075654069 0.015510269 0 6.2849713e-009 0 0)
(-0.0075654106 0.015510288 0 -4.3591289e-009 0 0)
(-0.0075654225 0.015510303 0 -2.0532361e-009 0 0)
(-0.0075654268 0.015510306 0 1.0508404e-010 0 0)
(-0.0075654271 0.015510306 0 5.1735816e-010 0 0)
(-0.0075654265 0.015510305 0 2.1449395e-010 0 0)
(-0.0075654275 0.015510307 0 8.3836029e-011 0 0)
(-0.007565427 0.015510306 0 1.3606032e-010 0 0)
(-0.0075654261 0.015510305 0 -1.9553496e-010 0 0)
(-0.0075654261 0.015510307 0 -7.4447877e-010 0 0)
(-0.0075654247 0.015510308 0 -2.1327428e-009 0 0)
(-0.0075654263 0.015510314 0 -1.9805541e-009 0 0)
(-0.0074795038 0.0087371425 0 0.0036425391 0 0)
(-0.0069407061 0.014122203 0 0.0012913753 0 0)
(-0.0092226602 0.017361275 0 0.00046746726 0 0)
(-0.010807921 0.018906252 0 0.00023730052 0 0)
(-0.011385933 0.019257671 0 0.00011317334 0 0)
(-0.011433764 0.019320819 0 4.5009095e-005 0 0)
(-0.011415793 0.019319647 0 7.9144107e-006 0 0)
(-0.011400408 0.019317589 0 -2.6915192e-006 0 0)
(-0.011396923 0.019315238 0 -2.5780761e-006 0 0)
(-0.011396089 0.019313918 0 -4.8477345e-007 0 0)
(-0.011395984 0.019313368 0 2.9743857e-007 0 0)
(-0.011395622 0.019313265 0 2.1721917e-007 0 0)
(-0.011395405 0.019313268 0 3.421524e-008 0 0)
(-0.011395344 0.019313279 0 -2.5091881e-008 0 0)
(-0.011395365 0.019313285 0 -1.6558881e-008 0 0)
(-0.011395388 0.019313291 0 -2.1349832e-009 0 0)
(-0.011395394 0.019313293 0 1.2071441e-009 0 0)
(-0.011395394 0.019313294 0 7.6629903e-010 0 0)
(-0.011395393 0.019313294 0 1.730092e-010 0 0)
(-0.011395393 0.019313294 0 3.5733501e-011 0 0)
(-0.011395393 0.019313294 0 3.2674123e-011 0 0)
(-0.011395393 0.019313293 0 8.5978953e-011 0 0)
(-0.011395392 0.019313294 0 -8.3655683e-010 0 0)
(-0.011395388 0.019313296 0 -3.919139e-009 0 0)
(-0.011395388 0.019313298 0 -3.5021714e-009 0 0)
(-0.006458321 0.011353632 0 0.0014604714 0 0)
(-0.0089601644 0.018752243 0 -0.00024490997 0 0)
(-0.013781992 0.021697859 0 7.4253139e-005 0 0)
(-0.015595423 0.022871152 0 0.00019266937 0 0)
(-0.016072829 0.023099126 0 0.00012374953 0 0)
(-0.016055629 0.023154902 0 4.7122482e-005 0 0)
(-0.01602019 0.023158491 0 6.5977818e-006 0 0)
(-0.016003542 0.023157866 0 -3.290969e-006 0 0)
(-0.015999456 0.023154028 0 -2.2527726e-006 0 0)
(-0.015999839 0.023152738 0 8.1859063e-008 0 0)
(-0.016000217 0.023152649 0 5.7161522e-007 0 0)
(-0.015999872 0.023152863 0 2.3375933e-007 0 0)
(-0.015999641 0.023152943 0 -5.063547e-009 0 0)
(-0.015999588 0.023152942 0 -4.5654203e-008 0 0)
(-0.015999615 0.023152931 0 -2.1024883e-008 0 0)
(-0.015999641 0.023152929 0 -1.0749865e-009 0 0)
(-0.015999647 0.02315293 0 1.8861919e-009 0 0)
(-0.015999646 0.023152931 0 6.5450836e-010 0 0)
(-0.015999645 0.023152931 0 1.2344524e-010 0 0)
(-0.015999645 0.023152931 0 7.3603123e-011 0 0)
(-0.015999645 0.023152931 0 -7.4754448e-012 0 0)
(-0.015999645 0.023152931 0 1.8632671e-010 0 0)
(-0.015999644 0.023152931 0 -8.4181944e-010 0 0)
(-0.015999638 0.023152932 0 -4.6799012e-009 0 0)
(-0.015999637 0.023152931 0 -4.2646975e-009 0 0)
(-0.0063953425 0.016002935 0 -0.0017354405 0 0)
(-0.01345261 0.024080581 0 -0.0016171268 0 0)
(-0.019848655 0.026100278 0 -0.00012126646 0 0)
(-0.021112535 0.026778484 0 0.00015137173 0 0)
(-0.021465435 0.026917481 0 0.00011980037 0 0)
(-0.021404247 0.026976957 0 4.2229663e-005 0 0)
(-0.021373872 0.026989292 0 4.1666609e-006 0 0)
(-0.021358865 0.026989113 0 -3.7127994e-006 0 0)
(-0.021358828 0.026985575 0 -1.5895979e-006 0 0)
(-0.021360803 0.026984944 0 4.5532106e-007 0 0)
(-0.021361657 0.026985423 0 6.2143935e-007 0 0)
(-0.021361428 0.026985863 0 1.8221873e-007 0 0)
(-0.021361199 0.026985948 0 -3.7042637e-008 0 0)
(-0.021361137 0.026985912 0 -5.1102095e-008 0 0)
(-0.021361164 0.026985884 0 -1.5212613e-008 0 0)
(-0.021361183 0.02698588 0 4.9809623e-010 0 0)
(-0.021361188 0.026985882 0 1.9368996e-009 0 0)
(-0.021361187 0.026985883 0 4.3962484e-010 0 0)
(-0.021361186 0.026985883 0 2.6128058e-011 0 0)
(-0.021361186 0.026985883 0 2.902261e-011 0 0)
(-0.021361186 0.026985883 0 9.3435778e-011 0 0)
(-0.021361186 0.026985882 0 3.2420502e-010 0 0)
(-0.021361185 0.026985882 0 -5.0198212e-010 0 0)
(-0.021361178 0.026985881 0 -4.3745395e-009 0 0)
(-0.021361176 0.026985879 0 -4.3422159e-009 0 0)
(-0.011434604 0.024825905 0 -0.0052616741 0 0)
(-0.021412109 0.030113893 0 -0.0026602288 0 0)
(-0.026943024 0.030422786 0 -0.00016462046 0 0)
(-0.027278894 0.030613421 0 8.9933578e-005 0 0)
(-0.027532389 0.030713586 0 0.00010843994 0 0)
(-0.027497727 0.030795994 0 3.0012427e-005 0 0)
(-0.027497442 0.030814246 0 3.6381603e-006 0 0)
(-0.027489158 0.030814632 0 -3.2565928e-006 0 0)
(-0.027493178 0.030811891 0 -8.7519757e-007 0 0)
(-0.027495988 0.030812038 0 4.1291345e-007 0 0)
(-0.027497258 0.030812881 0 4.3103083e-007 0 0)
(-0.027497102 0.030813307 0 7.9413041e-008 0 0)
(-0.027496884 0.030813321 0 -4.8959195e-008 0 0)
(-0.027496796 0.030813246 0 -3.9249239e-008 0 0)
(-0.027496809 0.030813213 0 -8.3575889e-009 0 0)
(-0.027496822 0.03081321 0 1.6393196e-009 0 0)
(-0.027496825 0.030813213 0 1.4650332e-009 0 0)
(-0.027496824 0.030813214 0 2.1145193e-010 0 0)
(-0.027496823 0.030813214 0 -4.8183825e-011 0 0)
(-0.027496823 0.030813214 0 -3.4981023e-011 0 0)
(-0.027496823 0.030813214 0 1.5402908e-010 0 0)
(-0.027496823 0.030813213 0 4.6773706e-010 0 0)
(-0.027496823 0.030813213 0 4.863556e-010 0 0)
(-0.027496818 0.030813211 0 -2.4523209e-009 0 0)
(-0.027496819 0.030813208 0 -3.1465933e-009 0 0)
(-0.034021762 0.041897836 0 -0.0098122135 0 0)
(-0.032207599 0.035338391 0 -0.0017836058 0 0)
(-0.038577209 0.036496115 0 -0.00011691884 0 0)
(-0.037191848 0.035913923 0 4.9671124e-005 0 0)
(-0.038090446 0.036329416 0 5.3018765e-005 0 0)
(-0.038009375 0.03635751 0 1.0746522e-005 0 0)
(-0.038092349 0.03639671 0 1.9024696e-007 0 0)
(-0.038072537 0.036385081 0 -1.9528539e-006 0 0)
(-0.038081068 0.036384422 0 -3.9474072e-007 0 0)
(-0.038081426 0.036384009 0 1.3992969e-007 0 0)
(-0.038083328 0.036385171 0 1.5727975e-007 0 0)
(-0.038083131 0.036385408 0 1.629846e-008 0 0)
(-0.03808296 0.036385369 0 -2.4823462e-008 0 0)
(-0.038082816 0.036385268 0 -1.450978e-008 0 0)
(-0.038082813 0.036385244 0 -1.9381018e-009 0 0)
(-0.038082821 0.036385244 0 1.1051997e-009 0 0)
(-0.038082825 0.036385248 0 6.1488407e-010 0 0)
(-0.038082825 0.036385249 0 5.4393542e-011 0 0)
(-0.038082824 0.036385249 0 -8.7854324e-012 0 0)
(-0.038082824 0.036385249 0 -3.5993717e-011 0 0)
(-0.038082824 0.036385249 0 7.756566e-011 0 0)
(-0.038082826 0.03638525 0 4.0494909e-010 0 0)
(-0.038082828 0.03638525 0 1.0065135e-009 0 0)
(-0.038082828 0.036385251 0 -8.0293083e-010 0 0)
(-0.038082831 0.036385245 0 -2.0536014e-009 0 0)
(-0.00042965636 0.00052686758 0 0.00039307761 0 0)
(-0.0005022042 2.4176953e-005 0 0.00054194792 0 0)
(-0.00050513488 -0.00016680936 0 0.00048054647 0 0)
(-0.00038460383 -0.00022609628 0 0.00037956254 0 0)
(-0.00028018834 -0.0002117817 0 0.00027670413 0 0)
(-0.00020178784 -0.00017555466 0 0.00019876833 0 0)
(-0.00015000846 -0.00013720555 0 0.00014804053 0 0)
(-0.00011080287 -9.4266701e-005 0 0.00010976203 0 0)
(-8.8874908e-005 -5.6265498e-005 0 8.7845621e-005 0 0)
(-7.8209057e-005 -1.9127754e-005 0 7.7604302e-005 0 0)
(-7.7508172e-005 2.088589e-005 0 7.6746459e-005 0 0)
(-8.6016386e-005 6.5361347e-005 0 8.4741208e-005 0 0)
(-0.00010552703 0.0001252578 0 0.0001046918 0 0)
(-0.0001350258 0.00019789054 0 0.00013245133 0 0)
(-0.00018015168 0.00030044907 0 0.00017467819 0 0)
(-0.00024738383 0.00046709861 0 0.00023991274 0 0)
(-0.00032850643 0.00068215457 0 0.00030924692 0 0)
(-0.00044364464 0.0010184874 0 0.00040468723 0 0)
(-0.00055887715 0.0016072961 0 0.0004926949 0 0)
(-0.00071199623 0.0023136365 0 0.00052082772 0 0)
(-0.00066742762 0.0036809301 0 0.00038622643 0 0)
(-0.0006085561 0.0049132847 0 -0.00026892369 0 0)
(0.0012073018 0.0069578658 0 -0.0018632031 0 0)
(0.0018451282 0.0075068008 0 -0.0042298026 0 0)
(0.0097791012 0.0068572656 0 -0.012684683 0 0)
(-0.00052511273 0.00069115174 0 0.00046975369 0 0)
(-0.00057535196 -3.0433642e-006 0 0.00062801007 0 0)
(-0.00055158049 -0.00026591535 0 0.00051858026 0 0)
(-0.000386386 -0.00032438366 0 0.00037718945 0 0)
(-0.00025438989 -0.00029404804 0 0.0002513257 0 0)
(-0.00016742471 -0.00023679426 0 0.0001644311 0 0)
(-0.00011542641 -0.00018314606 0 0.00011393957 0 0)
(-7.7309216e-005 -0.00012598317 0 7.7098803e-005 0 0)
(-5.7351024e-005 -7.8355169e-005 0 5.6771724e-005 0 0)
(-4.661608e-005 -3.4211043e-005 0 4.6314339e-005 0 0)
(-4.2304795e-005 1.2035024e-005 0 4.2690544e-005 0 0)
(-4.4092764e-005 6.049581e-005 0 4.365625e-005 0 0)
(-5.1286482e-005 0.0001279767 0 5.120495e-005 0 0)
(-6.2747303e-005 0.00021170048 0 6.2259168e-005 0 0)
(-7.8470862e-005 0.00031615893 0 7.3588509e-005 0 0)
(-9.9558272e-005 0.0004910833 0 9.4195629e-005 0 0)
(-0.00011315328 0.00071543286 0 0.00010083896 0 0)
(-0.00012605314 0.0010334553 0 9.0952916e-005 0 0)
(-6.8408458e-005 0.0015879204 0 1.2632012e-005 0 0)
(2.9531058e-005 0.0022155912 0 -0.00018900987 0 0)
(0.00048875889 0.0031796422 0 -0.0007429449 0 0)
(0.0010928918 0.0038119505 0 -0.0017909291 0 0)
(0.0030879483 0.0042492237 0 -0.0037982594 0 0)
(0.0051682114 0.0018451188 0 -0.0073168756 0 0)
(0.006347109 -0.0015663244 0 -0.0093417734 0 0)
(-0.00068646449 0.00087901728 0 0.00061477007 0 0)
(-0.00068061019 -5.4472995e-005 0 0.00074050158 0 0)
(-0.00060020592 -0.00038101077 0 0.00055900245 0 0)
(-0.00037096616 -0.00042029555 0 0.00035822652 0 0)
(-0.0002100989 -0.00035624002 0 0.0002066886 0 0)
(-0.00011755608 -0.00026873188 0 0.00011413622 0 0)
(-6.8525754e-005 -0.00019658068 0 6.686338e-005 0 0)
(-3.5953528e-005 -0.00012544048 0 3.5578917e-005 0 0)
(-1.9377051e-005 -6.778309e-005 0 1.9026356e-005 0 0)
(-1.0346398e-005 -2.1588347e-005 0 1.0227042e-005 0 0)
(-3.5831518e-006 3.0058383e-005 0 4.1766271e-006 0 0)
(5.3600712e-007 8.1064158e-005 0 -7.6648844e-007 0 0)
(4.8883206e-006 0.00015034823 0 -6.5857386e-006 0 0)
(1.3668353e-005 0.00023369318 0 -1.3411252e-005 0 0)
(2.4067108e-005 0.00033906012 0 -2.7521698e-005 0 0)
(4.4427925e-005 0.0004925139 0 -5.1835048e-005 0 0)
(9.1513175e-005 0.00072592402 0 -0.0001022099 0 0)
(0.00015557723 0.001001602 0 -0.00018818844 0 0)
(0.00032760496 0.0014768156 0 -0.0003804781 0 0)
(0.00059796636 0.0019847585 0 -0.00072577557 0 0)
(0.0011826183 0.0026585658 0 -0.0013860807 0 0)
(0.0020171252 0.0029526872 0 -0.0024419063 0 0)
(0.003455916 0.0027637553 0 -0.0038293064 0 0)
(0.0046707656 0.00057843902 0 -0.0054221434 0 0)
(0.003630355 -0.0031533482 0 -0.0039075485 0 0)
(-0.00093284846 0.0011233621 0 0.0008334274 0 0)
(-0.00078657662 -0.00011291738 0 0.00085515052 0 0)
(-0.0006130831 -0.00046238203 0 0.00056077297 0 0)