/*--------------------------------*- C++ -*----------------------------------*\
| =========                 |                                                 |
| \\      /  F ield         | OpenFOAM: The Open Source CFD Toolbox           |
|  \\    /   O peration     | Version:  5.x                                   |
|   \\  /    A nd           | Web:      www.OpenFOAM.org                      |
|    \\/     M anipulation  |                                                 |
\*---------------------------------------------------------------------------*/
/*   Windows 32 and 64 bit porting by blueCAPE: http://www.bluecape.com.pt   *\
|  Based on Windows porting (2.0.x v4) by Symscape: http://www.symscape.com   |
\*---------------------------------------------------------------------------*/
FoamFile
{
    version     2.0;
    format      ascii;
    class       volVectorField;
    location    "0.17";
    object      U;
}
// * * * * * * * * * * * * * * * * * * * * * * * * * * * * * * * * * * * * * //

dimensions      [0 1 -1 0 0 0 0];

internalField   nonuniform List<vector> 
750
(
(0.039264191 -0.00012818943 0)
(0.040336748 -0.00016007655 0)
(0.041775931 -0.00015822466 0)
(0.042906108 -0.00013536094 0)
(0.043926457 -0.00011323771 0)
(0.044721952 -8.9646195e-005 0)
(0.045358317 -7.1592647e-005 0)
(0.045866472 -5.8259143e-005 0)
(0.046288041 -4.9854775e-005 0)
(0.046662255 -4.6467171e-005 0)
(0.047028999 -4.834617e-005 0)
(0.047433904 -5.6365906e-005 0)
(0.047927758 -7.1528911e-005 0)
(0.048573388 -9.6493851e-005 0)
(0.04946688 -0.00013556968 0)
(0.050733892 -0.00019425552 0)
(0.052559897 -0.00028404933 0)
(0.055261244 -0.00042580357 0)
(0.05933988 -0.00065296376 0)
(0.065629158 -0.0010289269 0)
(0.075769664 -0.001573812 0)
(0.090442633 -0.0023969663 0)
(0.11429383 -0.0033194625 0)
(0.14234142 -0.004241891 0)
(0.18308456 -0.0047161267 0)
(0.039267568 -0.0003831196 0)
(0.040341996 -0.00048482698 0)
(0.041785152 -0.00047258417 0)
(0.04291752 -0.00040730979 0)
(0.04393674 -0.00033882759 0)
(0.044730867 -0.00026892192 0)
(0.045365278 -0.00021436175 0)
(0.045871042 -0.00017423659 0)
(0.046290122 -0.00014908046 0)
(0.046661771 -0.00013889476 0)
(0.047025762 -0.0001444532 0)
(0.047427416 -0.00016836625 0)
(0.047916771 -0.00021362286 0)
(0.048556498 -0.00028807007 0)
(0.049441522 -0.00040462757 0)
(0.050695432 -0.00057969042 0)
(0.052501841 -0.00084717826 0)
(0.055172201 -0.0012692883 0)
(0.059197201 -0.0019446526 0)
(0.065396089 -0.0030587509 0)
(0.075370349 -0.0046880977 0)
(0.089791192 -0.0070998531 0)
(0.11319458 -0.0099079191 0)
(0.14061401 -0.012560226 0)
(0.1809899 -0.014145718 0)
(0.039273105 -0.00063816521 0)
(0.040352829 -0.00081312806 0)
(0.041804039 -0.00078641172 0)
(0.042940186 -0.00068008735 0)
(0.043957783 -0.00056372462 0)
(0.044749164 -0.00044770904 0)
(0.045379334 -0.00035635388 0)
(0.045880425 -0.00028935877 0)
(0.046294639 -0.00024742773 0)
(0.046661106 -0.00023040023 0)
(0.04701956 -0.00023950913 0)
(0.047414732 -0.00027901714 0)
(0.04789525 -0.0003539095 0)
(0.048523088 -0.00047710749 0)
(0.049391092 -0.00066993354 0)
(0.050619052 -0.00095940586 0)
(0.052385866 -0.0014012679 0)
(0.054993409 -0.0020977853 0)
(0.058911911 -0.0032120148 0)
(0.064930379 -0.0050426373 0)
(0.074577792 -0.007732927 0)
(0.088463981 -0.011667917 0)
(0.11104373 -0.016341307 0)
(0.13724231 -0.020665165 0)
(0.17674599 -0.02349249 0)
(0.039280856 -0.00089566493 0)
(0.040369326 -0.0011437702 0)
(0.041832748 -0.0011020097 0)
(0.042974275 -0.00095315444 0)
(0.043989857 -0.00078808218 0)
(0.044777084 -0.00062529736 0)
(0.045400568 -0.00049692735 0)
(0.045894718 -0.00040303184 0)
(0.046301682 -0.00034419448 0)
(0.046660412 -0.00032023214 0)
(0.047010525 -0.00033267999 0)
(0.047396027 -0.00038728415 0)
(0.047863565 -0.000490951 0)
(0.048473634 -0.00066160439 0)
(0.049316304 -0.00092854516 0)
(0.050506099 -0.0013289203 0)
(0.052214041 -0.0019393922 0)
(0.054728688 -0.0029002447 0)
(0.058492508 -0.0044342939 0)
(0.064239599 -0.0069471553 0)
(0.073411467 -0.010645016 0)
(0.086507808 -0.016026979 0)
(0.10788604 -0.022445217 0)
(0.13212664 -0.028374913 0)
(0.17027399 -0.032532051 0)
(0.039291424 -0.0011567362 0)
(0.0403917 -0.0014774178 0)
(0.041871727 -0.00142034 0)
(0.043020392 -0.0012265623 0)
(0.044033417 -0.0010116433 0)
(0.044814967 -0.00080123185 0)
(0.045429283 -0.00063550969 0)
(0.045914142 -0.00051464283 0)
(0.046311437 -0.00043876458 0)
(0.046659968 -0.00040772676 0)
(0.04699899 -0.00042322791 0)
(0.047371682 -0.00049225853 0)
(0.047822197 -0.00062354563 0)
(0.048408924 -0.00083988048 0)
(0.04921843 -0.0011779641 0)
(0.050358411 -0.0016844428 0)
(0.051989351 -0.0024555101 0)
(0.054382652 -0.003666655 0)
(0.05794548 -0.0055949492 0)
(0.063336092 -0.0087441923 0)
(0.071908943 -0.013373425 0)
(0.083948038 -0.020095672 0)
(0.10373816 -0.028104255 0)
(0.12533804 -0.03559265 0)
(0.16160912 -0.04089623 0)
(0.039305489 -0.0014224252 0)
(0.040420589 -0.0018151548 0)
(0.041921955 -0.0017421317 0)
(0.043079761 -0.0015004932 0)
(0.044089482 -0.0012341262 0)
(0.044863619 -0.00097500477 0)
(0.04546624 -0.00077150803 0)
(0.04593934 -0.00062357732 0)
(0.046324545 -0.00053055106 0)
(0.046660483 -0.00049224127 0)
(0.046985753 -0.00051041675 0)
(0.047342557 -0.00059303934 0)
(0.047772173 -0.00075057324 0)
(0.048330339 -0.0010102426 0)
(0.049098945 -0.001415768 0)
(0.050177982 -0.0020222827 0)
(0.051715157 -0.0029440691 0)
(0.053960529 -0.0043886831 0)
(0.057280578 -0.0066784427 0)
(0.062244456 -0.01040873 0)
(0.070090718 -0.015870131 0)
(0.080817808 -0.023795873 0)
(0.098682933 -0.033167134 0)
(0.116887 -0.042182148 0)
(0.1508801 -0.048469741 0)
(0.039324003 -0.001694083 0)
(0.040457093 -0.0021579357 0)
(0.041984853 -0.0020682362 0)
(0.043154224 -0.0017750947 0)
(0.044159642 -0.0014552118 0)
(0.044924285 -0.0011460544 0)
(0.045512699 -0.00090429026 0)
(0.045971422 -0.00072921664 0)
(0.046341998 -0.00061894972 0)
(0.046663233 -0.00057315104 0)
(0.046971997 -0.00059355286 0)
(0.047309943 -0.00068882161 0)
(0.047715096 -0.000870793 0)
(0.0482396 -0.0011711143 0)
(0.048960203 -0.0016397496 0)
(0.049967924 -0.0023391417 0)
(0.051396508 -0.0033996827 0)
(0.053470267 -0.0050573911 0)
(0.056509585 -0.007671733 0)
(0.060985798 -0.011916382 0)
(0.067989632 -0.018088763 0)
(0.077176018 -0.027049538 0)
(0.092793351 -0.037493188 0)
(0.10674063 -0.047892664 0)
(0.13868158 -0.055267183 0)
(0.039348788 -0.0019736384 0)
(0.040502791 -0.0025065673 0)
(0.042062642 -0.0023998792 0)
(0.043246365 -0.0020504853 0)
(0.044246006 -0.0016744512 0)
(0.044998708 -0.0013138036 0)
(0.045570445 -0.0010331623 0)
(0.046011888 -0.00083088394 0)
(0.046365258 -0.00070337734 0)
(0.046669913 -0.00064987458 0)
(0.046959463 -0.00067190025 0)
(0.047275578 -0.00077874381 0)
(0.047652887 -0.00098320827 0)
(0.048139237 -0.0013210608 0)
(0.048805553 -0.0018476887 0)
(0.04973233 -0.0026319871 0)
(0.051039493 -0.0038181792 0)
(0.052921073 -0.0056659817 0)
(0.055647204 -0.0085635076 0)
(0.059588588 -0.013249768 0)
(0.065648324 -0.019991859 0)
(0.073095592 -0.029798991 0)
(0.086172565 -0.040971249 0)
(0.095501996 -0.052684259 0)
(0.12521586 -0.060083688 0)
(0.039382166 -0.0022633388 0)
(0.040560172 -0.0028623328 0)
(0.042157859 -0.0027381981 0)
(0.043359251 -0.0023268044 0)
(0.044350787 -0.0018913633 0)
(0.04508884 -0.0014774732 0)
(0.045641493 -0.0011574569 0)
(0.046062479 -0.00092787497 0)
(0.046396276 -0.00078325575 0)
(0.046682001 -0.0007218302 0)
(0.046950141 -0.00074477153 0)
(0.047241601 -0.00086203032 0)
(0.047587952 -0.0010870164 0)
(0.048032265 -0.001458817 0)
(0.048638818 -0.0020376619 0)
(0.049476046 -0.0028982482 0)
(0.050650246 -0.0041953898 0)
(0.052324137 -0.006208343 0)
(0.054711482 -0.0093441012 0)
(0.058070098 -0.014387753 0)
(0.063121058 -0.021539266 0)
(0.068686923 -0.031958349 0)
(0.078992571 -0.043521871 0)
(0.083257215 -0.056630037 0)
(0.11039225 -0.063300146 0)
(0.039425655 -0.0025636215 0)
(0.040632738 -0.0032297365 0)
(0.042273213 -0.0030824265 0)
(0.043495846 -0.0026043369 0)
(0.044475988 -0.0021053165 0)
(0.045196387 -0.0016363838 0)
(0.045727486 -0.0012766076 0)
(0.046124736 -0.0010196129 0)
(0.046436789 -0.0008580005 0)
(0.046700625 -0.00078843808 0)
(0.046945674 -0.00081168227 0)
(0.047209917 -0.0009381456 0)
(0.0475229 -0.0011812285 0)
(0.047921055 -0.0015833558 0)
(0.048463835 -0.0022083569 0)
(0.049203746 -0.0031357835 0)
(0.050233762 -0.004528583 0)
(0.05168869 -0.0066812114 0)
(0.053716594 -0.010007016 0)
(0.056456413 -0.015316148 0)
(0.060469311 -0.022749845 0)
(0.064181284 -0.033499291 0)
(0.071276991 -0.04516973 0)
(0.069802218 -0.059257025 0)
(0.090813204 -0.063622304 0)
(0.21554432 -0.0025935823 0)
(0.22525319 -0.00088436135 0)
(0.22817283 -0.00014347424 0)
(0.22772959 5.5985106e-005 0)
(0.22733223 7.0049844e-005 0)
(0.22672283 5.5445482e-005 0)
(0.22646671 2.3521821e-005 0)
(0.22640268 2.7828599e-006 0)
(0.22642892 -3.0785511e-006 0)
(0.22645294 -2.1805712e-006 0)
(0.22646109 -5.4545238e-007 0)
(0.22646038 1.0651992e-007 0)
(0.22645881 1.3282005e-007 0)
(0.22645833 2.714531e-008 0)
(0.22645844 -1.4677639e-008 0)
(0.22645855 -8.2381827e-009 0)
(0.22645857 -4.8651583e-010 0)
(0.22645855 1.3873539e-009 0)
(0.22645855 7.5117222e-010 0)
(0.22645854 2.251652e-010 0)
(0.22645854 -4.1395564e-011 0)
(0.22645854 -3.8259503e-010 0)
(0.22645855 -7.6315584e-010 0)
(0.22645856 -5.0998765e-010 0)
(0.22645856 -6.3944237e-011 0)
(0.21263504 -0.0074720567 0)
(0.22114918 -0.0025749132 0)
(0.22398062 -0.00034531237 0)
(0.2234754 9.9841007e-005 0)
(0.22304016 0.00019670393 0)
(0.22250071 0.00015424222 0)
(0.22230757 6.050273e-005 0)
(0.22226857 5.5746494e-006 0)
(0.22229565 -9.1397796e-006 0)
(0.22231618 -5.987789e-006 0)
(0.22232214 -1.3296439e-006 0)
(0.22232097 4.1969619e-007 0)
(0.22231953 3.798908e-007 0)
(0.2223192 6.3818401e-008 0)
(0.22231933 -4.1544992e-008 0)
(0.22231942 -2.3056169e-008 0)
(0.22231943 -8.8098332e-010 0)
(0.22231942 3.9336245e-009 0)
(0.22231941 1.8619053e-009 0)
(0.22231941 4.2178806e-010 0)
(0.22231941 1.851861e-010 0)
(0.22231941 -1.1164186e-009 0)
(0.22231941 -2.7857764e-009 0)
(0.22231942 -2.6178095e-009 0)
(0.22231944 -1.6160597e-009 0)
(0.20669316 -0.011909877 0)
(0.21287871 -0.0040399444 0)
(0.21572099 -0.00057003191 0)
(0.21487374 0.00020877164 0)
(0.2144211 0.00033623585 0)
(0.21408161 0.00022452529 0)
(0.21400343 8.2894208e-005 0)
(0.21400135 4.4621334e-006 0)
(0.21402866 -1.4718236e-005 0)
(0.21404218 -8.8267542e-006 0)
(0.21404443 -1.6788625e-006 0)
(0.21404268 7.7968551e-007 0)
(0.21404162 5.7785157e-007 0)
(0.21404153 7.5685063e-008 0)
(0.21404167 -6.7024563e-008 0)
(0.21404173 -3.4202402e-008 0)
(0.21404173 -3.7976291e-010 0)
(0.21404172 5.9890804e-009 0)
(0.21404172 2.632951e-009 0)
(0.21404172 4.6073278e-010 0)
(0.21404172 1.6654198e-010 0)
(0.21404171 -1.4109199e-009 0)
(0.21404172 -4.3679634e-009 0)
(0.21404173 -6.7342129e-009 0)
(0.21404176 -5.1889469e-009 0)
(0.19740224 -0.015664786 0)
(0.20078365 -0.0052854006 0)
(0.20300331 -0.00065432311 0)
(0.20183767 0.00035439364 0)
(0.20160436 0.00043848905 0)
(0.20149893 0.00025341927 0)
(0.20153297 8.5697844e-005 0)
(0.20156123 -1.3794429e-006 0)
(0.20158345 -1.8962953e-005 0)
(0.20158742 -1.0060712e-005 0)
(0.20158566 -1.4401337e-006 0)
(0.20158373 1.1112718e-006 0)
(0.2015833 6.7093449e-007 0)
(0.20158345 5.3430551e-008 0)
(0.20158357 -8.9073174e-008 0)
(0.20158358 -3.8839537e-008 0)
(0.20158357 1.1892724e-009 0)
(0.20158357 7.2992024e-009 0)
(0.20158357 2.9641457e-009 0)
(0.20158357 4.4527048e-010 0)
(0.20158357 1.4041775e-010 0)
(0.20158357 -1.4678258e-009 0)
(0.20158357 -5.7308376e-009 0)
(0.20158357 -1.309993e-008 0)
(0.20158362 -1.0840678e-008 0)
(0.18469525 -0.018482589 0)
(0.18445755 -0.0060912246 0)
(0.18536001 -0.00051959672 0)
(0.1844541 0.0004413797 0)
(0.18457499 0.00044968141 0)
(0.18464785 0.0002373051 0)
(0.18476653 7.1534396e-005 0)
(0.18480683 -9.0594866e-006 0)
(0.18481692 -2.0801066e-005 0)
(0.18481082 -9.5363814e-006 0)
(0.18480622 -7.3316716e-007 0)
(0.18480489 1.3379667e-006 0)
(0.18480521 6.4658992e-007 0)
(0.18480551 9.4582155e-009 0)
(0.18480556 -9.9845861e-008 0)
(0.18480554 -3.6318313e-008 0)
(0.18480552 3.4406839e-009 0)
(0.18480552 7.517112e-009 0)
(0.18480552 2.6964414e-009 0)
(0.18480552 4.2092946e-010 0)
(0.18480552 1.2425055e-010 0)
(0.18480552 -1.1558733e-009 0)
(0.18480552 -6.6427171e-009 0)
(0.18480553 -1.9957965e-008 0)
(0.18480557 -1.7090266e-008 0)
(0.1687726 -0.020316377 0)
(0.16282151 -0.0060259896 0)
(0.16308419 -0.00036731484 0)
(0.16262188 0.00043940983 0)
(0.16306545 0.00041088873 0)
(0.16327282 0.00019429637 0)
(0.16344025 4.8950104e-005 0)
(0.16347208 -1.5006158e-005 0)
(0.16346545 -1.9437068e-005 0)
(0.16345136 -7.5360635e-006 0)
(0.16344617 6.8955544e-008 0)
(0.16344611 1.3438345e-006 0)
(0.16344707 5.1780495e-007 0)
(0.16344738 -3.5242072e-008 0)
(0.16344734 -9.4397212e-008 0)
(0.16344728 -2.785632e-008 0)
(0.16344726 5.2336992e-009 0)
(0.16344727 6.5809723e-009 0)
(0.16344727 2.1108588e-009 0)
(0.16344727 4.0449891e-010 0)
(0.16344727 2.5836328e-010 0)
(0.16344727 -7.0717953e-010 0)
(0.16344727 -6.972789e-009 0)
(0.16344727 -2.4520247e-008 0)
(0.16344729 -2.1177238e-008 0)
(0.14815941 -0.020402456 0)
(0.13580327 -0.0052711401 0)
(0.13632602 -0.00023199658 0)
(0.13606437 0.00034847131 0)
(0.13674696 0.00032176122 0)
(0.13702467 0.00013412688 0)
(0.13719756 2.5776928e-005 0)
(0.13720657 -1.6355036e-005 0)
(0.13718475 -1.5044406e-005 0)
(0.13716711 -4.8342059e-006 0)
(0.13716348 6.0101052e-007 0)
(0.13716478 1.0969715e-006 0)
(0.13716604 3.3361481e-007 0)
(0.13716623 -5.9594296e-008 0)
(0.13716611 -7.4034761e-008 0)
(0.13716604 -1.6830073e-008 0)
(0.13716603 5.7157606e-009 0)
(0.13716604 4.8173688e-009 0)
(0.13716604 1.2884683e-009 0)
(0.13716604 3.1919367e-010 0)
(0.13716604 4.2264733e-010 0)
(0.13716604 -2.5380531e-010 0)
(0.13716604 -6.425185e-009 0)
(0.13716603 -2.4317244e-008 0)
(0.13716602 -2.0920463e-008 0)
(0.12080075 -0.017862481 0)
(0.10376485 -0.0039510829 0)
(0.1048022 -0.0001223376 0)
(0.1044721 0.00022040244 0)
(0.10529855 0.00020545127 0)
(0.1055574 7.1863691e-005 0)
(0.10569912 8.2549587e-006 0)
(0.10568256 -1.2781626e-005 0)
(0.10565437 -9.0279836e-006 0)
(0.10563816 -2.3372028e-006 0)
(0.10563703 6.849685e-007 0)
(0.10563914 6.8459905e-007 0)
(0.1056403 1.586421e-007 0)
(0.10564033 -5.4757889e-008 0)
(0.10564017 -4.4744112e-008 0)
(0.1056401 -7.2521776e-009 0)
(0.10564011 4.5095666e-009 0)
(0.10564012 2.7722578e-009 0)
(0.10564012 5.6456678e-010 0)
(0.10564012 1.9292335e-010 0)
(0.10564012 4.4586007e-010 0)
(0.10564012 7.0094674e-011 0)
(0.10564012 -4.8257331e-009 0)
(0.10564011 -1.8605021e-008 0)
(0.10564006 -1.5939179e-008 0)
(0.086207506 -0.012872168 0)
(0.06678999 -0.0022731275 0)
(0.068175444 -1.4932159e-005 0)
(0.067704932 9.2588271e-005 0)
(0.068501475 9.4381896e-005 0)
(0.068656979 2.3188626e-005 0)
(0.068747791 3.4545379e-007 0)
(0.068716586 -6.5277318e-006 0)
(0.068693814 -3.4472983e-006 0)
(0.068682806 -6.5577521e-007 0)
(0.068683622 4.1111596e-007 0)
(0.068685547 2.6900498e-007 0)
(0.068686312 4.1243614e-008 0)
(0.068686232 -2.9757068e-008 0)
(0.068686097 -1.6647934e-008 0)
(0.068686056 -1.3839726e-009 0)
(0.068686065 2.2352214e-009 0)
(0.068686073 1.0230976e-009 0)
(0.068686076 1.4554639e-010 0)
(0.068686076 1.1818695e-010 0)
(0.068686076 3.136542e-010 0)
(0.068686077 1.741069e-010 0)
(0.068686075 -2.3749799e-009 0)
(0.068686058 -9.3451349e-009 0)
(0.068686001 -8.0463923e-009 0)
(0.040059235 -0.0068030337 0)
(0.024503058 -0.00011200688 0)
(0.026306135 6.1573572e-006 0)
(0.025727416 1.3976307e-005 0)
(0.026250899 -4.273767e-006 0)
(0.026246711 -2.4235195e-006 0)
(0.026287019 -1.6173259e-006 0)
(0.026261759 -4.6274824e-007 0)
(0.026253972 -1.3354483e-007 0)
(0.026249701 4.4690682e-008 0)
(0.026250819 3.4906124e-008 0)
(0.0262516 9.8727848e-009 0)
(0.026251857 -1.411477e-009 0)
(0.026251781 -1.1474641e-009 0)
(0.026251728 -6.7730541e-011 0)
(0.026251716 3.199537e-010 0)
(0.026251722 1.7093926e-010 0)
(0.026251726 2.684357e-011 0)
(0.026251726 -1.2443578e-011 0)
(0.026251726 3.694365e-011 0)
(0.026251727 6.3088613e-011 0)
(0.026251728 2.9349381e-011 0)
(0.026251727 -4.7452148e-010 0)
(0.026251717 -1.4797238e-009 0)
(0.026251685 -1.1781084e-009 0)
(0.039532623 -0.0031786116 0)
(0.040815153 -0.0040056899 0)
(0.042550789 -0.0037756286 0)
(0.043819968 -0.0031626202 0)
(0.04477013 -0.0025258516 0)
(0.045449236 -0.0019450616 0)
(0.045929662 -0.0015030993 0)
(0.046273348 -0.0011918726 0)
(0.046537059 -0.00099651687 0)
(0.046752598 -0.00091069422 0)
(0.046948021 -0.00093317761 0)
(0.047153663 -0.001074758 0)
(0.047394121 -0.0013494707 0)
(0.047692645 -0.0018046844 0)
(0.048099243 -0.0025095976 0)
(0.048635548 -0.0035498183 0)
(0.049359278 -0.0051003888 0)
(0.050354712 -0.0074769374 0)
(0.051642608 -0.011084553 0)
(0.053156482 -0.016727245 0)
(0.055107657 -0.024450981 0)
(0.055601822 -0.035135982 0)
(0.056191747 -0.046031093 0)
(0.043111802 -0.058509184 0)
(0.036089597 -0.047445742 0)
(0.039768525 -0.0042459498 0)
(0.041279877 -0.0053598405 0)
(0.043221785 -0.004875699 0)
(0.044534221 -0.0040008359 0)
(0.045413009 -0.0031124754 0)
(0.045989408 -0.0023471027 0)
(0.046356824 -0.0017769724 0)
(0.046595219 -0.0013879213 0)
(0.046763622 -0.0011445517 0)
(0.046890902 -0.0010344934 0)
(0.046994754 -0.00104945 0)
(0.047095923 -0.0012002788 0)
(0.047208682 -0.0015020773 0)
(0.047340294 -0.0019960883 0)
(0.04750579 -0.0027588466 0)
(0.047721953 -0.0038769411 0)
(0.047952382 -0.0055122515 0)
(0.048219737 -0.0079775001 0)
(0.048451213 -0.011623299 0)
(0.048305386 -0.017066999 0)
(0.047712149 -0.024194242 0)
(0.045009816 -0.032689206 0)
(0.04027138 -0.039271587 0)
(0.026053362 -0.042013082 0)
(0.01082074 -0.021724913 0)
(0.040151423 -0.0056303253 0)
(0.0419698 -0.0069362008 0)
(0.044117966 -0.0060630779 0)
(0.045400411 -0.0048092518 0)
(0.046143811 -0.0036180096 0)
(0.04656165 -0.0026501533 0)
(0.046776921 -0.0019569601 0)
(0.046882854 -0.0014995643 0)
(0.046937738 -0.0012159809 0)
(0.046959739 -0.0010838904 0)
(0.046964161 -0.0010887968 0)
(0.046951248 -0.0012343052 0)
(0.046930276 -0.001536619 0)
(0.04688998 -0.0020302325 0)
(0.046806216 -0.0027855112 0)
(0.046693772 -0.0038966582 0)
(0.046466452 -0.0054823057 0)
(0.046057349 -0.0078276601 0)
(0.045352744 -0.011213244 0)
(0.043884328 -0.016059248 0)
(0.041351384 -0.022154021 0)
(0.036504627 -0.028526854 0)
(0.029008202 -0.032482127 0)
(0.016140081 -0.031648923 0)
(0.002623156 -0.015249836 0)
(0.04071764 -0.0074792492 0)
(0.04279374 -0.008737338 0)
(0.04498209 -0.0072688147 0)
(0.046067803 -0.0055186997 0)
(0.046561405 -0.0039868419 0)
(0.046752121 -0.0028167153 0)
(0.046768707 -0.0020169588 0)
(0.0467217 -0.001509547 0)
(0.046648039 -0.0012023732 0)
(0.046562071 -0.0010539834 0)
(0.046461866 -0.001045369 0)
(0.046341923 -0.0011737752 0)
(0.04618587 -0.0014507703 0)
(0.045977837 -0.0019139196 0)
(0.0456781 -0.0026050527 0)
(0.04524918 -0.0036194783 0)
(0.044627434 -0.0050538259 0)
(0.043648987 -0.0071165378 0)
(0.042186878 -0.010034138 0)
(0.039762555 -0.014028721 0)
(0.036005643 -0.01882676 0)
(0.030108826 -0.023289639 0)
(0.021917627 -0.025089047 0)
(0.011321785 -0.022218138 0)
(0.00047721229 -0.009748553 0)
(0.041381516 -0.0098805344 0)
(0.043458141 -0.010602504 0)
(0.045252775 -0.0082987889 0)
(0.045861062 -0.0059903495 0)
(0.045940124 -0.0041356766 0)
(0.045822575 -0.0028027105 0)
(0.04560382 -0.0019358077 0)
(0.045392715 -0.0014075065 0)
(0.045189924 -0.0010967138 0)
(0.045001529 -0.00094550058 0)
(0.044808357 -0.00092447579 0)
(0.044592176 -0.0010274295 0)
(0.044325252 -0.0012614831 0)
(0.04397567 -0.0016529272 0)
(0.043506334 -0.0022459037 0)
(0.042828386 -0.0030969307 0)
(0.04189124 -0.0042977076 0)
(0.040505126 -0.0059809597 0)
(0.038514124 -0.0083203296 0)
(0.035512834 -0.011403928 0)
(0.031103613 -0.014932087 0)
(0.024881667 -0.017843237 0)
(0.01694806 -0.018418319 0)
(0.0082723127 -0.015114106 0)
(-5.3361393e-005 -0.0063159153 0)
(0.041849423 -0.012728709 0)
(0.043473685 -0.012129471 0)
(0.044164482 -0.0088242365 0)
(0.043943192 -0.0060227818 0)
(0.043431873 -0.0039623307 0)
(0.042930179 -0.0025628027 0)
(0.042473372 -0.0017005825 0)
(0.042101187 -0.0011953235 0)
(0.041791921 -0.00090984815 0)
(0.041518656 -0.00076820058 0)
(0.041260493 -0.00074008202 0)
(0.040976242 -0.00081170202 0)
(0.040640668 -0.00099246355 0)
(0.040202316 -0.0012936378 0)
(0.039620791 -0.0017513917 0)
(0.038803408 -0.0024051363 0)
(0.037678547 -0.0033192668 0)
(0.036081706 -0.004580815 0)
(0.033834528 -0.0062983809 0)
(0.030629516 -0.0084878844 0)
(0.026125445 -0.010879124 0)
(0.020167753 -0.012648379 0)
(0.013005957 -0.012536685 0)
(0.0061071854 -0.0095743593 0)
(-0.00019284531 -0.003709337 0)
(0.041696892 -0.015677727 0)
(0.042187369 -0.01261459 0)
(0.040962444 -0.0084552502 0)
(0.039618483 -0.0054053494 0)
(0.038418477 -0.0033759282 0)
(0.037516325 -0.0020794278 0)
(0.036864014 -0.0013213135 0)
(0.036375134 -0.0008947781 0)
(0.036001154 -0.00066208249 0)
(0.035687478 -0.00054760768 0)
(0.035399493 -0.00051832675 0)
(0.035096255 -0.0005628969 0)
(0.034739861 -0.00068321682 0)
(0.034284628 -0.00088942282 0)
(0.033677982 -0.0011993497 0)
(0.032845005 -0.0016435843 0)
(0.031698421 -0.0022607286 0)
(0.030106087 -0.0031026931 0)
(0.027900411 -0.0042298793 0)
(0.024854205 -0.0056327751 0)
(0.020725638 -0.0070887378 0)
(0.015502608 -0.0080444866 0)
(0.0095185444 -0.0076630648 0)
(0.0042829983 -0.0054034238 0)
(-0.00023216083 -0.0018434404 0)
(0.040072912 -0.017845427 0)
(0.038769955 -0.011374129 0)
(0.034878335 -0.0069018853 0)
(0.032464998 -0.0040704531 0)
(0.030704896 -0.002391597 0)
(0.029540978 -0.0013994903 0)
(0.028797667 -0.00084559675 0)
(0.028284676 -0.00054793531 0)
(0.027912642 -0.00039287058 0)
(0.02761503 -0.00031723342 0)
(0.0273486 -0.00029499023 0)
(0.027076338 -0.00031685315 0)
(0.026759099 -0.00038204074 0)
(0.026358805 -0.00049698927 0)
(0.025826275 -0.00067019438 0)
(0.025100606 -0.00091820683 0)
(0.024103876 -0.0012620331 0)
(0.022731675 -0.0017290882 0)
(0.020850944 -0.0023489193 0)
(0.01829481 -0.0031027171 0)
(0.01492614 -0.003850219 0)
(0.01079949 -0.0042733757 0)
(0.0062684494 -0.0039024957 0)
(0.0026393187 -0.0024508264 0)
(-0.00022544836 -0.00060738714 0)
(0.034772095 -0.016287988 0)
(0.031947459 -0.007681157 0)
(0.025093864 -0.0042939571 0)
(0.022331179 -0.0022894304 0)
(0.020417103 -0.0012750028 0)
(0.019302593 -0.00070840325 0)
(0.018643298 -0.00040772109 0)
(0.018227252 -0.00025225924 0)
(0.017939883 -0.00017417209 0)
(0.017718935 -0.00013663509 0)
(0.017526756 -0.00012474258 0)
(0.0173339 -0.00013209339 0)
(0.01711248 -0.00015833621 0)
(0.01683369 -0.00020600224 0)
(0.016462945 -0.00027774916 0)
(0.015957506 -0.00038076735 0)
(0.015262829 -0.00052236428 0)
(0.014308026 -0.00071466633 0)
(0.013000993 -0.00096869432 0)
(0.011232918 -0.0012718794 0)
(0.0089308359 -0.0015595748 0)
(0.006187469 -0.0016890057 0)
(0.003267873 -0.0014668563 0)
(0.0011523416 -0.00074236792 0)
(-0.00022809576 -1.1869376e-005 0)
(0.02059169 -0.012061214 0)
(0.01748031 -0.0023182239 0)
(0.010735992 -0.00040324971 0)
(0.009331014 -0.00017608743 0)
(0.0079854365 -6.2653498e-005 0)
(0.0073532556 -2.4908634e-005 0)
(0.0069859159 -8.2829735e-006 0)
(0.0067735677 1.5030482e-007 0)
(0.006636467 3.6691275e-006 0)
(0.0065372266 4.9075432e-006 0)
(0.006454192 5.5424343e-006 0)
(0.0063728495 6.292425e-006 0)
(0.0062808769 7.494887e-006 0)
(0.0061650187 9.0928232e-006 0)
(0.0060105568 1.1634794e-005 0)
(0.0057994928 1.5159975e-005 0)
(0.0055093241 1.9985116e-005 0)
(0.0051112319 2.6367591e-005 0)
(0.0045667135 3.4403461e-005 0)
(0.0038350714 4.5202287e-005 0)
(0.0028907825 5.7794107e-005 0)
(0.0018042059 8.0756893e-005 0)
(0.00067824066 8.8121324e-005 0)
(1.0790189e-005 0.00013675665 0)
(-0.00018857296 0.00014087618 0)
)
;

boundaryField
{
    inlet
    {
        type            fixedValue;
        value           uniform (0.03876 0 0);
    }
    walls
    {
        type            fixedValue;
        value           uniform (0 0 0);
    }
    outlet
    {
        type            zeroGradient;
    }
    centreline
    {
        type            symmetryPlane;
    }
    frontAndBack
    {
        type            empty;
    }
}


// ************************************************************************* //
