/*--------------------------------*- C++ -*----------------------------------*\
| =========                 |                                                 |
| \\      /  F ield         | OpenFOAM: The Open Source CFD Toolbox           |
|  \\    /   O peration     | Version:  5.x                                   |
|   \\  /    A nd           | Web:      www.OpenFOAM.org                      |
|    \\/     M anipulation  |                                                 |
\*---------------------------------------------------------------------------*/
/*   Windows 32 and 64 bit porting by blueCAPE: http://www.bluecape.com.pt   *\
|  Based on Windows porting (2.0.x v4) by Symscape: http://www.symscape.com   |
\*---------------------------------------------------------------------------*/
FoamFile
{
    version     2.0;
    format      ascii;
    class       volVectorField;
    location    "0.17";
    object      U_0;
}
// * * * * * * * * * * * * * * * * * * * * * * * * * * * * * * * * * * * * * //

dimensions      [0 1 -1 0 0 0 0];

internalField   nonuniform List<vector> 
750
(
(0.039263777 -0.00012809271 0)
(0.040335585 -0.00015995308 0)
(0.041773596 -0.00015809338 0)
(0.042902802 -0.00013523726 0)
(0.043922159 -0.00011312886 0)
(0.044716895 -8.9562564e-005 0)
(0.045352686 -7.1532205e-005 0)
(0.04586044 -5.8217027e-005 0)
(0.04628175 -4.9828496e-005 0)
(0.046655805 -4.6450479e-005 0)
(0.04702244 -4.8334674e-005 0)
(0.047427272 -5.6358299e-005 0)
(0.047921079 -7.1522719e-005 0)
(0.048566657 -9.6486163e-005 0)
(0.049460076 -0.00013555665 0)
(0.05072696 -0.00019423271 0)
(0.052552727 -0.00028400217 0)
(0.055253566 -0.00042570047 0)
(0.059331074 -0.0006527833 0)
(0.065618634 -0.0010287136 0)
(0.075757486 -0.0015737268 0)
(0.09043074 -0.002397219 0)
(0.11428572 -0.0033201128 0)
(0.14233973 -0.0042426537 0)
(0.18308834 -0.0047164637 0)
(0.039267151 -0.00038283111 0)
(0.040340832 -0.00048445291 0)
(0.041782811 -0.00047219196 0)
(0.042914204 -0.00040693681 0)
(0.043932431 -0.00033850189 0)
(0.044725802 -0.00026867066 0)
(0.045359639 -0.00021417992 0)
(0.045865007 -0.00017411258 0)
(0.04628383 -0.00014900177 0)
(0.04665532 -0.00013884501 0)
(0.047019205 -0.00014441906 0)
(0.047420787 -0.00016834338 0)
(0.047910097 -0.00021360471 0)
(0.048549772 -0.00028804706 0)
(0.049434727 -0.00040458919 0)
(0.050688511 -0.00057962269 0)
(0.052494686 -0.00084703808 0)
(0.055164549 -0.0012689827 0)
(0.05918845 -0.0019441191 0)
(0.065385669 -0.0030581203 0)
(0.075358335 -0.0046878485 0)
(0.089779422 -0.0071006055 0)
(0.11318641 -0.0099098201 0)
(0.14061188 -0.012562404 0)
(0.18099326 -0.014146718 0)
(0.039272684 -0.00063768566 0)
(0.040351663 -0.00081250038 0)
(0.041801684 -0.00078575836 0)
(0.042936846 -0.00067946349 0)
(0.043953451 -0.00056318272 0)
(0.044744079 -0.00044729066 0)
(0.045373682 -0.00035605141 0)
(0.045874382 -0.00028915424 0)
(0.046288343 -0.00024729712 0)
(0.046654654 -0.00023031795 0)
(0.047013005 -0.00023945276 0)
(0.047408107 -0.00027897964 0)
(0.047888583 -0.00035387969 0)
(0.048516372 -0.00047706974 0)
(0.049384311 -0.00066987073 0)
(0.05061215 -0.00095929418 0)
(0.052378738 -0.0014010376 0)
(0.054985808 -0.0020972852 0)
(0.058903269 -0.0032111447 0)
(0.064920179 -0.0050416084 0)
(0.074566057 -0.0077325003 0)
(0.088452386 -0.011669125 0)
(0.11103549 -0.016344414 0)
(0.13723956 -0.020668778 0)
(0.17674857 -0.023494102 0)
(0.039280429 -0.00089499333 0)
(0.04036815 -0.0011428866 0)
(0.041830362 -0.0011010922 0)
(0.042970894 -0.00095227839 0)
(0.043985483 -0.00078732458 0)
(0.044771963 -0.00062471368 0)
(0.045394891 -0.00049650677 0)
(0.045888657 -0.00040274731 0)
(0.046295374 -0.00034401298 0)
(0.046653952 -0.00032011835 0)
(0.047003967 -0.00033260218 0)
(0.047389401 -0.00038723303 0)
(0.047856903 -0.0004909102 0)
(0.048466928 -0.00066155343 0)
(0.049309538 -0.00092845908 0)
(0.05049922 -0.0013287666 0)
(0.052206948 -0.0019390765 0)
(0.054721156 -0.0028995619 0)
(0.058484011 -0.0044331082 0)
(0.064229674 -0.0069457518 0)
(0.073400094 -0.010644416 0)
(0.086496486 -0.016028582 0)
(0.10787778 -0.022449384 0)
(0.13212318 -0.02837985 0)
(0.17027527 -0.032534345 0)
(0.039290986 -0.0011558699 0)
(0.040390502 -0.0014762744 0)
(0.041869289 -0.0014191536 0)
(0.043016944 -0.0012254324 0)
(0.044028975 -0.0010106708 0)
(0.044809787 -0.0008004855 0)
(0.045423563 -0.00063497376 0)
(0.045908047 -0.00051427987 0)
(0.046305101 -0.00043853371 0)
(0.046653488 -0.00040758289 0)
(0.046992418 -0.00042312965 0)
(0.047365045 -0.00049219454 0)
(0.047815531 -0.00062349621 0)
(0.048402222 -0.00083981743 0)
(0.049211673 -0.0011778568 0)
(0.050351555 -0.0016842507 0)
(0.051982296 -0.0024551154 0)
(0.054375197 -0.0036658035 0)
(0.057937148 -0.005593478 0)
(0.063326462 -0.0087424437 0)
(0.071898058 -0.013372667 0)
(0.083937185 -0.020097639 0)
(0.10372995 -0.028109323 0)
(0.12533351 -0.035598542 0)
(0.16160848 -0.040899157 0)
(0.039305033 -0.0014213588 0)
(0.040419349 -0.0018137448 0)
(0.041919434 -0.0017406699 0)
(0.043076212 -0.0014991074 0)
(0.044084938 -0.0012329399 0)
(0.044858349 -0.00097409939 0)
(0.045460449 -0.00077085979 0)
(0.045933186 -0.00062313852 0)
(0.046318162 -0.000530273 0)
(0.046653962 -0.00049206894 0)
(0.046979148 -0.00051029938 0)
(0.047335892 -0.00059296436 0)
(0.047765489 -0.00075051727 0)
(0.048323626 -0.0010101686 0)
(0.049092184 -0.001415642 0)
(0.050171139 -0.0020220566 0)
(0.051708135 -0.0029436032 0)
(0.053953154 -0.0043876819 0)
(0.057272423 -0.0066767148 0)
(0.06223516 -0.010406686 0)
(0.070080386 -0.015869228 0)
(0.080807567 -0.023798148 0)
(0.098674856 -0.033172923 0)
(0.11688177 -0.042188917 0)
(0.15087795 -0.048473204 0)
(0.039323518 -0.001692807 0)
(0.040455784 -0.0021562489 0)
(0.041982208 -0.0020664909 0)
(0.043150533 -0.0017734508 0)
(0.044154957 -0.0014538127 0)
(0.044918887 -0.0011449947 0)
(0.045506803 -0.00090353399 0)
(0.045965178 -0.00072870543 0)
(0.046335542 -0.00061862699 0)
(0.046656644 -0.00057295219 0)
(0.046965336 -0.00059341857 0)
(0.047303227 -0.0006887375 0)
(0.04770837 -0.00087073165 0)
(0.048232854 -0.0011710326 0)
(0.048953418 -0.0016396085 0)
(0.049961078 -0.0023388856 0)
(0.051389505 -0.003399154 0)
(0.053462964 -0.005056258 0)
(0.056501603 -0.0076697811 0)
(0.060976852 -0.011914093 0)
(0.067979892 -0.018087761 0)
(0.077166475 -0.027052047 0)
(0.092785676 -0.037499529 0)
(0.10673526 -0.047900124 0)
(0.13867865 -0.055271346 0)
(0.039348257 -0.0019721379 0)
(0.040501381 -0.0025045899 0)
(0.042059831 -0.0023978405 0)
(0.043242487 -0.0020485811 0)
(0.044241136 -0.0016728414 0)
(0.044993138 -0.0013125941 0)
(0.045564407 -0.0010323035 0)
(0.046005521 -0.00083030458 0)
(0.046358696 -0.00070301296 0)
(0.046663225 -0.0006496516 0)
(0.04695272 -0.00067175129 0)
(0.047268786 -0.00077865174 0)
(0.047646092 -0.00098314482 0)
(0.048132433 -0.0013209737 0)
(0.048798723 -0.0018475365 0)
(0.04972546 -0.0026317071 0)
(0.051032494 -0.0038175982 0)
(0.052913834 -0.0056647351 0)
(0.05563939 -0.0085613695 0)
(0.059580019 -0.013247269 0)
(0.065639205 -0.01999081 0)
(0.07308687 -0.029801753 0)
(0.086165504 -0.040978074 0)
(0.095496671 -0.052692177 0)
(0.12521289 -0.060088299 0)
(0.039381567 -0.0022615926 0)
(0.040558624 -0.0028600479 0)
(0.042154839 -0.0027358549 0)
(0.043355142 -0.002324638 0)
(0.044345687 -0.0018895462 0)
(0.04508306 -0.0014761182 0)
(0.045635276 -0.0011565025 0)
(0.046055957 -0.0009272325 0)
(0.046389579 -0.00078285316 0)
(0.046675188 -0.00072158599 0)
(0.046943289 -0.00074461075 0)
(0.047234709 -0.00086193281 0)
(0.047581062 -0.0010869528 0)
(0.04802538 -0.0014587272 0)
(0.048631921 -0.0020375021 0)
(0.049469132 -0.0028979512 0)
(0.05064324 -0.0041947695 0)
(0.052316955 -0.0062070044 0)
(0.054703841 -0.0093418184 0)
(0.058061936 -0.014385134 0)
(0.063112581 -0.021538223 0)
(0.068679072 -0.031961379 0)
(0.078986204 -0.043529106 0)
(0.083252363 -0.056638454 0)
(0.11038951 -0.063305036 0)
(0.039424962 -0.002561602 0)
(0.040631022 -0.0032271217 0)
(0.042269948 -0.0030797678 0)
(0.043491466 -0.0026019056 0)
(0.044470629 -0.0021032904 0)
(0.045190377 -0.0016348962 0)
(0.045721058 -0.001275563 0)
(0.046118037 -0.0010189129 0)
(0.046429933 -0.00085756371 0)
(0.046693671 -0.00078817659 0)
(0.046938694 -0.00081151372 0)
(0.047202916 -0.00093804396 0)
(0.047515903 -0.0011811663 0)
(0.047914074 -0.0015832673 0)
(0.048456855 -0.0022081959 0)
(0.049196785 -0.0031354779 0)
(0.050226745 -0.0045279348 0)
(0.051681563 -0.0066798066 0)
(0.053709163 -0.010004634 0)
(0.056448654 -0.015313461 0)
(0.060461482 -0.02274888 0)
(0.064174258 -0.033502578 0)
(0.071271478 -0.045177345 0)
(0.069798188 -0.059265873 0)
(0.09081025 -0.063627502 0)
(0.21554778 -0.0025931316 0)
(0.22525027 -0.00088336845 0)
(0.22816108 -0.00014223131 0)
(0.22770772 5.725112e-005 0)
(0.22730267 7.0813955e-005 0)
(0.22668952 5.574182e-005 0)
(0.22643327 2.3465121e-005 0)
(0.22637016 2.6939692e-006 0)
(0.22639693 -3.1180934e-006 0)
(0.226421 -2.1827837e-006 0)
(0.22642906 -5.3650659e-007 0)
(0.2264283 1.1053336e-007 0)
(0.22642673 1.3261518e-007 0)
(0.22642625 2.6378119e-008 0)
(0.22642637 -1.4942598e-008 0)
(0.22642648 -8.2047493e-009 0)
(0.2264265 -4.3481825e-010 0)
(0.22642648 1.3958883e-009 0)
(0.22642648 7.492789e-010 0)
(0.22642647 2.2507964e-010 0)
(0.22642647 -4.1445337e-011 0)
(0.22642647 -3.8208457e-010 0)
(0.22642648 -7.6708045e-010 0)
(0.22642649 -5.2784298e-010 0)
(0.22642649 -8.2785825e-011 0)
(0.21263811 -0.0074707954 0)
(0.2211468 -0.0025720526 0)
(0.22397092 -0.00034182704 0)
(0.22345747 0.00010298447 0)
(0.22301556 0.00019884605 0)
(0.22247362 0.00015494056 0)
(0.22228072 6.0347445e-005 0)
(0.22224255 5.3106452e-006 0)
(0.22227005 -9.2455255e-006 0)
(0.22229058 -5.9815129e-006 0)
(0.22229645 -1.3032743e-006 0)
(0.22229524 4.3033226e-007 0)
(0.2222938 3.7874833e-007 0)
(0.22229347 6.1429e-008 0)
(0.22229361 -4.2210868e-008 0)
(0.2222937 -2.2913892e-008 0)
(0.22229371 -7.3909389e-010 0)
(0.2222937 3.9536598e-009 0)
(0.22229369 1.8500673e-009 0)
(0.22229369 4.1961938e-010 0)
(0.22229369 1.8912216e-010 0)
(0.22229369 -1.1167644e-009 0)
(0.22229369 -2.7922035e-009 0)
(0.2222937 -2.6759126e-009 0)
(0.22229372 -1.6787657e-009 0)
(0.20669539 -0.011908001 0)
(0.21287762 -0.0040357607 0)
(0.21571517 -0.00056480327 0)
(0.21486191 0.00021361445 0)
(0.21440521 0.00033924285 0)
(0.21406524 0.00022535628 0)
(0.21398778 8.2591936e-005 0)
(0.21398635 4.0543237e-006 0)
(0.21401385 -1.4861504e-005 0)
(0.21402729 -8.8030434e-006 0)
(0.21402946 -1.63671e-006 0)
(0.21402769 7.9435557e-007 0)
(0.21402664 5.7513542e-007 0)
(0.21402655 7.1876003e-008 0)
(0.21402669 -6.7906311e-008 0)
(0.21402675 -3.393267e-008 0)
(0.21402675 -1.6796068e-010 0)
(0.21402674 6.010495e-009 0)
(0.21402674 2.6095551e-009 0)
(0.21402674 4.5387629e-010 0)
(0.21402674 1.7160075e-010 0)
(0.21402674 -1.4072241e-009 0)
(0.21402674 -4.3729291e-009 0)
(0.21402675 -6.832726e-009 0)
(0.21402678 -5.2969084e-009 0)
(0.19740314 -0.015662469 0)
(0.20078458 -0.0052808166 0)
(0.20300152 -0.00064807161 0)
(0.20183279 0.00036028552 0)
(0.2015992 0.00044169972 0)
(0.20149497 0.00025407612 0)
(0.20152999 8.5195557e-005 0)
(0.20155858 -1.8623043e-006 0)
(0.20158073 -1.9097212e-005 0)
(0.20158457 -1.0014832e-005 0)
(0.20158275 -1.3870499e-006 0)
(0.20158083 1.1258428e-006 0)
(0.20158041 6.6607285e-007 0)
(0.20158056 4.8807106e-008 0)
(0.20158068 -8.9918196e-008 0)
(0.2015807 -3.8442781e-008 0)
(0.20158069 1.4365477e-009 0)
(0.20158068 7.3110988e-009 0)
(0.20158068 2.9308045e-009 0)
(0.20158068 4.3397873e-010 0)
(0.20158068 1.4599322e-010 0)
(0.20158068 -1.4590902e-009 0)
(0.20158068 -5.734717e-009 0)
(0.20158069 -1.3227995e-008 0)
(0.20158073 -1.09827e-008 0)
(0.18469553 -0.01848041 0)
(0.18445908 -0.0060863623 0)
(0.18536146 -0.00051309841 0)
(0.18445657 0.00044708414 0)
(0.18458018 0.00045248824 0)
(0.18465512 0.00023760791 0)
(0.18477459 7.0890105e-005 0)
(0.1848148 -9.5325477e-006 0)
(0.18482462 -2.0893419e-005 0)
(0.1848184 -9.4683132e-006 0)
(0.18481379 -6.7738749e-007 0)
(0.18481249 1.3489159e-006 0)
(0.18481282 6.3980021e-007 0)
(0.18481312 4.7778342e-009 0)
(0.18481317 -1.0044284e-007 0)
(0.18481315 -3.5826802e-008 0)
(0.18481313 3.6789973e-009 0)
(0.18481313 7.5121408e-009 0)
(0.18481313 2.6579906e-009 0)
(0.18481313 4.0882359e-010 0)
(0.18481313 1.280202e-010 0)
(0.18481313 -1.1404591e-009 0)
(0.18481313 -6.6394622e-009 0)
(0.18481314 -2.0103383e-008 0)
(0.18481318 -1.7252736e-008 0)
(0.16877255 -0.020314717 0)
(0.16282229 -0.0060213541 0)
(0.16308837 -0.00036135713 0)
(0.16263077 0.00044421802 0)
(0.16307865 0.0004129145 0)
(0.16328806 0.00019423283 0)
(0.1634557 4.8275982e-005 0)
(0.16348702 -1.5395966e-005 0)
(0.16348007 -1.9475946e-005 0)
(0.16346592 -7.4574794e-006 0)
(0.16346078 1.1779506e-007 0)
(0.16346075 1.3493564e-006 0)
(0.16346171 5.1029576e-007 0)
(0.16346202 -3.9215596e-008 0)
(0.16346198 -9.462944e-008 0)
(0.16346191 -2.7352418e-008 0)
(0.1634619 5.4214078e-009 0)
(0.16346191 6.5596173e-009 0)
(0.16346191 2.0757773e-009 0)
(0.16346191 3.9451551e-010 0)
(0.16346191 2.6009709e-010 0)
(0.16346191 -6.8852651e-010 0)
(0.16346191 -6.9605463e-009 0)
(0.16346191 -2.4663724e-008 0)
(0.16346192 -2.1340603e-008 0)
(0.14815818 -0.020401075 0)
(0.13580393 -0.0052674308 0)
(0.13633242 -0.0002273099 0)
(0.1360775 0.00035193986 0)
(0.13676465 0.00032297526 0)
(0.1370437 0.0001338596 0)
(0.1372161 2.5210157e-005 0)
(0.13722437 -1.6620398e-005 0)
(0.13720227 -1.503998e-005 0)
(0.13718467 -4.7639455e-006 0)
(0.13718113 6.3568441e-007 0)
(0.13718246 1.0976658e-006 0)
(0.13718372 3.2698877e-007 0)
(0.1371839 -6.2360348e-008 0)
(0.13718378 -7.3969304e-008 0)
(0.1371837 -1.6407706e-008 0)
(0.1371837 5.8330019e-009 0)
(0.13718371 4.7883435e-009 0)
(0.13718371 1.2618405e-009 0)
(0.13718371 3.1191837e-010 0)
(0.13718371 4.2388392e-010 0)
(0.13718371 -2.3455431e-010 0)
(0.13718371 -6.4054058e-009 0)
(0.1371837 -2.4435886e-008 0)
(0.13718368 -2.1060828e-008 0)
(0.12079857 -0.017861549 0)
(0.10376573 -0.0039485474 0)
(0.10480985 -0.00011943041 0)
(0.10448659 0.00022238768 0)
(0.10531681 0.00020601343 0)
(0.10557612 7.1586449e-005 0)
(0.10571689 7.8895158e-006 0)
(0.10569959 -1.2919496e-005 0)
(0.10567125 -9.005878e-006 0)
(0.10565515 -2.2900184e-006 0)
(0.10565411 7.0348366e-007 0)
(0.10565624 6.8284039e-007 0)
(0.10565739 1.5422481e-007 0)
(0.10565741 -5.6208201e-008 0)
(0.10565725 -4.4566697e-008 0)
(0.10565719 -6.9790099e-009 0)
(0.10565719 4.562384e-009 0)
(0.1056572 2.7475539e-009 0)
(0.10565721 5.4853809e-010 0)
(0.10565721 1.8840479e-010 0)
(0.10565721 4.470039e-010 0)
(0.10565721 8.6817243e-011 0)
(0.1056572 -4.8032345e-009 0)
(0.10565719 -1.86752e-008 0)
(0.10565714 -1.6031302e-008 0)
(0.086204985 -0.012871699 0)
(0.066790938 -0.0022719834 0)
(0.068182365 -1.3873279e-005 0)
(0.067717187 9.3341913e-005 0)
(0.068516153 9.4535907e-005 0)
(0.068671497 2.3036939e-005 0)
(0.068761385 1.9361338e-007 0)
(0.06872966 -6.5691038e-006 0)
(0.068706849 -3.4300243e-006 0)
(0.068695957 -6.3601057e-007 0)
(0.068696845 4.1685643e-007 0)
(0.068698776 2.6729178e-007 0)
(0.068699529 3.9387817e-008 0)
(0.068699443 -3.0193355e-008 0)
(0.068699308 -1.6514045e-008 0)
(0.068699267 -1.2736468e-009 0)
(0.068699276 2.2467228e-009 0)
(0.068699285 1.0101742e-009 0)
(0.068699287 1.395864e-010 0)
(0.068699287 1.1641122e-010 0)
(0.068699288 3.1430664e-010 0)
(0.068699289 1.8347773e-010 0)
(0.068699287 -2.3562805e-009 0)
(0.06869927 -9.3653152e-009 0)
(0.068699212 -8.0836825e-009 0)
(0.040057157 -0.0068028485 0)
(0.024503105 -0.00011180899 0)
(0.026309094 6.2020542e-006 0)
(0.025732668 1.4075252e-005 0)
(0.026257056 -4.2625775e-006 0)
(0.026252657 -2.4332914e-006 0)
(0.026292555 -1.6304043e-006 0)
(0.026267117 -4.6537605e-007 0)
(0.026259341 -1.3296509e-007 0)
(0.026255126 4.485463e-008 0)
(0.026256269 3.4737663e-008 0)
(0.026257049 9.7246499e-009 0)
(0.0262573 -1.479979e-009 0)
(0.026257222 -1.1305244e-009 0)
(0.026257169 -5.1086477e-011 0)
(0.026257157 3.2250475e-010 0)
(0.026257164 1.695156e-010 0)
(0.026257167 2.5757798e-011 0)
(0.026257168 -1.2451573e-011 0)
(0.026257168 3.6808531e-011 0)
(0.026257168 6.3295508e-011 0)
(0.026257169 3.0449711e-011 0)
(0.026257168 -4.7068265e-010 0)
(0.026257159 -1.4894537e-009 0)
(0.026257126 -1.1919085e-009 0)
(0.039531693 -0.0031759912 0)
(0.040813059 -0.0040023521 0)
(0.042546997 -0.0037723244 0)
(0.04381501 -0.0031596549 0)
(0.044764252 -0.0025234174 0)
(0.045442763 -0.0019433195 0)
(0.045922795 -0.0015018856 0)
(0.046266298 -0.0011910699 0)
(0.046529888 -0.0009960206 0)
(0.046745377 -0.00091040733 0)
(0.046940797 -0.00093299848 0)
(0.047146452 -0.0010746552 0)
(0.047386933 -0.0013494172 0)
(0.04768549 -0.0018046044 0)
(0.048092123 -0.0025094447 0)
(0.048628515 -0.0035495147 0)
(0.049352274 -0.0050997081 0)
(0.050347742 -0.0074754632 0)
(0.051635657 -0.011082055 0)
(0.05314952 -0.016724478 0)
(0.055101119 -0.024450263 0)
(0.055596363 -0.035139912 0)
(0.056188034 -0.046039473 0)
(0.043110039 -0.058518718 0)
(0.036087999 -0.047452007 0)
(0.039767115 -0.0042420965 0)
(0.041277201 -0.0053551763 0)
(0.043217329 -0.0048713699 0)
(0.044528666 -0.0039970827 0)
(0.045406661 -0.0031095113 0)
(0.04598255 -0.0023450068 0)
(0.046349713 -0.0017755874 0)
(0.046588053 -0.001387041 0)
(0.046756423 -0.001144023 0)
(0.04688373 -0.001034201 0)
(0.046987614 -0.0010492901 0)
(0.047088829 -0.0012002056 0)
(0.047201668 -0.0015020574 0)
(0.047333359 -0.0019960583 0)
(0.047498946 -0.0027587504 0)
(0.047715255 -0.0038767275 0)
(0.047945903 -0.0055116916 0)
(0.048213503 -0.0079761492 0)
(0.048445423 -0.011620972 0)
(0.048300188 -0.017064627 0)
(0.047707818 -0.024194209 0)
(0.045006576 -0.032694256 0)
(0.040269637 -0.039281325 0)
(0.026052915 -0.042023533 0)
(0.010820676 -0.021731739 0)
(0.040149621 -0.0056248617 0)
(0.041967058 -0.0069302036 0)
(0.044113822 -0.0060578168 0)
(0.045395512 -0.0048048273 0)
(0.046138355 -0.0036146055 0)
(0.046555856 -0.0026478328 0)
(0.046771051 -0.0019555143 0)
(0.046877046 -0.0014986898 0)
(0.046932006 -0.0012154803 0)
(0.0469541 -0.0010836391 0)
(0.046958583 -0.00108869 0)
(0.046945773 -0.0012342919 0)
(0.046924888 -0.0015366685 0)
(0.046884726 -0.0020303 0)
(0.046801114 -0.0027855412 0)
(0.046688854 -0.0038965984 0)
(0.046461843 -0.0054819909 0)
(0.046053179 -0.0078267082 0)
(0.045349308 -0.011211503 0)
(0.043881899 -0.016057579 0)
(0.041350146 -0.022154789 0)
(0.036504379 -0.028532779 0)
(0.029008576 -0.03249273 0)
(0.016140803 -0.031659667 0)
(0.0026237965 -0.015256283 0)
(0.040715937 -0.0074722164 0)
(0.042792102 -0.0087305063 0)
(0.044980096 -0.0072630659 0)
(0.046065757 -0.0055139155 0)
(0.04655925 -0.0039832032 0)
(0.046749892 -0.0028143216 0)
(0.046766614 -0.0020155616 0)
(0.046719754 -0.0015087654 0)
(0.046646276 -0.0012019605 0)
(0.046560433 -0.0010538147 0)
(0.046460345 -0.0010453415 0)
(0.046340515 -0.001173841 0)
(0.04618455 -0.0014509107 0)
(0.045976649 -0.0019140935 0)
(0.045677079 -0.0026052436 0)
(0.045248352 -0.003619625 0)
(0.044626902 -0.0050538169 0)
(0.043648935 -0.0071161075 0)
(0.042187592 -0.010033129 0)
(0.039764374 -0.014027963 0)
(0.036008675 -0.018828369 0)
(0.030112394 -0.023295937 0)
(0.02192052 -0.02509957 0)
(0.01132366 -0.022228568 0)
(0.00047744083 -0.0097544148 0)
(0.041380711 -0.0098727403 0)
(0.043458802 -0.010595968 0)
(0.04525458 -0.0082933908 0)
(0.045863744 -0.005985761 0)
(0.045943339 -0.0041321375 0)
(0.045826082 -0.0028004255 0)
(0.045607647 -0.0019345695 0)
(0.0453968 -0.0014068957 0)
(0.045194231 -0.001096436 0)
(0.045005985 -0.00094543251 0)
(0.044812942 -0.00092452962 0)
(0.044596828 -0.0010275702 0)
(0.044329979 -0.0012617048 0)
(0.043980467 -0.0016531939 0)
(0.043511225 -0.0022462103 0)
(0.042833407 -0.0030972539 0)
(0.041896442 -0.0042979515 0)
(0.04051066 -0.0059809524 0)
(0.03852025 -0.008319989 0)
(0.035519796 -0.011403961 0)
(0.031111375 -0.014934149 0)
(0.024889207 -0.017849121 0)
(0.016953656 -0.018427516 0)
(0.0082752495 -0.015123024 0)
(-5.3564542e-005 -0.0063207952 0)
(0.041850163 -0.012721648 0)
(0.043476784 -0.012124534 0)
(0.044169992 -0.0088200814 0)
(0.043950329 -0.0060190288 0)
(0.043440194 -0.0039593363 0)
(0.042939246 -0.0025608876 0)
(0.042482884 -0.0016995893 0)
(0.042111043 -0.0011949088 0)
(0.041801979 -0.00090972325 0)
(0.041528858 -0.00076822868 0)
(0.041270766 -0.00074020116 0)
(0.040986543 -0.0008118813 0)
(0.040650978 -0.00099270823 0)
(0.040212614 -0.0012939369 0)
(0.039631061 -0.0017517319 0)
(0.038813677 -0.0024055225 0)
(0.037688818 -0.0033196295 0)
(0.036092047 -0.0045810422 0)
(0.033845118 -0.0062984494 0)
(0.030640503 -0.0084883176 0)
(0.026136597 -0.010881128 0)
(0.020177887 -0.012653084 0)
(0.013013192 -0.012543564 0)
(0.0061108477 -0.0095807768 0)
(-0.00019315384 -0.0037129347 0)
(0.041699009 -0.015672664 0)
(0.042191588 -0.012611835 0)
(0.040969357 -0.0084527655 0)
(0.039627327 -0.005402896 0)
(0.038428842 -0.0033738154 0)
(0.037527747 -0.0020780677 0)
(0.036875991 -0.0013206589 0)
(0.036387423 -0.00089456176 0)
(0.036013607 -0.00066207713 0)
(0.035700011 -0.00054769572 0)
(0.03541204 -0.00051846188 0)
(0.03510878 -0.00056306751 0)
(0.034752326 -0.00068342603 0)
(0.034297004 -0.00088967073 0)
(0.033690243 -0.0011996338 0)
(0.032857142 -0.0016439052 0)
(0.031710411 -0.0022610428 0)
(0.030117944 -0.0031029234 0)
(0.027912243 -0.0042300289 0)
(0.024866033 -0.0056332014 0)
(0.020737089 -0.0070902091 0)
(0.015512678 -0.008047551 0)
(0.0095255078 -0.0076672293 0)
(0.0042866298 -0.0054070559 0)
(-0.00023244441 -0.0018456427 0)
(0.040075445 -0.017842893 0)
(0.038773455 -0.011373241 0)
(0.034883843 -0.0069010097 0)
(0.032472087 -0.0040693817 0)
(0.030713359 -0.0023905516 0)
(0.029550451 -0.0013987813 0)
(0.028807688 -0.0008452737 0)
(0.028294929 -0.00054787534 0)
(0.027922974 -0.00039292841 0)
(0.027625367 -0.0003173308 0)
(0.027358899 -0.00029509901 0)
(0.027086576 -0.00031697117 0)
(0.026769247 -0.00038217028 0)
(0.026368837 -0.0004971321 0)
(0.025836168 -0.0006703556 0)
(0.025110337 -0.0009183806 0)
(0.02411342 -0.0012621893 0)
(0.022741037 -0.0017291836 0)
(0.020860198 -0.0023489609 0)
(0.018303955 -0.0031028903 0)
(0.014934788 -0.0038508925 0)
(0.010806856 -0.0042747781 0)
(0.0062733314 -0.003904268 0)
(0.0026420207 -0.0024521327 0)
(-0.00022557548 -0.00060832647 0)
(0.034773715 -0.016287144 0)
(0.031949363 -0.0076809754 0)
(0.025096524 -0.0042937341 0)
(0.02233455 -0.0022891294 0)
(0.0204213 -0.0012746467 0)
(0.019307407 -0.00070815521 0)
(0.018648468 -0.0004076245 0)
(0.018232529 -0.00025227355 0)
(0.017945152 -0.00017423302 0)
(0.017724154 -0.00013670549 0)
(0.017531914 -0.00012481111 0)
(0.01733899 -0.00013216107 0)
(0.017117492 -0.00015840333 0)
(0.016838617 -0.00020607356 0)
(0.016467775 -0.00027782776 0)
(0.015962227 -0.0003808498 0)
(0.015267436 -0.00052243613 0)
(0.01431254 -0.00071471158 0)
(0.013005469 -0.00096871095 0)
(0.011237359 -0.0012719093 0)
(0.0089350445 -0.0015597443 0)
(0.0061909738 -0.0016894307 0)
(0.0032700043 -0.0014673467 0)
(0.0011536128 -0.00074256021 0)
(-0.00022812546 -1.2094713e-005 0)
(0.020592157 -0.012061496 0)
(0.017480842 -0.0023183636 0)
(0.010736523 -0.00040350173 0)
(0.0093315376 -0.00017629795 0)
(0.0079861342 -6.2769643e-005 0)
(0.0073541197 -2.4964322e-005 0)
(0.0069868862 -8.308873e-006 0)
(0.0067745403 1.3636581e-007 0)
(0.0066373971 3.6595607e-006 0)
(0.0065381015 4.9011877e-006 0)
(0.0064550146 5.5399508e-006 0)
(0.0063736236 6.2936176e-006 0)
(0.0062816053 7.4998614e-006 0)
(0.0061657021 9.1011863e-006 0)
(0.0060111925 1.1647449e-005 0)
(0.0058000777 1.5179172e-005 0)
(0.0055098631 2.0013388e-005 0)
(0.0051117425 2.64061e-005 0)
(0.0045672269 3.4456392e-005 0)
(0.0038356168 4.5275502e-005 0)
(0.002891318 5.7900329e-005 0)
(0.0018046356 8.093057e-005 0)
(0.00067831897 8.8305572e-005 0)
(1.089342e-005 0.00013699073 0)
(-0.00018855513 0.00014098648 0)
)
;

boundaryField
{
    inlet
    {
        type            fixedValue;
        value           uniform (0.03876 0 0);
    }
    walls
    {
        type            fixedValue;
        value           uniform (0 0 0);
    }
    outlet
    {
        type            zeroGradient;
    }
    centreline
    {
        type            symmetryPlane;
    }
    frontAndBack
    {
        type            empty;
    }
}


// ************************************************************************* //
