# vtk DataFile Version 2.0
track0
ASCII
DATASET POLYDATA
POINTS 11980 float
-0.0205 0.001 1e-005
-0.0202034 0.00100022 1e-005
-0.0199069 0.00100067 1e-005
-0.0196103 0.00100132 1e-005
-0.0193137 0.00100219 1e-005
-0.0190172 0.00100326 1e-005
-0.0187132 0.00100466 1e-005
-0.0184093 0.00100588 1e-005
-0.0181054 0.0010071 1e-005
-0.0178015 0.00100832 1e-005
-0.0174976 0.00100953 1e-005
-0.0172058 0.00101083 1e-005
-0.016914 0.00101193 1e-005
-0.0166222 0.00101303 1e-005
-0.0163305 0.00101413 1e-005
-0.0160387 0.00101522 1e-005
-0.0157586 0.00101636 1e-005
-0.0154784 0.00101744 1e-005
-0.0151983 0.00101856 1e-005
-0.0149182 0.00101971 1e-005
-0.0146381 0.0010209 1e-005
-0.0143744 0.00102208 1e-005
-0.0141107 0.00102327 1e-005
-0.0138469 0.00102449 1e-005
-0.0135832 0.00102574 1e-005
-0.0133605 0.00102682 1e-005
-0.0133471 0.00102688 1e-005
-0.0133337 0.00102695 1e-005
-0.0133203 0.00102702 1e-005
-0.0133069 0.00102708 1e-005
-0.0132934 0.00102715 1e-005
-0.0130353 0.00102844 1e-005
-0.0127771 0.00102974 1e-005
-0.0125189 0.00103106 1e-005
-0.0122607 0.00103239 1e-005
-0.0120025 0.00103374 1e-005
-0.0117547 0.00103505 1e-005
-0.0115068 0.00103637 1e-005
-0.0112589 0.00103768 1e-005
-0.0110111 0.00103901 1e-005
-0.0107632 0.00104034 1e-005
-0.0105252 0.00104161 1e-005
-0.0102873 0.00104289 1e-005
-0.0100493 0.00104417 1e-005
-0.00981133 0.00104545 1e-005
-0.00957337 0.00104672 1e-005
-0.00934491 0.00104794 1e-005
-0.00911645 0.00104916 1e-005
-0.00888799 0.00105038 1e-005
-0.00865954 0.0010516 1e-005
-0.00843108 0.00105281 1e-005
-0.00821175 0.00105396 1e-005
-0.00799242 0.00105512 1e-005
-0.00777309 0.00105627 1e-005
-0.00755376 0.00105742 1e-005
-0.00733443 0.00105856 1e-005
-0.00712387 0.00105965 1e-005
-0.0069133 0.00106074 1e-005
-0.00670273 0.00106182 1e-005
-0.00649216 0.0010629 1e-005
-0.0062816 0.00106398 1e-005
-0.00607944 0.001065 1e-005
-0.00587729 0.00106603 1e-005
-0.00567514 0.00106705 1e-005
-0.00547298 0.00106806 1e-005
-0.00527083 0.00106907 1e-005
-0.00507675 0.00107003 1e-005
-0.00488267 0.00107099 1e-005
-0.0046886 0.00107195 1e-005
-0.00449452 0.0010729 1e-005
-0.00430044 0.00107385 1e-005
-0.00411412 0.00107475 1e-005
-0.0039278 0.00107566 1e-005
-0.00374147 0.00107656 1e-005
-0.00355515 0.00107745 1e-005
-0.00336883 0.00107835 1e-005
-0.00318995 0.00107919 1e-005
-0.00301107 0.00108004 1e-005
-0.00283219 0.00108089 1e-005
-0.00265331 0.00108173 1e-005
-0.00247443 0.00108258 1e-005
-0.0023027 0.00108338 1e-005
-0.00213097 0.00108418 1e-005
-0.00195924 0.00108498 1e-005
-0.0017875 0.00108577 1e-005
-0.00161577 0.00108657 1e-005
-0.0014509 0.00108732 1e-005
-0.00128603 0.00108808 1e-005
-0.00112116 0.00108884 1e-005
-0.000956289 0.00108959 1e-005
-0.000791418 0.00109035 1e-005
-0.000633135 0.00109106 1e-005
-0.000474851 0.00109179 1e-005
-0.000316567 0.00109251 1e-005
-0.000158284 0.00109322 1e-005
0 0.00109393 1e-005
0.000105677 0.0010944 1e-005
0.000211355 0.00109487 1e-005
0.000317032 0.00109534 1e-005
0.00042271 0.0010958 1e-005
0.000528387 0.00109626 1e-005
0.000634886 0.00109672 1e-005
0.000741385 0.00109718 1e-005
0.000847885 0.00109763 1e-005
0.000954384 0.00109808 1e-005
0.00106088 0.00109853 1e-005
0.00116821 0.00109897 1e-005
0.00127554 0.00109941 1e-005
0.00138286 0.00109985 1e-005
0.00149019 0.00110028 1e-005
0.00159752 0.0011007 1e-005
0.00170568 0.00110112 1e-005
0.00181384 0.00110154 1e-005
0.001922 0.00110195 1e-005
0.00203016 0.00110235 1e-005
0.00213833 0.00110274 1e-005
0.00224733 0.00110312 1e-005
0.00235633 0.0011035 1e-005
0.00246533 0.00110387 1e-005
0.00257434 0.00110423 1e-005
0.00268334 0.00110458 1e-005
0.00279319 0.00110493 1e-005
0.00290304 0.00110527 1e-005
0.00301289 0.0011056 1e-005
0.00312274 0.00110592 1e-005
0.00323259 0.00110624 1e-005
0.00334329 0.00110655 1e-005
0.003454 0.00110685 1e-005
0.0035647 0.00110715 1e-005
0.0036754 0.00110744 1e-005
0.00378611 0.00110772 1e-005
0.00389767 0.00110799 1e-005
0.00400924 0.00110825 1e-005
0.0041208 0.00110852 1e-005
0.00423237 0.00110877 1e-005
0.00434393 0.00110901 1e-005
0.00445636 0.00110925 1e-005
0.00456879 0.00110948 1e-005
0.00468123 0.0011097 1e-005
0.00479366 0.00110992 1e-005
0.00490609 0.00111013 1e-005
0.0050194 0.00111033 1e-005
0.0051327 0.00111052 1e-005
0.00524601 0.00111071 1e-005
0.00535932 0.00111089 1e-005
0.00547262 0.00111106 1e-005
0.00558681 0.00111122 1e-005
0.005701 0.00111138 1e-005
0.00581518 0.00111153 1e-005
0.00592937 0.00111167 1e-005
0.00604356 0.00111181 1e-005
0.00615863 0.00111193 1e-005
0.00627371 0.00111206 1e-005
0.00638878 0.00111217 1e-005
0.00650386 0.00111228 1e-005
0.00661893 0.00111237 1e-005
0.0067349 0.00111246 1e-005
0.00685087 0.00111255 1e-005
0.00696684 0.00111263 1e-005
0.00708281 0.0011127 1e-005
0.00719878 0.00111276 1e-005
0.00726202 0.00111279 1e-005
0.00732526 0.00111282 1e-005
0.00738849 0.00111284 1e-005
0.00745173 0.00111286 1e-005
0.00751313 0.00111288 1e-005
0.00756713 0.0011129 1e-005
0.00762113 0.00111291 1e-005
0.00767513 0.00111293 1e-005
0.00772913 0.00111294 1e-005
0.00778313 0.00111295 1e-005
0.00790091 0.00111296 1e-005
0.00801869 0.00111297 1e-005
0.00813647 0.00111298 1e-005
0.00825425 0.00111297 1e-005
0.00837203 0.00111296 1e-005
0.00849073 0.00111293 1e-005
0.00860942 0.0011129 1e-005
0.00872812 0.00111286 1e-005
0.00884682 0.00111282 1e-005
0.00896551 0.00111277 1e-005
0.00908513 0.0011127 1e-005
0.00920475 0.00111263 1e-005
0.00932437 0.00111255 1e-005
0.00944398 0.00111247 1e-005
0.0095636 0.00111237 1e-005
0.00968415 0.00111226 1e-005
0.0098047 0.00111215 1e-005
0.00992525 0.00111204 1e-005
0.0100458 0.00111191 1e-005
0.0101663 0.00111178 1e-005
0.0102878 0.00111162 1e-005
0.0104093 0.00111147 1e-005
0.0105308 0.00111131 1e-005
0.0106523 0.00111114 1e-005
0.0107738 0.00111097 1e-005
0.0108962 0.00111077 1e-005
0.0110186 0.00111058 1e-005
0.0111411 0.00111037 1e-005
0.0112635 0.00111016 1e-005
0.0113859 0.00110995 1e-005
0.0115093 0.0011097 1e-005
0.0116327 0.00110946 1e-005
0.0117561 0.00110922 1e-005
0.0118795 0.00110896 1e-005
0.0120028 0.0011087 1e-005
0.0121272 0.00110841 1e-005
0.0122515 0.00110813 1e-005
0.0123759 0.00110784 1e-005
0.0125002 0.00110754 1e-005
0.0126245 0.00110724 1e-005
0.0127498 0.0011069 1e-005
0.0128752 0.00110658 1e-005
0.0130005 0.00110624 1e-005
0.0131258 0.0011059 1e-005
0.0132511 0.00110554 1e-005
0.0133774 0.00110517 1e-005
0.0135036 0.00110479 1e-005
0.0136299 0.00110441 1e-005
0.0137562 0.00110402 1e-005
0.0138825 0.00110362 1e-005
0.0140098 0.0011032 1e-005
0.014137 0.00110277 1e-005
0.0142643 0.00110234 1e-005
0.0143915 0.0011019 1e-005
0.0145188 0.00110146 1e-005
0.0146471 0.00110099 1e-005
0.0147753 0.00110052 1e-005
0.0149036 0.00110004 1e-005
0.0150318 0.00109955 1e-005
0.0151601 0.00109905 1e-005
0.0152893 0.00109854 1e-005
0.0154186 0.00109802 1e-005
0.0155478 0.00109749 1e-005
0.0156771 0.00109695 1e-005
0.0158063 0.00109641 1e-005
0.0159366 0.00109585 1e-005
0.0160668 0.00109528 1e-005
0.0161971 0.0010947 1e-005
0.0163274 0.00109411 1e-005
0.0164576 0.00109352 1e-005
0.0165889 0.00109291 1e-005
0.0167201 0.00109229 1e-005
0.0168514 0.00109167 1e-005
0.0169827 0.00109103 1e-005
0.0171139 0.00109038 1e-005
0.0172462 0.00108973 1e-005
0.0173785 0.00108906 1e-005
0.0175108 0.00108839 1e-005
0.0176431 0.0010877 1e-005
0.0177754 0.00108701 1e-005
0.0179087 0.0010863 1e-005
0.018042 0.00108559 1e-005
0.0181753 0.00108486 1e-005
0.0183087 0.00108412 1e-005
0.018442 0.00108338 1e-005
0.0185763 0.00108263 1e-005
0.0187107 0.00108187 1e-005
0.018845 0.00108109 1e-005
0.0189794 0.0010803 1e-005
0.0191137 0.00107951 1e-005
0.0192491 0.00107871 1e-005
0.0193845 0.0010779 1e-005
0.0195199 0.00107707 1e-005
0.0196553 0.00107623 1e-005
0.0197907 0.00107539 1e-005
0.0199272 0.00107455 1e-005
0.0200636 0.00107369 1e-005
0.0202001 0.0010728 1e-005
0.0203365 0.00107191 1e-005
0.020473 0.00107103 1e-005
0.0206105 0.00107014 1e-005
0.020748 0.00106923 1e-005
0.0208855 0.00106829 1e-005
0.021023 0.00106735 1e-005
0.0211606 0.00106642 1e-005
0.0212991 0.00106548 1e-005
0.0214377 0.00106452 1e-005
0.0215763 0.00106354 1e-005
0.0217149 0.00106255 1e-005
0.0218535 0.00106156 1e-005
0.0219931 0.00106058 1e-005
0.0221328 0.00105957 1e-005
0.0222724 0.00105854 1e-005
0.0224121 0.0010575 1e-005
0.0225517 0.00105646 1e-005
0.0226925 0.00105543 1e-005
0.0228332 0.00105437 1e-005
0.022974 0.00105329 1e-005
0.0231147 0.0010522 1e-005
0.0232555 0.00105112 1e-005
0.0233973 0.00105003 1e-005
0.0235391 0.00104893 1e-005
0.023681 0.00104779 1e-005
0.0238228 0.00104665 1e-005
0.0239647 0.00104552 1e-005
0.0241076 0.00104439 1e-005
0.0242505 0.00104323 1e-005
0.0243935 0.00104205 1e-005
0.0245364 0.00104086 1e-005
0.0246794 0.00103967 1e-005
0.0248234 0.00103849 1e-005
0.0249675 0.00103729 1e-005
0.0251115 0.00103605 1e-005
0.0252556 0.00103481 1e-005
0.0253996 0.00103358 1e-005
0.0255448 0.00103235 1e-005
0.02569 0.00103109 1e-005
0.0258351 0.0010298 1e-005
0.0259803 0.00102851 1e-005
0.0261255 0.00102723 1e-005
0.0262718 0.00102595 1e-005
0.0264181 0.00102464 1e-005
0.0265644 0.0010233 1e-005
0.0267107 0.00102196 1e-005
0.026857 0.00102063 1e-005
0.0270044 0.00101929 1e-005
0.0271519 0.00101793 1e-005
0.0272993 0.00101654 1e-005
0.0274468 0.00101515 1e-005
0.0275942 0.00101376 1e-005
0.0277428 0.00101237 1e-005
0.0278914 0.00101095 1e-005
0.0280399 0.00100952 1e-005
0.0281885 0.00100808 1e-005
0.0283371 0.00100663 1e-005
0.0284869 0.00100519 1e-005
0.0286366 0.00100371 1e-005
0.0287863 0.00100222 1e-005
0.0289361 0.00100073 1e-005
0.0290858 0.000999228 1e-005
0.0292367 0.000997726 1e-005
0.0293876 0.000996194 1e-005
0.0295385 0.000994651 1e-005
0.0296894 0.0009931 1e-005
0.0298403 0.000991542 1e-005
0.0299924 0.00098998 1e-005
0.0301445 0.00098839 1e-005
0.0302966 0.00098679 1e-005
0.0304486 0.000985182 1e-005
0.0306007 0.000983565 1e-005
0.030754 0.000981943 1e-005
0.0309072 0.000980294 1e-005
0.0310605 0.000978636 1e-005
0.0312138 0.000976969 1e-005
0.031367 0.000975293 1e-005
0.0315215 0.000973607 1e-005
[...]
POINT_DATA 11980
 FIELD attributes 1
U 3 11980 float
10.0004 	0.00731842 	0 10.0024 	0.0151689 	0 10.0045 	0.0221878 	0 10.0065 	0.0291625 	0 10.0085 	0.0360933 	0 10.0135 	0.0463086 	0 10.0163 	0.0402073 	0 10.0207 	0.0401649 	0 10.0252 	0.0401227 	0 10.0296 	0.0400807 	0 10.0356 	0.0445403 	0 10.0385 	0.0378985 	0 10.0424 	0.0378533 	0 10.0464 	0.0378081 	0 10.0504 	0.0377628 	0 10.0545 	0.0408632 	0 10.0567 	0.0387841 	0 10.0592 	0.0400923 	0 10.0616 	0.0414021 	0 10.0641 	0.0427135 	0 10.0662 	0.0451712 	0 10.0677 	0.0452814 	0 10.0691 	0.0464833 	0 10.0704 	0.0476864 	0 10.0718 	0.0488906 	0 10.0729 	0.0499086 	0 10.073 	0.0499703 	0 10.073 	0.0500321 	0 10.0731 	0.0500938 	0 10.0732 	0.0501555 	0 10.0732 	0.0502079 	0 10.0738 	0.0508332 	0 10.0743 	0.0514526 	0 10.0748 	0.0520726 	0 10.0753 	0.052693 	0 10.0758 	0.0531495 	0 10.0757 	0.0534437 	0 10.0754 	0.0536325 	0 10.075 	0.0538214 	0 10.0747 	0.0540104 	0 10.0742 	0.053961 	0 10.0737 	0.0541041 	0 10.0727 	0.0540789 	0 10.0716 	0.0540537 	0 10.0705 	0.0540285 	0 10.069 	0.053734 	0 10.0686 	0.053812 	0 10.067 	0.0536763 	0 10.0653 	0.0535406 	0 10.0637 	0.0534048 	0 10.0612 	0.0529825 	0 10.0612 	0.0530336 	0 10.0592 	0.0528361 	0 10.0572 	0.0526385 	0 10.0552 	0.0524408 	0 10.0516 	0.0519439 	0 10.0522 	0.0519927 	0 10.0499 	0.0517678 	0 10.0476 	0.0515428 	0 10.0453 	0.0513177 	0 10.0407 	0.0507853 	0 10.0422 	0.0508524 	0 10.0397 	0.050621 	0 10.0372 	0.0503896 	0 10.0347 	0.0501581 	0 10.029 	0.0496055 	0 10.0314 	0.0496962 	0 10.0288 	0.0494735 	0 10.0262 	0.0492506 	0 10.0235 	0.0490277 	0 10.0167 	0.048476 	0 10.0203 	0.0485983 	0 10.0176 	0.0483843 	0 10.0149 	0.0481702 	0 10.0122 	0.047956 	0 10.0041 	0.0473947 	0 10.009 	0.0475448 	0 10.0063 	0.0473714 	0 10.0035 	0.047198 	0 10.0008 	0.0470246 	0 9.99161 	0.0465119 	0 9.9978 	0.0467166 	0 9.99513 	0.0465463 	0 9.99246 	0.0463759 	0 9.98978 	0.0462055 	0 9.97938 	0.0456457 	0 9.98693 	0.0458503 	0 9.98434 	0.0457882 	0 9.98175 	0.045726 	0 9.97916 	0.0456638 	0 9.96758 	0.0452587 	0 9.97658 	0.0455089 	9.22556e-022 9.97457 	0.0453131 	5.95469e-021 9.97255 	0.0451173 	1.0987e-020 9.97054 	0.0449215 	1.60195e-020 9.95846 	0.0442742 	1.36142e-020 9.96866 	0.0443542 	9.34165e-020 9.96683 	0.0440223 	8.66891e-020 9.96499 	0.0436904 	7.99579e-020 9.96316 	0.0433584 	7.32229e-020 9.95087 	0.0426661 	-1.4857e-020 9.9609 	0.042627 	-4.02527e-020 9.95911 	0.0423399 	-4.47859e-020 9.95732 	0.0420527 	-4.93176e-020 9.95553 	0.0417655 	-5.38479e-020 9.94346 	0.0412009 	-2.12757e-020 9.95303 	0.041006 	-1.87117e-020 9.95111 	0.0404574 	-1.30304e-020 9.94918 	0.0399088 	-7.34948e-021 9.94726 	0.03936 	-1.66901e-021 9.93542 	0.038586 	6.95451e-021 9.94458 	0.0382707 	-5.729e-021 9.94248 	0.0374699 	-2.41917e-020 9.94036 	0.0366688 	-4.26564e-020 9.93825 	0.0358676 	-6.11231e-020 9.92653 	0.0348058 	-8.71152e-020 9.93511 	0.034551 	-1.22691e-019 9.93266 	0.0337343 	-1.10418e-019 9.9302 	0.0329174 	-9.81371e-020 9.92773 	0.0321003 	-8.58489e-020 9.91603 	0.0309056 	-2.97107e-020 9.92387 	0.0307739 	3.35974e-020 9.92103 	0.0300345 	4.69655e-020 9.91817 	0.0292948 	6.03244e-020 9.91532 	0.0285549 	7.36739e-020 9.90369 	0.0273351 	3.65231e-020 9.9107 	0.027248 	-4.51803e-020 9.90748 	0.0265461 	-5.11877e-020 9.90425 	0.025844 	-5.71809e-020 9.90101 	0.0251416 	-6.31599e-020 9.88957 	0.023931 	-3.39062e-022 9.89563 	0.0238069 	5.88147e-020 9.892 	0.0231116 	4.94801e-020 9.88836 	0.0224162 	4.01313e-020 9.88473 	0.0217204 	3.07683e-020 9.87354 	0.0205557 	-2.85619e-020 9.87845 	0.0203665 	-8.2227e-020 9.87437 	0.0196781 	-1.04205e-019 9.87029 	0.0189895 	-1.26177e-019 9.8662 	0.0183006 	-1.48145e-019 9.85537 	0.0172155 	-1.358e-019 9.8589 	0.0169564 	-1.54149e-019 9.85435 	0.0162795 	-1.41825e-019 9.8498 	0.0156024 	-1.29496e-019 9.84523 	0.014925 	-1.17163e-019 9.83492 	0.0139367 	-8.3108e-020 9.83683 	0.0136144 	-6.97061e-020 9.8318 	0.0129546 	-5.13923e-020 9.82677 	0.0122946 	-3.30801e-020 9.82173 	0.0116343 	-1.47696e-020 9.81217 	0.0107471 	1.94446e-021 9.81215 	0.0103567 	0 9.80666 	0.00970985 	0 9.80117 	0.00906272 	0 9.79567 	0.0084153 	0 9.78715 	0.00762467 	0 9.78484 	0.00715212 	-1.66107e-020 9.7789 	0.00651202 	-3.53818e-020 9.77295 	0.00587161 	-5.41546e-020 9.767 	0.00523089 	-7.29291e-020 9.75988 	0.00453664 	-9.22022e-020 9.75781 	0.00425771 	-9.52105e-020 9.75436 	0.00391491 	-9.56092e-020 9.7509 	0.00357201 	-9.60064e-020 9.74744 	0.00322901 	-9.64021e-020 9.74407 	0.00289592 	-9.67848e-020 9.74108 	0.00260126 	-9.76386e-020 9.73809 	0.00230652 	-9.84927e-020 9.73509 	0.00201171 	-9.93471e-020 9.73209 	0.00171682 	-1.00202e-019 9.72616 	0.00129042 	-1.00191e-019 9.72197 	0.000781601 	-7.53666e-020 9.71506 	0.000152065 	-4.65634e-020 9.70815 	-0.000477852 	-1.77695e-020 9.70122 	-0.00110815 	1.10151e-020 9.68496 	-0.0021468 	4.9247e-020 9.68622 	-0.00239946 	5.0108e-020 9.67888 	-0.00302218 	5.12425e-020 9.67153 	-0.00364531 	5.23749e-020 9.66418 	-0.00426885 	5.35051e-020 9.64125 	-0.00555049 	5.68215e-020 9.64781 	-0.00557688 	4.47506e-020 9.64007 	-0.00619288 	3.26772e-020 9.63231 	-0.00680932 	2.06027e-020 9.62455 	-0.0074262 	8.52696e-021 9.59527 	-0.00890759 	-1.1007e-021 9.60685 	-0.00875014 	-8.02166e-021 9.59872 	-0.00935978 	-1.95447e-020 9.59058 	-0.00996991 	-3.10665e-020 9.58242 	-0.0105805 	-4.25872e-020 9.54727 	-0.0122103 	-5.41237e-020 9.56347 	-0.0119188 	-5.38012e-020 9.55498 	-0.0125241 	-6.11119e-020 9.54647 	-0.0131299 	-6.84195e-020 9.53795 	-0.0137362 	-7.57241e-020 9.49753 	-0.0154604 	-9.46658e-020 9.51785 	-0.0150855 	-1.50807e-019 9.50902 	-0.0156868 	-1.41412e-019 9.50018 	-0.0162887 	-1.32029e-019 9.49133 	-0.0168911 	-1.22658e-019 9.4463 	-0.0186502 	-4.13447e-020 9.47018 	-0.0182431 	-2.63207e-020 9.46103 	-0.01884 	-1.843e-020 9.45188 	-0.0194374 	-1.05384e-020 9.44271 	-0.0200355 	-2.64614e-021 9.39381 	-0.0217717 	0 9.42065 	-0.0213805 	0 9.41122 	-0.0219738 	0 9.40178 	-0.0225677 	0 9.39232 	-0.0231622 	0 9.3403 	-0.0248256 	0 9.36949 	-0.0244964 	1.52195e-021 9.3598 	-0.0250882 	8.86642e-021 9.3501 	-0.0256807 	1.62101e-020 9.34038 	-0.0262737 	2.35531e-020 9.28599 	-0.0278172 	4.15276e-020 9.31695 	-0.0275989 	1.60962e-019 9.30703 	-0.0281898 	1.63868e-019 9.29709 	-0.0287814 	1.66789e-019 9.28713 	-0.0293736 	1.69723e-019 9.23109 	-0.030746 	4.17182e-020 9.26305 	-0.0306852 	2.22615e-020 9.25313 	-0.0312706 	1.5633e-020 9.24298 	-0.0318601 	9.07065e-021 9.22978 	-0.0324868 	3.91073e-021 9.17577 	-0.0336051 	1.76304e-020 9.2042 	-0.033779 	1.04439e-019 9.19834 	-0.0343175 	1.15488e-019 9.188 	-0.0349041 	1.16695e-019 9.17062 	-0.0355378 	1.0072e-019 9.12022 	-0.0363906 	4.02015e-021 9.14529 	-0.0367812 	-9.87479e-020 9.14289 	-0.0373202 	-1.29984e-019 9.13239 	-0.0379035 	-1.40173e-019 9.11154 	-0.0384938 	-1.28472e-019 9.0646 	-0.0391011 	-6.15722e-020 9.0865 	-0.0396889 	-1.77899e-019 9.087 	-0.0402711 	-2.19167e-019 9.07637 	-0.0408508 	-2.21405e-019 9.0527 	-0.0413533 	-1.7305e-019 9.00906 	-0.041737 	-4.70453e-020 9.028 	-0.0425017 	-2.49111e-020 9.03089 	-0.0431644 	-1.08248e-020 9.02013 	-0.0437404 	-3.57417e-021 8.99427 	-0.0441171 	0 8.95374 	-0.0442997 	0 8.96993 	-0.0452212 	0 8.97473 	-0.0459958 	0 8.96388 	-0.0465683 	0 8.93638 	-0.0467875 	2.0512e-021 8.89875 	-0.0467917 	5.35123e-021 8.91243 	-0.0478501 	2.20448e-021 8.91872 	-0.0487625 	0 8.90779 	-0.0493313 	0 8.87915 	-0.0493681 	2.43851e-021 8.84421 	-0.049216 	5.74265e-021 8.85558 	-0.0503926 	2.59536e-021 8.86301 	-0.051463 	1.1537e-021 8.85203 	-0.0520284 	7.73734e-021 8.82266 	-0.0518637 	2.44476e-020 8.79022 	-0.0515764 	4.28566e-020 8.7995 	-0.052853 	1.67883e-019 8.80775 	-0.054096 	2.8697e-019 8.79673 	-0.0546582 	2.90401e-019 8.76702 	-0.054279 	1.6839e-019 8.73687 	-0.0538769 	4.33645e-020 8.74425 	-0.0552372 	2.5219e-020 8.75159 	-0.0565989 	7.07476e-021 8.74033 	-0.057118 	3.1323e-022 8.71228 	-0.0566201 	3.49268e-021 8.68424 	-0.0561219 	6.67198e-021 8.68992 	-0.0575496 	3.6531e-021 8.69554 	-0.0589789 	6.35005e-022 8.68465 	-0.0594677 	2.01175e-021 8.65852 	-0.0588921 	-1.90825e-021 8.63241 	-0.0583161 	-5.82728e-021 8.63655 	-0.0597978 	-4.90953e-020 8.64064 	-0.0612809 	-9.23669e-020 8.63015 	-0.06174 	-9.37328e-020 8.60578 	-0.0611026 	-5.41426e-020 8.58142 	-0.0604646 	-1.45506e-020 8.58419 	-0.0619896 	8.43805e-020 8.58691 	-0.0635162 	1.83306e-019 8.57687 	-0.0639466 	1.91854e-019 8.55409 	-0.0632599 	1.09466e-019 8.53134 	-0.0625726 	2.70772e-020 8.5329 	-0.0641329 	1.57345e-020 8.53441 	-0.0656947 	4.38838e-021 8.52483 	-0.0660979 	4.42776e-022 8.50351 	-0.0653729 	5.04548e-021 8.4822 	-0.0646474 	9.64997e-021 8.4827 	-0.066234 	4.13962e-021 8.48315 	-0.0678221 	-1.37569e-021 8.47406 	-0.0681993 	-2.07693e-020 8.45405 	-0.0674469 	-7.07134e-020 8.43405 	-0.0666939 	-1.2066e-019 8.43362 	-0.0682923 	-2.51401e-019 8.43313 	-0.0698921 	-3.82136e-019 8.42455 	-0.0702442 	-3.67012e-019 8.40572 	-0.0694806 	-2.17156e-019 8.3869 	-0.0687164 	-6.73021e-020 8.38564 	-0.070314 	5.6435e-020 8.38431 	-0.0719094 	1.79824e-019 8.37596 	-0.0722078 	1.77445e-019 8.35851 	-0.0714845 	9.0354e-020 8.34077 	-0.0707256 	3.4979e-022 8.33878 	-0.0723183 	-8.89848e-020 8.33589 	-0.0737333 	-1.67208e-019 8.3277 	-0.0740377 	-1.76495e-019 8.31243 	-0.0734784 	-1.14291e-019 8.29566 	-0.0727331 	-3.67394e-020 8.29304 	-0.0743169 	-2.55101e-020 8.28888 	-0.07555 	-1.43798e-020 8.28083 	-0.075862 	-3.50291e-021 8.26746 	-0.075471 	1.39378e-020 8.25158 	-0.0747458 	3.44985e-020 8.24838 	-0.0763178 	1.27311e-020 8.24321 	-0.0773708 	-2.40559e-021 8.2353 	-0.0776917 	-8.19913e-021 8.22358 	-0.0774711 	-3.00775e-021 8.2085 	-0.0767712 	1.18978e-020 8.20481 	-0.0783303 	-4.59605e-021 8.19883 	-0.0792074 	-1.54776e-020 8.19106 	-0.079539 	-2.18697e-020 8.18076 	-0.0794882 	-3.40784e-020 8.16642 	-0.0788175 	-5.57096e-020 8.16228 	-0.0803633 	5.27065e-020 8.15569 	-0.0810703 	8.72045e-020 8.14804 	-0.0814139 	8.96692e-020 8.13899 	-0.0815312 	7.01502e-020 8.12532 	-0.080893 	-2.26768e-020 8.12078 	-0.0824257 	6.88807e-020 8.11373 	-0.0829693 	8.61731e-020 8.10619 	-0.0833264 	8.94449e-020 8.09822 	-0.0836091 	8.65389e-020 8.08516 	-0.0830058 	1.03546e-020 8.08027 	-0.0845259 	-5.66532e-022 8.0729 	-0.0849132 	-4.8486e-022 8.06547 	-0.0852851 	-2.51445e-022 8.05803 	-0.0856573 	-1.80502e-023 8.04593 	-0.0851634 	1.83595e-020 8.04045 	-0.0865226 	0 8.03315 	-0.0869104 	0 8.02583 	-0.0872984 	0 8.01849 	-0.0876867 	0 8.00759 	-0.0873734 	1.53575e-020 8.00164 	-0.0885637 	0 7.99443 	-0.0889688 	0 7.9872 	-0.0893743 	0 7.97996 	-0.0897799 	0 7.97013 	-0.0896436 	0 7.96382 	-0.0906728 	0 7.9567 	-0.0910966 	0 7.94956 	-0.0915207 	0 7.9424 	-0.091945 	0 7.93349 	-0.0919814 	-8.67139e-021 7.92693 	-0.0928575 	0 7.91988 	-0.0933012 	0 7.91283 	-0.0937451 	0 7.90575 	-0.0941893 	0 7.89764 	-0.0943945 	-1.09703e-020 7.89091 	-0.0951251 	0 7.88395 	-0.0955897 	0 7.87696 	-0.0960545 	0 7.86995 	-0.0965196 	0 7.86255 	-0.0968894 	-4.46273e-021 7.85788 	-0.0973302 	-6.00329e-021 7.85313 	-0.0976649 	-1.31211e-020 7.84837 	-0.0979998 	-2.02395e-020 7.84361 	-0.0983348 	-2.73584e-020 7.83897 	-0.0986608 	-3.42833e-020 7.83671 	-0.0988152 	-3.73374e-020 7.83445 	-0.0989696 	-4.03914e-020 7.83219 	-0.0991241 	-4.34452e-020 7.82993 	-0.0992785 	-4.64989e-020 7.82792 	-0.0993841 	-4.95548e-020 7.8208 	-0.0999393 	-4.83993e-020 7.81375 	-0.100451 	-4.77803e-020 7.80669 	-0.100963 	-4.71587e-020 7.7996 	-0.101475 	-4.65344e-020 7.79353 	-0.101787 	-4.81852e-020 7.78616 	-0.102503 	-3.77491e-020 7.77916 	-0.103038 	-2.73016e-020 7.77215 	-0.103574 	-1.68526e-020 7.76511 	-0.104111 	-6.40237e-021 7.75986 	-0.104301 	0 7.75222 	-0.105175 	-2.81984e-021 7.74526 	-0.105736 	-7.63317e-021 7.73828 	-0.106297 	-1.24458e-020 7.73128 	-0.106859 	-1.72577e-020 7.72682 	-0.106936 	-2.20344e-020 7.71892 	-0.107963 	-5.07468e-020 7.71199 	-0.108551 	-7.04988e-020 7.70504 	-0.109139 	-9.02523e-020 7.69807 	-0.109728 	-1.10007e-019 7.69438 	-0.109696 	-1.03314e-019 7.68621 	-0.110874 	-8.1234e-020 7.6793 	-0.11149 	-7.01328e-020 7.67238 	-0.112106 	-5.90255e-020 7.66543 	-0.112722 	-4.79121e-020 7.66248 	-0.11259 	-6.8928e-020 7.65403 	-0.113915 	-8.21608e-020 7.64714 	-0.11456 	-6.36857e-020 7.64023 	-0.115206 	-4.52154e-020 7.63367 	-0.115784 	-2.54879e-020 7.63107 	-0.115625 	7.828e-021 7.62262 	-0.11698 	1.22237e-020 7.61547 	-0.117771 	8.75673e-021 7.60857 	-0.118447 	3.7081e-021 7.60278 	-0.118916 	0 7.60012 	-0.118808 	0 7.59169 	-0.120177 	0 7.58423 	-0.121125 	0 7.57733 	-0.121834 	0 7.57229 	-0.122199 	0 7.56956 	-0.122143 	0 7.56115 	-0.123527 	0 7.55338 	-0.124631 	-7.71674e-021 7.54647 	-0.125372 	-2.54429e-020 7.54216 	-0.12564 	-4.32183e-020 7.53935 	-0.125637 	-6.1023e-020 7.53095 	-0.127038 	-4.1846e-020 7.52287 	-0.128294 	-2.16912e-020 7.51594 	-0.129069 	1.70823e-021 7.51234 	-0.129246 	9.21223e-021 7.50944 	-0.129296 	1.33355e-020 7.50104 	-0.130715 	4.59238e-020 7.49263 	-0.132121 	7.82175e-020 7.48575 	-0.132918 	9.68348e-020 7.48276 	-0.133022 	8.19022e-020 7.47977 	-0.133125 	6.69683e-020 7.47137 	-0.134564 	4.297e-020 7.46292 	-0.136003 	1.89633e-020 7.45648 	-0.136816 	2.0088e-021 7.4534 	-0.136972 	1.13791e-020 7.4503 	-0.137129 	2.07502e-020 7.44189 	-0.138589 	8.42113e-020 7.43343 	-0.140051 	1.47676e-019 7.42738 	-0.140893 	1.48322e-019 7.42418 	-0.141102 	8.54723e-020 7.42097 	-0.141312 	2.26213e-020 7.41254 	-0.142796 	1.40296e-020 7.40406 	-0.14428 	5.44134e-021 7.39839 	-0.145154 	5.62957e-021 7.39507 	-0.145417 	1.47805e-020 7.39174 	-0.14568 	2.39325e-020 7.38328 	-0.147188 	8.59474e-020 7.37477 	-0.148697 	1.47965e-019 7.36945 	-0.149603 	1.48645e-019 7.366 	-0.149919 	8.72706e-020 7.36254 	-0.150235 	2.58943e-020 7.35404 	-0.151769 	1.75471e-020 7.34563 	-0.153281 	9.19968e-021 7.34065 	-0.154195 	7.56695e-022 7.33693 	-0.154613 	0 7.33332 	-0.154982 	0 7.32478 	-0.156543 	0 7.31709 	-0.15795 	0 7.31199 	-0.158905 	0 7.3078 	-0.159502 	0 7.30404 	-0.159924 	0 7.29545 	-0.161513 	0 7.28845 	-0.16282 	0 7.28324 	-0.163816 	0 7.27857 	-0.164588 	6.83557e-021 7.27464 	-0.165063 	2.27763e-020 7.26599 	-0.166681 	5.23557e-021 7.25966 	-0.167891 	6.04512e-021 7.25432 	-0.168928 	1.46634e-020 7.24917 	-0.169874 	2.40478e-020 7.24507 	-0.170402 	3.69527e-020 7.23634 	-0.172048 	1.23554e-019 7.23067 	-0.173165 	1.33749e-019 7.22518 	-0.174244 	1.38371e-019 7.21966 	-0.175322 	1.42971e-019 7.21528 	-0.175941 	4.60298e-020 7.20702 	-0.177524 	1.3415e-019 7.20142 	-0.178644 	1.22315e-019 7.19579 	-0.179764 	1.10459e-019 7.19011 	-0.180884 	9.85802e-020 7.18522 	-0.181682 	3.8129e-020 7.17762 	-0.183166 	3.14825e-020 7.17187 	-0.184327 	3.19545e-020 7.16608 	-0.185488 	3.24316e-020 7.16024 	-0.18665 	3.29137e-020 7.15484 	-0.187626 	4.80513e-020 7.14788 	-0.189013 	5.40073e-020 7.14196 	-0.190215 	5.15245e-020 7.136 	-0.191418 	4.90262e-020 7.13 	-0.19262 	4.65123e-020 7.12408 	-0.193773 	3.96851e-020 7.12157 	-0.194277 	3.33052e-020 7.11935 	-0.194732 	3.11769e-020 7.11712 	-0.195187 	2.90504e-020 7.11489 	-0.195642 	2.69257e-020 7.11271 	-0.196087 	2.48538e-020 7.1087 	-0.196876 	2.06361e-020 7.10467 	-0.197665 	1.64217e-020 7.10062 	-0.198454 	1.22106e-020 7.09656 	-0.199243 	8.00285e-021 7.09321 	-0.199956 	3.77539e-022 7.08637 	-0.201315 	-2.41963e-022 7.0799 	-0.202596 	-1.73989e-022 7.0734 	-0.203878 	-1.05992e-022 7.06685 	-0.20516 	-3.79709e-023 7.06215 	-0.206246 	0 7.05442 	-0.207765 	-6.98439e-021 7.04776 	-0.209087 	-2.081e-020 7.04105 	-0.210408 	-3.46298e-020 7.0343 	-0.211729 	-4.84439e-020 7.03058 	-0.212737 	-5.95163e-020 7.02194 	-0.214417 	-4.68249e-020 7.01507 	-0.215777 	-3.15622e-020 7.00816 	-0.217137 	-1.62935e-020 7.00121 	-0.218496 	-1.05611e-021 6.99845 	-0.219428 	6.30384e-021 6.98918 	-0.221214 	-1.33614e-022 6.98179 	-0.222665 	1.11272e-020 6.97465 	-0.224063 	2.51278e-020 6.96872 	-0.225337 	4.12661e-020 6.96573 	-0.226313 	6.25066e-020 6.95623 	-0.228131 	4.04062e-020 6.94787 	-0.229746 	2.18834e-020 6.9405 	-0.231181 	6.51881e-021 6.93559 	-0.23237 	-1.71471e-021 6.93235 	-0.233389 	-5.06211e-021 6.92263 	-0.235238 	-5.69024e-020 6.91326 	-0.237017 	-9.97924e-020 6.90565 	-0.238488 	-1.03388e-019 6.90177 	-0.239591 	-6.71358e-020 6.89828 	-0.240651 	-2.63614e-020 6.88832 	-0.24253 	-6.77127e-020 6.8783 	-0.244409 	-1.09072e-019 6.87094 	-0.245894 	-1.0941e-019 6.86723 	-0.246994 	-6.59714e-020 6.86348 	-0.248095 	-2.25321e-020 6.85327 	-0.250002 	-6.61065e-020 6.84299 	-0.25191 	-1.09686e-019 6.83589 	-0.253436 	-1.06886e-019 6.83191 	-0.254575 	-5.76206e-020 6.82789 	-0.255713 	-8.35116e-021 6.81743 	-0.257649 	-5.54348e-021 6.8069 	-0.259585 	-2.73794e-021 6.80004 	-0.261151 	0 6.79578 	-0.262326 	0 6.79148 	-0.263501 	0 6.78076 	-0.265463 	0 6.77076 	-0.267349 	0 6.76403 	-0.268921 	0 6.7588 	-0.270241 	0 6.75422 	-0.27145 	0 6.74322 	-0.273438 	0 6.73437 	-0.275217 	-1.69982e-021 6.72735 	-0.276817 	-4.85145e-021 6.72094 	-0.278312 	-4.66296e-021 6.71606 	-0.279554 	3.61519e-021 6.70478 	-0.281566 	-5.47226e-020 6.69709 	-0.283235 	-5.8212e-020 6.68979 	-0.284862 	-5.50494e-020 6.68243 	-0.286489 	-5.1865e-020 6.67697 	-0.287805 	-2.2879e-021 6.66644 	-0.289743 	-8.13576e-021 6.65889 	-0.291395 	6.49075e-022 6.6513 	-0.293047 	9.43523e-021 6.64364 	-0.2947 	1.82227e-020 6.63692 	-0.296195 	2.09791e-020 6.62759 	-0.298014 	4.11493e-020 6.61975 	-0.29969 	4.14098e-020 6.61185 	-0.301365 	4.1653e-020 6.60389 	-0.30304 	4.1879e-020 6.59588 	-0.304715 	4.20385e-020 6.59585 	-0.304719 	4.20406e-020 6.59583 	-0.304723 	4.20365e-020 6.59582 	-0.304726 	4.20324e-020 6.5958 	-0.30473 	4.20282e-020 6.59578 	-0.304734 	4.20241e-020 6.5872 	-0.306424 	3.97935e-020 6.57856 	-0.308114 	3.75678e-020 6.56985 	-0.309803 	3.53471e-020 6.56108 	-0.311492 	3.31314e-020 6.55334 	-0.313053 	2.26389e-020 6.54384 	-0.31491 	2.9255e-020 6.53483 	-0.316622 	2.30469e-020 6.52575 	-0.318334 	1.68504e-020 6.51661 	-0.320046 	1.06658e-020 6.50964 	-0.3215 	-1.46536e-020 6.49918 	-0.323518 	-7.40586e-021 6.48981 	-0.325248 	-9.34788e-021 6.48037 	-0.326977 	-1.13296e-020 6.4716 	-0.328623 	-1.26275e-020 6.46473 	-0.330044 	-1.20508e-020 6.4539 	-0.332073 	-1.07149e-020 6.44353 	-0.33397 	-7.3578e-021 6.43373 	-0.335713 	-1.65312e-021 6.4258 	-0.337238 	3.78098e-021 6.4186 	-0.338675 	9.10714e-021 6.40737 	-0.340713 	4.75151e-021 6.39607 	-0.342751 	3.99839e-022 6.38624 	-0.344481 	0 6.37874 	-0.345932 	0 6.37119 	-0.347382 	0 6.35958 	-0.349427 	0 6.34789 	-0.351471 	0 6.33826 	-0.353231 	0 6.33041 	-0.354691 	0 6.3225 	-0.356152 	0 6.31049 	-0.358201 	0 6.29871 	-0.360216 	5.19297e-022 6.28931 	-0.361964 	5.14689e-021 6.28077 	-0.363505 	9.78744e-021 6.27248 	-0.364974 	1.44352e-020 6.26007 	-0.367025 	1.07199e-020 6.24926 	-0.368894 	9.74237e-021 6.23948 	-0.370645 	1.05628e-020 6.22979 	-0.372361 	1.16133e-020 6.22113 	-0.373834 	1.43015e-020 6.20861 	-0.375853 	-2.54468e-021 6.19852 	-0.377603 	-8.70319e-021 6.18835 	-0.379353 	-1.48489e-020 6.17812 	-0.381102 	-2.09817e-020 6.16842 	-0.382721 	-1.91254e-020 6.1598 	-0.384101 	-1.57518e-020 6.15221 	-0.385368 	-1.33498e-020 6.14459 	-0.386635 	-1.09495e-020 6.13692 	-0.387902 	-8.55088e-021 6.12959 	-0.389107 	-6.27047e-021 6.1267 	-0.3896 	-6.06777e-021 6.1238 	-0.390094 	-5.86665e-021 6.1209 	-0.390587 	-5.66711e-021 6.11799 	-0.39108 	-5.46917e-021 6.11512 	-0.391529 	-2.05296e-021 6.10485 	-0.393327 	5.12675e-021 6.09438 	-0.395073 	5.82207e-021 6.08384 	-0.396818 	6.54243e-021 6.07323 	-0.398563 	7.28795e-021 6.06276 	-0.400105 	-1.99251e-020 6.05254 	-0.402079 	-6.08982e-020 6.04167 	-0.403816 	-7.03073e-020 6.03074 	-0.405553 	-7.97522e-020 6.01979 	-0.407228 	-7.57755e-020 6.00903 	-0.40866 	-1.75921e-020 5.99851 	-0.410664 	-1.5182e-020 5.9876 	-0.412537 	-1.0202e-020 5.97626 	-0.414263 	-2.31503e-021 5.96508 	-0.415762 	7.89068e-021 5.95392 	-0.417184 	1.89008e-020 5.94299 	-0.419171 	3.62817e-020 5.93197 	-0.421158 	5.36709e-020 5.92048 	-0.422846 	5.48088e-020 5.90898 	-0.424254 	3.92384e-020 5.8974 	-0.425662 	2.36702e-020 5.88605 	-0.427629 	1.58