# vtk DataFile Version 2.0
track0
ASCII
DATASET POLYDATA
POINTS 11930 float
-0.0205 0.001 1e-005
-0.0203851 0.00100536 1.50244e-005
-0.0202701 0.00101047 1.96642e-005
-0.0201551 0.00101535 2.39722e-005
-0.0200401 0.00102 2.79437e-005
-0.0198623 0.00102682 3.35535e-005
-0.0196933 0.00103276 3.80993e-005
-0.0195242 0.00103808 4.16138e-005
-0.0193551 0.0010428 4.41059e-005
-0.019186 0.00104691 4.55849e-005
-0.0190172 0.00105041 4.60594e-005
-0.0187132 0.00105591 4.60594e-005
-0.0184093 0.00106077 4.60594e-005
-0.0181054 0.0010651 4.60594e-005
-0.0178014 0.00106891 4.60594e-005
-0.0174976 0.00107219 4.60594e-005
-0.0172058 0.00107505 4.60594e-005
-0.016914 0.00107783 4.60594e-005
-0.0166222 0.00108055 4.60594e-005
-0.0163305 0.0010832 4.60594e-005
-0.0160387 0.00108578 4.60594e-005
-0.0157586 0.00108816 4.60594e-005
-0.0154784 0.00109049 4.60594e-005
-0.0151983 0.00109273 4.60594e-005
-0.0149182 0.00109489 4.60594e-005
-0.0146381 0.00109697 4.60594e-005
-0.0143692 0.00109884 4.60594e-005
-0.0141002 0.00110062 4.60594e-005
-0.0138313 0.00110232 4.60594e-005
-0.0135624 0.00110395 4.60594e-005
-0.0132934 0.0011055 4.60594e-005
-0.0130353 0.0011069 4.60594e-005
-0.0127771 0.00110825 4.60594e-005
-0.0125189 0.00110956 4.60594e-005
-0.0122607 0.00111084 4.60594e-005
-0.0120025 0.00111207 4.60594e-005
-0.0117547 0.00111322 4.60594e-005
-0.0115068 0.00111435 4.60594e-005
-0.0112589 0.00111546 4.60594e-005
-0.0110111 0.00111656 4.60594e-005
-0.0107632 0.00111764 4.60594e-005
-0.0105252 0.00111865 4.60594e-005
-0.0102873 0.00111965 4.60594e-005
-0.0100493 0.00112064 4.60594e-005
-0.00981133 0.00112161 4.60594e-005
-0.00957337 0.00112258 4.60594e-005
-0.00934491 0.00112349 4.60594e-005
-0.00911645 0.00112439 4.60594e-005
-0.00888799 0.00112528 4.60594e-005
-0.00865954 0.00112617 4.60594e-005
-0.00843108 0.00112704 4.60594e-005
-0.00821175 0.00112787 4.60594e-005
-0.00799242 0.0011287 4.60594e-005
-0.00777309 0.00112952 4.60594e-005
-0.00755376 0.00113033 4.60594e-005
-0.00733443 0.00113114 4.60594e-005
-0.00712387 0.00113191 4.60594e-005
-0.0069133 0.00113268 4.60594e-005
-0.00670273 0.00113344 4.60594e-005
-0.00649216 0.00113421 4.60594e-005
-0.0062816 0.00113497 4.60594e-005
-0.00607944 0.00113569 4.60594e-005
-0.00587729 0.00113642 4.60594e-005
-0.00567514 0.00113714 4.60594e-005
-0.00547298 0.00113786 4.60594e-005
-0.00527083 0.00113858 4.60594e-005
-0.00507675 0.00113927 4.60594e-005
-0.00488267 0.00113996 4.60594e-005
-0.0046886 0.00114064 4.60594e-005
-0.00449452 0.00114133 4.60594e-005
-0.00430044 0.00114202 4.60594e-005
-0.00411412 0.00114268 4.60594e-005
-0.0039278 0.00114334 4.60594e-005
-0.00374147 0.00114399 4.60594e-005
-0.00355515 0.00114465 4.60594e-005
-0.00336883 0.00114531 4.60594e-005
-0.00318995 0.00114595 4.60594e-005
-0.00301107 0.00114658 4.60594e-005
-0.00283219 0.00114721 4.60594e-005
-0.00265331 0.00114785 4.60594e-005
-0.00247443 0.00114848 4.60594e-005
-0.0023027 0.0011491 4.60594e-005
-0.00213097 0.00114971 4.60594e-005
-0.00195924 0.00115033 4.60594e-005
-0.0017875 0.00115094 4.60594e-005
-0.00161577 0.00115156 4.60594e-005
-0.0014509 0.00115216 4.60594e-005
-0.00128603 0.00115275 4.60594e-005
-0.00112116 0.00115335 4.60594e-005
-0.000956289 0.00115395 4.60594e-005
-0.000791418 0.00115455 4.60594e-005
-0.000633135 0.00115515 4.60594e-005
-0.000474851 0.00115574 4.60594e-005
-0.000316567 0.00115632 4.60594e-005
-0.000158284 0.00115692 4.60594e-005
0 0.00115752 4.60594e-005
0.000105677 0.00115793 4.60594e-005
0.000211355 0.00115834 4.60594e-005
0.000317032 0.00115874 4.60594e-005
0.00042271 0.00115915 4.60594e-005
0.000528387 0.00115956 4.60594e-005
0.000634886 0.00115999 4.60594e-005
0.000741385 0.00116042 4.60594e-005
0.000847885 0.00116084 4.60594e-005
0.000954384 0.00116127 4.60594e-005
0.00106088 0.00116171 4.60594e-005
0.00116821 0.00116217 4.60594e-005
0.00127554 0.00116262 4.60594e-005
0.00138286 0.00116307 4.60594e-005
0.00149019 0.00116352 4.60594e-005
0.00159752 0.00116399 4.60594e-005
0.00170568 0.00116446 4.60594e-005
0.00181384 0.00116494 4.60594e-005
0.001922 0.00116541 4.60594e-005
0.00203016 0.00116589 4.60594e-005
0.00213833 0.00116637 4.60594e-005
0.00224733 0.00116686 4.60594e-005
0.00235633 0.00116735 4.60594e-005
0.00246533 0.00116784 4.60594e-005
0.00257434 0.00116834 4.60594e-005
0.00268334 0.00116883 4.60594e-005
0.00279319 0.00116933 4.60594e-005
0.00290304 0.00116983 4.60594e-005
0.00301289 0.00117034 4.60594e-005
0.00312274 0.00117084 4.60594e-005
0.00323259 0.00117135 4.60594e-005
0.00334329 0.00117185 4.60594e-005
0.003454 0.00117237 4.60594e-005
0.0035647 0.00117289 4.60594e-005
0.0036754 0.00117341 4.60594e-005
0.00378611 0.00117392 4.60594e-005
0.00389767 0.00117443 4.60594e-005
0.00400924 0.00117495 4.60594e-005
0.0041208 0.00117548 4.60594e-005
0.00423237 0.00117601 4.60594e-005
0.00434393 0.00117654 4.60594e-005
0.00445636 0.00117705 4.60594e-005
0.00456879 0.00117758 4.60594e-005
0.00468123 0.00117812 4.60594e-005
0.00479366 0.00117865 4.60594e-005
0.00490609 0.00117919 4.60594e-005
0.0050194 0.0011797 4.60594e-005
0.0051327 0.00118023 4.60594e-005
0.00524601 0.00118077 4.60594e-005
0.00535931 0.00118131 4.60594e-005
0.00547262 0.00118185 4.60594e-005
0.00558681 0.00118237 4.60594e-005
0.005701 0.00118291 4.60594e-005
0.00581518 0.00118345 4.60594e-005
0.00592937 0.00118399 4.60594e-005
0.00604356 0.00118453 4.60594e-005
0.00615863 0.00118505 4.60594e-005
0.00627371 0.00118559 4.60594e-005
0.00638878 0.00118613 4.60594e-005
0.00650386 0.00118667 4.60594e-005
0.00661893 0.00118721 4.60594e-005
0.0067349 0.00118773 4.60594e-005
0.00685087 0.00118827 4.60594e-005
0.00696684 0.00118881 4.60594e-005
0.00708281 0.00118935 4.60594e-005
0.00719878 0.00118989 4.60594e-005
0.00731565 0.00119041 4.60594e-005
0.00743252 0.00119094 4.60594e-005
0.00754939 0.00119148 4.60594e-005
0.00766626 0.00119201 4.60594e-005
0.00778313 0.00119254 4.60594e-005
0.00790091 0.00119306 4.60594e-005
0.00801869 0.00119359 4.60594e-005
0.00813647 0.00119412 4.60594e-005
0.00825425 0.00119465 4.60594e-005
0.00837203 0.00119518 4.60594e-005
0.00849073 0.00119569 4.60594e-005
0.00860942 0.00119622 4.60594e-005
0.00872812 0.00119674 4.60594e-005
0.00884682 0.00119726 4.60594e-005
0.00896551 0.00119778 4.60594e-005
0.00908513 0.00119829 4.60594e-005
0.00920475 0.00119881 4.60594e-005
0.00932437 0.00119933 4.60594e-005
0.00944398 0.00119984 4.60594e-005
0.0095636 0.00120035 4.60594e-005
0.00968415 0.00120086 4.60594e-005
0.0098047 0.00120137 4.60594e-005
0.00992525 0.00120188 4.60594e-005
0.0100458 0.00120239 4.60594e-005
0.0101663 0.00120289 4.60594e-005
0.0102878 0.00120339 4.60594e-005
0.0104093 0.0012039 4.60594e-005
0.0105308 0.0012044 4.60594e-005
0.0106523 0.0012049 4.60594e-005
0.0107738 0.0012054 4.60594e-005
0.0108962 0.00120589 4.60594e-005
0.0110186 0.00120639 4.60594e-005
0.0111411 0.00120688 4.60594e-005
0.0112635 0.00120737 4.60594e-005
0.0113859 0.00120786 4.60594e-005
0.0115093 0.00120834 4.60594e-005
0.0116327 0.00120883 4.60594e-005
0.0117561 0.00120932 4.60594e-005
0.0118795 0.0012098 4.60594e-005
0.0120028 0.00121028 4.60594e-005
0.0121272 0.00121075 4.60594e-005
0.0122515 0.00121123 4.60594e-005
0.0123759 0.0012117 4.60594e-005
0.0125002 0.00121217 4.60594e-005
0.0126245 0.00121264 4.60594e-005
0.0127498 0.0012131 4.60594e-005
0.0128752 0.00121357 4.60594e-005
0.0130005 0.00121403 4.60594e-005
0.0131258 0.00121449 4.60594e-005
0.0132511 0.00121494 4.60594e-005
0.0133774 0.00121539 4.60594e-005
0.0135036 0.00121585 4.60594e-005
0.0136299 0.00121629 4.60594e-005
0.0137562 0.00121674 4.60594e-005
0.0138825 0.00121718 4.60594e-005
0.0140098 0.00121761 4.60594e-005
0.014137 0.00121805 4.60594e-005
0.0142643 0.00121848 4.60594e-005
0.0143915 0.00121891 4.60594e-005
0.0145188 0.00121933 4.60594e-005
0.0146471 0.00121975 4.60594e-005
0.0147753 0.00122017 4.60594e-005
0.0149036 0.00122058 4.60594e-005
0.0150318 0.00122099 4.60594e-005
0.0151601 0.00122139 4.60594e-005
0.0152893 0.00122179 4.60594e-005
0.0154186 0.00122219 4.60594e-005
0.0155478 0.00122258 4.60594e-005
0.0156771 0.00122297 4.60594e-005
0.0158063 0.00122335 4.60594e-005
0.0159366 0.00122373 4.60594e-005
0.0160668 0.0012241 4.60594e-005
0.0161971 0.00122447 4.60594e-005
0.0163274 0.00122484 4.60594e-005
0.0164576 0.00122519 4.60594e-005
0.0165889 0.00122554 4.60594e-005
0.0167201 0.00122589 4.60594e-005
0.0168514 0.00122624 4.60594e-005
0.0169827 0.00122657 4.60594e-005
0.0171139 0.0012269 4.60594e-005
0.0172036 0.00122712 4.60594e-005
0.0172932 0.00122734 4.60594e-005
0.0173828 0.00122755 4.60594e-005
0.0174724 0.00122777 4.60594e-005
0.0175593 0.00122797 4.60594e-005
0.0176025 0.00122807 4.60594e-005
0.0176457 0.00122817 4.60594e-005
0.0176889 0.00122826 4.60594e-005
0.0177322 0.00122836 4.60594e-005
0.0177754 0.00122846 4.60594e-005
0.0179087 0.00122875 4.60594e-005
0.018042 0.00122904 4.60594e-005
0.0181753 0.00122932 4.60594e-005
0.0183087 0.00122959 4.60594e-005
0.018442 0.00122985 4.60594e-005
0.0185763 0.00123011 4.60594e-005
0.0187107 0.00123036 4.60594e-005
0.018845 0.0012306 4.60594e-005
0.0189794 0.00123084 4.60594e-005
0.0191137 0.00123106 4.60594e-005
0.0192491 0.00123128 4.60594e-005
0.0193845 0.00123149 4.60594e-005
0.0195199 0.0012317 4.60594e-005
0.0196553 0.00123189 4.60594e-005
0.0197907 0.00123208 4.60594e-005
0.0199272 0.00123225 4.60594e-005
0.0200636 0.00123242 4.60594e-005
0.0202001 0.00123258 4.60594e-005
0.0203365 0.00123273 4.60594e-005
0.020473 0.00123287 4.60594e-005
0.0206105 0.001233 4.60594e-005
0.020748 0.00123313 4.60594e-005
0.0208855 0.00123324 4.60594e-005
0.021023 0.00123335 4.60594e-005
0.0211606 0.00123344 4.60594e-005
0.0212991 0.00123353 4.60594e-005
0.0214377 0.0012336 4.60594e-005
0.0215763 0.00123367 4.60594e-005
0.0217149 0.00123372 4.60594e-005
0.0218535 0.00123377 4.60594e-005
0.0219931 0.0012338 4.60594e-005
0.0221328 0.00123383 4.60594e-005
0.0222724 0.00123384 4.60594e-005
0.0224121 0.00123385 4.60594e-005
0.0225517 0.00123384 4.60594e-005
[...]
POINT_DATA 11930
 FIELD attributes 2
p 1 11930 float
-1547.4 -1534.83 -1521.04 -1507.41 -1493.92 -1473.32 -1458.69 -1443.97 -1429.18 -1414.32 -1393.59 -1345.52 -1297.51 -1249.57 -1201.69 -1159.23 -1127.59 -1102.13 -1076.67 -1051.23 -1034.37 -1022.6 -1013.11 -1003.63 -994.143 -986.512 -979.744 -971.84 -963.935 -956.03 -946.995 -938.555 -929.911 -921.264 -912.632 -904.208 -896.229 -889.031 -881.922 -874.963 -868.915 -863.127 -857.919 -852.831 -847.896 -843.557 -839.384 -835.436 -831.557 -827.767 -824.228 -820.812 -817.525 -814.291 -811.132 -808.133 -805.229 -802.449 -799.734 -797.104 -794.619 -792.201 -789.895 -787.66 -785.511 -783.483 -781.5 -779.599 -777.761 -775.996 -774.32 -772.666 -771.073 -769.537 -768.065 -766.659 -765.252 -763.89 -762.578 -761.327 -760.129 -758.904 -757.721 -756.592 -755.528 -754.513 -753.445 -752.403 -751.402 -750.469 -749.579 -748.61 -747.689 -746.854 -746.133 -745.473 -744.74 -744.067 -743.503 -743.075 -742.728 -742.206 -741.724 -741.298 -740.968 -740.711 -740.269 -739.931 -739.709 -739.608 -739.623 -739.456 -739.374 -739.367 -739.426 -739.565 -739.667 -739.758 -739.841 -739.917 -739.98 -740.257 -740.434 -740.552 -740.611 -740.558 -740.956 -741.184 -741.332 -741.395 -741.252 -741.727 -741.976 -742.144 -742.225 -742.024 -742.521 -742.75 -742.906 -742.987 -742.74 -743.196 -743.368 -743.487 -743.554 -743.286 -743.665 -743.789 -743.882 -743.949 -743.713 -744.015 -744.112 -744.198 -744.276 -744.105 -744.333 -744.406 -744.48 -744.553 -744.45 -744.599 -744.652 -744.705 -744.759 -744.715 -744.8 -744.843 -744.886 -744.929 -744.937 -744.989 -745.034 -745.08 -745.125 -745.174 -745.214 -745.266 -745.317 -745.368 -745.443 -745.485 -745.543 -745.601 -745.658 -745.747 -745.803 -745.869 -745.936 -746.002 -746.093 -746.173 -746.25 -746.327 -746.405 -746.495 -746.602 -746.694 -746.785 -746.877 -746.966 -747.102 -747.208 -747.315 -747.422 -747.511 -747.671 -747.792 -747.912 -748.033 -748.124 -748.304 -748.437 -748.571 -748.704 -748.801 -748.995 -749.142 -749.288 -749.434 -749.543 -749.747 -749.906 -750.066 -750.226 -750.351 -750.56 -750.732 -750.904 -751.076 -751.22 -751.434 -751.621 -751.808 -751.994 -752.164 -752.383 -752.586 -752.789 -752.992 -753.188 -753.341 -753.487 -753.634 -753.78 -753.922 -753.993 -754.063 -754.134 -754.204 -754.286 -754.503 -754.731 -754.958 -755.186 -755.459 -755.658 -755.897 -756.137 -756.377 -756.693 -756.879 -757.132 -757.384 -757.637 -757.991 -758.169 -758.434 -758.699 -758.963 -759.347 -759.526 -759.802 -760.079 -760.356 -760.762 -760.948 -761.236 -761.524 -761.813 -762.231 -762.433 -762.732 -763.032 -763.331 -763.752 -763.977 -764.287 -764.597 -764.907 -765.321 -765.576 -765.896 -766.216 -766.536 -766.936 -767.225 -767.554 -767.883 -768.213 -768.592 -768.918 -769.256 -769.593 -769.931 -770.284 -770.649 -770.994 -771.339 -771.684 -772.009 -772.409 -772.764 -773.115 -773.46 -773.761 -774.189 -774.558 -774.916 -775.257 -775.541 -775.99 -776.377 -776.742 -777.077 -777.35 -777.815 -778.222 -778.593 -778.92 -779.189 -779.665 -780.092 -780.471 -780.791 -781.062 -781.548 -781.995 -782.381 -782.693 -782.965 -783.458 -783.924 -784.315 -784.617 -784.89 -785.385 -785.865 -786.259 -786.548 -786.824 -787.314 -787.802 -788.195 -788.477 -788.758 -789.239 -789.72 -790.108 -790.399 -790.69 -791.159 -791.628 -792.015 -792.317 -792.619 -793.075 -793.53 -793.915 -794.229 -794.543 -794.983 -795.424 -795.807 -796.132 -796.457 -796.882 -797.306 -797.686 -798.022 -798.357 -798.766 -799.175 -799.551 -799.895 -800.239 -800.633 -801.026 -801.398 -801.749 -802.099 -802.478 -802.856 -803.223 -803.578 -803.932 -804.296 -804.66 -805.02 -805.377 -805.732 -806.082 -806.433 -806.786 -807.139 -807.493 -807.828 -808.168 -808.511 -808.858 -809.207 -809.528 -809.856 -810.189 -810.525 -810.865 -811.172 -811.489 -811.809 -812.132 -812.462 -812.753 -813.057 -813.364 -813.671 -813.988 -814.263 -814.553 -814.843 -815.133 -815.432 -815.69 -815.961 -816.232 -816.504 -816.783 -817.022 -817.273 -817.524 -817.775 -818.033 -818.252 -818.482 -818.711 -818.94 -819.175 -819.374 -819.581 -819.787 -819.994 -820.203 -820.376 -820.552 -820.728 -820.905 -821.072 -821.08 -821.088 -821.096 -821.104 -821.111 -821.269 -821.426 -821.583 -821.741 -821.896 -822.027 -822.155 -822.284 -822.412 -822.536 -822.639 -822.737 -822.834 -822.931 -823.023 -823.097 -823.162 -823.227 -823.292 -823.347 -823.391 -823.421 -823.452 -823.482 -823.499 -823.511 -823.504 -823.497 -823.487 -823.465 -823.438 -823.396 -823.349 -823.296 -823.233 -823.166 -823.087 -822.999 -822.9 -822.793 -822.684 -822.567 -822.434 -822.286 -822.134 -821.98 -821.824 -821.644 -821.444 -821.243 -821.042 -820.841 -820.613 -820.361 -820.109 -819.858 -819.607 -819.329 -819.024 -818.719 -818.416 -818.112 -817.781 -817.421 -817.061 -816.702 -816.343 -815.957 -815.538 -815.12 -814.703 -814.283 -813.837 -813.363 -812.883 -812.406 -811.917 -811.408 -810.88 -810.337 -809.796 -809.235 -808.66 -808.077 -807.468 -806.86 -806.223 -805.581 -804.939 -804.262 -803.581 -802.869 -802.157 -801.445 -800.708 -799.945 -799.16 -798.375 -797.59 -796.791 -795.943 -795.082 -794.221 -793.361 -792.497 -792.282 -792.064 -791.846 -791.628 -791.414 -790.696 -789.978 -789.26 -788.543 -787.814 -786.812 -785.797 -784.783 -783.77 -782.728 -781.661 -780.564 -779.468 -778.372 -777.229 -776.097 -774.916 -773.736 -772.548 -771.31 -770.095 -768.845 -767.579 -766.286 -764.961 -763.659 -762.341 -760.988 -759.587 -758.174 -756.783 -755.393 -753.947 -752.444 -750.941 -749.46 -747.98 -746.443 -744.849 -743.255 -741.683 -740.112 -738.482 -736.796 -735.11 -733.446 -731.772 -730.044 -728.28 -726.501 -724.744 -722.952 -721.131 -719.295 -717.423 -715.573 -713.662 -711.746 -709.83 -707.872 -705.908 -703.896 -701.885 -699.874 -697.845 -696.184 -694.502 -692.821 -691.14 -689.545 -689.106 -688.667 -688.227 -687.788 -687.343 -685.159 -682.971 -680.783 -678.595 -676.374 -674.119 -671.835 -669.553 -667.27 -664.924 -662.59 -660.22 -657.842 -655.436 -652.994 -650.564 -648.125 -645.653 -643.121 -640.583 -638.059 -635.535 -632.958 -630.326 -627.694 -625.075 -622.457 -619.78 -617.055 -614.329 -611.616 -608.879 -606.102 -603.309 -600.491 -597.685 -594.821 -591.951 -589.082 -586.183 -583.257 -580.295 -577.333 -574.372 -571.41 -571.253 -571.094 -570.935 -570.777 -570.618 -567.731 -564.844 -561.958 -559.072 -556.163 -553.043 -549.909 -546.776 -543.641 -540.462 -537.263 -534.049 -530.828 -527.581 -524.316 -521.03 -517.744 -514.432 -511.081 -507.73 -504.358 -500.987 -497.581 -494.147 -490.712 -487.257 -483.788 -480.291 -476.787 -473.271 -469.734 -466.16 -462.582 -459.005 -455.417 -452.648 -449.861 -447.074 -444.287 -441.617 -440.726 -439.836 -438.945 -438.054 -437.157 -433.433 -429.707 -425.981 -422.255 -418.496 -414.712 -410.912 -407.112 -403.296 -399.454 -395.597 -391.739 -387.867 -383.956 -380.044 -376.117 -372.191 -368.236 -364.258 -360.279 -356.285 -352.28 -348.25 -344.217 -340.175 -336.116 -332.024 -327.933 -323.842 -319.746 -317.971 -316.188 -314.404 -312.62 -310.876 -308.504 -306.131 -303.759 -301.387 -299 -294.802 -290.6 -286.397 -282.193 -277.956 -273.709 -269.458 -265.204 -260.925 -256.638 -252.34 -248.043 -243.728 -239.396 -235.063 -230.718 -226.367 -221.997 -217.625 -213.248 -208.86 -204.449 -200.037 -195.626 -191.213 -189.633 -188.047 -186.461 -184.875 -183.316 -180.447 -177.579 -174.711 -171.844 -168.963 -164.481 -159.998 -155.516 -151.029 -146.523 -142.01 -137.497 -132.983 -128.451 -123.917 -119.375 -114.833 -110.278 -105.719 -101.158 -96.5891 -92.012 -87.4298 -82.848 -78.2669 -74.9315 -71.5912 -68.2512 -64.9115 -61.678 -60.397 -59.1161 -57.8352 -56.5543 -55.2706 -50.6531 -46.0372 -41.4218 -36.8064 -32.1774 -27.5435 -22.9122 -18.2841 -13.6478 -9.00832 -4.36311 0.281528 4.92885 9.57204 14.2174 18.8691 23.5221 28.1762 32.8298 37.4783 40.508 43.5379 46.5677 49.5972 52.547 54.1903 55.8336 57.4768 59.12 60.7644 65.4281 70.0872 74.7458 79.4041 84.0649 88.7292 93.3911 98.0439 102.694 107.347 112.004 116.66 121.311 125.953 130.595 135.241 139.88 144.519 149.157 153.793 154.793 155.791 156.789 157.787 158.777 162.412 166.046 169.68 173.314 176.944 181.572 186.189 190.804 195.412 200.019 204.627 209.235 213.831 218.413 222.998 227.583 232.161 236.733 241.304 245.866 248.079 250.285 252.491 254.697 256.867 259.22 261.573 263.926 266.279 268.626 273.167 277.697 282.226 286.747 291.263 295.777 300.29 304.787 309.268 313.751 318.232 322.704 327.166 331.627 336.078 338.283 340.479 342.674 344.869 347.03 349.276 351.522 353.767 356.013 358.25 362.667 367.071 371.475 375.869 380.255 384.635 389.015 393.377 397.72 402.066 406.405 410.73 415.046 419.362 423.672 424.864 426.05 427.235 428.42 429.597 432.699 435.801 438.903 442.004 445.092 449.352 453.603 457.848 462.074 466.298 470.511 474.724 478.914 483.092 487.268 490.831 494.375 497.917 501.458 504.928 505.543 506.158 506.773 507.388 508 512.112 516.221 520.329 524.43 528.516 532.586 536.656 540.705 544.734 548.766 552.781 556.78 560.768 564.756 568.737 569.672 570.601 571.529 572.457 573.38 576.401 579.422 582.443 585.46 588.46 592.37 596.276 600.166 604.029 607.894 611.741 615.579 619.395 623.211 627.011 628.507 629.993 631.476 632.959 634.436 636.72 639.003 641.287 643.566 645.829 649.556 653.271 656.977 660.649 664.321 667.974 671.618 675.23 678.841 682.427 683.971 685.504 687.034 688.564 690.1 692.122 694.145 696.167 698.185 700.19 703.707 707.192 710.654 714.029 717.399 720.748 724.126 727.618 731.116 734.667 736.244 737.525 738.712 739.9 741.112 742.824 744.536 746.247 747.853 749.101 751.329 754.142 757.24 761.85 766.627 771.286 775.306 777.751 780.199 782.342 782.482 782.654 782.874 783.094 783.316 785.161 787.008 788.855 791.201 793.87 796.821 799.76 802.564 805.368 808.111 808.618 809.114 809.59 810.067 810.552 812.79 815.027 817.263 819.426 821.542 824.148 826.752 829.257 831.751 834.189 834.773 835.344 835.89 836.436 836.999 838.851 840.701 842.549 844.325 846.055 848.32 850.581 852.676 854.697 856.663 857.314 857.935 858.506 859.078 859.684 860.944 862.202 863.457 864.628 865.734 867.356 868.971 870.387 871.593 872.79 873.431 873.987 874.441 874.894 875.404 875.835 876.263 876.689 877.057 877.358 877.977 878.487 878.876 878.923 878.96 878.861 878.554 878.019 877.476 876.843 876.724 876.564 876.383 876.201 876.012 875.047 874.069 873.08 871.956 870.547 868.712 866.865 864.578 861.878 859.167 856.196 852.83 849.212 845.587 841.788 840.879 839.85 838.803 837.755 836.635 832.994 829.342 825.68 821.968 817.814 812.126 806.143 799.884 792.88 785.775 778.199 770.61 762.447 753.809 745.108 735.884 725.484 714.794 704.102 692.912 688.221 683.523 678.824 674.123 668.788 661.29 653.787 646.28 638.769 631.218 617.377 601.657 585.904 569.194 549.849 529.533 509.807 492.242 478.27 464.362 449.706 435.052 407.585 367.775 327.932 286.294 253.416 237.021 228.38 231.331 234.092 177.432 120.034 62.3417 0