# vtk DataFile Version 2.0
track0
ASCII
DATASET POLYDATA
POINTS 11930 float
-0.0205 0.001 1e-005
-0.0203851 0.00100536 1.50244e-005
-0.0202701 0.00101047 1.96642e-005
-0.0201551 0.00101535 2.39722e-005
-0.0200401 0.00102 2.79437e-005
-0.0198623 0.00102682 3.35535e-005
-0.0196933 0.00103276 3.80993e-005
-0.0195242 0.00103808 4.16138e-005
-0.0193551 0.0010428 4.41059e-005
-0.019186 0.00104691 4.55849e-005
-0.0190172 0.00105041 4.60594e-005
-0.0187132 0.00105591 4.60594e-005
-0.0184093 0.00106077 4.60594e-005
-0.0181054 0.0010651 4.60594e-005
-0.0178014 0.00106891 4.60594e-005
-0.0174976 0.00107219 4.60594e-005
-0.0172058 0.00107505 4.60594e-005
-0.016914 0.00107783 4.60594e-005
-0.0166222 0.00108055 4.60594e-005
-0.0163305 0.0010832 4.60594e-005
-0.0160387 0.00108578 4.60594e-005
-0.0157586 0.00108816 4.60594e-005
-0.0154784 0.00109049 4.60594e-005
-0.0151983 0.00109273 4.60594e-005
-0.0149182 0.00109489 4.60594e-005
-0.0146381 0.00109697 4.60594e-005
-0.0143692 0.00109884 4.60594e-005
-0.0141002 0.00110062 4.60594e-005
-0.0138313 0.00110232 4.60594e-005
-0.0135624 0.00110395 4.60594e-005
-0.0132934 0.0011055 4.60594e-005
-0.0130353 0.0011069 4.60594e-005
-0.0127771 0.00110825 4.60594e-005
-0.0125189 0.00110956 4.60594e-005
-0.0122607 0.00111084 4.60594e-005
-0.0120025 0.00111207 4.60594e-005
-0.0117547 0.00111322 4.60594e-005
-0.0115068 0.00111435 4.60594e-005
-0.0112589 0.00111546 4.60594e-005
-0.0110111 0.00111656 4.60594e-005
-0.0107632 0.00111764 4.60594e-005
-0.0105252 0.00111865 4.60594e-005
-0.0102873 0.00111965 4.60594e-005
-0.0100493 0.00112064 4.60594e-005
-0.00981133 0.00112161 4.60594e-005
-0.00957337 0.00112258 4.60594e-005
-0.00934491 0.00112349 4.60594e-005
-0.00911645 0.00112439 4.60594e-005
-0.00888799 0.00112528 4.60594e-005
-0.00865954 0.00112617 4.60594e-005
-0.00843108 0.00112704 4.60594e-005
-0.00821175 0.00112787 4.60594e-005
-0.00799242 0.0011287 4.60594e-005
-0.00777309 0.00112952 4.60594e-005
-0.00755376 0.00113033 4.60594e-005
-0.00733443 0.00113114 4.60594e-005
-0.00712387 0.00113191 4.60594e-005
-0.0069133 0.00113268 4.60594e-005
-0.00670273 0.00113344 4.60594e-005
-0.00649216 0.00113421 4.60594e-005
-0.0062816 0.00113497 4.60594e-005
-0.00607944 0.00113569 4.60594e-005
-0.00587729 0.00113642 4.60594e-005
-0.00567514 0.00113714 4.60594e-005
-0.00547298 0.00113786 4.60594e-005
-0.00527083 0.00113858 4.60594e-005
-0.00507675 0.00113927 4.60594e-005
-0.00488267 0.00113996 4.60594e-005
-0.0046886 0.00114064 4.60594e-005
-0.00449452 0.00114133 4.60594e-005
-0.00430044 0.00114202 4.60594e-005
-0.00411412 0.00114268 4.60594e-005
-0.0039278 0.00114334 4.60594e-005
-0.00374147 0.00114399 4.60594e-005
-0.00355515 0.00114465 4.60594e-005
-0.00336883 0.00114531 4.60594e-005
-0.00318995 0.00114595 4.60594e-005
-0.00301107 0.00114658 4.60594e-005
-0.00283219 0.00114721 4.60594e-005
-0.00265331 0.00114785 4.60594e-005
-0.00247443 0.00114848 4.60594e-005
-0.0023027 0.0011491 4.60594e-005
-0.00213097 0.00114971 4.60594e-005
-0.00195924 0.00115033 4.60594e-005
-0.0017875 0.00115094 4.60594e-005
-0.00161577 0.00115156 4.60594e-005
-0.0014509 0.00115216 4.60594e-005
-0.00128603 0.00115275 4.60594e-005
-0.00112116 0.00115335 4.60594e-005
-0.000956289 0.00115395 4.60594e-005
-0.000791418 0.00115455 4.60594e-005
-0.000633135 0.00115515 4.60594e-005
-0.000474851 0.00115574 4.60594e-005
-0.000316567 0.00115632 4.60594e-005
-0.000158284 0.00115692 4.60594e-005
0 0.00115752 4.60594e-005
0.000105677 0.00115793 4.60594e-005
0.000211355 0.00115834 4.60594e-005
0.000317032 0.00115874 4.60594e-005
0.00042271 0.00115915 4.60594e-005
0.000528387 0.00115956 4.60594e-005
0.000634886 0.00115999 4.60594e-005
0.000741385 0.00116042 4.60594e-005
0.000847885 0.00116084 4.60594e-005
0.000954384 0.00116127 4.60594e-005
0.00106088 0.00116171 4.60594e-005
0.00116821 0.00116217 4.60594e-005
0.00127554 0.00116262 4.60594e-005
0.00138286 0.00116307 4.60594e-005
0.00149019 0.00116352 4.60594e-005
0.00159752 0.00116399 4.60594e-005
0.00170568 0.00116446 4.60594e-005
0.00181384 0.00116494 4.60594e-005
0.001922 0.00116541 4.60594e-005
0.00203016 0.00116589 4.60594e-005
0.00213833 0.00116637 4.60594e-005
0.00224733 0.00116686 4.60594e-005
0.00235633 0.00116735 4.60594e-005
0.00246533 0.00116784 4.60594e-005
0.00257434 0.00116834 4.60594e-005
0.00268334 0.00116883 4.60594e-005
0.00279319 0.00116933 4.60594e-005
0.00290304 0.00116983 4.60594e-005
0.00301289 0.00117034 4.60594e-005
0.00312274 0.00117084 4.60594e-005
0.00323259 0.00117135 4.60594e-005
0.00334329 0.00117185 4.60594e-005
0.003454 0.00117237 4.60594e-005
0.0035647 0.00117289 4.60594e-005
0.0036754 0.00117341 4.60594e-005
0.00378611 0.00117392 4.60594e-005
0.00389767 0.00117443 4.60594e-005
0.00400924 0.00117495 4.60594e-005
0.0041208 0.00117548 4.60594e-005
0.00423237 0.00117601 4.60594e-005
0.00434393 0.00117654 4.60594e-005
0.00445636 0.00117705 4.60594e-005
0.00456879 0.00117758 4.60594e-005
0.00468123 0.00117812 4.60594e-005
0.00479366 0.00117865 4.60594e-005
0.00490609 0.00117919 4.60594e-005
0.0050194 0.0011797 4.60594e-005
0.0051327 0.00118023 4.60594e-005
0.00524601 0.00118077 4.60594e-005
0.00535931 0.00118131 4.60594e-005
0.00547262 0.00118185 4.60594e-005
0.00558681 0.00118237 4.60594e-005
0.005701 0.00118291 4.60594e-005
0.00581518 0.00118345 4.60594e-005
0.00592937 0.00118399 4.60594e-005
0.00604356 0.00118453 4.60594e-005
0.00615863 0.00118505 4.60594e-005
0.00627371 0.00118559 4.60594e-005
0.00638878 0.00118613 4.60594e-005
0.00650386 0.00118667 4.60594e-005
0.00661893 0.00118721 4.60594e-005
0.0067349 0.00118773 4.60594e-005
0.00685087 0.00118827 4.60594e-005
0.00696684 0.00118881 4.60594e-005
0.00708281 0.00118935 4.60594e-005
0.00719878 0.00118989 4.60594e-005
0.00731565 0.00119041 4.60594e-005
0.00743252 0.00119094 4.60594e-005
0.00754939 0.00119148 4.60594e-005
0.00766626 0.00119201 4.60594e-005
0.00778313 0.00119254 4.60594e-005
0.00790091 0.00119306 4.60594e-005
0.00801869 0.00119359 4.60594e-005
0.00813647 0.00119412 4.60594e-005
0.00825425 0.00119465 4.60594e-005
0.00837203 0.00119518 4.60594e-005
0.00849073 0.00119569 4.60594e-005
0.00860942 0.00119622 4.60594e-005
0.00872812 0.00119674 4.60594e-005
0.00884682 0.00119726 4.60594e-005
0.00896551 0.00119778 4.60594e-005
0.00908513 0.00119829 4.60594e-005
0.00920475 0.00119881 4.60594e-005
0.00932437 0.00119933 4.60594e-005
0.00944398 0.00119984 4.60594e-005
0.0095636 0.00120035 4.60594e-005
0.00968415 0.00120086 4.60594e-005
0.0098047 0.00120137 4.60594e-005
0.00992525 0.00120188 4.60594e-005
0.0100458 0.00120239 4.60594e-005
0.0101663 0.00120289 4.60594e-005
0.0102878 0.00120339 4.60594e-005
0.0104093 0.0012039 4.60594e-005
0.0105308 0.0012044 4.60594e-005
0.0106523 0.0012049 4.60594e-005
0.0107738 0.0012054 4.60594e-005
0.0108962 0.00120589 4.60594e-005
0.0110186 0.00120639 4.60594e-005
0.0111411 0.00120688 4.60594e-005
0.0112635 0.00120737 4.60594e-005
0.0113859 0.00120786 4.60594e-005
0.0115093 0.00120834 4.60594e-005
0.0116327 0.00120883 4.60594e-005
0.0117561 0.00120932 4.60594e-005
0.0118795 0.0012098 4.60594e-005
0.0120028 0.00121028 4.60594e-005
0.0121272 0.00121075 4.60594e-005
0.0122515 0.00121123 4.60594e-005
0.0123759 0.0012117 4.60594e-005
0.0125002 0.00121217 4.60594e-005
0.0126245 0.00121264 4.60594e-005
0.0127498 0.0012131 4.60594e-005
0.0128752 0.00121357 4.60594e-005
0.0130005 0.00121403 4.60594e-005
0.0131258 0.00121449 4.60594e-005
0.0132511 0.00121494 4.60594e-005
0.0133774 0.00121539 4.60594e-005
0.0135036 0.00121585 4.60594e-005
0.0136299 0.00121629 4.60594e-005
0.0137562 0.00121674 4.60594e-005
0.0138825 0.00121718 4.60594e-005
0.0140098 0.00121761 4.60594e-005
0.014137 0.00121805 4.60594e-005
0.0142643 0.00121848 4.60594e-005
0.0143915 0.00121891 4.60594e-005
0.0145188 0.00121933 4.60594e-005
0.0146471 0.00121975 4.60594e-005
0.0147753 0.00122017 4.60594e-005
0.0149036 0.00122058 4.60594e-005
0.0150318 0.00122099 4.60594e-005
0.0151601 0.00122139 4.60594e-005
0.0152893 0.00122179 4.60594e-005
0.0154186 0.00122219 4.60594e-005
0.0155478 0.00122258 4.60594e-005
0.0156771 0.00122297 4.60594e-005
0.0158063 0.00122335 4.60594e-005
0.0159366 0.00122373 4.60594e-005
0.0160668 0.0012241 4.60594e-005
0.0161971 0.00122447 4.60594e-005
0.0163274 0.00122484 4.60594e-005
0.0164576 0.00122519 4.60594e-005
0.0165889 0.00122554 4.60594e-005
0.0167201 0.00122589 4.60594e-005
0.0168514 0.00122624 4.60594e-005
0.0169827 0.00122657 4.60594e-005
0.0171139 0.0012269 4.60594e-005
0.0172036 0.00122712 4.60594e-005
0.0172932 0.00122734 4.60594e-005
0.0173828 0.00122755 4.60594e-005
0.0174724 0.00122777 4.60594e-005
0.0175593 0.00122797 4.60594e-005
0.0176025 0.00122807 4.60594e-005
0.0176457 0.00122817 4.60594e-005
0.0176889 0.00122826 4.60594e-005
0.0177322 0.00122836 4.60594e-005
0.0177754 0.00122846 4.60594e-005
0.0179087 0.00122875 4.60594e-005
0.018042 0.00122904 4.60594e-005
0.0181753 0.00122932 4.60594e-005
0.0183087 0.00122959 4.60594e-005
0.018442 0.00122985 4.60594e-005
0.0185763 0.00123011 4.60594e-005
0.0187107 0.00123036 4.60594e-005
0.018845 0.0012306 4.60594e-005
0.0189794 0.00123084 4.60594e-005
0.0191137 0.00123106 4.60594e-005
0.0192491 0.00123128 4.60594e-005
0.0193845 0.00123149 4.60594e-005
0.0195199 0.0012317 4.60594e-005
0.0196553 0.00123189 4.60594e-005
0.0197907 0.00123208 4.60594e-005
0.0199272 0.00123225 4.60594e-005
0.0200636 0.00123242 4.60594e-005
0.0202001 0.00123258 4.60594e-005
0.0203365 0.00123273 4.60594e-005
0.020473 0.00123287 4.60594e-005
0.0206105 0.001233 4.60594e-005
0.020748 0.00123313 4.60594e-005
0.0208855 0.00123324 4.60594e-005
0.021023 0.00123335 4.60594e-005
0.0211606 0.00123344 4.60594e-005
0.0212991 0.00123353 4.60594e-005
0.0214377 0.0012336 4.60594e-005
0.0215763 0.00123367 4.60594e-005
0.0217149 0.00123372 4.60594e-005
0.0218535 0.00123377 4.60594e-005
0.0219931 0.0012338 4.60594e-005
0.0221328 0.00123383 4.60594e-005
0.0222724 0.00123384 4.60594e-005
0.0224121 0.00123385 4.60594e-005
0.0225517 0.00123384 4.60594e-005
[...]
POINT_DATA 11930
 FIELD attributes 1
U 3 11930 float
99.9353 	4.66295 	4.36822 99.8177 	4.43694 	4.02812 99.6949 	4.23041 	3.7347 99.5724 	4.02252 	3.43805 99.4502 	3.81326 	3.13815 99.2619 	3.48773 	2.66962 99.1019 	3.12346 	2.06005 98.9409 	2.76093 	1.45811 98.779 	2.40015 	0.863823 98.616 	2.04113 	0.277208 98.4311 	1.78322 	0 98.0492 	1.56663 	0 97.6873 	1.39309 	0 97.3254 	1.21987 	0 96.9636 	1.04698 	0 96.6562 	0.946636 	0 96.3583 	0.917736 	0 96.1484 	0.894554 	0 95.9385 	0.871318 	0 95.7287 	0.848028 	0 95.618 	0.814023 	0 95.4315 	0.790591 	0 95.3305 	0.762782 	0 95.2295 	0.734916 	0 95.1286 	0.706991 	0 95.109 	0.661589 	0 94.958 	0.627644 	0 94.8715 	0.600374 	0 94.7851 	0.573075 	0 94.6987 	0.545747 	0 94.6826 	0.515869 	0 94.5372 	0.493894 	0 94.4462 	0.479553 	0 94.3563 	0.465362 	0 94.2711 	0.451219 	0 94.2488 	0.437846 	0 94.126 	0.428538 	0 94.0426 	0.421669 	0 93.9636 	0.415074 	0 93.8929 	0.408258 	0 93.872 	0.400117 	0 93.7809 	0.393851 	0 93.7133 	0.388899 	0 93.6506 	0.38422 	0 93.5965 	0.379332 	0 93.5758 	0.373644 	0 93.5109 	0.368474 	0 93.4574 	0.36474 	0 93.4074 	0.361444 	0 93.3643 	0.35809 	0 93.3408 	0.354576 	0 93.2936 	0.350536 	0 93.2505 	0.347921 	0 93.2091 	0.34589 	0 93.1726 	0.343946 	0 93.147 	0.342189 	0 93.1127 	0.339154 	0 93.0784 	0.337438 	0 93.0442 	0.336409 	0 93.0129 	0.335566 	0 92.9868 	0.335048 	0 92.9625 	0.332531 	0 92.9358 	0.331301 	0 92.9077 	0.330897 	0 92.8807 	0.330824 	0 92.8552 	0.331229 	0 92.8387 	0.328843 	0 92.8185 	0.327828 	0 92.7954 	0.327875 	0 92.7717 	0.328496 	0 92.7471 	0.329806 	0 92.7364 	0.327367 	0 92.7213 	0.32643 	0 92.7022 	0.32688 	0 92.6809 	0.328246 	0 92.6576 	0.33054 	0 92.6511 	0.327982 	0 92.6401 	0.327038 	0 92.6241 	0.327856 	0 92.6047 	0.330006 	0 92.5825 	0.333303 	0 92.5792 	0.330573 	0 92.5713 	0.329492 	0 92.5575 	0.330528 	0 92.5394 	0.333331 	0 92.5182 	0.337432 	0 92.5173 	0.334151 	0 92.5119 	0.333037 	0 92.4997 	0.335189 	0 92.4824 	0.34016 	0 92.4617 	0.346898 	0 92.4619 	0.344635 	0 92.4585 	0.344048 	3.07282e-020 92.449 	0.346432 	1.15943e-019 92.4348 	0.351648 	1.00665e-019 92.4183 	0.358374 	3.17819e-020 92.4215 	0.355255 	1.5422e-018 92.4207 	0.354274 	2.47949e-018 92.4126 	0.357187 	2.3737e-018 92.3991 	0.363351 	1.28183e-018 92.3825 	0.371467 	-4.01539e-019 92.3887 	0.368453 	-8.69527e-019 92.3898 	0.368523 	-1.17612e-018 92.3836 	0.372984 	-1.25283e-018 92.3719 	0.380838 	-8.91964e-019 92.356 	0.391291 	-1.96165e-019 92.3649 	0.38857 	-1.80749e-019 92.3677 	0.388618 	-1.31267e-019 92.3636 	0.391802 	-4.3205e-020 92.3542 	0.398151 	8.17225e-020 92.3396 	0.40755 	2.42166e-019 92.3524 	0.405773 	7.80855e-020 92.3574 	0.405407 	-1.43749e-019 92.3551 	0.406321 	-4.18021e-019 92.347 	0.40944 	-7.72398e-019 92.332 	0.415215 	-1.22322e-018 92.3486 	0.416564 	-2.18759e-018 92.3547 	0.41703 	-2.48796e-018 92.3532 	0.416853 	-2.30398e-018 92.3454 	0.417106 	-1.66856e-018 92.3283 	0.418008 	-3.53002e-019 92.3482 	0.424165 	1.15215e-018 92.3546 	0.426204 	1.82659e-018 92.3532 	0.425841 	2.01655e-018 92.3453 	0.423965 	1.71548e-018 92.3253 	0.419216 	4.81529e-019 92.3481 	0.430272 	-1.79912e-018 92.3543 	0.433564 	-2.57829e-018 92.3528 	0.433277 	-2.66525e-018 92.345 	0.430074 	-2.11287e-018 92.322 	0.419773 	-5.11948e-021 92.3477 	0.434859 	2.0944e-018 92.3531 	0.438624 	2.55902e-018 92.3512 	0.438344 	2.43954e-018 92.3435 	0.434526 	1.88077e-018 92.3171 	0.419396 	-8.28593e-020 92.3456 	0.437043 	-1.6242e-018 92.3494 	0.440548 	-2.21218e-018 92.3466 	0.440264 	-2.54479e-018 92.3388 	0.436614 	-2.58787e-018 92.3087 	0.418172 	-1.3588e-018 92.34 	0.437029 	-2.59858e-018 92.3416 	0.439955 	-2.64536e-018 92.3375 	0.439856 	-2.4657e-018 92.3294 	0.437118 	-2.12193e-018 92.2949 	0.417129 	-7.05546e-019 92.3297 	0.435857 	-7.43067e-019 92.3285 	0.437907 	-5.10102e-019 92.323 	0.437939 	-2.44423e-019 92.3147 	0.436366 	1.248e-020 92.2752 	0.416323 	1.6846e-019 92.3146 	0.433658 	8.97616e-021 92.31 	0.434482 	0 92.3028 	0.434322 	0 92.2945 	0.433645 	0 92.2487 	0.414555 	0 92.2939 	0.429529 	0 92.285 	0.429011 	-2.6394e-019 92.2757 	0.42842 	-5.29099e-019 92.2665 	0.42783 	-7.9426e-019 92.2138 	0.410927 	-1.22605e-018 92.2636 	0.422696 	-2.11822e-018 92.252 	0.42181 	-2.12582e-018 92.2404 	0.420924 	-2.1334e-018 92.2289 	0.420038 	-2.14098e-018 92.169 	0.406115 	-1.27832e-018 92.2238 	0.414991 	3.80464e-019 92.2094 	0.413925 	7.99834e-019 92.1949 	0.412858 	1.21918e-018 92.1805 	0.41179 	1.6385e-018 92.1123 	0.400675 	6.7266e-019 92.1727 	0.407094 	1.66715e-018 92.1551 	0.405793 	1.67133e-018 92.1375 	0.404492 	1.67549e-018 92.1199 	0.403191 	1.67964e-018 92.0419 	0.394383 	7.25729e-019 92.1085 	0.398905 	5.45547e-019 92.0872 	0.397362 	3.7724e-019 92.066 	0.39582 	2.08936e-019 92.0447 	0.394277 	4.06356e-020 91.9558 	0.387183 	0 92.0286 	0.390449 	-4.3677e-020 92.0032 	0.388657 	-2.12194e-019 91.9779 	0.386864 	-3.80716e-019 91.9524 	0.385071 	-5.49242e-019 91.8516 	0.379016 	-7.29584e-019 91.9304 	0.381636 	-1.55626e-018 91.9005 	0.379594 	-1.64953e-018 91.8706 	0.377551 	-1.74276e-018 91.8406 	0.375508 	-1.83597e-018 91.7273 	0.36985 	-1.07672e-018 91.8114 	0.37235 	-1.05818e-019 91.7767 	0.370072 	4.55563e-020 91.7419 	0.367792 	1.96875e-019 91.7071 	0.365513 	3.48136e-019 91.5813 	0.359704 	-4.32721e-019 91.6692 	0.362423 	-3.4342e-019 91.6295 	0.35991 	-2.44323e-019 91.5897 	0.357395 	-1.45228e-019 91.5499 	0.354881 	-4.61377e-020 91.4125 	0.348544 	-8.05238e-020 91.5021 	0.351642 	0 91.4572 	0.348887 	0 91.4123 	0.346132 	0 91.3674 	0.343377 	0 91.2201 	0.336317 	0 91.3083 	0.339776 	5.30487e-020 91.2583 	0.336775 	1.52152e-019 91.2082 	0.333773 	2.51259e-019 91.1581 	0.33077 	3.50371e-019 91.0035 	0.322977 	3.81504e-019 91.0866 	0.32663 	-1.15303e-019 91.0314 	0.323384 	-9.96628e-020 90.9762 	0.320136 	-8.39501e-020 90.9209 	0.316886 	-6.8165e-020 90.7623 	0.308516 	3.90782e-019 90.836 	0.312083 	3.60531e-019 90.7757 	0.308588 	2.75535e-019 90.7153 	0.305092 	1.90545e-019 90.6549 	0.301595 	1.0556e-019 90.4966 	0.292916 	-8.69077e-020 90.5557 	0.296025 	-3.28771e-019 90.4904 	0.292285 	-3.24881e-019 90.425 	0.288544 	-3.20919e-019 90.3595 	0.2848 	-3.16883e-019 90.2065 	0.276186 	-7.57756e-020 90.2455 	0.278413 	2.01111e-019 90.1754 	0.274418 	8.137e-020 90.1051 	0.27042 	-3.84559e-020 90.0348 	0.266419 	-1.58367e-019 89.8927 	0.258264 	-4.46145e-019 89.9057 	0.259118 	-2.73063e-019 89.8308 	0.25486 	-2.81142e-019 89.7559 	0.250599 	-2.89318e-019 89.6809 	0.246334 	-2.97591e-019 89.5558 	0.239103 	-4.40379e-019 89.5368 	0.23813 	-3.65547e-019 89.4576 	0.233601 	-2.73108e-019 89.3783 	0.229068 	-1.80675e-019 89.2988 	0.224531 	-8.8249e-020 89.1971 	0.218653 	-1.3115e-020 89.167 	0.216957 	0 89.1105 	0.213695 	0 89.0541 	0.210431 	0 88.9976 	0.207165 	0 88.9427 	0.203998 	0 88.9152 	0.202409 	0 88.8876 	0.200819 	0 88.8599 	0.199228 	0 88.8323 	0.197637 	0 88.7898 	0.195526 	1.01803e-021 88.7147 	0.190829 	0 88.6266 	0.185715 	0 88.5384 	0.180594 	0 88.4501 	0.175469 	0 88.307 	0.168639 	4.19336e-021 88.2623 	0.164613 	8.09794e-020 88.1706 	0.159246 	1.70543e-019 88.0787 	0.153874 	2.60097e-019 87.9866 	0.148495 	3.49644e-019 87.809 	0.140813 	4.65725e-019 87.7869 	0.136985 	7.79188e-019 87.6917 	0.131375 	8.05038e-019 87.5965 	0.125758 	8.31059e-019 87.501 	0.120133 	8.57252e-019 87.2982 	0.11214 	4.64583e-019 87.2909 	0.108035 	3.34967e-019 87.1927 	0.102211 	2.44016e-019 87.0944 	0.0963792 	1.53056e-019 86.9958 	0.0905395 	6.20863e-020 86.7771 	0.0828406 	1.36772e-020 86.7772 	0.0779283 	4.82064e-020 86.6763 	0.0718934 	1.19806e-019 86.5752 	0.0658501 	1.91398e-019 86.4739 	0.0597984 	2.62981e-019 86.2477 	0.0529998 	2.86227e-019 86.2489 	0.0467629 	4.2027e-020 86.1455 	0.0405287 	3.76277e-020 86.042 	0.0342855 	3.31401e-020 85.9382 	0.0280333 	2.8564e-020 85.712 	0.022723 	2.86318e-019 85.7089 	0.0146861 	1.00188e-018 85.6034 	0.00827862 	1.09544e-018 85.4976 	0.00186151 	1.18912e-018 85.3917 	-0.00456526 	1.28292e-018 85.172 	-0.00783235 	6.92548e-019 85.1603 	-0.0180921 	5.99441e-019 85.0529 	-0.0246432 	5.88551e-019 84.9453 	-0.0312045 	5.77623e-019 84.8374 	-0.037776 	5.66657e-019 84.6292 	-0.0385056 	6.06186e-019 84.606 	-0.0513422 	3.56499e-019 84.4969 	-0.0580082 	-2.49107e-019 84.3876 	-0.0646847 	-8.54675e-019 84.2781 	-0.0713719 	-1.4602e-018 84.0853 	-0.0691527 	-2.12427e-018 84.0487 	-0.0848275 	-3.49017e-018 83.9383 	-0.0915824 	-3.51593e-018 83.8276 	-0.0983483 	-3.5419e-018 83.7167 	-0.105125 	-3.56806e-018 83.542 	-0.0996612 	-1.8875e-018 83.491 	-0.118353 	-3.7347e-019 83.3795 	-0.125169 	1.14226e-019 83.2677 	-0.131998 	6.02143e-019 83.1557 	-0.138837 	1.09028e-018 83.0006 	-0.129912 	-1.71941e-021 82.9352 	-0.151626 	-1.16618e-018 82.8229 	-0.158471 	-1.19453e-018 82.7103 	-0.165326 	-1.22303e-018 82.5971 	-0.171843 	-1.23161e-018 82.4626 	-0.159769 	-1.73743e-019 82.3816 	-0.183459 	-2.05475e-020 82.2707 	-0.191287 	2.59273e-019 82.1577 	-0.19814 	5.46921e-019 82.0443 	-0.202616 	8.34182e-019 81.9298 	-0.18918 	1.11881e-018 81.835 	-0.213906 	8.23783e-019 81.7249 	-0.223655 	7.66845e-019 81.6116 	-0.230495 	7.56217e-019 81.5013 	-0.232665 	7.93677e-019 81.4027 	-0.218176 	1.00256e-018 81.2974 	-0.243681 	7.79689e-019 81.1862 	-0.255543 	4.02631e-019 81.0727 	-0.262352 	-3.15868e-020 80.9679 	-0.262004 	-4.20927e-019 80.882 	-0.246665 	-7.16382e-019 80.769 	-0.272487 	7.53951e-019 80.6558 	-0.286506 	1.42211e-018 80.5424 	-0.293266 	1.59708e-018 80.4448 	-0.290339 	1.15567e-018 80.3685 	-0.274557 	-1.02641e-019 80.2502 	-0.300373 	1.13896e-018 80.1344 	-0.316527 	1.83605e-018 80.0215 	-0.323242 	2.00171e-018 79.9322 	-0.317788 	1.52391e-018 79.8636 	-0.301913 	4.95893e-019 79.7417 	-0.327538 	3.49871e-019 79.6233 	-0.345775 	3.08875e-019 79.5112 	-0.352437 	4.32136e-019 79.4309 	-0.344512 	6.53582e-019 79.3681 	-0.328732 	9.27875e-019 79.2442 	-0.353931 	6.41785e-019 79.1232 	-0.3741 	4.29991e-019 79.0121 	-0.380715 	4.17902e-019 78.9411 	-0.370494 	6.26239e-019 78.8829 	-0.355059 	9.02734e-019 78.7582 	-0.379684 	6.13995e-019 78.6349 	-0.401621 	3.24949e-019 78.5251 	-0.408202 	3.48506e-020 78.4634 	-0.395886 	0 78.4087 	-0.380977 	0 78.2839 	-0.40479 	0 78.1586 	-0.428179 	-6.92837e-021 78.0503 	-0.434721 	-2.73406e-019 77.9976 	-0.420645 	-5.4095e-019 77.9457 	-0.406511 	-8.08576e-019 77.8213 	-0.42933 	-5.28421e-019 77.6961 	-0.452172 	-2.48134e-019 77.5942 	-0.45801 	-4.79529e-019 77.544 	-0.444894 	-1.01457e-018 77.4942 	-0.431764 	-1.54976e-018 77.3707 	-0.453524 	-9.8884e-019 77.2463 	-0.475306 	-4.27661e-019 77.1504 	-0.480873 	-4.07517e-019 77.1021 	-0.468876 	-9.38021e-019 77.0543 	-0.456869 	-1.46866e-018 76.9317 	-0.477564 	-9.11834e-019 76.8083 	-0.498279 	-3.54762e-019 76.7183 	-0.503598 	-5.42259e-020 76.6718 	-0.492767 	-1.98423e-019 76.6257 	-0.481926 	-3.42594e-019 76.5042 	-0.501588 	-1.28662e-018 76.3819 	-0.521269 	-2.2307e-018 76.2976 	-0.526369 	-2.10272e-018 76.2528 	-0.516697 	-8.9584e-019 76.2083 	-0.507018 	3.11139e-019 76.0877 	-0.525706 	1.66616e-019 75.9664 	-0.54441 	2.1925e-020 75.8877 	-0.549318 	-9.45806e-020 75.8445 	-0.540774 	-3.5066e-019 75.8016 	-0.532224 	-6.06789e-019 75.682 	-0.550018 	-3.3702e-019 75.5617 	-0.567828 	-6.71464e-020 75.4883 	-0.572578 	-5.24017e-020 75.4466 	-0.56511 	-1.25477e-019 75.4051 	-0.557635 	-1.98543e-019 75.2864 	-0.574634 	-1.29038e-019 75.1671 	-0.591648 	-5.95561e-020 75.0988 	-0.596278 	-2.72218e-019 75.0585 	-0.589812 	-3.53164e-019 75.0185 	-0.583341 	-4.34033e-019 74.9006 	-0.599647 	-2.46735e-018 74.7833 	-0.615721 	-4.45595e-018 74.7201 	-0.619997 	-4.28709e-018 74.6799 	-0.614966 	-2.37418e-018 74.6411 	-0.609418 	-3.65254e-019 74.5241 	-0.625136 	7.25147e-019 74.4153 	-0.639081 	1.67942e-018 74.3529 	-0.64354 	1.91006e-018 74.3102 	-0.640646 	1.08185e-018 74.2726 	-0.635935 	-7.66935e-021 74.1564 	-0.651165 	5.75495e-020 74.0562 	-0.663244 	8.46013e-020 73.9945 	-0.667893 	2.17665e-020 73.949 	-0.666915 	-1.62592e-019 73.9123 	-0.662952 	-4.11382e-019 73.7969 	-0.677789 	-1.4758e-019 73.7053 	-0.688223 	0 73.6442 	-0.693065 	0 73.5956 	-0.69382 	-1.21425e-019 73.5597 	-0.690523 	-3.63216e-019 73.4452 	-0.705052 	-1.06463e-019 73.3622 	-0.714026 	-1.48063e-019 73.3015 	-0.719065 	-4.01005e-019 73.2496 	-0.721412 	-7.39343e-019 73.2142 	-0.71871 	-1.23772e-018 73.1005 	-0.733016 	-2.71798e-018 73.026 	-0.740684 	-2.85353e-018 72.9658 	-0.74593 	-2.49805e-018 72.9102 	-0.749767 	-1.82093e-018 72.8752 	-0.747602 	2.22396e-019 72.7624 	-0.761762 	2.12223e-018 72.6964 	-0.768234 	2.52422e-018 72.6364 	-0.773683 	2.72622e-018 72.5771 	-0.778921 	2.87283e-018 72.5421 	-0.777214 	1.2267e-018 72.432 	-0.790961 	9.32563e-019 72.3724 	-0.796591 	6.35514e-019 72.3127 	-0.802223 	3.3851e-019 72.2528 	-0.807859 	4.15495e-020 72.2143 	-0.807486 	-9.88091e-020 72.113 	-0.819865 	-7.71611e-019 72.0536 	-0.825681 	-7.42183e-019 71.9939 	-0.831501 	-7.12612e-019 71.934 	-0.837323 	-6.82898e-019 71.8912 	-0.838459 	-8.2672e-020 71.7985 	-0.849578 	-9.28151e-022 71.739 	-0.855608 	-3.81765e-022 71.6793 	-0.861642 	1.6461e-022 71.6193 	-0.867678 	7.10977e-022 71.5721 	-0.870297 	-5.90299e-020 71.4878 	-0.880263 	-4.46658e-019 71.4281 	-0.88653 	-4.16324e-019 71.3682 	-0.892799 	-3.85838e-019 71.308 	-0.899071 	-3.552e-019 71.2563 	-0.90313 	-4.28748e-020 71.1801 	-0.912026 	-2.14284e-021 71.1202 	-0.918532 	-1.58254e-021 71.06 	-0.925041 	-1.02233e-021 70.9996 	-0.931553 	-4.6222e-022 70.9432 	-0.937001 	0 70.877 	-0.944665 	0 70.8187 	-0.951181 	0 70.7602 	-0.957701 	0 70.7014 	-0.964222 	0 70.6454 	-0.970412 	0 70.6427 	-0.970701 	0 70.64 	-0.970991 	0 70.6373 	-0.97128 	0 70.6346 	-0.97157 	0 70.6324 	-0.971806 	0 70.5701 	-0.978825 	2.12791e-019 70.5079 	-0.985798 	4.27286e-019 70.4453 	-0.992774 	6.41739e-019 70.3825 	-0.999753 	8.56149e-019 70.3305 	-1.00546 	1.07071e-018 70.2613 	-1.01384 	8.85262e-019 70.1985 	-1.02104 	7.11011e-019 70.1354 	-1.02824 	5.36705e-019 70.0721 	-1.03544 	3.62343e-019 70.0299 	-1.04019 	3.15474e-019 69.9537 	-1.0499 	5.7531e-019 69.8903 	-1.05732 	2.46746e-019 69.8266 	-1.06474 	-8.14886e-020 69.7627 	-1.07217 	-4.09394e-019 69.7301 	-1.076 	-1.34096e-018 69.6469 	-1.087 	-3.03958e-019 69.5829 	-1.09465 	1.3995e-019 69.5185 	-1.10229 	5.84196e-019 69.4539 	-1.10995 	1.02878e-018 69.4306 	-1.11289 	2.89607e-019 69.3405 	-1.12516 	2.3461e-019 69.2758 	-1.13303 	5.94167e-019 69.2107 	-1.14091 	9.53617e-019 69.1453 	-1.14879 	1.31296e-018 69.1312 	-1.15089 	1.82389e-018 69.0346 	-1.16431 	2.12159e-018 68.9686 	-1.17251 	1.87397e-018 68.9027 	-1.18063 	1.61707e-018 68.8439 	-1.18794 	1.31612e-018 68.8315 	-1.19006 	7.35089e-019 68.7346 	-1.20359 	5.12349e-020 68.661 	-1.21316 	-2.8866e-019 68.5942 	-1.22153 	-5.2403e-019 68.5451 	-1.22793 	-5.56484e-019 68.531 	-1.23045 	-1.89635e-019 68.4337 	-1.2441 	-1.34569e-019 68.3526 	-1.25501 	-7.97158e-020 68.2849 	-1.26364 	-2.50396e-020 68.2454 	-1.26917 	0 68.2295 	-1.27209 	0 68.1318 	-1.28587 	0 68.043 	-1.29811 	6.15871e-020 67.9744 	-1.30699 	2.55449e-019 67.9442 	-1.31168 	2.94868e-019 67.9266 	-1.31499 	2.83136e-019 67.8283 	-1.32893 	-1.32836e-018 67.732 	-1.34246 	-2.79606e-018 67.6623 	-1.35161 	-2.70251e-018 67.6413 	-1.35549 	-7.97217e-019 67.6219 	-1.35918 	1.17421e-018 67.523 	-1.37328 	2.3226e-018 67.4235 	-1.38738 	3.47083e-018 67.3573 	-1.39654 	3.17207e-018 67.3362 	-1.40061 	1.81063e-018 67.315 	-1.40468 	4.49159e-019 67.2153 	-1.41895 	2.62044e-019 67.1152 	-1.43322 	7.50126e-020 67.0517 	-1.44262 	-5.71687e-020 67.0287 	-1.44706 	-1.52105e-019 67.0055 	-1.45151 	-2.47032e-019 66.9051 	-1.46596 	6.17671e-019 66.8041 	-1.48041 	1.48241e-018 66.7431 	-1.49006 	1.52632e-018 66.7182 	-1.49487 	7.68721e-019 66.693 	-1.49969 	1.10857e-020 66.5917 	-1.51433 	7.54795e-019 66.4899 	-1.52898 	1.4985e-018 66.4314 	-1.53888 	1.50177e-018 66.4044 	-1.54407 	7.5235e-019 66.3772 	-1.54927 	2.9001e-021 66.2749 	-1.56411 	7.38874e-019 66.1771 	-1.57844 	1.39247e-018 66.1207 	-1.58838 	1.35532e-018 66.0868 	-1.59469 	8.1401e-019 66.0575 	-1.60026 	1.67456e-019 65.9542 	-1.61531 	6.83101e-020 65.8666 	-1.62867 	3.15994e-021 65.8085 	-1.6389 	9.71775e-022 65.7652 	-1.64673 	0 65.7337 	-1.65266 	0 65.6293 	-1.66792 	0 65.5517 	-1.68033 	0 65.4919 	-1.69084 	0 65.4391 	-1.70018 	4.62098e-020 65.4053 	-1.70645 	2.1333e-019 65.2997 	-1.72193 	2.69203e-020 65.232 	-1.73339 	1.54545e-019 65.1703 	-1.74418 	3.35221e-019 65.1083 	-1.75497 	5.15954e-019 65.0718 	-1.76162 	1.10222e-018 64.9701 	-1.77676 	2.34933e-018 64.907 	-1.78781 	2.25784e-018 64.8434 	-1.79887 	2.16577e-018 64.7795 	-1.80992 	2.0731e-018 64.7329 	-1.81811 	9.19485e-019 64.6414 	-1.83223 	5.22883e-019 64.5763 	-1.84353 	1.85061e-019 64.5107 	-1.85484 	-1.52757e-019 64.4448 	-1.86614 	-4.9057e-019 64.3881 	-1.87586 	-7.93815e-019 64.3066 	-1.88896 	-1.32713e-018 64.2393 	-1.90052 	-1.23321e-018 64.1717 	-1.91208 	-1.1387e-018 64.1036 	-1.92364 	-1.04358e-018 64.0369 	-1.9349 	-8.27203e-019 64.0181 	-1.93794 	-8.13059e-019 64.0021 	-1.94068 	-8.15086e-019 63.9861 	-1.94342 	-8.1712e-019 63.97 	-1.94617 	-8.19161e-019 63.9542 	-1.94887 	-8.21177e-019 63.8996 	-1.95796 	-7.97632e-019 63.8448 	-1.96706 	-7.74013e-019 63.7897 	-1.97615 	-7.50318e-019 63.7344 	-1.98525 	-7.26548e-019 63.691 	-1.99351 	-7.24501e-019 63.6094 	-2.00649 	-5.78486e-019 63.5363 	-2.0186 	-4.14293e-019 63.4627 	-2.03072 	-2.50036e-019 63.3886 	-2.04283 	-8.57157e-020 63.3425 	-2.05303 	-2.84675e-020 63.2467 	-2.06741 	-3.16122e-019 63.1712 	-2.07978 	-2.06737e-019 63.0952 	-2.09215 	-9.767e-020 63.0188 	-2.10453 	1.10786e-020 62.9868 	-2.11387 	5.79797e-019 62.8765 	-2.12965 	4.78545e-019 62.7985 	-2.14224 	3.11049e-019 62.7201 	-2.15483 	1.43486e-019 62.6489 	-2.1669 	0 62.6235 	-2.17587 	0 62.509 	-2.192 	0 62.4178 	-2.20581 	0 62.3368 	-2.21859 	0 62.2802 	-2.2297 	0 62.2521 	-2.23887 	0 62.1352 	-2.25516 	0 62.0286 	-2.27038 	0 61.9449 	-2.28332 	0 61.9031 	-2.29342 	0 61.8723 	-2.30276 	0 61.7529 	-2.31918 	0 61.6328 	-2.3356 	0 61.5507 	-2.34845 	0 61.5174 	-2.35795 	0 61.4837 	-2.36744 	0 61.3617 	-2.38396 	0 61.239 	-2.40048 	0 61.1588 	-2.41356 	-1.58467e-020 61.1226 	-2.42318 	-4.99428e-020 61.086 	-2.4328 	-8.40531e-020 60.9613 	-2.4494 	-5.48014e-020 60.836 	-2.46601 	-2.55704e-020 60.7576 	-2.4793 	-2.79336e-020 60.7185 	-2.48901 	-6.2299e-020 60.679 	-2.49873 	-9.66793e-020 60.5515 	-2.5154 	-6.73439e-020 60.4327 	-2.53145 	-4.92388e-020 60.3569 	-2.54458 	-8.40897e-020 60.3049 	-2.55535 	-2.20262e-019 60.2624 	-2.56515 	-3.97846e-019 60.1322 	-2.58186 	-6.92349e-019 60.0299 	-2.59666 	-8.12353e-019 59.9514 	-2.60983 	-7.84309e-019 59.8817 	-2.62208 	-6.79311e-019 59.8362 	-2.63194 	-3.74856e-019 59.7031 	-2.64867 	-1.86319e-019 59.6177 	-2.66217 	-1.1973e-019 59.5363 	-2.67536 	-6.44673e-020 59.4544 	-2.68855 	-9.2363e-021 59.4002 	-2.69901 	0 59.2799 	-2.71469 	-1.75744e-020 59.1961 	-2.72788 	-7.67763e-020 59.1118 	-2.74107 	-1.36006e-019 59.0271 	-2.75427 	-1.95264e-019 58.9543 	-2.76624 	-2.93877e-019 58.869 	-2.77787 	-2.71563e-019 58.7999 	-2.78838 	-3.2516e-019 58.7305 	-2.7989 	-3.78812e-019 58.6607 	-2.80941 	-4.32519e-019 58.5943 	-2.81939 	-4.83513e-019 58.5744 	-2.82216 	-5.00149e-019 58.5544 	-2.82493 	-5.16792e-019 58.5345 	-2.8277 	-5.33441e-019 58.5145 	-2.83047 	-5.50099e-019 58.4979 	-2.83299 	-5.28893e-019 58.3998 	-2.84643 	-4.53214e-019 58.3035 	-2.85958 	-3.82998e-019 58.2065 	-2.87274 	-3.12685e-019 58.109 	-2.8859 	-2.42274e-019 58.0309 	-2.89761 	-1.78439e-019 57.9178 	-2.91235 	-1.76635e-019 57.8182 	-2.92546 	-1.18102e-019 57.7179 	-2.93856 	-5.95375e-020 57.6171 	-2.95167 	-9.40563e-022 57.5528 	-2.9621 	2.03689e-019 57.4287 	-2.97764 	-3.59793e-019 57.3213 	-2.99118 	-5.07053e-019 57.2177 	-3.00422 	-5.48047e-019 57.1303 	-3.01604 	-3.50096e-019 57.0635 	-3.02636 	1.45868e-019 56.936 	-3.04178 	6.39072e-020 56.8127 	-3.05666 	1.1897e-023 56.7057 	-3.06961 	9.17263e-025 56.633 	-3.08006 	0 56.563 	-3.09029 	0 56.4321 	-3.10559 	0 56.3005 	-3.12088 	0 56.1971 	-3.13357 	-6.27868e-020 56.1244 	-3.14