# vtk DataFile Version 2.0
track0
ASCII
DATASET POLYDATA
POINTS 11980 float
-0.0205 0.001 1e-005
-0.0202034 0.00100022 1e-005
-0.0199069 0.00100067 1e-005
-0.0196103 0.00100132 1e-005
-0.0193137 0.00100219 1e-005
-0.0190172 0.00100326 1e-005
-0.0187132 0.00100466 1e-005
-0.0184093 0.00100588 1e-005
-0.0181054 0.0010071 1e-005
-0.0178015 0.00100832 1e-005
-0.0174976 0.00100953 1e-005
-0.0172058 0.00101083 1e-005
-0.016914 0.00101193 1e-005
-0.0166222 0.00101303 1e-005
-0.0163305 0.00101413 1e-005
-0.0160387 0.00101522 1e-005
-0.0157586 0.00101636 1e-005
-0.0154784 0.00101744 1e-005
-0.0151983 0.00101856 1e-005
-0.0149182 0.00101971 1e-005
-0.0146381 0.0010209 1e-005
-0.0143744 0.00102208 1e-005
-0.0141107 0.00102327 1e-005
-0.013847 0.00102449 1e-005
-0.0135833 0.00102574 1e-005
-0.0133606 0.00102682 1e-005
-0.0133472 0.00102688 1e-005
-0.0133337 0.00102695 1e-005
-0.0133203 0.00102702 1e-005
-0.0133069 0.00102708 1e-005
-0.0132934 0.00102715 1e-005
-0.0130353 0.00102844 1e-005
-0.0127771 0.00102974 1e-005
-0.0125189 0.00103106 1e-005
-0.0122607 0.00103239 1e-005
-0.0120025 0.00103374 1e-005
-0.0117547 0.00103505 1e-005
-0.0115068 0.00103637 1e-005
-0.0112589 0.00103769 1e-005
-0.0110111 0.00103901 1e-005
-0.0107632 0.00104034 1e-005
-0.0105252 0.00104161 1e-005
-0.0102873 0.00104289 1e-005
-0.0100493 0.00104417 1e-005
-0.00981133 0.00104545 1e-005
-0.00957337 0.00104672 1e-005
-0.00934491 0.00104794 1e-005
-0.00911645 0.00104916 1e-005
-0.00888799 0.00105038 1e-005
-0.00865954 0.0010516 1e-005
-0.00843108 0.00105281 1e-005
-0.00821175 0.00105396 1e-005
-0.00799242 0.00105512 1e-005
-0.00777309 0.00105627 1e-005
-0.00755376 0.00105742 1e-005
-0.00733443 0.00105856 1e-005
-0.00712387 0.00105965 1e-005
-0.0069133 0.00106074 1e-005
-0.00670273 0.00106183 1e-005
-0.00649216 0.00106291 1e-005
-0.0062816 0.00106398 1e-005
-0.00607944 0.001065 1e-005
-0.00587729 0.00106603 1e-005
-0.00567514 0.00106705 1e-005
-0.00547298 0.00106806 1e-005
-0.00527083 0.00106907 1e-005
-0.00507675 0.00107003 1e-005
-0.00488267 0.00107099 1e-005
-0.0046886 0.00107195 1e-005
-0.00449452 0.0010729 1e-005
-0.00430044 0.00107385 1e-005
-0.00411412 0.00107475 1e-005
-0.0039278 0.00107566 1e-005
-0.00374147 0.00107656 1e-005
-0.00355515 0.00107745 1e-005
-0.00336883 0.00107835 1e-005
-0.00318995 0.00107919 1e-005
-0.00301107 0.00108004 1e-005
-0.00283219 0.00108089 1e-005
-0.00265331 0.00108174 1e-005
-0.00247443 0.00108258 1e-005
-0.0023027 0.00108338 1e-005
-0.00213097 0.00108418 1e-005
-0.00195924 0.00108498 1e-005
-0.0017875 0.00108578 1e-005
-0.00161577 0.00108657 1e-005
-0.0014509 0.00108732 1e-005
-0.00128603 0.00108808 1e-005
-0.00112116 0.00108884 1e-005
-0.000956289 0.00108959 1e-005
-0.000791418 0.00109035 1e-005
-0.000633135 0.00109106 1e-005
-0.000474851 0.00109179 1e-005
-0.000316567 0.00109251 1e-005
-0.000158284 0.00109322 1e-005
0 0.00109394 1e-005
0.000105677 0.00109441 1e-005
0.000211355 0.00109488 1e-005
0.000317032 0.00109534 1e-005
0.00042271 0.00109581 1e-005
0.000528387 0.00109627 1e-005
0.000634886 0.00109672 1e-005
0.000741385 0.00109718 1e-005
0.000847885 0.00109763 1e-005
0.000954384 0.00109808 1e-005
0.00106088 0.00109853 1e-005
0.00116821 0.00109897 1e-005
0.00127554 0.00109942 1e-005
0.00138286 0.00109985 1e-005
0.00149019 0.00110028 1e-005
0.00159752 0.00110071 1e-005
0.00170568 0.00110113 1e-005
0.00181384 0.00110154 1e-005
0.001922 0.00110195 1e-005
0.00203016 0.00110235 1e-005
0.00213833 0.00110274 1e-005
0.00224733 0.00110312 1e-005
0.00235633 0.0011035 1e-005
0.00246533 0.00110387 1e-005
0.00257434 0.00110423 1e-005
0.00268334 0.00110458 1e-005
0.00279319 0.00110492 1e-005
0.00290304 0.00110526 1e-005
0.00301289 0.0011056 1e-005
0.00312274 0.00110592 1e-005
0.00323259 0.00110624 1e-005
0.00334329 0.00110654 1e-005
0.003454 0.00110684 1e-005
0.0035647 0.00110714 1e-005
0.0036754 0.00110743 1e-005
0.00378611 0.00110771 1e-005
0.00389767 0.00110798 1e-005
0.00400924 0.00110825 1e-005
0.0041208 0.00110851 1e-005
0.00423237 0.00110876 1e-005
0.00434393 0.00110901 1e-005
0.00445636 0.00110924 1e-005
0.00456879 0.00110947 1e-005
0.00468123 0.0011097 1e-005
0.00479366 0.00110991 1e-005
0.00490609 0.00111012 1e-005
0.0050194 0.00111032 1e-005
0.0051327 0.00111051 1e-005
0.00524601 0.0011107 1e-005
0.00535932 0.00111088 1e-005
0.00547262 0.00111105 1e-005
0.00558681 0.00111121 1e-005
0.005701 0.00111137 1e-005
0.00581518 0.00111152 1e-005
0.00592937 0.00111167 1e-005
0.00604356 0.0011118 1e-005
0.00615863 0.00111193 1e-005
0.00627371 0.00111205 1e-005
0.00638878 0.00111216 1e-005
0.00650386 0.00111227 1e-005
0.00661893 0.00111237 1e-005
0.0067349 0.00111246 1e-005
0.00685087 0.00111254 1e-005
0.00696684 0.00111262 1e-005
0.00708281 0.00111269 1e-005
0.00719878 0.00111275 1e-005
0.0072619 0.00111278 1e-005
0.00732502 0.00111281 1e-005
0.00738815 0.00111283 1e-005
0.00745127 0.00111286 1e-005
0.00751256 0.00111288 1e-005
0.00756667 0.00111289 1e-005
0.00762079 0.00111291 1e-005
0.0076749 0.00111292 1e-005
0.00772902 0.00111293 1e-005
0.00778313 0.00111294 1e-005
0.00790091 0.00111296 1e-005
0.00801869 0.00111297 1e-005
0.00813647 0.00111297 1e-005
0.00825425 0.00111296 1e-005
0.00837203 0.00111295 1e-005
0.00849073 0.00111292 1e-005
0.00860942 0.0011129 1e-005
0.00872812 0.00111286 1e-005
0.00884682 0.00111281 1e-005
0.00896551 0.00111276 1e-005
0.00908513 0.00111269 1e-005
0.00920475 0.00111262 1e-005
0.00932437 0.00111255 1e-005
0.00944398 0.00111246 1e-005
0.0095636 0.00111237 1e-005
0.00968415 0.00111226 1e-005
0.0098047 0.00111215 1e-005
0.00992525 0.00111203 1e-005
0.0100458 0.00111191 1e-005
0.0101663 0.00111177 1e-005
0.0102878 0.00111162 1e-005
0.0104093 0.00111147 1e-005
0.0105308 0.00111131 1e-005
0.0106523 0.00111114 1e-005
0.0107738 0.00111097 1e-005
0.0108962 0.00111077 1e-005
0.0110186 0.00111057 1e-005
0.0111411 0.00111037 1e-005
0.0112635 0.00111016 1e-005
0.0113859 0.00110994 1e-005
0.0115093 0.0011097 1e-005
0.0116327 0.00110946 1e-005
0.0117561 0.00110922 1e-005
0.0118795 0.00110897 1e-005
0.0120028 0.0011087 1e-005
0.0121272 0.00110842 1e-005
0.0122515 0.00110813 1e-005
0.0123759 0.00110784 1e-005
0.0125002 0.00110755 1e-005
0.0126245 0.00110724 1e-005
0.0127498 0.00110691 1e-005
0.0128752 0.00110658 1e-005
0.0130005 0.00110624 1e-005
0.0131258 0.0011059 1e-005
0.0132511 0.00110555 1e-005
0.0133774 0.00110517 1e-005
0.0135036 0.00110479 1e-005
0.0136299 0.00110441 1e-005
0.0137562 0.00110402 1e-005
0.0138825 0.00110362 1e-005
0.0140098 0.0011032 1e-005
0.014137 0.00110278 1e-005
0.0142643 0.00110235 1e-005
0.0143915 0.00110191 1e-005
0.0145188 0.00110146 1e-005
0.0146471 0.00110099 1e-005
0.0147753 0.00110052 1e-005
0.0149036 0.00110004 1e-005
0.0150318 0.00109956 1e-005
0.0151601 0.00109906 1e-005
0.0152893 0.00109854 1e-005
0.0154186 0.00109802 1e-005
0.0155478 0.0010975 1e-005
0.0156771 0.00109696 1e-005
0.0158063 0.00109641 1e-005
0.0159366 0.00109585 1e-005
0.0160668 0.00109528 1e-005
0.0161971 0.00109471 1e-005
0.0163274 0.00109412 1e-005
0.0164576 0.00109352 1e-005
0.0165889 0.00109292 1e-005
0.0167201 0.0010923 1e-005
0.0168514 0.00109167 1e-005
0.0169827 0.00109103 1e-005
0.0171139 0.00109039 1e-005
0.0172462 0.00108974 1e-005
0.0173785 0.00108907 1e-005
0.0175108 0.00108839 1e-005
0.0176431 0.0010877 1e-005
0.0177754 0.00108701 1e-005
0.0179087 0.00108631 1e-005
0.018042 0.00108559 1e-005
0.0181753 0.00108487 1e-005
0.0183087 0.00108413 1e-005
0.018442 0.00108339 1e-005
0.0185763 0.00108264 1e-005
0.0187107 0.00108187 1e-005
0.018845 0.00108109 1e-005
0.0189794 0.0010803 1e-005
0.0191137 0.00107951 1e-005
0.0192491 0.00107872 1e-005
0.0193845 0.00107791 1e-005
0.0195199 0.00107707 1e-005
0.0196553 0.00107623 1e-005
0.0197907 0.00107539 1e-005
0.0199272 0.00107455 1e-005
0.0200636 0.00107369 1e-005
0.0202001 0.00107281 1e-005
0.0203365 0.00107192 1e-005
0.020473 0.00107103 1e-005
0.0206105 0.00107014 1e-005
0.020748 0.00106923 1e-005
0.0208855 0.0010683 1e-005
0.021023 0.00106735 1e-005
0.0211606 0.00106642 1e-005
0.0212991 0.00106548 1e-005
0.0214377 0.00106452 1e-005
0.0215763 0.00106354 1e-005
0.0217149 0.00106255 1e-005
0.0218535 0.00106156 1e-005
0.0219931 0.00106058 1e-005
0.0221328 0.00105957 1e-005
0.0222724 0.00105854 1e-005
0.0224121 0.0010575 1e-005
0.0225517 0.00105646 1e-005
0.0226925 0.00105543 1e-005
0.0228332 0.00105437 1e-005
0.022974 0.00105329 1e-005
0.0231147 0.0010522 1e-005
0.0232555 0.00105112 1e-005
0.0233973 0.00105003 1e-005
0.0235391 0.00104893 1e-005
0.023681 0.00104779 1e-005
0.0238228 0.00104665 1e-005
0.0239647 0.00104552 1e-005
0.0241076 0.00104439 1e-005
0.0242505 0.00104323 1e-005
0.0243935 0.00104205 1e-005
0.0245364 0.00104085 1e-005
0.0246794 0.00103967 1e-005
0.0248234 0.00103849 1e-005
0.0249675 0.00103728 1e-005
0.0251115 0.00103605 1e-005
0.0252556 0.00103481 1e-005
0.0253996 0.00103357 1e-005
0.0255448 0.00103234 1e-005
0.02569 0.00103108 1e-005
0.0258351 0.0010298 1e-005
0.0259803 0.00102851 1e-005
0.0261255 0.00102723 1e-005
0.0262718 0.00102594 1e-005
0.0264181 0.00102463 1e-005
0.0265644 0.0010233 1e-005
0.0267107 0.00102196 1e-005
0.026857 0.00102062 1e-005
0.0270044 0.00101929 1e-005
0.0271519 0.00101792 1e-005
0.0272993 0.00101654 1e-005
0.0274468 0.00101515 1e-005
0.0275942 0.00101376 1e-005
0.0277428 0.00101237 1e-005
0.0278914 0.00101095 1e-005
0.0280399 0.00100952 1e-005
0.0281885 0.00100807 1e-005
0.0283371 0.00100663 1e-005
0.0284869 0.00100519 1e-005
0.0286366 0.00100371 1e-005
0.0287863 0.00100222 1e-005
0.0289361 0.00100073 1e-005
0.0290858 0.000999227 1e-005
0.0292367 0.000997725 1e-005
0.0293876 0.000996193 1e-005
0.0295385 0.00099465 1e-005
0.0296894 0.000993099 1e-005
0.0298403 0.000991541 1e-005
0.0299924 0.00098998 1e-005
0.0301445 0.000988389 1e-005
0.0302966 0.00098679 1e-005
0.0304486 0.000985182 1e-005
0.0306007 0.000983566 1e-005
0.030754 0.000981943 1e-005
0.0309072 0.000980294 1e-005
0.0310605 0.000978636 1e-005
0.0312138 0.000976969 1e-005
0.031367 0.000975294 1e-005
0.0315215 0.000973608 1e-005
[...]
POINT_DATA 11980
 FIELD attributes 2
p 1 11980 float
-4.83436 -4.83365 -4.83004 -4.82635 -4.82258 -4.81421 -4.82807 -4.84306 -4.85805 -4.87304 -4.89748 -4.91927 -4.94924 -4.9792 -5.00916 -5.04193 -5.05763 -5.07936 -5.1011 -5.12284 -5.1462 -5.16515 -5.1861 -5.20707 -5.22803 -5.24574 -5.24681 -5.24787 -5.24894 -5.25 -5.25106 -5.27278 -5.29449 -5.31621 -5.33793 -5.35937 -5.3782 -5.39684 -5.41547 -5.43411 -5.45218 -5.46788 -5.48331 -5.49873 -5.51416 -5.52903 -5.5429 -5.55653 -5.57015 -5.58377 -5.59695 -5.60977 -5.62233 -5.6349 -5.64746 -5.6596 -5.67153 -5.68316 -5.6948 -5.70643 -5.71765 -5.72877 -5.73962 -5.75048 -5.76133 -5.77183 -5.78236 -5.79262 -5.80288 -5.81314 -5.82308 -5.83313 -5.843 -5.85286 -5.86273 -5.87238 -5.88213 -5.89163 -5.90113 -5.91063 -5.91991 -5.92947 -5.93916 -5.94886 -5.95855 -5.96836 -5.97837 -5.98815 -5.99793 -6.0077 -6.01728 -6.02728 -6.03804 -6.0488 -6.05956 -6.07044 -6.0802 -6.09057 -6.10094 -6.11132 -6.12121 -6.13021 -6.13871 -6.14721 -6.1557 -6.16344 -6.17042 -6.17849 -6.18657 -6.19464 -6.20348 -6.21159 -6.22018 -6.22877 -6.23737 -6.24608 -6.25414 -6.26123 -6.26831 -6.2754 -6.28166 -6.28828 -6.29363 -6.29899 -6.30434 -6.30867 -6.31425 -6.31879 -6.32334 -6.32789 -6.3315 -6.33635 -6.34031 -6.34427 -6.34823 -6.35138 -6.35526 -6.3584 -6.36154 -6.36468 -6.36721 -6.37007 -6.37238 -6.37469 -6.377 -6.37894 -6.38105 -6.3828 -6.38456 -6.38632 -6.38789 -6.38962 -6.39115 -6.39268 -6.39421 -6.39565 -6.39719 -6.39862 -6.40005 -6.40148 -6.40288 -6.40364 -6.40436 -6.40508 -6.4058 -6.4065 -6.40712 -6.40774 -6.40836 -6.40898 -6.40964 -6.41085 -6.41212 -6.41339 -6.41466 -6.41612 -6.41715 -6.41841 -6.41968 -6.42094 -6.42262 -6.42345 -6.42474 -6.42604 -6.42734 -6.42935 -6.42997 -6.43136 -6.43275 -6.43415 -6.43661 -6.43704 -6.43856 -6.44007 -6.44159 -6.44453 -6.44473 -6.44634 -6.44796 -6.44957 -6.45295 -6.45294 -6.45466 -6.45638 -6.4581 -6.46195 -6.46179 -6.46365 -6.46551 -6.46737 -6.47166 -6.47142 -6.47342 -6.47542 -6.47742 -6.4821 -6.48179 -6.48394 -6.48608 -6.48822 -6.49322 -6.49291 -6.49519 -6.49747 -6.49995 -6.50504 -6.50505 -6.5072 -6.50964 -6.51253 -6.51759 -6.51793 -6.52001 -6.5226 -6.52587 -6.53087 -6.53157 -6.53361 -6.53635 -6.53996 -6.5449 -6.54595 -6.548 -6.55089 -6.55478 -6.55965 -6.56106 -6.56315 -6.56619 -6.57033 -6.57514 -6.57688 -6.57906 -6.58225 -6.58659 -6.59133 -6.59341 -6.59571 -6.59904 -6.60354 -6.60824 -6.61062 -6.61306 -6.61653 -6.62116 -6.62582 -6.6285 -6.63117 -6.63481 -6.63945 -6.64408 -6.64702 -6.64997 -6.65374 -6.65837 -6.66299 -6.66619 -6.66938 -6.6733 -6.67793 -6.68256 -6.68601 -6.68946 -6.6935 -6.69814 -6.70277 -6.70646 -6.71015 -6.7143 -6.71893 -6.72355 -6.72746 -6.73136 -6.73561 -6.74023 -6.74484 -6.74891 -6.75298 -6.75732 -6.76194 -6.76657 -6.77077 -6.77497 -6.77941 -6.78405 -6.78871 -6.79302 -6.79736 -6.80188 -6.80654 -6.81123 -6.81564 -6.8201 -6.82469 -6.82938 -6.83412 -6.83861 -6.84316 -6.84782 -6.85254 -6.85733 -6.86188 -6.86652 -6.87123 -6.87598 -6.88082 -6.88542 -6.89014 -6.89489 -6.89968 -6.90455 -6.9092 -6.91397 -6.91876 -6.92356 -6.92846 -6.93314 -6.93795 -6.94277 -6.94758 -6.9525 -6.9572 -6.96203 -6.96687 -6.9717 -6.9766 -6.98133 -6.98617 -6.991 -6.99583 -7.00072 -7.00546 -7.01028 -7.01511 -7.01993 -7.02479 -7.02953 -7.03432 -7.03912 -7.04392 -7.04874 -7.05346 -7.05822 -7.06298 -7.06774 -7.0725 -7.07573 -7.07896 -7.0822 -7.08543 -7.08858 -7.09007 -7.09156 -7.09304 -7.09453 -7.09602 -7.10066 -7.1053 -7.10994 -7.11458 -7.11924 -7.12379 -7.12834 -7.1329 -7.13746 -7.14203 -7.1465 -7.15095 -7.15541 -7.15987 -7.16435 -7.16871 -7.17305 -7.1774 -7.18174 -7.1861 -7.19035 -7.19456 -7.19876 -7.20297 -7.20718 -7.2113 -7.21534 -7.21939 -7.22344 -7.22748 -7.23144 -7.23532 -7.2392 -7.24306 -7.24692 -7.2507 -7.25441 -7.25808 -7.26174 -7.26537 -7.26895 -7.27247 -7.27592 -7.27933 -7.28272 -7.28607 -7.28938 -7.29258 -7.29572 -7.29884 -7.30193 -7.30502 -7.30795 -7.31078 -7.3136 -7.31642 -7.31924 -7.32188 -7.32439 -7.32689 -7.32941 -7.33192 -7.33425 -7.33641 -7.33858 -7.34076 -7.34294 -7.34494 -7.34672 -7.34851 -7.35033 -7.35215 -7.35379 -7.35518 -7.35656 -7.35799 -7.35942 -7.36065 -7.36163 -7.36258 -7.36359 -7.36454 -7.36534 -7.36593 -7.36642 -7.36698 -7.36742 -7.36774 -7.36793 -7.36792 -7.368 -7.3679 -7.36771 -7.36747 -7.36695 -7.36651 -7.36581 -7.3651 -7.36438 -7.36333 -7.3623 -7.36101 -7.35973 -7.35845 -7.35692 -7.35522 -7.35334 -7.35145 -7.34957 -7.34754 -7.34514 -7.34262 -7.34011 -7.33759 -7.33504 -7.33391 -7.33274 -7.33158 -7.33041 -7.32928 -7.32729 -7.3253 -7.32331 -7.32132 -7.31927 -7.31553 -7.3117 -7.30788 -7.30406 -7.30005 -7.29574 -7.29119 -7.28665 -7.2821 -7.27722 -7.27233 -7.26702 -7.26172 -7.25642 -7.25062 -7.24505 -7.23903 -7.23294 -7.2267 -7.22008 -7.21372 -7.20706 -7.20016 -7.19292 -7.18546 -7.17826 -7.17096 -7.1632 -7.15493 -7.14659 -7.13853 -7.13046 -7.1218 -7.11256 -7.10333 -7.09437 -7.08541 -7.07585 -7.06568 -7.05552 -7.04563 -7.03575 -7.02526 -7.01413 -7.003 -6.99216 -6.9812 -6.96969 -6.95777 -6.94565 -6.93383 -6.92164 -6.90913 -6.89645 -6.88332 -6.8705 -6.85703 -6.84349 -6.82996 -6.81588 -6.80183 -6.78724 -6.77265 -6.75806 -6.7432 -6.72781 -6.71214 -6.69647 -6.68081 -6.66515 -6.66511 -6.66507 -6.66504 -6.665 -6.66496 -6.64836 -6.63178 -6.6152 -6.59863 -6.58179 -6.56431 -6.54658 -6.52885 -6.51113 -6.49285 -6.47453 -6.45567 -6.43681 -6.41778 -6.39823 -6.37877 -6.35906 -6.33907 -6.31856 -6.29785 -6.27724 -6.25663 -6.23541 -6.21351 -6.19162 -6.16984 -6.14807 -6.12563 -6.10256 -6.07948 -6.05651 -6.03347 -6.00975 -5.98562 -5.96135 -5.9372 -5.91257 -5.88765 -5.86266 -5.83718 -5.81175 -5.7856 -5.75946 -5.73333 -5.70694 -5.68739 -5.66754 -5.6477 -5.62785 -5.60898 -5.60131 -5.59363 -5.58596 -5.57828 -5.57053 -5.5421 -5.51362 -5.48514 -5.45667 -5.42782 -5.39841 -5.36871 -5.33902 -5.30923 -5.27897 -5.24839 -5.21766 -5.18676 -5.15544 -5.12397 -5.09217 -5.06039 -5.0282 -4.99551 -4.96283 -4.92983 -4.89684 -4.86334 -4.82946 -4.79558 -4.76138 -4.72693 -4.69216 -4.65732 -4.62226 -4.58684 -4.55088 -4.51493 -4.47899 -4.44292 -4.4233 -4.40349 -4.38368 -4.36387 -4.34472 -4.32733 -4.30994 -4.29255 -4.27517 -4.25759 -4.21953 -4.18137 -4.14321 -4.10506 -4.06633 -4.02732 -3.98809 -3.94881 -3.9092 -3.86929 -3.82916 -3.78904 -3.74857 -3.70757 -3.66656 -3.62534 -3.58413 -3.54241 -3.50036 -3.45829 -3.41601 -3.37343 -3.33057 -3.28769 -3.2446 -3.20116 -3.15728 -3.1134 -3.06953 -3.02562 -3.01922 -3.01276 -3.0063 -2.99985 -2.99344 -2.95509 -2.91674 -2.87839 -2.84006 -2.80134 -2.75578 -2.71004 -2.66431 -2.61842 -2.57209 -2.52562 -2.47914 -2.43249 -2.38529 -2.33807 -2.29071 -2.24336 -2.19559 -2.14754 -2.09947 -2.05126 -2.0028 -1.95409 -1.90538 -1.85651 -1.81022 -1.76357 -1.71694 -1.67031 -1.62608 -1.62274 -1.61941 -1.61607 -1.61273 -1.60937 -1.55918 -1.50899 -1.45881 -1.40864 -1.35803 -1.30725 -1.25639 -1.20552 -1.15436 -1.10299 -1.05154 -1.0001 -0.948434 -0.896484 -0.844509 -0.792439 -0.740289 -0.687834 -0.635363 -0.58283 -0.530177 -0.477174 -0.424181 -0.371197 -0.318178 -0.311941 -0.30567 -0.299399 -0.293129 -0.286896 -0.23966 -0.192433 -0.145212 -0.0979997 -0.0504773 0.00345016 0.0573875 0.111318 0.165437 0.219727 0.274075 0.328412 0.382852 0.437425 0.492031 0.546709 0.601459 0.656361 0.711244 0.766128 0.812654 0.859332 0.906004 0.952669 0.99746 1.00633 1.0152 1.02406 1.03293 1.04183 1.09727 1.15268 1.20808 1.26349 1.31914 1.37479 1.43041 1.48598 1.54169 1.59746 1.65324 1.70902 1.7649 1.82069 1.87651 1.93237 1.98829 2.0442 2.10011 2.15602 2.16706 2.1781 2.18913 2.20017 2.21111 2.25608 2.30105 2.34601 2.39096 2.436 2.49209 2.54806 2.60399 2.65993 2.71593 2.77191 2.82789 2.88383 2.93962 2.99546 3.0513 3.10709 3.16285 3.21861 3.27433 3.28893 3.3035 3.31807 3.33264 3.34706 3.38817 3.42928 3.47039 3.51149 3.55257 3.60818 3.66364 3.71904 3.77436 3.8297 3.88501 3.9403 3.99548 4.05041 4.10538 4.16033 4.21512 4.26987 4.32462 4.37937 4.38429 4.38918 4.39408 4.39897 4.40385 4.45348 4.5031 4.55272 4.60232 4.6518 4.7061 4.76032 4.81438 4.8682 4.92207 4.97589 5.02967 5.0832 5.13663 5.18995 5.22882 5.26749 5.30614 5.34478 5.38262 5.39718 5.41174 5.4263 5.44085 5.45535 5.50811 5.56074 5.61337 5.66587 5.71824 5.77051 5.82277 5.87473 5.92641 5.97812 6.02973 6.08112 6.13238 6.18363 6.2348 6.24567 6.25647 6.26726 6.27806 6.2888 6.3288 6.36879 6.40878 6.44874 6.48849 6.53886 6.58913 6.63922 6.68896 6.73873 6.78835 6.83791 6.88714 6.93629 6.98527 7.01408 7.04268 7.07124 7.0998 7.12816 7.14821 7.16825 7.18829 7.2083 7.22817 7.27637 7.32431 7.37225 7.41989 7.46739 7.51478 7.56217 7.60914 7.65584 7.70248 7.7375 7.77223 7.80688 7.84153 7.87613 7.88762 7.89912 7.91062 7.92209 7.93346 7.97915 8.02467 8.07019 8.11546 8.16048 8.20538 8.25029 8.29481 8.33892 8.38303 8.41963 8.45589 8.49206 8.52822 8.56472 8.57202 8.57931 8.58661 8.59388 8.60109 8.64411 8.68701 8.72991 8.77259 8.81496 8.85719 8.89942 8.94124 8.98267 9.02407 9.06097 9.0975 9.13393 9.17036 9.20762 9.21179 9.21595 9.22012 9.22428 9.22839 9.26858 9.3087 9.34882 9.38877 9.42834 9.46774 9.50714 9.54614 9.58474 9.6233 9.6617 9.69968 9.73754 9.77541 9.81323 9.81393 9.81463 9.81532 9.81602 9.81671 9.85323 9.88975 9.92627 9.9627 9.99868 10.0351 10.0716 10.1077 10.1434 10.179 10.2144 10.2496 10.2845 10.3194 10.3541 10.3638 10.3733 10.3829 10.3924 10.4021 10.4267 10.4512 10.4758 10.5003 10.5245 10.5579 10.5912 10.6244 10.6571 10.6898 10.7221 10.7545 10.7864 10.8182 10.8498 10.8752 10.9003 10.9254 10.9505 10.9774 10.9828 10.9883 10.9938 10.9993 11.0047 11.0349 11.0651 11.0952 11.1252 11.1549 11.1842 11.2135 11.2425 11.2713 11.3 11.3284 11.3566 11.3843 11.4117 11.4386 11.4633 11.489 11.5147 11.5404 11.5705 11.5715 11.5726 11.5736 11.5746 11.5757 11.5992 11.6225 11.6457 11.6689 11.6867 11.7032 11.7253 11.7496 11.7814 11.8174 11.8528 11.8881 11.9087 11.9146 11.9205 11.925 11.9335 11.9433 11.9531 11.9643 11.9651 11.966 11.9669 11.9679 11.9693 11.9825 11.9956 12.0086 12.0212 12.0333 12.0445 12.0556 12.065 12.0727 12.0803 12.0869 12.0926 12.0976 12.1026 12.107 12.1077 12.108 12.1082 12.1084 12.1086 12.1101 12.1116 12.1131 12.1144 12.1146 12.1134 12.1112 12.1083 12.1039 12.0991 12.0925 12.0858 12.0772 12.0668 12.0561 12.0434 12.0285 12.0131 11.9977 11.9817 11.9774 11.9726 11.9678 11.9629 11.9579 11.9413 11.9248 11.9082 11.8915 11.873 11.8461 11.8171 11.7877 11.7565 11.7239 11.6882 11.6523 11.6132 11.571 11.5287 11.4828 11.4358 11.3858 11.3344 11.281 11.2237 11.1618 11.0998 11.0378 10.9746 10.951 10.9261 10.9012 10.8763 10.849 10.8003 10.7515 10.7026 10.6537 10.6025 10.517 10.4287 10.3402 10.251 10.157 10.0574 9.9548 9.84924 9.7384 9.62568 9.50679 9.38782 9.26312 9.13303 9.00282 8.86591 8.72894 8.58115 8.42248 8.26364 8.09715 7.92972 7.76102 7.59163 7.42088 7.24218 7.03543 6.82594 6.6165 6.38769 6.15331 5.93718 5.72099 5.50475 5.29386 5.18399 5.0507 4.91749 4.78437 4.62829 4.45285 4.27726 4.10151 3.9256 3.72233 3.41138 3.15005 2.888 2.6253 2.49436 2.36313 1.92799 1.49789 0.941047 0