/*--------------------------------*- C++ -*----------------------------------*\
| =========                 |                                                 |
| \\      /  F ield         | OpenFOAM: The Open Source CFD Toolbox           |
|  \\    /   O peration     | Version:  5.x                                   |
|   \\  /    A nd           | Web:      www.OpenFOAM.org                      |
|    \\/     M anipulation  |                                                 |
\*---------------------------------------------------------------------------*/
/*   Windows 32 and 64 bit porting by blueCAPE: http://www.bluecape.com.pt   *\
|  Based on Windows porting (2.0.x v4) by Symscape: http://www.symscape.com   |
\*---------------------------------------------------------------------------*/
FoamFile
{
    version     2.0;
    format      ascii;
    class       volScalarField;
    location    "1668";
    object      p;
}
// * * * * * * * * * * * * * * * * * * * * * * * * * * * * * * * * * * * * * //

dimensions      [0 2 -2 0 0 0 0];

internalField   nonuniform List<scalar> 
4000
(
0.022116
0.0166453
0.0139235
0.0123971
0.0111534
0.010138
0.00930583
0.00860439
0.00798056
0.00741743
0.00691274
0.00645822
0.00604119
0.00565982
0.0053112
0.0049902
0.00469323
0.00441689
0.0041578
0.00391434
0.00368632
0.00347233
0.00327089
0.00308116
0.00290198
0.00273181
0.00256955
0.00241388
0.00226334
0.00211741
0.001976
0.00183832
0.00170378
0.00157259
0.00144462
0.0013198
0.00119869
0.00108098
0.000965562
0.000852318
0.000741325
0.000632356
0.000527079
0.000429165
0.000341392
0.000263342
0.000192296
0.000125498
6.13872e-005
-2.40625e-007
-5.91411e-005
-0.000114996
-0.00016696
-0.00021507
-0.00026089
-0.000304132
-0.000343209
-0.000377545
-0.00040772
-0.000435365
-0.000463214
-0.000492176
-0.000522407
-0.00055386
-0.000585662
-0.000616986
-0.000647481
-0.000677433
-0.000707426
-0.000737415
-0.00076678
-0.000795042
-0.000821981
-0.00084787
-0.000873711
-0.000900344
-0.000927967
-0.000955978
-0.000983223
-0.00100808
-0.00102897
-0.00104492
-0.00104994
-0.00105055
-0.00106225
-0.00108301
-0.00110705
-0.00113246
-0.00115865
-0.00118528
-0.00121221
-0.00123929
-0.00126645
-0.00129335
-0.00131975
-0.0013454
-0.00137026
-0.00139436
-0.00141786
-0.00144083
-0.00146335
-0.00148541
-0.00150708
-0.00152834
-0.00154927
-0.00156982
-0.00159007
-0.00161002
-0.00162975
-0.00164919
-0.00166831
-0.00168693
-0.00170521
-0.00172333
-0.00174132
-0.00175912
-0.0017768
-0.00179437
-0.0018119
-0.00182937
-0.00184683
-0.00186425
-0.00188169
-0.00189911
-0.00191658
-0.00193405
-0.00195175
-0.00196994
-0.00198867
-0.00200784
-0.00202766
-0.00204824
-0.00206919
-0.00208949
-0.00210915
-0.00212864
-0.00214851
-0.00216882
-0.00218949
-0.00221031
-0.00223135
-0.00225269
-0.00227443
-0.00229658
-0.00231928
-0.00234178
-0.00236422
-0.00238575
-0.00240705
-0.00242836
-0.00245019
-0.00247212
-0.00249375
-0.00251482
-0.00253558
-0.00255557
-0.0025781
-0.00260174
-0.00262133
-0.00263904
-0.00265451
-0.00266814
-0.00267945
-0.00268836
-0.0026967
-0.00270363
-0.00270793
-0.00270945
-0.00270845
-0.0027051
-0.00269903
-0.00269058
-0.00267991
-0.00266697
-0.0026518
-0.00263492
-0.00261539
-0.00259206
-0.00256379
-0.00253006
-0.00249125
-0.00244686
-0.00239407
-0.00233484
-0.00226808
-0.00219431
-0.00211672
-0.00203141
-0.00193806
-0.00183544
-0.00172113
-0.00158154
-0.00141292
-0.00127333
-0.00117704
-0.00106491
-0.000906273
-0.000750288
-0.000482283
-0.000487317
0.0143406
0.0137552
0.0128396
0.0119108
0.0110058
0.0101946
0.00948865
0.00885557
0.0082597
0.00770556
0.00720324
0.00674595
0.00631886
0.00592901
0.0055709
0.00523786
0.00492714
0.00463657
0.00436379
0.00410842
0.00387168
0.00365135
0.00344508
0.00325041
0.00306623
0.00289293
0.00273022
0.00257574
0.0024262
0.00227979
0.00213493
0.00199316
0.00185701
0.0017262
0.00160027
0.0014787
0.00136158
0.00124475
0.0011271
0.00101286
0.000902299
0.000793624
0.000687186
0.000587188
0.000497094
0.000418061
0.000348752
0.00028533
0.000224165
0.000163739
0.000103804
4.4179e-005
-1.43594e-005
-7.10363e-005
-0.000125235
-0.000173064
-0.000210753
-0.000237762
-0.000256495
-0.00027383
-0.000298955
-0.000331502
-0.000366026
-0.000400757
-0.00043589
-0.000471203
-0.000506285
-0.000540663
-0.000574015
-0.000606312
-0.00063783
-0.000668734
-0.000699274
-0.000729481
-0.000759154
-0.000788015
-0.000815973
-0.000842883
-0.000868365
-0.00089233
-0.00091559
-0.000939087
-0.000966486
-0.000996023
-0.00102183
-0.00104512
-0.00106784
-0.00109036
-0.00111313
-0.00113638
-0.0011602
-0.00118458
-0.00120936
-0.00123408
-0.00125842
-0.00128224
-0.00130556
-0.00132849
-0.00135109
-0.00137339
-0.00139538
-0.00141703
-0.00143836
-0.00145935
-0.00148002
-0.00150035
-0.00152039
-0.00154022
-0.00155992
-0.00157943
-0.00159872
-0.00161784
-0.00163667
-0.00165505
-0.00167314
-0.00169102
-0.00170878
-0.00172645
-0.00174406
-0.00176156
-0.00177896
-0.00179625
-0.00181344
-0.00183058
-0.00184769
-0.00186479
-0.00188226
-0.00190053
-0.00191935
-0.00193818
-0.00195706
-0.00197641
-0.00199579
-0.00201406
-0.00203214
-0.00205078
-0.00206983
-0.00208906
-0.00210864
-0.00212841
-0.00214849
-0.00216907
-0.00219004
-0.00221126
-0.00223226
-0.00225311
-0.00227363
-0.00229435
-0.00231446
-0.0023355
-0.00235733
-0.00237922
-0.00240081
-0.0024222
-0.00244404
-0.00246631
-0.0024885
-0.00251029
-0.00252978
-0.00254719
-0.00256281
-0.00257646
-0.00258857
-0.00259853
-0.00260726
-0.00261433
-0.00261865
-0.0026198
-0.00261771
-0.0026124
-0.00260476
-0.00259634
-0.00258728
-0.00257694
-0.00256481
-0.00255103
-0.00253508
-0.0025154
-0.00248995
-0.00245786
-0.00241979
-0.00237645
-0.00232717
-0.0022709
-0.00220774
-0.00214071
-0.00206862
-0.00199049
-0.00190857
-0.00182582
-0.00173601
-0.00164315
-0.00155041
-0.00143706
-0.00128933
-0.00113135
-0.000944588
-0.000774511
-0.000446417
-0.00045563
0.0118447
0.0124276
0.0118172
0.0111301
0.0104529
0.00979276
0.00918518
0.00861737
0.00809149
0.00758576
0.00713778
0.00672753
0.00633362
0.00597712
0.00564955
0.00534167
0.00505245
0.0047796
0.00451842
0.00427378
0.00404898
0.00383853
0.00364032
0.00345316
0.00327606
0.00310821
0.00294836
0.00279427
0.00264547
0.00250228
0.00236354
0.00222888
0.00209837
0.00197174
0.00184867
0.00172896
0.00161171
0.00150054
0.00139643
0.00129438
0.00119391
0.00109712
0.00100447
0.000913086
0.000820756
0.000727507
0.000636236
0.000551338
0.00047464
0.000405492
0.000344564
0.000293737
0.000259365
0.000229759
0.000190333
0.000146319
9.97082e-005
5.11315e-005
2.17872e-006
-4.40343e-005
-8.40339e-005
-0.000119137
-0.000152048
-0.000184635
-0.000218501
-0.000253479
-0.000288888
-0.000324062
-0.000358605
-0.0003924
-0.000425607
-0.000458244
-0.000490455
-0.000522351
-0.000553918
-0.000584959
-0.000615657
-0.000646059
-0.000674936
-0.000701731
-0.000727912
-0.000754101
-0.000784688
-0.000817743
-0.000846104
-0.000871702
-0.00089685
-0.000921786
-0.000946816
-0.000972375
-0.000998497
-0.00102548
-0.00105315
-0.00108027
-0.00110643
-0.00113152
-0.00115583
-0.00117966
-0.00120311
-0.00122614
-0.00124873
-0.00127085
-0.00129254
-0.0013138
-0.00133464
-0.00135503
-0.00137508
-0.00139496
-0.0014147
-0.00143414
-0.00145316
-0.00147166
-0.00148959
-0.0015071
-0.00152438
-0.00154149
-0.00155853
-0.00157553
-0.00159247
-0.00160926
-0.00162587
-0.00164226
-0.00165841
-0.00167438
-0.00169016
-0.00170588
-0.00172246
-0.00174018
-0.00175793
-0.00177519
-0.001792
-0.00181095
-0.00183046
-0.00184651
-0.00186287
-0.00187995
-0.00189733
-0.00191474
-0.00193232
-0.00194983
-0.00196792
-0.00198696
-0.00200657
-0.00202664
-0.00204643
-0.00206552
-0.00208394
-0.00210204
-0.00212085
-0.00214117
-0.00216222
-0.0021832
-0.00220361
-0.0022235
-0.00224393
-0.00226538
-0.0022866
-0.00230638
-0.00232406
-0.00233971
-0.00235332
-0.00236477
-0.00237453
-0.0023835
-0.00239162
-0.00239788
-0.00240099
-0.0024005
-0.00239663
-0.00238939
-0.00238037
-0.00237197
-0.0023638
-0.00235513
-0.0023459
-0.0023362
-0.00232466
-0.00230878
-0.00228629
-0.00225636
-0.00222045
-0.00217955
-0.00213356
-0.0020814
-0.0020237
-0.00196157
-0.00189447
-0.00182295
-0.00175203
-0.0016836
-0.00161108
-0.00153912
-0.00147347
-0.00137826
-0.00123875
-0.00109591
-0.000927906
-0.000781394
-0.000481668
-0.000490304
0.00946207
0.010182
0.0101599
0.00992395
0.00956523
0.00914254
0.00868066
0.00821348
0.00780206
0.00742137
0.00707477
0.00672795
0.00640977
0.00611541
0.00582754
0.0055505
0.00528625
0.0050377
0.00480254
0.00458817
0.0043912
0.00420365
0.00402508
0.00385566
0.00369454
0.00353992
0.00338977
0.00324284
0.0031014
0.00296706
0.0028398
0.00271777
0.00259889
0.00248309
0.00237035
0.00226081
0.00215313
0.00205165
0.00195764
0.00186645
0.0017776
0.00169372
0.0016143
0.00153442
0.00145084
0.00136287
0.00127269
0.00118509
0.00110412
0.00103069
0.000965065
0.000905914
0.000852365
0.000804066
0.000758628
0.000708977
0.000653216
0.000591001
0.000524282
0.000459939
0.000407074
0.000364235
0.000325219
0.000285078
0.000241884
0.000198008
0.000155458
0.000114537
7.48813e-005
3.63988e-005
-7.49699e-007
-3.64036e-005
-7.07292e-005
-0.000104157
-0.000137324
-0.000170467
-0.000205309
-0.000241672
-0.000274089
-0.000301295
-0.000327632
-0.000354531
-0.000383124
-0.000412705
-0.000440611
-0.000466348
-0.000490107
-0.00051221
-0.000533981
-0.000556747
-0.000580546
-0.00060723
-0.000634767
-0.00066024
-0.000685092
-0.000709233
-0.000732405
-0.000755182
-0.000777707
-0.000799969
-0.000821873
-0.000843358
-0.000864441
-0.000885113
-0.000905369
-0.000924999
-0.00094416
-0.000963458
-0.000983
-0.00100228
-0.00102109
-0.00103922
-0.00105656
-0.00107336
-0.00108979
-0.00110591
-0.00112188
-0.00113798
-0.00115418
-0.00117027
-0.00118617
-0.00120177
-0.00121677
-0.00123132
-0.00124522
-0.00125751
-0.00127114
-0.00128827
-0.00130465
-0.00131763
-0.00132951
-0.00135393
-0.00137626
-0.00138586
-0.00139823
-0.0014131
-0.00142834
-0.00144304
-0.00145793
-0.00147175
-0.00148655
-0.00150323
-0.0015208
-0.00154051
-0.00155982
-0.00157695
-0.00159244
-0.00160708
-0.001624
-0.00164381
-0.00166421
-0.00168422
-0.0017035
-0.0017225
-0.00174294
-0.00176599
-0.00178837
-0.00180735
-0.00182398
-0.00183833
-0.00185069
-0.00186116
-0.00187036
-0.00188138
-0.00189211
-0.00190069
-0.00190509
-0.00190485
-0.00190147
-0.00189381
-0.0018848
-0.00188008
-0.00187707
-0.00187442
-0.00187302
-0.00187414
-0.00187436
-0.00186829
-0.00185269
-0.00182777
-0.00179862
-0.00176476
-0.00172636
-0.00168061
-0.00163091
-0.00157722
-0.00151876
-0.00145546
-0.00139739
-0.00134769
-0.00128985
-0.00122644
-0.00115621
-0.00107395
-0.00097523
-0.000873427
-0.000749375
-0.000645185
-0.000431001
-0.000498299
0.00850492
0.00892705
0.00896109
0.00885144
0.00863719
0.00835979
0.00804984
0.00772543
0.00741866
0.00713952
0.00684666
0.0065368
0.00627566
0.006031
0.00578471
0.00555298
0.00533642
0.00513367
0.004954
0.00479002
0.00462519
0.00446211
0.00430391
0.00415144
0.00400409
0.00385988
0.00371659
0.00357782
0.00344721
0.00332334
0.00320575
0.00309285
0.00298303
0.00287616
0.00277228
0.00267155
0.00257384
0.00247812
0.00238437
0.00229437
0.00220811
0.00212549
0.00204537
0.00196657
0.00188884
0.00181304
0.00173928
0.00166718
0.00159753
0.00153114
0.0014674
0.00140344
0.00133053
0.00126023
0.00120431
0.00115327
0.00110422
0.00105606
0.00100889
0.000963921
0.000922802
0.00088463
0.000848243
0.000813154
0.000778478
0.000743584
0.000709212
0.000676274
0.000645049
0.000615116
0.000586164
0.000557979
0.000530363
0.000503225
0.000476391
0.000449961
0.000424627
0.000400165
0.000376213
0.000353548
0.000331965
0.000310221
0.000287239
0.000263371
0.000240335
0.000218375
0.000196669
0.0001748
0.000152438
0.000129263
0.000105259
8.03793e-005
5.44042e-005
2.75118e-005
2.78294e-006
-1.86871e-005
-3.89208e-005
-5.96541e-005
-8.06078e-005
-0.000101468
-0.000121932
-0.000142039
-0.000161823
-0.000181279
-0.000200075
-0.000217454
-0.000234261
-0.000252532
-0.000271664
-0.000290127
-0.000307874
-0.000324306
-0.00033938
-0.000353927
-0.000368141
-0.000381746
-0.000395362
-0.000409668
-0.000424368
-0.000439017
-0.000453785
-0.000468518
-0.000481866
-0.000494724
-0.000504638
-0.000509815
-0.000523019
-0.000545729
-0.0005628
-0.000575024
-0.000588514
-0.000603258
-0.000614195
-0.000624658
-0.000634223
-0.000649505
-0.000663391
-0.000675533
-0.000687065
-0.000694118
-0.000705526
-0.000720813
-0.000738142
-0.000760324
-0.000778028
-0.000791727
-0.000800836
-0.000808803
-0.000824461
-0.000844882
-0.000863832
-0.000881223
-0.000898484
-0.000915716
-0.00093759
-0.000967311
-0.000991946
-0.00100852
-0.0010243
-0.00103691
-0.00104722
-0.00105279
-0.0010603
-0.00107874
-0.0010999
-0.00111665
-0.00112389
-0.00112344
-0.00111871
-0.00110313
-0.00109171
-0.00109355
-0.00109269
-0.00108894
-0.00109458
-0.00111678
-0.001136
-0.001142
-0.00112795
-0.00110525
-0.00108556
-0.00106489
-0.00103467
-0.000991109
-0.00094806
-0.000899014
-0.000842115
-0.000778144
-0.00075706
-0.000753645
-0.000719899
-0.000683268
-0.000642208
-0.000592835
-0.000536248
-0.000484879
-0.000415411
-0.000358594
-0.000238476
-0.000458162
0.00781429
0.00806188
0.00809039
0.00802647
0.00788764
0.0076968
0.00747507
0.00723673
0.00699899
0.00676887
0.00653852
0.00630987
0.00609434
0.00589081
0.00568884
0.00549484
0.00531486
0.00514018
0.00497468
0.00481539
0.00465981
0.00450861
0.00436206
0.0042201
0.00408239
0.00394846
0.00381788
0.0036915
0.00356986
0.00345273
0.00334002
0.00323107
0.00312522
0.00302236
0.00292241
0.00282524
0.00273057
0.00263751
0.00254689
0.00245996
0.00237635
0.00229559
0.00221784
0.002143
0.00207012
0.00199881
0.00192838
0.00185838
0.00178934
0.00172195
0.00165614
0.00159178
0.00152779
0.00146957
0.00141877
0.0013722
0.00132846
0.00128599
0.00124344
0.00119998
0.00115625
0.00111289
0.00107094
0.00103366
0.00100193
0.000972519
0.000942961
0.00091325
0.00088423
0.000856144
0.000828489
0.000800839
0.000773137
0.000745704
0.00071916
0.000693798
0.000672298
0.000654305
0.000632978
0.000607534
0.000582928
0.000559691
0.000536907
0.000514489
0.000492713
0.000470775
0.000447797
0.000423722
0.00039956
0.000376238
0.000353984
0.000335349
0.000318097
0.000298637
0.000278887
0.000260148
0.000242267
0.000224636
0.000206813
0.000189071
0.00017163
0.000154467
0.000137713
0.000121371
0.000105256
8.95706e-005
7.46666e-005
5.98002e-005
4.43862e-005
2.88084e-005
1.422e-005
8.58322e-007
-1.18749e-005
-2.43597e-005
-3.69229e-005
-4.95042e-005
-6.16973e-005
-7.36238e-005
-8.59493e-005
-9.84489e-005
-0.000111135
-0.000123845
-0.000135621
-0.000147957
-0.000162698
-0.000175599
-0.000184277
-0.000194545
-0.00020843
-0.000221971
-0.000232832
-0.000232086
-0.000235656
-0.000251389
-0.000261763
-0.00027344
-0.000285303
-0.000299496
-0.000315277
-0.000328616
-0.000340917
-0.000352739
-0.000359083
-0.000361747
-0.000374662
-0.000389023
-0.000396867
-0.000403065
-0.000413533
-0.000431841
-0.000450477
-0.00046354
-0.000474985
-0.000490128
-0.000518132
-0.000551602
-0.000572117
-0.000585577
-0.000599445
-0.000611142
-0.000622236
-0.000631764
-0.000644555
-0.000663677
-0.000679837
-0.000686938
-0.000689275
-0.000686701
-0.000684579
-0.000679705
-0.000666414
-0.000659306
-0.000664926
-0.000667182
-0.000665779
-0.000673265
-0.00068628
-0.000700479
-0.000693486
-0.000661034
-0.000628232
-0.000615284
-0.00059312
-0.000551716
-0.000506266
-0.000466663
-0.000428951
-0.000391393
-0.000378211
-0.000378813
-0.000372616
-0.000335951
-0.00030339
-0.000291684
-0.000290944
-0.000296302
-0.000298212
-0.000304937
-0.000199606
-0.000492742
0.00729652
0.0074529
0.00747246
0.00742539
0.00732407
0.00718202
0.00701384
0.0068299
0.00664069
0.00645173
0.00626116
0.00606981
0.00588522
0.00570715
0.00553227
0.00536176
0.00520052
0.00504452
0.00489441
0.0047495
0.00460805
0.00446978
0.00433469
0.00420283
0.00407406
0.00394819
0.00382506
0.00370511
0.00358883
0.00347624
0.00336727
0.00326158
0.00315881
0.0030588
0.0029614
0.00286646
0.0027738
0.00268316
0.00259517
0.00251035
0.00242852
0.00234953
0.00227351
0.00220015
0.00212868
0.00205865
0.00198958
0.00192125
0.00185393
0.00178793
0.00172324
0.00165993
0.00159771
0.00153884
0.00148473
0.00143426
0.00138646
0.00134019
0.00129451
0.00124924
0.00120499
0.0011624
0.0011222
0.00108535
0.00105182
0.00102036
0.000989544
0.000958667
0.000927728
0.000897132
0.000866938
0.000837129
0.000807838
0.000779272
0.00075182
0.000725707
0.000701307
0.000678065
0.000653309
0.000626816
0.000600859
0.000575982
0.000551728
0.000527981
0.000504753
0.000481626
0.000458381
0.000435232
0.000412785
0.000391487
0.000371608
0.000353982
0.000337832
0.000321823
0.000304022
0.000283684
0.000263213
0.00024417
0.000226008
0.000208499
0.00019143
0.000174842
0.000158764
0.000143152
0.000127385
0.000110763
9.46818e-005
8.10081e-005
6.86165e-005
5.58342e-005
4.28777e-005
2.95049e-005
1.58416e-005
2.47649e-006
-1.07365e-005
-2.42701e-005
-3.70523e-005
-4.81784e-005
-5.84964e-005
-6.86624e-005
-7.88087e-005
-8.93566e-005
-0.00010071
-0.000111699
-0.000126829
-0.000145996
-0.000154015
-0.000152992
-0.000160062
-0.000172181
-0.0001792
-0.00018088
-0.000191019
-0.000206726
-0.000219274
-0.000230216
-0.00024164
-0.000254287
-0.000271449
-0.00029207
-0.000303773
-0.00031394
-0.000322763
-0.000317895
-0.000315215
-0.000327404
-0.000353049
-0.000377567
-0.00039531
-0.000407726
-0.000421587
-0.0004373
-0.00045336
-0.00046903
-0.000488763
-0.000509835
-0.00052169
-0.000528476
-0.000537281
-0.000551755
-0.000566605
-0.000582216
-0.00059143
-0.000591469
-0.000591381
-0.000590877
-0.000591588
-0.000593298
-0.000596498
-0.000608808
-0.000617447
-0.000617491
-0.000625653
-0.000635213
-0.00062925
-0.000607975
-0.000587416
-0.00058385
-0.00059899
-0.00058707
-0.000545049
-0.000520071
-0.00050875
-0.000486191
-0.000453395
-0.000423022
-0.000391632
-0.000370794
-0.000343574
-0.000334759
-0.000354272
-0.000350286
-0.000344989
-0.000354634
-0.000355772
-0.000356507
-0.000378054
-0.000428227
-0.000344704
-0.0006441
0.00684278
0.00694424
0.00695694
0.00692209
0.00684703
0.00673965
0.00660982
0.00646504
0.00631233
0.00615613
0.00599723
0.00583696
0.00567918
0.00552441
0.00537154
0.00522151
0.00507664
0.00493624
0.00479961
0.00466594
0.00453452
0.00440567
0.00427935
0.00415555
0.00403422
0.00391534
0.00379888
0.00368507
0.00357414
0.00346612
0.00336102
0.00325868
0.00315891
0.00306161
0.00296666
0.00287396
0.00278344
0.00269503
0.00260903
0.0025257
0.00244501
0.00236692
0.00229146
0.00221836
0.00214716
0.00207753
0.00200916
0.00194194
0.00187596
0.00181141
0.0017484
0.00168713
0.00162769
0.00157115
0.00151804
0.00146783
0.00141997
0.00137376
0.00132859
0.00128433
0.00124128
0.0011999
0.00116074
0.00112416
0.00108991
0.00105718
0.0010252
0.00099362
0.00096241
0.000931648
0.00090142
0.000871787
0.000842815
0.000814638
0.000787449
0.000761307
0.000735894
0.000710886
0.000685622
0.000660055
0.000634726
0.000609982
0.000585749
0.000561991
0.000538678
0.000515615
0.000492734
0.000470178
0.000448288
0.000427376
0.000407449
0.000388444
0.000369796
0.000350676
0.000330411
0.000309332
0.000289002
0.000269821
0.000251431
0.000233627
0.000216246
0.000199393
0.000182988
0.000166904
0.000150785
0.000134491
0.000119038
0.000105189
9.20681e-005
7.89891e-005
6.53491e-005
5.09378e-005
3.66041e-005
2.28289e-005
9.59385e-006
-3.28075e-006
-1.56558e-005
-2.71223e-005
-3.75263e-005
-4.72667e-005
-5.69154e-005
-6.75384e-005
-7.9501e-005
-9.17272e-005
-0.000105008
-0.000117768
-0.000125201
-0.000131401
-0.000141664
-0.000152234
-0.000160607
-0.000168009
-0.000178826
-0.000189824
-0.000199571
-0.000212806
-0.000228986
-0.000241661
-0.000255673
-0.00027307
-0.000283904
-0.000292319
-0.000305305
-0.000322933
-0.000333042
-0.000344449
-0.000365412
-0.000390072
-0.00041125
-0.00043056
-0.000447105
-0.000459849
-0.00046666
-0.000466083
-0.000472461
-0.000491402
-0.000507545
-0.000514303
-0.000521208
-0.000533317
-0.000544172
-0.000554815
-0.000560995
-0.00055819
-0.000555021
-0.000558123
-0.000569019
-0.00058257
-0.000598371
-0.000609355
-0.000611555
-0.000617522
-0.000633189
-0.000638992
-0.000623912
-0.000599248
-0.000574642
-0.000549649
-0.000546878
-0.000554937
-0.000536456
-0.000506955
-0.000497655
-0.000495231
-0.000489139
-0.000479603
-0.000457016
-0.000420535
-0.000382442
-0.000382533
-0.000405448
-0.000421049
-0.00042352
-0.000415529
-0.00039414
-0.0003762
-0.000369589
-0.000401906
-0.000371933
-0.000733336
0.00642981
0.00649355
0.00649916
0.00647165
0.00641488
0.00633344
0.00623366
0.00612063
0.00599897
0.00587193
0.00574092
0.00560731
0.00547343
0.00534009
0.00520722
0.00507551
0.00494624
0.00481934
0.00469513
0.00457306
0.00445228
0.00433278
0.00421504
0.00409907
0.00398491
0.0038726
0.00376219
0.00365387
0.00354779
0.00344404
0.00334265
0.00324358
0.00314674
0.00305207
0.0029595
0.00286898
0.00278046
0.00269395
0.00260959
0.00252754
0.00244781
0.00237041
0.00229537
0.00222252
0.00215159
0.00208234
0.00201456
0.00194818
0.00188324
0.00181985
0.00175811
0.00169818
0.0016402
0.00158467
0.00153186
0.00148154
0.00143338
0.00138694
0.0013419
0.00129815
0.00125579
0.00121505
0.00117615
0.00113918
0.00110403
0.00107029
0.00103753
0.00100546
0.000973942
0.000942953
0.000912545
0.000882771
0.000853685
0.000825357
0.000797835
0.000771091
0.000744951
0.000719366
0.000693999
0.000668525
0.000643219
0.000618337
0.00059393
0.000570017
0.000546588
0.000523537
0.000500811
0.000478482
0.000456712
0.00043563
0.000415219
0.000395449
0.000376092
0.000356701
0.000336887
0.000316779
0.000297075
0.000277991
0.000259488
0.000241499
0.000223942
0.000206863
0.000190242
0.000174046
0.000158126
0.000142491
0.000127627
0.000113648
9.99317e-005
8.60154e-005
7.1588e-005
5.70868e-005
4.30219e-005
2.94397e-005
1.63476e-005
3.6857e-006
-8.74548e-006
-2.06784e-005
-3.17532e-005
-4.19722e-005
-5.22486e-005
-6.35483e-005
-7.56815e-005
-8.8243e-005
-0.000101492
-0.000114711
-0.000125465
-0.000134981
-0.000145396
-0.000155197
-0.000163706
-0.000171405
-0.000180381
-0.000189505
-0.000201167
-0.000216813
-0.000234085
-0.000246428
-0.000257345
-0.000271232
-0.000284139
-0.000294563
-0.00030475
-0.000318975
-0.000331811
-0.00034142
-0.000353599
-0.000374655
-0.000392176
-0.000408697
-0.00042715
-0.00044349
-0.000450559
-0.000442656
-0.000440392
-0.000460839
-0.000490209
-0.000503602
-0.000513215
-0.000526436
-0.000539157
-0.000546402
-0.000548789
-0.000554848
-0.000565158
-0.000571554
-0.000579263
-0.000589488
-0.000602394
-0.000614767
-0.000614438
-0.000606082
-0.000606378
-0.000605545
-0.000586309
-0.000559173
-0.000544434
-0.0005351
-0.000527154
-0.000530438
-0.000528206
-0.000514798
-0.000511023
-0.000517718
-0.000521576
-0.000530711
-0.000528555
-0.00049348
-0.000444446
-0.000421464
-0.000419757
-0.000409842
-0.000385543
-0.000362987
-0.000353959
-0.00035249
-0.000351038
-0.000388769
-0.00037103
-0.000768112
0.00604368
0.00607794
0.00607622
0.00605272
0.00600931
0.00594849
0.00587376
0.00578803
0.00569405
0.00559391
0.00548885
0.00538
0.00526888
0.00515628
0.00504257
0.00492835
0.00481451
0.00470125
0.00458893
0.00447763
0.00436716
0.00425702
0.00414745
0.00403897
0.00393165
0.00382559
0.00372091
0.00361777
0.00351631
0.00341665
0.00331886
0.00322297
0.00312897
0.00303685
0.00294658
0.00285812
0.00277147
0.00268664
0.00260372
0.0025228
0.00244393
0.00236717
0.00229259
0.00222013
0.0021496
0.00208082
0.00201362
0.00194794
0.00188386
0.00182144
0.00176078
0.00170201
0.00164525
0.00159073
0.00153857
0.00148863
0.00144071
0.00139455
0.00134993
0.00130677
0.00126508
0.00122496
0.00118648
0.00114964
0.00111432
0.00108024
0.00104711
0.0010147
0.000982892
0.000951661
0.000921046
0.000891098
0.000861874
0.000833407
0.00080567
0.000778582
0.000752044
0.000725998
0.000700267
0.000674622
0.000649155
0.000624048
0.000599405
0.000575284
0.0005517
0.000528578
0.000505856
0.000483563
0.000461785
0.000440577
0.000419912
0.000399726
0.00037986
0.000360101
0.000340276
0.000320455
0.000300966
0.000281933
0.000263373
0.000245282
0.000227579
0.000210277
0.000193428
0.000177092
0.000161158
0.000145553
0.000130443
0.000115816
0.000101371
8.69111e-005
7.22316e-005
5.78934e-005
4.40382e-005
3.0553e-005
1.74687e-005
4.51321e-006
-8.54858e-006
-2.14743e-005
-3.36152e-005
-4.43819e-005
-5.4745e-005
-6.58676e-005
-7.74068e-005
-8.94745e-005
-0.000102328
-0.000115272
-0.000127309
-0.000138901
-0.000150906
-0.000162219
-0.000172551
-0.000182065
-0.000192318
-0.000202269
-0.000211711
-0.000223693
-0.000238767
-0.000249978
-0.000258571
-0.000270012
-0.00028319
-0.000293721
-0.000303515
-0.000317171
-0.000331503
-0.000335873
-0.000340243
-0.000354188
-0.000374409
-0.000392557
-0.000406776
-0.000417498
-0.000418753
-0.000413986
-0.000420388
-0.000445674
-0.000473661
-0.00049107
-0.000506411
-0.000518383
-0.000528116
-0.000536741
-0.000543477
-0.000552122
-0.000562297
-0.000572252
-0.000580033
-0.000585181
-0.000587185
-0.000586419
-0.000580683
-0.000574587
-0.00057151
-0.000568706
-0.000557538
-0.000539271
-0.00052866
-0.000527582
-0.000526895
-0.000525098
-0.000526085
-0.000523793
-0.000520542
-0.000524878
-0.000533468
-0.000541302
-0.00053204
-0.000493907
-0.000443905
-0.000415769
-0.000412063
-0.00040744
-0.000385765
-0.000368601
-0.000367818
-0.000372787
-0.000378942
-0.00042185
-0.00039982
-0.000803331
0.00567817
0.00568572
0.0056761
0.00565435
0.00562156
0.00557841
0.00552588
0.00546492
0.00539659
0.00532184
0.00524139
0.00515601
0.00506669
0.00497415
0.00487887
0.00478148
0.00468267
0.00458285
0.00448243
0.0043817
0.00428083
0.00417984
0.00407845
0.00397718
0.00387645
0.00377639
0.00367715
0.0035789
0.0034818
0.003386
0.00329163
0.00319878
0.0031075
0.00301783
0.00292977
0.00284328
0.00275837
0.00267503
0.00259335
0.00251341
0.00243525
0.00235902
0.00228489
0.00221289
0.00214286
0.00207462
0.00200798
0.00194292
0.00187954
0.00181792
0.00175815
0.00170032
0.00164452
0.00159085
0.00153933
0.00148988
0.00144235
0.00139658
0.00135242
0.00130979
0.00126866
0.00122905
0.00119096
0.00115432
0.001119
0.00108477
0.00105138
0.00101867
0.000986553
0.00095502
0.00092412
0.000893928
0.000864509
0.000835879
0.000807939
0.000780531
0.000753631
0.000727242
0.000701236
0.000675327
0.000649479
0.000623929
0.000598875
0.000574433
0.000550634
0.000527396
0.000504605
0.000482254
0.000460393
0.000439044
0.000418169
0.000397709
0.000377585
0.000357696
0.00033794
0.00031835
0.000299077
0.000280155
0.000261662
0.000243633
0.000225891
0.000208412
0.000191399
0.000175035
0.000159169
0.00014366
0.000128583
0.000113897
9.93982e-005
8.49891e-005
7.03369e-005
5.65339e-005
4.32029e-005
2.99651e-005
1.70079e-005
3.87328e-006
-9.59734e-006
-2.31437e-005
-3.56036e-005
-4.5688e-005
-5.52049e-005
-6.6743e-005
-7.78827e-005
-8.96058e-005
-0.000103437
-0.000117853
-0.000131538
-0.000144901
-0.000158515
-0.000171059
-0.000183381
-0.000193787
-0.00020075
-0.000206073
-0.000213253
-0.000225633
-0.000239054
-0.000248332
-0.000257431
-0.000272006
-0.000289018
-0.00030199
-0.000312207
-0.000327846
-0.000343543
-0.000345317
-0.000346687
-0.000360258
-0.000379415
-0.000392529
-0.000404545
-0.000415919
-0.000414871
-0.000405472
-0.000408335
-0.000431068
-0.000453659
-0.000469833
-0.000485579
-0.000499905
-0.000511467
-0.000521475
-0.000529571
-0.000539236
-0.000549984
-0.000561741
-0.000572563
-0.000581372
-0.000583008
-0.000574615
-0.000559095
-0.000546651
-0.000541951
-0.000538581
-0.000533665
-0.00052708
-0.000520902
-0.000519803
-0.000515665
-0.00050707
-0.000504148
-0.000504386
-0.000503876
-0.000503782
-0.000505097
-0.00050467
-0.000491407
-0.000462897
-0.000433364
-0.000419328
-0.000415624
-0.000410983
-0.000399798
-0.000391211
-0.00038993
-0.000399719
-0.000416338
-0.000464305
-0.00043015
-0.000820076
0.00532899
0.00530777
0.00528862
0.00526746
0.00524437
0.00521799
0.00518678
0.00514968
0.00510616
0.00505604
0.00499943
0.00493669
0.00486848
0.00479537
0.00471793
0.00463676
0.00455252
0.00446576
0.00437699
0.00428664
0.00419504
0.00410251
0.004009
0.0039147
0.00382023
0.00372586
0.00363175
0.00353809
0.00344506
0.00335286
0.00326169
0.00317168
0.00308297
0.00299561
0.00290963
0.002825
0.00274168
0.00265965
0.002579
0.00249982
0.00242211
0.00234612
0.0022723
0.00220073
0.00213124
0.00206357
0.0019974
0.00193279
0.00186994
0.00180894
0.00174986
0.00169281
0.00163781
0.00158488
0.001534
0.0014851
0.00143806
0.00139277
0.00134909
0.00130696
0.00126634
0.00122721
0.00118953
0.00115321
0.00111812
0.001084
0.00105065
0.00101787
0.000985611
0.000953842
0.000922701
0.000892394
0.000862969
0.000834411
0.000806483
0.000778873
0.000751799
0.000725437
0.00069963
0.000673803
0.000647784
0.000622055
0.000596944
0.000572618
0.000549077
0.000526169
0.000503699
0.000481626
0.00045996
0.000438692
0.000417793
0.000397231
0.000376935
0.000356875
0.000337056
0.000317524
0.000298351
0.000279489
0.000261167
0.000243331
0.000225645
0.00020801
0.00019083
0.000174463
0.000158815
0.000143579
0.000128635
0.000113799
9.85846e-005
8.22012e-005
6.30073e-005
4.49063e-005
3.03554e-005
1.75217e-005
5.74399e-006
-5.75207e-006
-1.81491e-005
-3.18015e-005
-4.5713e-005
-5.74606e-005
-6.70017e-005
-7.82903e-005
-8.97162e-005
-9.98019e-005
-0.000111414
-0.000124771
-0.000138601
-0.000152717
-0.000167138
-0.000179183
-0.000190393
-0.000200909
-0.000208671
-0.00021693
-0.000227277
-0.000238695
-0.000249648
-0.000257621
-0.000262649
-0.000273728
-0.000290078
-0.000303686
-0.000317758
-0.000337008
-0.000351723
-0.000351329
-0.000354457
-0.000369185
-0.000382867
-0.000390468
-0.000400905
-0.00041258
-0.00041579
-0.000413965
-0.000423297
-0.000440537
-0.000454877
-0.000468731
-0.000481618
-0.00049194
-0.000501642
-0.000514392
-0.000526249
-0.000536347
-0.000546732
-0.000557332
-0.000565617
-0.000573689
-0.000577789
-0.000576683
-0.000574733
-0.000570598
-0.000561317
-0.000547887
-0.000538786
-0.000535935
-0.00053014
-0.000528751
-0.00052607
-0.000517938
-0.000514582
-0.000512271
-0.000510076
-0.000512553
-0.000509121
-0.000493107
-0.00046855
-0.000438488
-0.000417459
-0.000408461
-0.000405892
-0.000398931
-0.000383952
-0.0003754
-0.000378703
-0.000389586
-0.000393821
-0.000414083
-0.000388238
-0.000796972
0.00499059
0.00493419
0.00490313
0.00488301
0.00487065
0.00486241
0.00485366
0.00484115
0.00482277
0.00479729
0.00476424