/*--------------------------------*- C++ -*----------------------------------*\
| =========                 |                                                 |
| \\      /  F ield         | OpenFOAM: The Open Source CFD Toolbox           |
|  \\    /   O peration     | Version:  5.x                                   |
|   \\  /    A nd           | Web:      www.OpenFOAM.org                      |
|    \\/     M anipulation  |                                                 |
\*---------------------------------------------------------------------------*/
/*   Windows 32 and 64 bit porting by blueCAPE: http://www.bluecape.com.pt   *\
|  Based on Windows porting (2.0.x v4) by Symscape: http://www.symscape.com   |
\*---------------------------------------------------------------------------*/
FoamFile
{
    version     2.0;
    format      ascii;
    class       volScalarField;
    location    "3000";
    object      k;
}
// * * * * * * * * * * * * * * * * * * * * * * * * * * * * * * * * * * * * * //

dimensions      [0 2 -2 0 0 0 0];

internalField   nonuniform List<scalar> 
4000
(
1.31241e+011
2.74142e+011
4.20973e+011
5.53416e+011
6.77914e+011
7.95437e+011
9.08145e+011
1.01813e+012
1.12592e+012
1.2324e+012
1.33851e+012
1.44473e+012
1.55127e+012
1.6582e+012
1.76549e+012
1.87297e+012
1.98038e+012
2.08738e+012
2.19355e+012
2.29844e+012
2.40155e+012
2.50244e+012
2.60183e+012
2.69902e+012
2.79267e+012
2.88265e+012
2.96876e+012
3.05084e+012
3.12876e+012
3.20244e+012
3.27186e+012
3.33701e+012
3.39796e+012
3.45478e+012
3.50761e+012
3.55656e+012
3.6018e+012
3.64347e+012
3.68176e+012
3.71679e+012
3.74861e+012
3.77734e+012
3.80302e+012
3.82591e+012
3.84618e+012
3.8635e+012
3.87776e+012
3.88885e+012
3.89673e+012
3.90161e+012
3.90333e+012
3.90147e+012
3.89586e+012
3.88639e+012
3.87293e+012
3.85536e+012
3.83359e+012
3.80757e+012
3.77724e+012
3.74254e+012
3.70348e+012
3.66026e+012
3.61304e+012
3.56181e+012
3.50795e+012
3.45115e+012
3.3914e+012
3.32925e+012
3.2652e+012
3.19966e+012
3.13313e+012
3.06615e+012
2.99919e+012
2.93269e+012
2.86703e+012
2.80253e+012
2.73943e+012
2.67785e+012
2.61784e+012
2.55934e+012
2.50219e+012
2.44627e+012
2.39318e+012
2.34206e+012
2.2912e+012
2.24062e+012
2.19023e+012
2.13991e+012
2.08952e+012
2.03882e+012
1.98772e+012
1.93707e+012
1.88753e+012
1.84038e+012
1.79578e+012
1.75357e+012
1.7139e+012
1.67803e+012
1.64703e+012
1.62201e+012
1.60414e+012
1.59454e+012
1.59428e+012
1.60829e+012
1.6378e+012
1.68227e+012
1.74366e+012
1.82426e+012
1.92664e+012
2.05301e+012
2.20549e+012
2.3888e+012
2.59953e+012
2.84125e+012
3.11668e+012
3.42731e+012
3.77398e+012
4.15758e+012
4.57888e+012
5.03859e+012
5.53732e+012
6.07554e+012
6.65356e+012
7.27157e+012
7.92958e+012
8.62748e+012
9.365e+012
1.01417e+013
1.09574e+013
1.1813e+013
1.27207e+013
1.3672e+013
1.46591e+013
1.56834e+013
1.67445e+013
1.78413e+013
1.89724e+013
2.01363e+013
2.13309e+013
2.2554e+013
2.38025e+013
2.5071e+013
2.63533e+013
2.7656e+013
2.89814e+013
3.03366e+013
3.1701e+013
3.30632e+013
3.44074e+013
3.57369e+013
3.7048e+013
3.83353e+013
3.95928e+013
4.08142e+013
4.19928e+013
4.3122e+013
4.41948e+013
4.52038e+013
4.61415e+013
4.70002e+013
4.77719e+013
4.84485e+013
4.90218e+013
4.94833e+013
4.98246e+013
5.00372e+013
5.01127e+013
5.0043e+013
4.982e+013
4.94365e+013
4.88853e+013
4.81604e+013
4.72558e+013
4.61647e+013
4.48917e+013
4.35274e+013
4.19965e+013
4.02899e+013
3.84165e+013
3.63907e+013
3.42301e+013
3.19559e+013
2.95924e+013
2.71673e+013
2.47138e+013
2.22723e+013
1.98933e+013
1.76393e+013
1.55553e+013
1.35592e+013
1.18811e+013
1.04696e+013
9.24109e+012
8.07714e+012
6.85245e+012
5.49179e+012
4.04083e+012
2.54299e+012
1.16191e+012
2.60939e+011
4.49084e+011
8.49322e+011
1.24347e+012
1.60993e+012
1.95389e+012
2.2824e+012
2.59953e+012
2.90824e+012
3.21137e+012
3.51108e+012
3.80917e+012
4.10682e+012
4.40463e+012
4.70282e+012
5.00132e+012
5.29975e+012
5.5975e+012
5.89375e+012
6.1875e+012
6.47766e+012
6.76303e+012
7.04242e+012
7.31468e+012
7.57927e+012
7.83539e+012
8.08252e+012
8.32018e+012
8.54799e+012
8.7656e+012
8.97278e+012
9.16938e+012
9.35531e+012
9.53056e+012
9.69521e+012
9.84936e+012
9.99317e+012
1.01268e+013
1.02505e+013
1.03645e+013
1.04688e+013
1.05638e+013
1.06494e+013
1.07257e+013
1.07928e+013
1.08509e+013
1.09001e+013
1.09404e+013
1.09714e+013
1.0993e+013
1.1005e+013
1.1007e+013
1.09987e+013
1.09799e+013
1.09504e+013
1.09101e+013
1.08587e+013
1.07963e+013
1.07226e+013
1.06377e+013
1.05417e+013
1.04347e+013
1.0317e+013
1.01889e+013
1.00508e+013
9.90326e+012
9.74674e+012
9.58223e+012
9.41096e+012
9.23412e+012
9.05284e+012
8.86835e+012
8.6819e+012
8.49472e+012
8.30788e+012
8.12236e+012
7.93897e+012
7.75833e+012
7.58086e+012
7.40673e+012
7.2359e+012
7.06812e+012
6.90302e+012
6.74019e+012
6.57861e+012
6.4181e+012
6.25873e+012
6.10055e+012
5.94366e+012
5.78825e+012
5.63465e+012
5.48345e+012
5.33564e+012
5.19232e+012
5.05565e+012
4.92767e+012
4.80978e+012
4.70392e+012
4.61262e+012
4.53872e+012
4.48535e+012
4.45586e+012
4.45375e+012
4.48278e+012
4.54794e+012
4.65126e+012
4.79842e+012
4.99499e+012
5.24676e+012
5.55998e+012
5.9405e+012
6.39453e+012
6.92003e+012
7.52228e+012
8.20734e+012
8.98128e+012
9.84833e+012
1.08113e+013
1.18728e+013
1.30353e+013
1.43008e+013
1.56714e+013
1.71485e+013
1.87334e+013
2.04268e+013
2.22292e+013
2.41408e+013
2.61615e+013
2.82907e+013
3.05279e+013
3.28725e+013
3.53251e+013
3.78726e+013
4.05205e+013
4.32704e+013
4.61215e+013
4.90721e+013
5.2119e+013
5.52586e+013
5.84864e+013
6.1797e+013
6.51847e+013
6.86429e+013
7.21659e+013
7.5752e+013
7.938e+013
8.30273e+013
8.66865e+013
9.03439e+013
9.39833e+013
9.75907e+013
1.01152e+014
1.04651e+014
1.08072e+014
1.11398e+014
1.1461e+014
1.1769e+014
1.20619e+014
1.23378e+014
1.25946e+014
1.28303e+014
1.30428e+014
1.323e+014
1.33898e+014
1.35201e+014
1.36189e+014
1.36841e+014
1.37137e+014
1.37057e+014
1.36584e+014
1.35702e+014
1.34393e+014
1.32646e+014
1.30448e+014
1.27792e+014
1.24681e+014
1.21079e+014
1.16992e+014
1.12441e+014
1.07457e+014
1.02078e+014
9.63509e+013
9.03302e+013
8.40804e+013
7.76762e+013
7.1206e+013
6.4775e+013
5.85092e+013
5.25521e+013
4.69944e+013
4.18077e+013
3.6966e+013
3.27266e+013
2.89557e+013
2.5404e+013
2.17761e+013
1.78282e+013
1.34407e+013
8.91905e+012
4.72169e+012
1.61395e+012
7.43209e+011
1.3297e+012
1.87879e+012
2.38543e+012
2.86626e+012
3.32945e+012
3.77964e+012
4.22023e+012
4.65396e+012
5.08305e+012
5.50925e+012
5.93377e+012
6.35729e+012
6.78008e+012
7.20201e+012
7.62264e+012
8.04123e+012
8.45679e+012
8.86818e+012
9.27412e+012
9.67327e+012
1.00643e+013
1.04461e+013
1.08178e+013
1.11783e+013
1.1527e+013
1.18631e+013
1.21862e+013
1.24956e+013
1.27911e+013
1.30725e+013
1.33394e+013
1.35919e+013
1.38299e+013
1.40535e+013
1.42626e+013
1.44575e+013
1.46383e+013
1.4805e+013
1.49579e+013
1.50971e+013
1.52226e+013
1.53344e+013
1.54326e+013
1.55173e+013
1.55885e+013
1.56461e+013
1.569e+013
1.57199e+013
1.57355e+013
1.57366e+013
1.57229e+013
1.56942e+013
1.56503e+013
1.55912e+013
1.55166e+013
1.54265e+013
1.5321e+013
1.52002e+013
1.50641e+013
1.49132e+013
1.47478e+013
1.45683e+013
1.43754e+013
1.41699e+013
1.39525e+013
1.37243e+013
1.34867e+013
1.32409e+013
1.29885e+013
1.27308e+013
1.24694e+013
1.22056e+013
1.19408e+013
1.1676e+013
1.14124e+013
1.11507e+013
1.08915e+013
1.06351e+013
1.03816e+013
1.0131e+013
9.88315e+012
9.63778e+012
9.39437e+012
9.15276e+012
8.91308e+012
8.67557e+012
8.44063e+012
8.20886e+012
7.98107e+012
7.7584e+012
7.54234e+012
7.33471e+012
7.13801e+012
6.95552e+012
6.78977e+012
6.64387e+012
6.52148e+012
6.42671e+012
6.36408e+012
6.33849e+012
6.35516e+012
6.41971e+012
6.53837e+012
6.71611e+012
6.95985e+012
7.27668e+012
7.67388e+012
8.15892e+012
8.73942e+012
9.41852e+012
1.02004e+013
1.10911e+013
1.20963e+013
1.32219e+013
1.44727e+013
1.58527e+013
1.73655e+013
1.90141e+013
2.08013e+013
2.27297e+013
2.48012e+013
2.70176e+013
2.93802e+013
3.18901e+013
3.45479e+013
3.73541e+013
4.03089e+013
4.34125e+013
4.66661e+013
5.00645e+013
5.36072e+013
5.72951e+013
6.11284e+013
6.51057e+013
6.92244e+013
7.34809e+013
7.78705e+013
8.23876e+013
8.70256e+013
9.17773e+013
9.66352e+013
1.01592e+014
1.06626e+014
1.11711e+014
1.16834e+014
1.21978e+014
1.27124e+014
1.32253e+014
1.37343e+014
1.42373e+014
1.4732e+014
1.52161e+014
1.56871e+014
1.61424e+014
1.65794e+014
1.69954e+014
1.73876e+014
1.77532e+014
1.80893e+014
1.83931e+014
1.86616e+014
1.8892e+014
1.90814e+014
1.92271e+014
1.93262e+014
1.93763e+014
1.93747e+014
1.93191e+014
1.92075e+014
1.90379e+014
1.88088e+014
1.85188e+014
1.81674e+014
1.77549e+014
1.72793e+014
1.67414e+014
1.61433e+014
1.54882e+014
1.47808e+014
1.40264e+014
1.32317e+014
1.24045e+014
1.15539e+014
1.06904e+014
9.82603e+013
8.97402e+013
8.14807e+013
7.35919e+013
6.61345e+013
5.91356e+013
5.2589e+013
4.65183e+013
4.07209e+013
3.49401e+013
2.89481e+013
2.25919e+013
1.58397e+013
9.1282e+012
3.53306e+012
1.02276e+012
1.75928e+012
2.42621e+012
3.0335e+012
3.61097e+012
4.17023e+012
4.71676e+012
5.25395e+012
5.7843e+012
6.30972e+012
6.83167e+012
7.35115e+012
7.86875e+012
8.38461e+012
8.89853e+012
9.40998e+012
9.91814e+012
1.0422e+013
1.09203e+013
1.14117e+013
1.18949e+013
1.23686e+013
1.28315e+013
1.32826e+013
1.3721e+013
1.41456e+013
1.45556e+013
1.49504e+013
1.53295e+013
1.56923e+013
1.60384e+013
1.63677e+013
1.66799e+013
1.69748e+013
1.72525e+013
1.75128e+013
1.77558e+013
1.79815e+013
1.819e+013
1.83813e+013
1.85555e+013
1.87126e+013
1.88525e+013
1.89752e+013
1.90808e+013
1.91692e+013
1.92403e+013
1.9294e+013
1.933e+013
1.9348e+013
1.9348e+013
1.93297e+013
1.9293e+013
1.92377e+013
1.91638e+013
1.90712e+013
1.89599e+013
1.88302e+013
1.86822e+013
1.85162e+013
1.83325e+013
1.81317e+013
1.79144e+013
1.76813e+013
1.74333e+013
1.71715e+013
1.68968e+013
1.66108e+013
1.63147e+013
1.601e+013
1.56984e+013
1.53813e+013
1.50602e+013
1.47365e+013
1.44115e+013
1.40861e+013
1.37614e+013
1.3438e+013
1.31165e+013
1.27971e+013
1.24799e+013
1.21651e+013
1.18527e+013
1.15426e+013
1.12347e+013
1.09294e+013
1.06272e+013
1.03288e+013
1.00352e+013
9.74774e+012
9.46795e+012
9.1979e+012
8.94003e+012
8.69731e+012
8.47377e+012
8.27297e+012
8.09898e+012
7.9564e+012
7.8504e+012
7.78659e+012
7.77107e+012
7.81035e+012
7.91143e+012
8.08104e+012
8.32644e+012
8.65533e+012
9.07562e+012
9.59535e+012
1.02227e+013
1.09642e+013
1.18241e+013
1.28087e+013
1.39238e+013
1.51755e+013
1.65692e+013
1.811e+013
1.98024e+013
2.16505e+013
2.36579e+013
2.58278e+013
2.81633e+013
3.06668e+013
3.33408e+013
3.6187e+013
3.92074e+013
4.24031e+013
4.57755e+013
4.93256e+013
5.30546e+013
5.69644e+013
6.10515e+013
6.53173e+013
6.97622e+013
7.43857e+013
7.91862e+013
8.41607e+013
8.93054e+013
9.4615e+013
1.00083e+014
1.05702e+014
1.11465e+014
1.17362e+014
1.23375e+014
1.29477e+014
1.35649e+014
1.41872e+014
1.48126e+014
1.54388e+014
1.60635e+014
1.66839e+014
1.72975e+014
1.79015e+014
1.84929e+014
1.90686e+014
1.96256e+014
2.01606e+014
2.06702e+014
2.1151e+014
2.15997e+014
2.20128e+014
2.23867e+014
2.27181e+014
2.30035e+014
2.32395e+014
2.34228e+014
2.35502e+014
2.36188e+014
2.36256e+014
2.3568e+014
2.34436e+014
2.32505e+014
2.2987e+014
2.2652e+014
2.2245e+014
2.17665e+014
2.12156e+014
2.05936e+014
1.99027e+014
1.91467e+014
1.83301e+014
1.74591e+014
1.65408e+014
1.55836e+014
1.45972e+014
1.35925e+014
1.25818e+014
1.15779e+014
1.05939e+014
9.64106e+013
8.72767e+013
7.85815e+013
7.03211e+013
6.24253e+013
5.48316e+013
4.73454e+013
3.97516e+013
3.18379e+013
2.3407e+013
1.43999e+013
6.19855e+012
1.27577e+012
2.14112e+012
2.90771e+012
3.59664e+012
4.24962e+012
4.88289e+012
5.50364e+012
6.11568e+012
6.72137e+012
7.32236e+012
7.91977e+012
8.51434e+012
9.10643e+012
9.69602e+012
1.02828e+013
1.08661e+013
1.14451e+013
1.20187e+013
1.25856e+013
1.31446e+013
1.36942e+013
1.42332e+013
1.47603e+013
1.52745e+013
1.57746e+013
1.62597e+013
1.67288e+013
1.71812e+013
1.76163e+013
1.80336e+013
1.84324e+013
1.88125e+013
1.91736e+013
1.95154e+013
1.98377e+013
2.01405e+013
2.04235e+013
2.06867e+013
2.093e+013
2.11534e+013
2.13569e+013
2.15404e+013
2.17037e+013
2.1847e+013
2.19699e+013
2.20726e+013
2.21548e+013
2.22165e+013
2.22574e+013
2.22773e+013
2.22763e+013
2.2254e+013
2.22105e+013
2.21457e+013
2.20596e+013
2.19523e+013
2.18239e+013
2.16747e+013
2.15049e+013
2.1315e+013
2.11054e+013
2.08767e+013
2.06296e+013
2.0365e+013
2.00839e+013
1.97872e+013
1.94762e+013
1.91522e+013
1.88165e+013
1.84708e+013
1.81166e+013
1.77553e+013
1.73884e+013
1.70174e+013
1.66436e+013
1.6268e+013
1.58916e+013
1.55153e+013
1.51396e+013
1.47651e+013
1.4392e+013
1.40207e+013
1.36515e+013
1.32844e+013
1.29199e+013
1.25584e+013
1.22009e+013
1.18484e+013
1.15022e+013
1.1164e+013
1.08361e+013
1.05209e+013
1.02214e+013
9.94127e+012
9.68489e+012
9.45684e+012
9.26198e+012
9.10578e+012
8.99424e+012
8.93391e+012
8.93177e+012
8.99525e+012
9.13218e+012
9.35014e+012
9.6573e+012
1.0062e+013
1.05725e+013
1.11972e+013
1.19445e+013
1.28196e+013
1.38289e+013
1.49785e+013
1.62746e+013
1.77231e+013
1.93296e+013
2.10992e+013
2.30368e+013
2.51467e+013
2.74329e+013
2.98993e+013
3.25492e+013
3.53858e+013
3.8412e+013
4.16304e+013
4.50433e+013
4.86531e+013
5.24615e+013
5.64708e+013
6.06827e+013
6.50996e+013
6.97204e+013
7.45467e+013
7.95791e+013
8.48171e+013
9.02592e+013
9.59024e+013
1.01743e+014
1.07774e+014
1.1399e+014
1.20383e+014
1.26943e+014
1.3366e+014
1.40503e+014
1.47452e+014
1.54487e+014
1.61587e+014
1.68727e+014
1.75882e+014
1.83023e+014
1.90122e+014
1.97148e+014
2.04066e+014
2.10845e+014
2.17448e+014
2.2384e+014
2.29982e+014
2.35837e+014
2.41365e+014
2.46528e+014
2.51285e+014
2.55599e+014
2.59428e+014
2.62736e+014
2.65483e+014
2.67634e+014
2.69153e+014
2.70007e+014
2.70165e+014
2.696e+014
2.68286e+014
2.66203e+014
2.63335e+014
2.59673e+014
2.55213e+014
2.49962e+014
2.43918e+014
2.37098e+014
2.29529e+014
2.2125e+014
2.12313e+014
2.0278e+014
1.92725e+014
1.82237e+014
1.71414e+014
1.60365e+014
1.49211e+014
1.38076e+014
1.27083e+014
1.16344e+014
1.05945e+014
9.59382e+013
8.6333e+013
7.70834e+013
6.80852e+013
5.92402e+013
5.03462e+013
4.1137e+013
3.12656e+013
2.03597e+013
9.50723e+012
1.50007e+012
2.47333e+012
3.32279e+012
4.07989e+012
4.79431e+012
5.48657e+012
6.16589e+012
6.83686e+012
7.50196e+012
8.16269e+012
8.81993e+012
9.47416e+012
1.01255e+013
1.07738e+013
1.14185e+013
1.2059e+013
1.26942e+013
1.33232e+013
1.39446e+013
1.45572e+013
1.51596e+013
1.57505e+013
1.63287e+013
1.68931e+013
1.74425e+013
1.7976e+013
1.84926e+013
1.89916e+013
1.94721e+013
1.99336e+013
2.03755e+013
2.07974e+013
2.11988e+013
2.15794e+013
2.19388e+013
2.22769e+013
2.25933e+013
2.2888e+013
2.31606e+013
2.3411e+013
2.36392e+013
2.38449e+013
2.4028e+013
2.41884e+013
2.4326e+013
2.44406e+013
2.45321e+013
2.46003e+013
2.46453e+013
2.46668e+013
2.46647e+013
2.46391e+013
2.45899e+013
2.45172e+013
2.44211e+013
2.43017e+013
2.41594e+013
2.39944e+013
2.38071e+013
2.35981e+013
2.33678e+013
2.31171e+013
2.28465e+013
2.25572e+013
2.22499e+013
2.19259e+013
2.15862e+013
2.12323e+013
2.08656e+013
2.04874e+013
2.00992e+013
1.97026e+013
1.92991e+013
1.88899e+013
1.84763e+013
1.80596e+013
1.76407e+013
1.72205e+013
1.67997e+013
1.63789e+013
1.59587e+013
1.55395e+013
1.51218e+013
1.4706e+013
1.42929e+013
1.38832e+013
1.34781e+013
1.3079e+013
1.26877e+013
1.23064e+013
1.19376e+013
1.15843e+013
1.12502e+013
1.09393e+013
1.06565e+013
1.04073e+013
1.01971e+013
1.00322e+013
9.91928e+012
9.86559e+012
9.87881e+012
9.96698e+012
1.01384e+013
1.04014e+013
1.07643e+013
1.12359e+013
1.18247e+013
1.25389e+013
1.33862e+013
1.43725e+013
1.55042e+013
1.67878e+013
1.82293e+013
1.98347e+013
2.16095e+013
2.3559e+013
2.56884e+013
2.80022e+013
3.05048e+013
3.32005e+013
3.60931e+013
3.91863e+013
4.24837e+013
4.59883e+013
4.97034e+013
5.36318e+013
5.77764e+013
6.21398e+013
6.67248e+013
7.1534e+013
7.65681e+013
8.18292e+013
8.73182e+013
9.3035e+013
9.89781e+013
1.05145e+014
1.11531e+014
1.18131e+014
1.24937e+014
1.31941e+014
1.39134e+014
1.46494e+014
1.53996e+014
1.61622e+014
1.69348e+014
1.7715e+014
1.85002e+014
1.92875e+014
2.00739e+014
2.08561e+014
2.16306e+014
2.23938e+014
2.3142e+014
2.38711e+014
2.45772e+014
2.52561e+014
2.59035e+014
2.65153e+014
2.7087e+014
2.76143e+014
2.80929e+014
2.85185e+014
2.8887e+014
2.91942e+014
2.94362e+014
2.96094e+014
2.97101e+014
2.97352e+014
2.96818e+014
2.95473e+014
2.93298e+014
2.90277e+014
2.86402e+014
2.81672e+014
2.76094e+014
2.69672e+014
2.62428e+014
2.54392e+014
2.45606e+014
2.36125e+014
2.26013e+014
2.15347e+014
2.04216e+014
1.92717e+014
1.80961e+014
1.69061e+014
1.57139e+014
1.4531e+014
1.33682e+014
1.22342e+014
1.11345e+014
1.00713e+014
9.04181e+013
8.03815e+013
7.04642e+013
6.05102e+013
5.02241e+013
3.91539e+013
2.67173e+013
1.35117e+013
1.70216e+012
2.75333e+012
3.66574e+012
4.4789e+012
5.24317e+012
5.98242e+012
6.70774e+012
7.4246e+012
8.1358e+012
8.84285e+012
9.54646e+012
1.02469e+013
1.09442e+013
1.16378e+013
1.23273e+013
1.30119e+013
1.36905e+013
1.43621e+013
1.50254e+013
1.56792e+013
1.63221e+013
1.6953e+013
1.75705e+013
1.81736e+013
1.87612e+013
1.93323e+013
1.98859e+013
2.04213e+013
2.09376e+013
2.14342e+013
2.19104e+013
2.23658e+013
2.27996e+013
2.32116e+013
2.36012e+013
2.39681e+013
2.43119e+013
2.46323e+013
2.4929e+013
2.52018e+013
2.54503e+013
2.56744e+013
2.58738e+013
2.60483e+013
2.61979e+013
2.63223e+013
2.64214e+013
2.6495e+013
2.65432e+013
2.65659e+013
2.6563e+013
2.65345e+013
2.64807e+013
2.64016e+013
2.62974e+013
2.61684e+013
2.6015e+013
2.58376e+013
2.56367e+013
2.54129e+013
2.51668e+013
2.48991e+013
2.46107e+013
2.43024e+013
2.39754e+013
2.36307e+013
2.32694e+013
2.28928e+013
2.25023e+013
2.20993e+013
2.16851e+013
2.12613e+013
2.08291e+013
2.039e+013
1.9945e+013
1.94955e+013
1.90424e+013
1.85867e+013
1.81291e+013
1.76703e+013
1.72111e+013
1.6752e+013
1.62938e+013
1.58372e+013
1.53831e+013
1.49326e+013
1.44874e+013
1.4049e+013
1.36198e+013
1.32021e+013
1.27992e+013
1.24145e+013
1.2052e+013
1.17164e+013
1.14132e+013
1.11481e+013
1.09274e+013
1.07579e+013
1.06469e+013
1.06022e+013
1.06318e+013
1.07444e+013
1.09483e+013
1.12521e+013
1.16645e+013
1.21941e+013
1.28491e+013
1.36378e+013
1.4567e+013
1.56431e+013
1.68726e+013
1.82617e+013
1.98166e+013
2.1543e+013
2.34466e+013
2.55328e+013
2.78067e+013
3.02734e+013
3.29375e+013
3.58036e+013
3.8876e+013
4.21589e+013
4.56562e+013
4.93719e+013
5.33096e+013
5.74729e+013
6.18654e+013
6.64903e+013
7.13511e+013
7.64508e+013
8.17916e+013
8.73761e+013
9.32056e+013
9.92804e+013
1.05599e+014
1.1216e+014
1.18958e+014
1.25989e+014
1.33243e+014
1.40713e+014
1.48387e+014
1.56239e+014
1.64249e+014
1.72397e+014
1.80658e+014
1.89006e+014
1.97414e+014
2.0585e+014
2.1428e+014
2.22671e+014
2.30983e+014
2.39179e+014
2.47217e+014
2.55054e+014
2.62647e+014
2.69951e+014
2.7692e+014
2.83508e+014
2.89669e+014
2.95356e+014
3.00524e+014
3.05126e+014
3.09119e+014
3.12459e+014
3.15105e+014
3.1702e+014
3.18165e+014
3.18509e+014
3.18021e+014
3.16679e+014
3.1446e+014
3.11353e+014
3.07349e+014
3.0245e+014
2.96663e+014
2.89998e+014
2.82479e+014
2.74141e+014
2.65028e+014
2.55195e+014
2.4471e+014
2.3365e+014
2.22103e+014
2.10166e+014
1.97945e+014
1.85551e+014
1.73099e+014
1.60699e+014
1.48454e+014
1.36447e+014
1.24739e+014
1.13355e+014
1.02282e+014
9.14581e+013
8.07595e+013
6.99762e+013
5.88305e+013
4.67987e+013
3.32216e+013
1.81683e+013
1.88342e+012
2.97584e+012
3.93003e+012
4.78756e+012
5.59082e+012
6.36619e+012
7.1263e+012
7.87745e+012
8.62285e+012
9.36404e+012
1.01017e+013
1.0836e+013
1.15667e+013
1.22933e+013
1.30152e+013
1.37315e+013
1.44413e+013
1.51433e+013
1.58365e+013
1.65196e+013
1.71914e+013
1.78507e+013
1.84963e+013
1.91272e+013
1.97422e+013
2.03405e+013
2.09212e+013
2.14833e+013
2.2026e+013
2.25488e+013
2.30508e+013
2.35314e+013
2.399e+013
2.4426e+013
2.48389e+013
2.52282e+013
2.55934e+013
2.5934e+013
2.62497e+013
2.654e+013
2.68047e+013
2.70433e+013
2.72555e+013
2.74413e+013
2.76003e+013
2.77323e+013
2.78373e+013
2.79152e+013
2.79658e+013
2.79893e+013
2.79856e+013
2.79549e+013
2.78974e+013
2.78133e+013
2.7703e+013
2.75668e+013
2.74052e+013
2.72186e+013
2.70078e+013
2.67732e+013
2.65157e+013
2.62361e+013
2.59351e+013
2.56137e+013
2.52729e+013
2.49137e+013
2.45374e+013
2.4145e+013
2.37379e+013
2.33174e+013
2.28848e+013
2.24414e+013
2.19884e+013
2.15273e+013
2.10591e+013
2.05849e+013
2.01058e+013
1.96227e+013
1.91364e+013
1.86478e+013
1.81576e+013
1.76667e+013
1.7176e+013
1.66864e+013
1.6199e+013
1.57155e+013
1.52375e+013
1.47672e+013
1.43071e+013
1.38602e+013
1.34299e+013
1.30202e+013
1.26357e+013
1.22813e+013
1.1963e+013
1.16871e+013
1.14603e+013
1.12899e+013
1.11836e+013
1.11496e+013
1.11962e+013
1.1332e+013
1.15657e+013
1.19057e+013
1.23606e+013
1.29386e+013
1.36479e+013
1.44961e+013
1.54896e+013
1.6635e+013
1.79385e+013
1.94062e+013
2.1044e+013
2.28578e+013
2.48531e+013
2.70355e+013
2.94101e+013
3.19821e+013
3.47566e+013
3.77382e+013
4.09318e+013
4.43419e+013
4.79729e+013
5.18292e+013
5.5915e+013
6.02345e+013
6.47919e+013
6.9591e+013
7.46358e+013
7.99298e+013
8.54764e+013
9.12787e+013
9.73384e+013
1.03656e+014
1.10232e+014
1.17063e+014
1.24146e+014
1.31475e+014
1.39042e+014
1.46837e+014
1.54847e+014
1.63048e+014
1.7142e+014
1.79942e+014
1.88589e+014
1.97333e+014
2.06145e+014
2.14992e+014
2.2384e+014
2.32649e+014
2.41382e+014
2.49997e+014
2.5845e+014
2.66695e+014
2.74687e+014
2.82379e+014
2.89722e+014
2.96666e+014
3.03165e+014
3.09168e+014
3.14629e+014
3.19499e+014
3.23732e+014
3.27285e+014
3.30115e+014
3.32183e+014
3.3345e+014
3.33886e+014
3.3346e+014
3.32148e+014
3.29932e+014
3.268e+014
3.22744e+014
3.17768e+014
3.11881e+014
3.05096e+014
2.97441e+014
2.88952e+014
2.79675e+014
2.69668e+014
2.58997e+014
2.47739e+014
2.35981e+014
2.23819e+014
2.11353e+014
1.9869e+014
1.85938e+014
1.73203e+014
1.6058e+014
1.4815e+014
1.35975e+014
1.24085e+014
1.12475e+014
1.01095e+014
8.98353e+013
7.84984e+013
6.67401e+013
5.40242e+013
3.97192e+013
2.33986e+013
2.02883e+012
3.13293e+012
4.11108e+012
5.00083e+012
5.83201e+012
6.6328e+012
7.41697e+012
8.19148e+012
8.95985e+012
9.72374e+012
1.04838e+013
1.12401e+013
1.19923e+013
1.27399e+013
1.34821e+013
1.42182e+013
1.49471e+013
1.56678e+013
1.63791e+013
1.70799e+013
1.77691e+013
1.84455e+013
1.91081e+013
1.97559e+013
2.03879e+013
2.10031e+013
2.16007e+013
2.21799e+013
2.27399e+013
2.32798e+013
2.3799e+013
2.42968e+013
2.47724e+013
2.52251e+013
2.56544e+013
2.60596e+013
2.644e+013
2.67952e+013
2.71246e+013
2.74277e+013
2.77041e+013
2.79533e+013
2.81749e+013
2.83688e+013
2.85346e+013
2.86722e+013
2.87814e+013
2.88621e+013
2.89144e+013
2.89384e+013
2.8934e+013
2.89016e+013
2.88415e+013
2.87539e+013
2.86393e+013
2.84982e+013
2.83311e+013
2.81386e+013
2.79214e+013
2.76802e+013
2.74158e+013
2.7129e+013
2.68206e+013
2.64916e+013
2.61429e+013
2.57755e+013
2.53906e+013
2.49892e+013
2.45725e+013
2.41417e+013
2.3698e+013
2.32426e+013
2.27767e+013
2.23014e+013
2.18179e+013
2.13272e+013
2.08302e+013
2.0328e+013
1.98213e+013
1.93112e+013
1.87983e+013
1.82838e+013
1.77687e+013
1.72541e+013
1.67416e+013
1.62328e+013
1.57298e+013
1.52351e+013
1.47516e+013
1.42825e+013
1.38318e+013
1.34038e+013
1.30034e+013
1.26362e+013
1.23082e+013
1.20263e+013
1.17976e+013
1.16296e+013
1.15304e+013
1.15083e+013
1.15717e+013
1.17293e+013
1.19893e+013
1.23602e+013
1.28501e+013
1.34668e+013
1.4218e+013
1.51107e+013
1.61511e+013
1.73455e+013
1.86998e+013
2.02199e+013
2.19116e+013
2.37804e+013
2.5832e+013
2.80718e+013
3.05051e+013
3.31371e+013
3.5973e+013
3.90178e+013
4.22765e+013
4.5754e+013
4.9455e+013
5.33843e+013
5.75466e+013
6.19465e+013
6.65885e+013
7.14772e+013
7.66169e+013
8.20117e+013
8.76659e+013
9.35829e+013
9.97652e+013
1.06214e+014
1.12929e+014
1.1991e+014
1.27151e+014
1.34648e+014
1.42394e+014
1.50378e+014
1.58583e+014
1.66991e+014
1.75581e+014
1.8433e+014
1.93215e+014
2.02206e+014
2.11272e+014
2.20381e+014
2.29496e+014
2.38577e+014
2.47584e+014
2.56473e+014
2.652e+014
2.73717e+014
2.81976e+014
2.89929e+014
2.97524e+014
3.04712e+014
3.11442e+014
3.17665e+014
3.2333e+014
3.28391e+014
3.32799e+014
3.36509e+014
3.3948e+014
3.41671e+014
3.43046e+014
3.43572e+014
3.4322e+014
3.41968e+014
3.39798e+014
3.36698e+014
3.32664e+014
3.277e+014
3.21816e+014
3.1503e+014
3.0737e+014
2.98874e+014
2.89589e+014
2.79573e+014
2.68892e+014
2.57621e+014
2.45844e+014
2.33653e+014
2.21146e+014
2.08421e+014
1.95581e+014
1.82725e+014
1.69942e+014
1.5731e+014
1.44889e+014
1.32715e+014
1.2079e+014
1.09076e+014
9.74804e+013
8.5826e+013
7.37872e+013
6.07514e+013
4.61864e+013
2.92658e+013
2.11662e+012
3.21747e+012
4.20655e+012
5.11551e+012
5.96295e+012
6.7782e+012
7.57574e+012
8.36291e+012
9.14338e+012
9.91886e+012
1.069e+013
1.14568e+013
1.22189e+013
1.29757e+013
1.37265e+013
1.44705e+013
1.52068e+013
1.59344e+013
1.66522e+013
1.73592e+013
1.80544e+013
1.87368e+013
1.94055e+013
2.00594e+013
2.06977e+013
2.13197e+013
2.19243e+013
2.2511e+013
2.30787e+013
2.36269e+013
2.41547e+013
2.46613e+013
2.5146e+013
2.5608e+013
2.60466e+013
2.6461e+013
2.68505e+013
2.72145e+013
2.75522e+013
2.78632e+013
2.81467e+013
2.84025e+013
2.863e+013
2.88288e+013
2.89988e+013
2.91396e+013
2.92513e+013
2.93336e+013
2.93868e+013
2.94108e+013
2.94058e+013
2.93723e+013
2.93105e+013
2.92208e+013
2.91038e+013
2.89601e+013
2.87903e+013
2.8595e+013
2.83751e+013
2.81313e+013
2.78643e+013
2.75751e+013
2.72645e+013
2.69333e+013
2.65825e+013
2.6213e+013
2.58259e+013
2.54221e+013
2.50027e+013
2.45688e+013
2.41214e+013
2.36616e+013
2.31904e+013
2.2709e+013
2.22182e+013
2.17191e+013
2.12126e+013
2.06995e+013
2.01809e+013
1.96576e+013
1.91306e+013
1.86009e+013
1.80698e+013
1.75386e+013
1.70091e+013
1.64832e+013
1.59633e+013
1.5452e+013
1.49527e+013
1.44689e+013
1.40049e+013
1.35653e+013
1.31555e+013
1.27812e+013
1.24491e+013
1.21659e+013
1.19392e+013
1.17767e+013
1.16867e+013
1.16773e+013
1.17569e+013
1.1934e+013
1.22165e+013
1.26123e+013
1.31293e+013
1.37746e+013
1.45551e+013
1.54773e+013
1.65473e+013
1.77707e+013
1.91532e+013
2.07003e+013
2.24174e+013
2.43101e+013
2.63837e+013
2.86436e+013
3.10952e+013
3.37435e+013
3.65938e+013
3.96513e+013
4.2921e+013
4.64081e+013
5.01176e+013
5.40544e+013
5.82236e+013
6.263e+013
6.72787e+013
7.21744e+013
7.7322e+013
8.2726e+013
8.83913e+013
9.43217e+013
1.0052e+014
1.06989e+014
1.13729e+014
1.20738e+014
1.28013e+014
1.35551e+014
1.43342e+014
1.51377e+014
1.5964e+014
1.68113e+014
1.76777e+014
1.85609e+014
1.94583e+014
2.03671e+014
2.12843e+014
2.22063e+014
2.31295e+014
2.40499e+014
2.49633e+014
2.58652e+014
2.67512e+014
2.76163e+014
2.84557e+014
2.92643e+014
3.0037e+014
3.07687e+014
3.14543e+014
3.20887e+014
3.2667e+014
3.31843e+014
3.36359e+014
3.40173e+014
3.43243e+014
3.45529e+014
3.46995e+014
3.4761e+014
3.47345e+014
3.4618e+014
3.44097e+014
3.41086e+014
3.37145e+014
3.32279e+014
3.26499e+014
3.19825e+014
3.12286e+014
3.03921e+014
2.94778e+014
2.84911e+014
2.74386e+014
2.63276e+014
2.51662e+014
2.3963e+014
2.2727e+014
2.14678e+014
2.01946e+014
1.89167e+014
1.76425e+014
1.63793e+014
1.5133e+014
1.39076e+014
1.27042e+014
1.15205e+014
1.03497e+014
9.17786e+013
7.97794e+013
6.6963e+013
5.28217e+013
3.65542e+013
2.11969e+012
3.22415e+012
4.21744e+012
5.13054e+012
5.98162e+012
6.8e+012
7.60013e+012
8.38931e+012
9.17117e+012
9.94735e+012
1.07184e+013
1.14844e+013
1.22449e+013
1.29994e+013
1.37472e+013
1.44876e+013
1.52196e+013
1.59425e+013
1.66553e+013
1.73572e+013
1.80472e+013
1.87244e+013
1.93882e+013
2.00375e+013
2.06718e+013
2.12902e+013
2.18919e+013
2.24763e+013
2.30426e+013
2.35899e+013
2.41176e+013
2.46248e+013
2.51106e+013
2.55743e+013
2.6015e+013
2.64319e+013
2.68241e+013
2.71909e+013
2.75315e+013
2.78452e+013
2.81315e+013
2.83896e+013
2.86192e+013
2.88198e+013
2.89912e+013
2.91331e+013
2.92453e+013
2.93279e+013
2.9381e+013
2.94047e+013
2.93992e+013
2.9365e+013
2.93025e+013
2.92122e+013
2.90947e+013
2.89507e+013
2.87809e+013
2.85861e+013
2.8367e+013
2.81245e+013
2.78593e+013
2.75724e+013
2.72645e+013
2.69365e+013
2.65893e+013
2.62238e+013
2.58408e+013
2.54412e+013
2.50259e+013
2.4596e+013
2.41522e+013
2.36955e+013
2.32268e+013
2.2747e+013
2.22571e+013
2.17578e+013
2.125e+013
2.07346e+013
2.02125e+013
1.96846e+013
1.9152e+013
1.86158e+013
1.80774e+013
1.75383e+013
1.70004e+013
1.64658e+013
1.59371e+013
1.54175e+013
1.49102e+013
1.44193e+013
1.39493e+013
1.35051e+013
1.30923e+013
1.2717e+013
1.23859e+013
1.21061e+013
1.18853e+013
1.17312e+013
1.1652e+013
1.16557e+013
1.17506e+013
1.19445e+013
1.2245e+013
1.26594e+013
1.31949e+013
1.38582e+013
1.46555e+013
1.55926e+013
1.66748e+013
1.79076e+013
1.92961e+013
2.08454e+013
2.25606e+013
2.4447e+013
2.65097e+013
2.87538e+013
3.11847e+013
3.38072e+013
3.66267e+013
3.96482e+013
4.28769e+013
4.6318e+013
4.99764e+013
5.38574e+013
5.7966e+013
6.23074e+013
6.68867e+013
7.17091e+013
7.67797e+013
8.21033e+013
8.76851e+013
9.35296e+013
9.96404e+013
1.0602e+014
1.12669e+014
1.19588e+014
1.26775e+014
1.34224e+014
1.4193e+014
1.49881e+014
1.58065e+014
1.66465e+014
1.7506e+014
1.83828e+014
1.92744e+014
2.01781e+014
2.10907e+014
2.20089e+014
2.29288e+014
2.38466e+014
2.4758e+014
2.56586e+014
2.65436e+014
2.74084e+014
2.82479e+014
2.90571e+014
2.98308e+014
3.05641e+014
3.12516e+014
3.18886e+014
3.24699e+014
3.29907e+014
3.34465e+014
3.38329e+014
3.41455e+014
3.43807e+014
3.4535e+014
3.46051e+014
3.45887e+014
3.44834e+014
3.4288e+014
3.40014e+014
3.36235e+014
3.31549e+014
3.2597e+014
3.19517e+014
3.12222e+014
3.0412e+014
2.95259e+014
2.85692e+014
2.75483e+014
2.647e+014
2.53418e+014
2.41719e+014
2.29686e+014
2.17407e+014
2.04967e+014
1.92451e+014
1.79934e+014
1.67487e+014
1.5517e+014
1.43025e+014
1.31071e+014
1.19308e+014
1.077e+014
9.61644e+013
8.45417e+013
7.25236e+013
5.98961e+013
4.69086e+013
2.03716e+012
3.15252e+012
4.14336e+012
5.04535e+012
5.88733e+012
6.69744e+012
7.48937e+012
8.26994e+012
9.0425e+012
9.80854e+012
1.05686e+013
1.13225e+013
1.20702e+013
1.28109e+013
1.35442e+013
1.42693e+013
1.49857e+013
1.56925e+013
1.63889e+013
1.70744e+013
1.7748e+013
1.84092e+013
1.90572e+013
1.96915e+013
2.03113e+013
2.0916e+013
2.15049e+013
2.20775e+013
2.26329e+013
2.31704e+013
2.36893e+013
2.41886e+013
2.46676e+013
2.51254e+013
2.5561e+013
2.59735e+013
2.6362e+013
2.67256e+013
2.70635e+013
2.73749e+013
2.7659e+013
2.79154e+013
2.81433e+013
2.83424e+013