/*--------------------------------*- C++ -*----------------------------------*\
| =========                 |                                                 |
| \\      /  F ield         | OpenFOAM: The Open Source CFD Toolbox           |
|  \\    /   O peration     | Version:  5.x                                   |
|   \\  /    A nd           | Web:      www.OpenFOAM.org                      |
|    \\/     M anipulation  |                                                 |
\*---------------------------------------------------------------------------*/
/*   Windows 32 and 64 bit porting by blueCAPE: http://www.bluecape.com.pt   *\
|  Based on Windows porting (2.0.x v4) by Symscape: http://www.symscape.com   |
\*---------------------------------------------------------------------------*/
FoamFile
{
    version     2.0;
    format      ascii;
    class       volScalarField;
    location    "3000";
    object      p;
}
// * * * * * * * * * * * * * * * * * * * * * * * * * * * * * * * * * * * * * //

dimensions      [0 2 -2 0 0 0 0];

internalField   nonuniform List<scalar> 
4000
(
-5.97994e+011
-5.97654e+011
-5.99519e+011
-6.04062e+011
-6.10436e+011
-6.17613e+011
-6.25051e+011
-6.32411e+011
-6.39297e+011
-6.45426e+011
-6.50403e+011
-6.53975e+011
-6.56033e+011
-6.56426e+011
-6.55061e+011
-6.5189e+011
-6.46921e+011
-6.40226e+011
-6.31927e+011
-6.22203e+011
-6.1127e+011
-5.99354e+011
-5.86833e+011
-5.74175e+011
-5.61682e+011
-5.49647e+011
-5.38332e+011
-5.27949e+011
-5.18685e+011
-5.10674e+011
-5.03997e+011
-4.98686e+011
-4.9472e+011
-4.92035e+011
-4.90527e+011
-4.90063e+011
-4.90484e+011
-4.91619e+011
-4.93279e+011
-4.95317e+011
-4.97621e+011
-5.00035e+011
-5.02424e+011
-5.04649e+011
-5.06618e+011
-5.0835e+011
-5.098e+011
-5.1099e+011
-5.11949e+011
-5.12636e+011
-5.13156e+011
-5.13677e+011
-5.14307e+011
-5.15139e+011
-5.16283e+011
-5.17831e+011
-5.1986e+011
-5.22413e+011
-5.25531e+011
-5.29245e+011
-5.33544e+011
-5.38336e+011
-5.4346e+011
-5.48819e+011
-5.54254e+011
-5.59576e+011
-5.64582e+011
-5.68964e+011
-5.72552e+011
-5.75258e+011
-5.7689e+011
-5.77268e+011
-5.76261e+011
-5.73769e+011
-5.69731e+011
-5.64121e+011
-5.56952e+011
-5.48279e+011
-5.38193e+011
-5.26824e+011
-5.1435e+011
-5.00954e+011
-4.86988e+011
-4.73077e+011
-4.59716e+011
-4.47329e+011
-4.3644e+011
-4.27596e+011
-4.21354e+011
-4.1821e+011
-4.18619e+011
-4.2277e+011
-4.30541e+011
-4.42057e+011
-4.57492e+011
-4.7703e+011
-5.00598e+011
-5.27893e+011
-5.58437e+011
-5.91703e+011
-6.27233e+011
-6.64467e+011
-7.02731e+011
-7.41661e+011
-7.80408e+011
-8.18321e+011
-8.55187e+011
-8.9092e+011
-9.24863e+011
-9.5738e+011
-9.8962e+011
-1.02112e+012
-1.05162e+012
-1.08125e+012
-1.10844e+012
-1.13149e+012
-1.14908e+012
-1.15908e+012
-1.15888e+012
-1.14576e+012
-1.11694e+012
-1.06951e+012
-1.00055e+012
-9.07274e+011
-7.87065e+011
-6.37616e+011
-4.56949e+011
-2.43467e+011
4.09069e+009
2.86537e+011
6.02874e+011
9.50507e+011
1.32754e+012
1.73226e+012
2.16206e+012
2.61376e+012
3.08355e+012
3.56701e+012
4.05913e+012
4.55441e+012
5.04609e+012
5.5278e+012
5.99534e+012
6.44533e+012
6.87607e+012
7.28498e+012
7.66591e+012
8.00626e+012
8.29857e+012
8.53845e+012
8.721e+012
8.84195e+012
8.89731e+012
8.88332e+012
8.79645e+012
8.63355e+012
8.39184e+012
8.06901e+012
7.66324e+012
7.17332e+012
6.5987e+012
5.93963e+012
5.19727e+012
4.37387e+012
3.47291e+012
2.49931e+012
1.45961e+012
3.62196e+011
-7.82645e+011
-1.96256e+012
-3.1629e+012
-4.36733e+012
-5.55728e+012
-6.71181e+012
-7.80923e+012
-8.8163e+012
-9.69954e+012
-1.04333e+013
-1.09974e+013
-1.13739e+013
-1.15497e+013
-1.15187e+013
-1.12837e+013
-1.08559e+013
-1.0262e+013
-9.54426e+012
-8.76091e+012
-7.96116e+012
-7.26398e+012
-6.67661e+012
-6.17046e+012
-5.84853e+012
-5.64859e+012
-5.40698e+012
-5.06411e+012
-4.55692e+012
-3.86152e+012
-3.28544e+012
-3.78296e+012
-1.95722e+012
-6.00305e+011
-5.99298e+011
-6.00247e+011
-6.01197e+011
-6.03379e+011
-6.07174e+011
-6.11687e+011
-6.16027e+011
-6.19858e+011
-6.22896e+011
-6.25535e+011
-6.27838e+011
-6.29401e+011
-6.30053e+011
-6.29697e+011
-6.28252e+011
-6.25667e+011
-6.21933e+011
-6.17075e+011
-6.11166e+011
-6.04379e+011
-5.97069e+011
-5.89299e+011
-5.80782e+011
-5.71809e+011
-5.62819e+011
-5.54027e+011
-5.45606e+011
-5.3772e+011
-5.30498e+011
-5.24036e+011
-5.18401e+011
-5.13625e+011
-5.0971e+011
-5.06633e+011
-5.04346e+011
-5.02786e+011
-5.01891e+011
-5.01653e+011
-5.0192e+011
-5.02452e+011
-5.0319e+011
-5.04178e+011
-5.05351e+011
-5.06633e+011
-5.08072e+011
-5.09526e+011
-5.10904e+011
-5.12351e+011
-5.13971e+011
-5.15738e+011
-5.17458e+011
-5.19224e+011
-5.21112e+011
-5.23165e+011
-5.25405e+011
-5.27863e+011
-5.30612e+011
-5.33617e+011
-5.36701e+011
-5.39804e+011
-5.42941e+011
-5.46145e+011
-5.49154e+011
-5.51864e+011
-5.542e+011
-5.56041e+011
-5.57574e+011
-5.58573e+011
-5.58613e+011
-5.57693e+011
-5.55902e+011
-5.53246e+011
-5.49741e+011
-5.45424e+011
-5.40344e+011
-5.34566e+011
-5.28171e+011
-5.21261e+011
-5.13948e+011
-5.0645e+011
-4.99286e+011
-4.92606e+011
-4.8588e+011
-4.79394e+011
-4.73804e+011
-4.69453e+011
-4.66659e+011
-4.65664e+011
-4.66301e+011
-4.68152e+011
-4.72926e+011
-4.81986e+011
-4.94352e+011
-5.11229e+011
-5.30777e+011
-5.51391e+011
-5.73998e+011
-5.98473e+011
-6.24344e+011
-6.51176e+011
-6.78355e+011
-7.04848e+011
-7.29822e+011
-7.5423e+011
-7.7794e+011
-8.00176e+011
-8.21019e+011
-8.42512e+011
-8.64533e+011
-8.85052e+011
-9.02558e+011
-9.15553e+011
-9.25349e+011
-9.35164e+011
-9.44516e+011
-9.50673e+011
-9.51742e+011
-9.45747e+011
-9.30291e+011
-9.02924e+011
-8.61101e+011
-8.02255e+011
-7.23884e+011
-6.23629e+011
-4.99396e+011
-3.49433e+011
-1.7246e+011
3.14597e+010
2.60772e+011
5.16969e+011
8.03045e+011
1.11696e+012
1.45489e+012
1.81448e+012
2.1929e+012
2.58685e+012
2.99248e+012
3.40553e+012
3.82177e+012
4.23665e+012
4.65553e+012
5.0838e+012
5.49251e+012
5.86192e+012
6.19582e+012
6.46471e+012
6.69945e+012
6.91942e+012
7.0959e+012
7.22056e+012
7.289e+012
7.29713e+012
7.24142e+012
7.1188e+012
6.9266e+012
6.66254e+012
6.3248e+012
5.91216e+012
5.42405e+012
4.86067e+012
4.2231e+012
3.51345e+012
2.73498e+012
1.89231e+012
9.91543e+011
4.04464e+010
-9.51428e+011
-1.9726e+012
-3.00961e+012
-4.0469e+012
-5.06719e+012
-6.05147e+012
-6.9735e+012
-7.79648e+012
-8.50743e+012
-9.09857e+012
-9.54836e+012
-9.83391e+012
-9.94037e+012
-9.86096e+012
-9.59721e+012
-9.16048e+012
-8.57272e+012
-7.87146e+012
-7.10249e+012
-6.33963e+012
-5.6905e+012
-5.19148e+012
-4.7046e+012
-4.25401e+012
-4.0226e+012
-3.99842e+012
-4.09256e+012
-4.17985e+012
-4.16602e+012
-3.85686e+012
-3.3398e+012
-3.78441e+012
-1.74015e+012
-5.99241e+011
-5.98478e+011
-5.987e+011
-5.98058e+011
-5.97176e+011
-5.96957e+011
-5.972e+011
-5.97718e+011
-5.98427e+011
-5.99131e+011
-5.99941e+011
-6.00918e+011
-6.01886e+011
-6.02728e+011
-6.03331e+011
-6.0358e+011
-6.03374e+011
-6.02627e+011
-6.0127e+011
-5.99259e+011
-5.96595e+011
-5.93354e+011
-5.89536e+011
-5.85016e+011
-5.79909e+011
-5.74414e+011
-5.6864e+011
-5.627e+011
-5.56712e+011
-5.50783e+011
-5.45012e+011
-5.39487e+011
-5.34286e+011
-5.29469e+011
-5.25086e+011
-5.21175e+011
-5.1776e+011
-5.14862e+011
-5.12513e+011
-5.10691e+011
-5.09341e+011
-5.08478e+011
-5.08029e+011
-5.08101e+011
-5.08689e+011
-5.09832e+011
-5.11243e+011
-5.12664e+011
-5.14302e+011
-5.16365e+011
-5.18921e+011
-5.21739e+011
-5.2456e+011
-5.2741e+011
-5.30284e+011
-5.33136e+011
-5.35916e+011
-5.38589e+011
-5.41071e+011
-5.43219e+011
-5.449e+011
-5.46365e+011
-5.47689e+011
-5.48436e+011
-5.48551e+011
-5.48044e+011
-5.46801e+011
-5.45037e+011
-5.42855e+011
-5.4011e+011
-5.36882e+011
-5.33285e+011
-5.29418e+011
-5.2539e+011
-5.21312e+011
-5.17296e+011
-5.13446e+011
-5.09861e+011
-5.06635e+011
-5.03853e+011
-5.01612e+011
-5.00092e+011
-4.9931e+011
-4.9909e+011
-4.99538e+011
-5.00862e+011
-5.0316e+011
-5.06526e+011
-5.10995e+011
-5.16507e+011
-5.23023e+011
-5.31393e+011
-5.41811e+011
-5.53813e+011
-5.67933e+011
-5.83483e+011
-5.99475e+011
-6.16134e+011
-6.33199e+011
-6.50298e+011
-6.67081e+011
-6.83104e+011
-6.97669e+011
-7.10352e+011
-7.21471e+011
-7.30958e+011
-7.38624e+011
-7.44638e+011
-7.49842e+011
-7.54185e+011
-7.56973e+011
-7.58859e+011
-7.59762e+011
-7.59433e+011
-7.5888e+011
-7.58101e+011
-7.55791e+011
-7.50517e+011
-7.40596e+011
-7.24234e+011
-6.9956e+011
-6.64523e+011
-6.1703e+011
-5.55032e+011
-4.76592e+011
-3.79981e+011
-2.63747e+011
-1.26814e+011
3.13006e+010
2.10626e+011
4.11308e+011
6.34128e+011
8.77965e+011
1.14066e+012
1.42029e+012
1.71449e+012
2.02057e+012
2.33543e+012
2.6557e+012
2.97824e+012
3.29896e+012
3.61731e+012
3.93368e+012
4.23225e+012
4.50438e+012
4.75205e+012
4.95863e+012
5.12911e+012
5.27418e+012
5.38129e+012
5.44483e+012
5.4603e+012
5.42373e+012
5.33168e+012
5.18125e+012
4.97011e+012
4.69641e+012
4.35879e+012
3.95663e+012
3.49008e+012
2.96008e+012
2.36855e+012
1.71849e+012
1.01411e+012
2.60979e+011
-5.33877e+011
-1.36185e+012
-2.2127e+012
-3.07447e+012
-3.93367e+012
-4.77522e+012
-5.58292e+012
-6.33912e+012
-7.02238e+012
-7.60327e+012
-8.07107e+012
-8.41321e+012
-8.61529e+012
-8.66551e+012
-8.55772e+012
-8.29233e+012
-7.87723e+012
-7.3287e+012
-6.67088e+012
-5.93628e+012
-5.16957e+012
-4.42642e+012
-3.76822e+012
-3.23829e+012
-2.86441e+012
-2.66726e+012
-2.63521e+012
-2.76788e+012
-3.01926e+012
-3.30925e+012
-3.54439e+012
-3.52421e+012
-3.14929e+012
-3.42928e+012
-1.48728e+012
-5.93471e+011
-5.96571e+011
-5.96135e+011
-5.94772e+011
-5.92309e+011
-5.89759e+011
-5.87388e+011
-5.85349e+011
-5.83728e+011
-5.8253e+011
-5.81861e+011
-5.81761e+011
-5.82156e+011
-5.8296e+011
-5.84054e+011
-5.85311e+011
-5.8659e+011
-5.87754e+011
-5.88667e+011
-5.89215e+011
-5.89302e+011
-5.88872e+011
-5.87846e+011
-5.86119e+011
-5.83698e+011
-5.8065e+011
-5.77029e+011
-5.72909e+011
-5.68374e+011
-5.63518e+011
-5.58436e+011
-5.53227e+011
-5.47994e+011
-5.42833e+011
-5.37837e+011
-5.33096e+011
-5.2869e+011
-5.24695e+011
-5.21186e+011
-5.18205e+011
-5.15788e+011
-5.14016e+011
-5.12602e+011
-5.11816e+011
-5.11895e+011
-5.12554e+011
-5.13726e+011
-5.15325e+011
-5.1735e+011
-5.19796e+011
-5.226e+011
-5.25664e+011
-5.28835e+011
-5.3204e+011
-5.35191e+011
-5.38195e+011
-5.40959e+011
-5.43403e+011
-5.45436e+011
-5.4695e+011
-5.47874e+011
-5.4829e+011
-5.48044e+011
-5.46968e+011
-5.45205e+011
-5.42865e+011
-5.39924e+011
-5.36422e+011
-5.32508e+011
-5.28222e+011
-5.23715e+011
-5.19155e+011
-5.14709e+011
-5.10544e+011
-5.06824e+011
-5.03699e+011
-5.01297e+011
-4.99725e+011
-4.99062e+011
-4.99366e+011
-5.00665e+011
-5.02991e+011
-5.06294e+011
-5.10432e+011
-5.15365e+011
-5.21093e+011
-5.2758e+011
-5.34787e+011
-5.42649e+011
-5.51102e+011
-5.6009e+011
-5.69904e+011
-5.80626e+011
-5.92009e+011
-6.04153e+011
-6.16599e+011
-6.28787e+011
-6.40624e+011
-6.51817e+011
-6.62043e+011
-6.70983e+011
-6.78287e+011
-6.83569e+011
-6.86595e+011
-6.87483e+011
-6.86293e+011
-6.83128e+011
-6.78256e+011
-6.7226e+011
-6.65411e+011
-6.5768e+011
-6.49507e+011
-6.41115e+011
-6.32765e+011
-6.25082e+011
-6.18072e+011
-6.10997e+011
-6.02889e+011
-5.92563e+011
-5.7859e+011
-5.59394e+011
-5.33278e+011
-4.98506e+011
-4.53364e+011
-3.96229e+011
-3.2564e+011
-2.4038e+011
-1.39504e+011
-2.23036e+010
1.11429e+011
2.61879e+011
4.29399e+011
6.13251e+011
8.12036e+011
1.0242e+012
1.24783e+012
1.48073e+012
1.72044e+012
1.96424e+012
2.20958e+012
2.45316e+012
2.6928e+012
2.9263e+012
3.14482e+012
3.34222e+012
3.51681e+012
3.66093e+012
3.77528e+012
3.86214e+012
3.91503e+012
3.92997e+012
3.90313e+012
3.83122e+012
3.71139e+012
3.54123e+012
3.31879e+012
3.0427e+012
2.71206e+012
2.32675e+012
1.88746e+012
1.39567e+012
8.53843e+011
2.65541e+011
-3.64499e+011
-1.03024e+012
-1.72427e+012
-2.43775e+012
-3.16037e+012
-3.8804e+012
-4.58478e+012
-5.25909e+012
-5.88735e+012
-6.45252e+012
-6.9364e+012
-7.32009e+012
-7.59037e+012
-7.73724e+012
-7.75162e+012
-7.62721e+012
-7.36264e+012
-6.96257e+012
-6.43858e+012
-5.80986e+012
-5.10359e+012
-4.35494e+012
-3.60687e+012
-2.90972e+012
-2.31478e+012
-1.85986e+012
-1.56798e+012
-1.46046e+012
-1.5471e+012
-1.82033e+012
-2.23451e+012
-2.70299e+012
-3.09963e+012
-3.22621e+012
-2.91724e+012
-3.00722e+012
-1.34298e+012
-5.85424e+011
-5.923e+011
-5.92136e+011
-5.90767e+011
-5.87662e+011
-5.83922e+011
-5.80035e+011
-5.76393e+011
-5.73247e+011
-5.70733e+011
-5.69e+011
-5.68095e+011
-5.67996e+011
-5.68651e+011
-5.69935e+011
-5.71721e+011
-5.73845e+011
-5.76136e+011
-5.78422e+011
-5.80537e+011
-5.82333e+011
-5.83682e+011
-5.84465e+011
-5.8457e+011
-5.8395e+011
-5.82601e+011
-5.80538e+011
-5.77796e+011
-5.74435e+011
-5.70534e+011
-5.66177e+011
-5.61466e+011
-5.5652e+011
-5.5144e+011
-5.46347e+011
-5.41352e+011
-5.36569e+011
-5.321e+011
-5.28045e+011
-5.24484e+011
-5.21481e+011
-5.19114e+011
-5.17329e+011
-5.16191e+011
-5.1584e+011
-5.16173e+011
-5.17119e+011
-5.18585e+011
-5.20566e+011
-5.23009e+011
-5.25835e+011
-5.28931e+011
-5.32147e+011
-5.35371e+011
-5.38485e+011
-5.4138e+011
-5.43934e+011
-5.46057e+011
-5.47659e+011
-5.48639e+011
-5.48958e+011
-5.48664e+011
-5.47551e+011
-5.45295e+011
-5.42329e+011
-5.39091e+011
-5.35278e+011
-5.30853e+011
-5.26075e+011
-5.2108e+011
-5.16052e+011
-5.11188e+011
-5.06688e+011
-5.02744e+011
-4.99536e+011
-4.97237e+011
-4.95975e+011
-4.95849e+011
-4.96921e+011
-4.99215e+011
-5.02715e+011
-5.07376e+011
-5.13105e+011
-5.19756e+011
-5.2721e+011
-5.35363e+011
-5.44092e+011
-5.53284e+011
-5.62816e+011
-5.72589e+011
-5.8251e+011
-5.92637e+011
-6.02948e+011
-6.13243e+011
-6.23458e+011
-6.33279e+011
-6.42314e+011
-6.50368e+011
-6.57155e+011
-6.62384e+011
-6.65781e+011
-6.6708e+011
-6.66039e+011
-6.62528e+011
-6.56622e+011
-6.48449e+011
-6.38237e+011
-6.26338e+011
-6.13282e+011
-5.99503e+011
-5.85339e+011
-5.71343e+011
-5.57929e+011
-5.45492e+011
-5.34425e+011
-5.24863e+011
-5.16329e+011
-5.08147e+011
-4.99533e+011
-4.89274e+011
-4.7614e+011
-4.58734e+011
-4.3561e+011
-4.05329e+011
-3.66497e+011
-3.17835e+011
-2.58261e+011
-1.86831e+011
-1.02893e+011
-6.13501e+009
1.03626e+011
2.26565e+011
3.62186e+011
5.09531e+011
6.67392e+011
8.34247e+011
1.00832e+012
1.18758e+012
1.36977e+012
1.55258e+012
1.73318e+012
1.9091e+012
2.07767e+012
2.23348e+012
2.3723e+012
2.49146e+012
2.5863e+012
2.65563e+012
2.69877e+012
2.71184e+012
2.69187e+012
2.6359e+012
2.54144e+012
2.4059e+012
2.22708e+012
2.00349e+012
1.7345e+012
1.41935e+012
1.0582e+012
6.52183e+011
2.0307e+011
-2.86372e+011
-8.12353e+011
-1.36997e+012
-1.95312e+012
-2.55446e+012
-3.16538e+012
-3.77599e+012
-4.37508e+012
-4.9502e+012
-5.48783e+012
-5.97356e+012
-6.39277e+012
-6.73091e+012
-6.97233e+012
-7.10516e+012
-7.12154e+012
-7.01569e+012
-6.78503e+012
-6.43158e+012
-5.96292e+012
-5.39287e+012
-4.74202e+012
-4.0374e+012
-3.31201e+012
-2.60526e+012
-1.96117e+012
-1.42515e+012
-1.03539e+012
-8.22768e+011
-8.05172e+011
-9.88268e+011
-1.35963e+012
-1.86921e+012
-2.42396e+012
-2.87978e+012
-3.05173e+012
-2.7235e+012
-2.58662e+012
-1.24662e+012
-5.76427e+011
-5.84513e+011
-5.85337e+011
-5.84688e+011
-5.81813e+011
-5.77916e+011
-5.73575e+011
-5.69312e+011
-5.65491e+011
-5.6233e+011
-5.60045e+011
-5.58678e+011
-5.58251e+011
-5.58751e+011
-5.60033e+011
-5.61985e+011
-5.64433e+011
-5.67199e+011
-5.70096e+011
-5.72941e+011
-5.75563e+011
-5.77809e+011
-5.79544e+011
-5.80651e+011
-5.81062e+011
-5.8074e+011
-5.79675e+011
-5.77886e+011
-5.75412e+011
-5.72324e+011
-5.68682e+011
-5.64588e+011
-5.60174e+011
-5.55521e+011
-5.50761e+011
-5.46008e+011
-5.41382e+011
-5.36994e+011
-5.32951e+011
-5.29344e+011
-5.2625e+011
-5.23739e+011
-5.21826e+011
-5.20564e+011
-5.20004e+011
-5.20135e+011
-5.20882e+011
-5.22165e+011
-5.23968e+011
-5.26209e+011
-5.28803e+011
-5.31639e+011
-5.34588e+011
-5.3753e+011
-5.4034e+011
-5.42917e+011
-5.45111e+011
-5.46852e+011
-5.48071e+011
-5.48638e+011
-5.48527e+011
-5.47713e+011
-5.46122e+011
-5.43654e+011
-5.40535e+011
-5.36955e+011
-5.32809e+011
-5.28205e+011
-5.23342e+011
-5.18372e+011
-5.13484e+011
-5.08874e+011
-5.04748e+011
-5.01295e+011
-4.9868e+011
-4.97092e+011
-4.96645e+011
-4.97414e+011
-4.99448e+011
-5.02748e+011
-5.07267e+011
-5.12925e+011
-5.19604e+011
-5.27154e+011
-5.35423e+011
-5.44259e+011
-5.5351e+011
-5.6303e+011
-5.7268e+011
-5.82344e+011
-5.91917e+011
-6.01354e+011
-6.106e+011
-6.1947e+011
-6.27845e+011
-6.35503e+011
-6.42111e+011
-6.47471e+011
-6.51304e+011
-6.53348e+011
-6.53358e+011
-6.51118e+011
-6.46462e+011
-6.39317e+011
-6.29755e+011
-6.17947e+011
-6.04179e+011
-5.8885e+011
-5.7249e+011
-5.55631e+011
-5.38788e+011
-5.22561e+011
-5.07451e+011
-4.93946e+011
-4.82317e+011
-4.72965e+011
-4.65395e+011
-4.5912e+011
-4.53844e+011
-4.48344e+011
-4.41698e+011
-4.32722e+011
-4.20191e+011
-4.0286e+011
-3.79504e+011
-3.48985e+011
-3.103e+011
-2.62592e+011
-2.05206e+011
-1.37763e+011
-6.00479e+010
2.80674e+010
1.26253e+011
2.33828e+011
3.49844e+011
4.73074e+011
6.02046e+011
7.35061e+011
8.70186e+011
1.00534e+012
1.1381e+012
1.26611e+012
1.38677e+012
1.49637e+012
1.59167e+012
1.67002e+012
1.728e+012
1.76381e+012
1.77599e+012
1.76198e+012
1.71908e+012
1.64484e+012
1.53796e+012
1.39606e+012
1.21681e+012
9.99298e+011
7.44171e+011
4.50142e+011
1.17468e+011
-2.52275e+011
-6.5724e+011
-1.09456e+012
-1.56045e+012
-2.05014e+012
-2.55778e+012
-3.07638e+012
-3.59787e+012
-4.11282e+012
-4.61091e+012
-5.0808e+012
-5.5104e+012
-5.88708e+012
-6.19789e+012
-6.43072e+012
-6.57273e+012
-6.61365e+012
-6.54751e+012
-6.37067e+012
-6.08278e+012
-5.68775e+012
-5.19455e+012
-4.61775e+012
-3.97795e+012
-3.30162e+012
-2.62093e+012
-1.97185e+012
-1.39256e+012
-9.23705e+011
-5.97662e+011
-4.49405e+011
-4.92449e+011
-7.31314e+011
-1.15086e+012
-1.69132e+012
-2.2598e+012
-2.71184e+012
-2.87804e+012
-2.5295e+012
-2.14773e+012
-1.15133e+012
-5.67346e+011
-5.74701e+011
-5.76295e+011
-5.76404e+011
-5.74196e+011
-5.70814e+011
-5.66817e+011
-5.62749e+011
-5.59018e+011
-5.55859e+011
-5.53574e+011
-5.52125e+011
-5.51575e+011
-5.51994e+011
-5.53174e+011
-5.55053e+011
-5.57454e+011
-5.60211e+011
-5.63144e+011
-5.66077e+011
-5.68844e+011
-5.71297e+011
-5.73305e+011
-5.74763e+011
-5.75603e+011
-5.75778e+011
-5.75272e+011
-5.74097e+011
-5.72274e+011
-5.69885e+011
-5.66935e+011
-5.63539e+011
-5.59855e+011
-5.55892e+011
-5.51799e+011
-5.4767e+011
-5.43617e+011
-5.39741e+011
-5.36141e+011
-5.32903e+011
-5.30101e+011
-5.27798e+011
-5.26027e+011
-5.24835e+011
-5.24222e+011
-5.2427e+011
-5.24848e+011
-5.25864e+011
-5.27364e+011
-5.2924e+011
-5.31419e+011
-5.33801e+011
-5.36276e+011
-5.38735e+011
-5.41059e+011
-5.43191e+011
-5.44921e+011
-5.4624e+011
-5.47145e+011
-5.4742e+011
-5.47096e+011
-5.46133e+011
-5.445e+011
-5.42179e+011
-5.39273e+011
-5.35902e+011
-5.3209e+011
-5.27937e+011
-5.236e+011
-5.19226e+011
-5.14988e+011
-5.11063e+011
-5.07642e+011
-5.04892e+011
-5.02914e+011
-5.01933e+011
-5.02035e+011
-5.0325e+011
-5.05621e+011
-5.09133e+011
-5.13719e+011
-5.19289e+011
-5.25722e+011
-5.32872e+011
-5.40588e+011
-5.48716e+011
-5.57108e+011
-5.65626e+011
-5.74145e+011
-5.82561e+011
-5.9079e+011
-5.9875e+011
-6.06421e+011
-6.13608e+011
-6.20207e+011
-6.26089e+011
-6.30905e+011
-6.34517e+011
-6.36645e+011
-6.37055e+011
-6.35517e+011
-6.31838e+011
-6.25881e+011
-6.17598e+011
-6.07055e+011
-5.94436e+011
-5.80044e+011
-5.64284e+011
-5.4769e+011
-5.30841e+011
-5.14326e+011
-4.98761e+011
-4.84678e+011
-4.72643e+011
-4.62705e+011
-4.55859e+011
-4.51075e+011
-4.47961e+011
-4.47144e+011
-4.46925e+011
-4.46769e+011
-4.4562e+011
-4.42414e+011
-4.36051e+011
-4.25437e+011
-4.09533e+011
-3.87402e+011
-3.5823e+011
-3.21368e+011
-2.76396e+011
-2.23067e+011
-1.61261e+011
-9.11968e+010
-1.33788e+010
7.14308e+010
1.62216e+011
2.5773e+011
3.56499e+011
4.56839e+011
5.56872e+011
6.54482e+011
7.47519e+011
8.33682e+011
9.10178e+011
9.74402e+011
1.02378e+012
1.05575e+012
1.06863e+012
1.06059e+012
1.02969e+012
9.73268e+011
8.8943e+011
7.7884e+011
6.38594e+011
4.65104e+011
2.58386e+011
2.234e+010
-2.46434e+011
-5.47895e+011
-8.79622e+011
-1.24002e+012
-1.62627e+012
-2.03478e+012
-2.46112e+012
-2.89983e+012
-3.34451e+012
-3.78783e+012
-4.22132e+012
-4.63581e+012
-5.02113e+012
-5.36657e+012
-5.66104e+012
-5.89337e+012
-6.05345e+012
-6.13048e+012
-6.11571e+012
-6.00461e+012
-5.79487e+012
-5.48737e+012
-5.08693e+012
-4.60287e+012
-4.04954e+012
-3.44652e+012
-2.81852e+012
-2.19504e+012
-1.60957e+012
-1.09637e+012
-6.92163e+011
-4.15919e+011
-3.09086e+011
-3.7858e+011
-6.31307e+011
-1.05225e+012
-1.5699e+012
-2.10425e+012
-2.5238e+012
-2.67423e+012
-2.36201e+012
-1.79576e+012
-1.12751e+012
-5.58468e+011
-5.64253e+011
-5.65817e+011
-5.66284e+011
-5.64815e+011
-5.62296e+011
-5.59175e+011
-5.55916e+011
-5.52894e+011
-5.50253e+011
-5.48429e+011
-5.47208e+011
-5.46795e+011
-5.47308e+011
-5.48368e+011
-5.5004e+011
-5.52148e+011
-5.54558e+011
-5.57115e+011
-5.5967e+011
-5.62083e+011
-5.64229e+011
-5.66004e+011
-5.67326e+011
-5.6814e+011
-5.68413e+011
-5.68131e+011
-5.67311e+011
-5.65961e+011
-5.64215e+011
-5.61961e+011
-5.59269e+011
-5.56455e+011
-5.53358e+011
-5.50173e+011
-5.46951e+011
-5.4378e+011
-5.40741e+011
-5.3791e+011
-5.35356e+011
-5.33136e+011
-5.313e+011
-5.29877e+011
-5.28898e+011
-5.2829e+011
-5.28404e+011
-5.28935e+011
-5.2959e+011
-5.30706e+011
-5.32109e+011
-5.33745e+011
-5.35533e+011
-5.37388e+011
-5.39228e+011
-5.4095e+011
-5.42606e+011
-5.43675e+011
-5.44525e+011
-5.45248e+011
-5.45329e+011
-5.44965e+011
-5.44096e+011
-5.42719e+011
-5.40836e+011
-5.38505e+011
-5.35808e+011
-5.32794e+011
-5.29545e+011
-5.26182e+011
-5.22825e+011
-5.19614e+011
-5.16685e+011
-5.142e+011
-5.12301e+011
-5.10905e+011
-5.1047e+011
-5.1095e+011
-5.12272e+011
-5.14502e+011
-5.17617e+011
-5.21543e+011
-5.26197e+011
-5.31465e+011
-5.37225e+011
-5.43348e+011
-5.49707e+011
-5.56188e+011
-5.62687e+011
-5.69122e+011
-5.7543e+011
-5.81574e+011
-5.8748e+011
-5.93273e+011
-5.98686e+011
-6.03469e+011
-6.0784e+011
-6.11334e+011
-6.13953e+011
-6.15373e+011
-6.15379e+011
-6.13743e+011
-6.10275e+011
-6.0484e+011
-5.97383e+011
-5.87955e+011
-5.76728e+011
-5.63993e+011
-5.50134e+011
-5.35679e+011
-5.2121e+011
-5.07314e+011
-4.94594e+011
-4.83558e+011
-4.74842e+011
-4.67773e+011
-4.64989e+011
-4.64434e+011
-4.65359e+011
-4.703e+011
-4.75746e+011
-4.82012e+011
-4.88136e+011
-4.93183e+011
-4.96162e+011
-4.9607e+011
-4.9194e+011
-4.82879e+011
-4.68101e+011
-4.46962e+011
-4.19011e+011
-3.83965e+011
-3.41699e+011
-2.92357e+011
-2.36334e+011
-1.74264e+011
-1.0702e+011
-3.56938e+010
3.84079e+010
1.13786e+011
1.88715e+011
2.61349e+011
3.29712e+011
3.91799e+011
4.4536e+011
4.88102e+011
5.17872e+011
5.32737e+011
5.30931e+011
5.1047e+011
4.70143e+011
4.05505e+011
3.14437e+011
2.04647e+011
7.19e+010
-9.12531e+010
-2.83331e+011
-4.9206e+011
-7.30773e+011
-9.99437e+011
-1.29246e+012
-1.60872e+012
-1.9454e+012
-2.29926e+012
-2.66633e+012
-3.0418e+012
-3.42008e+012
-3.7947e+012
-4.15828e+012
-4.50274e+012
-4.81923e+012
-5.09843e+012
-5.33076e+012
-5.50661e+012
-5.61737e+012
-5.65393e+012
-5.60899e+012
-5.47898e+012
-5.26234e+012
-4.96049e+012
-4.57834e+012
-4.12484e+012
-3.61337e+012
-3.06172e+012
-2.49248e+012
-1.93197e+012
-1.40973e+012
-9.55504e+011
-6.07037e+011
-3.64578e+011
-3.32712e+011
-3.83e+011
-5.62789e+011
-9.48084e+011
-1.4044e+012
-1.87966e+012
-2.26166e+012
-2.41205e+012
-2.20724e+012
-1.56816e+012
-1.17741e+012
-5.49777e+011
-5.53425e+011
-5.5441e+011
-5.5485e+011
-5.54039e+011
-5.52517e+011
-5.50573e+011
-5.48514e+011
-5.46628e+011
-5.44844e+011
-5.44351e+011
-5.43878e+011
-5.43127e+011
-5.43908e+011
-5.44837e+011
-5.4623e+011
-5.47898e+011
-5.49746e+011
-5.51656e+011
-5.53521e+011
-5.55241e+011
-5.56732e+011
-5.57926e+011
-5.58776e+011
-5.59253e+011
-5.59346e+011
-5.59056e+011
-5.58408e+011
-5.57388e+011
-5.56255e+011
-5.54288e+011
-5.52442e+011
-5.50845e+011
-5.48743e+011
-5.46635e+011
-5.44516e+011
-5.42442e+011
-5.40463e+011
-5.38627e+011
-5.36975e+011
-5.35543e+011
-5.3436e+011
-5.33442e+011
-5.32801e+011
-5.32397e+011
-5.32513e+011
-5.32873e+011
-5.33233e+011
-5.33947e+011
-5.34822e+011
-5.35838e+011
-5.3694e+011
-5.38076e+011
-5.39192e+011
-5.40206e+011
-5.41278e+011
-5.41595e+011
-5.42111e+011
-5.4282e+011
-5.42707e+011
-5.42401e+011
-5.41787e+011
-5.40865e+011
-5.39639e+011
-5.3814e+011
-5.36418e+011
-5.34512e+011
-5.32478e+011
-5.30393e+011
-5.28342e+011
-5.26417e+011
-5.24706e+011
-5.23363e+011
-5.22595e+011
-5.21937e+011
-5.2158e+011
-5.22313e+011
-5.23475e+011
-5.25221e+011
-5.27509e+011
-5.30265e+011
-5.33418e+011
-5.36878e+011
-5.40553e+011
-5.44354e+011
-5.48202e+011
-5.52032e+011
-5.55802e+011
-5.59489e+011
-5.63085e+011
-5.66616e+011
-5.6998e+011
-5.73574e+011
-5.76321e+011
-5.79857e+011
-5.83428e+011
-5.85908e+011
-5.88074e+011
-5.89498e+011
-5.89977e+011
-5.89277e+011
-5.87196e+011
-5.83581e+011
-5.78351e+011
-5.71525e+011
-5.63246e+011
-5.53775e+011
-5.43463e+011
-5.32818e+011
-5.22372e+011
-5.12681e+011
-5.0432e+011
-4.97766e+011
-4.93825e+011
-4.90439e+011
-4.98672e+011
-5.03216e+011
-5.02984e+011
-5.14807e+011
-5.26019e+011
-5.38575e+011
-5.51542e+011
-5.64047e+011
-5.7517e+011
-5.83971e+011
-5.8953e+011
-5.90985e+011
-5.87564e+011
-5.78621e+011
-5.63679e+011
-5.42425e+011
-5.14723e+011
-4.8067e+011
-4.40591e+011
-3.9504e+011
-3.44793e+011
-2.90841e+011
-2.34398e+011
-1.76823e+011
-1.19706e+011
-6.45509e+010
-1.33515e+010
3.21462e+010
7.00048e+010
9.83049e+010
1.15274e+011
1.19139e+011
1.08309e+011
8.07292e+010
3.65927e+010
-3.23331e+010
-1.16493e+011
-2.08726e+011
-3.19013e+011
-4.72554e+011
-6.63808e+011
-8.56793e+011
-1.0626e+012
-1.29877e+012
-1.55288e+012
-1.82554e+012
-2.11407e+012
-2.41563e+012
-2.72683e+012
-3.04359e+012
-3.36114e+012
-3.67401e+012
-3.97596e+012
-4.26007e+012
-4.51884e+012
-4.74428e+012
-4.92818e+012
-5.06234e+012
-5.13925e+012
-5.15137e+012
-5.09274e+012
-4.9603e+012
-4.75286e+012
-4.47186e+012
-4.12184e+012
-3.71081e+012
-3.25058e+012
-2.75699e+012
-2.24974e+012
-1.75177e+012
-1.28881e+012
-8.87396e+011
-5.87144e+011
-3.41138e+011
-2.66395e+011
-3.15966e+011
-4.86141e+011
-7.98482e+011
-1.15485e+012
-1.55348e+012
-1.89757e+012
-2.0672e+012
-2.00592e+012
-1.39187e+012
-1.22621e+012
-5.4125e+011
-5.42311e+011
-5.42551e+011
-5.4268e+011
-5.42407e+011
-5.41908e+011
-5.4129e+011
-5.40679e+011
-5.40249e+011
-5.39837e+011
-5.39943e+011
-5.39992e+011
-5.40203e+011
-5.41344e+011
-5.42066e+011
-5.43106e+011
-5.44244e+011
-5.45404e+011
-5.46512e+011
-5.47507e+011
-5.48338e+011
-5.48968e+011
-5.49375e+011
-5.49553e+011
-5.49506e+011
-5.49248e+011
-5.48796e+011
-5.48172e+011
-5.47309e+011
-5.46742e+011
-5.45762e+011
-5.44643e+011
-5.43748e+011
-5.42824e+011
-5.41916e+011
-5.41024e+011
-5.40177e+011
-5.39394e+011
-5.38688e+011
-5.38071e+011
-5.37551e+011
-5.37136e+011
-5.3683e+011
-5.36636e+011
-5.36562e+011
-5.36565e+011
-5.36658e+011
-5.36857e+011
-5.37124e+011
-5.3744e+011
-5.37791e+011
-5.38158e+011
-5.38523e+011
-5.38871e+011
-5.39178e+011
-5.39449e+011
-5.3953e+011
-5.39661e+011
-5.39806e+011
-5.39689e+011
-5.39559e+011
-5.39314e+011
-5.38971e+011
-5.38536e+011
-5.38023e+011
-5.37448e+011
-5.36829e+011
-5.36189e+011
-5.35562e+011
-5.34984e+011
-5.34502e+011
-5.34167e+011
-5.34137e+011
-5.34003e+011
-5.33835e+011
-5.34301e+011
-5.35297e+011
-5.36004e+011
-5.37019e+011
-5.38199e+011
-5.39471e+011
-5.40769e+011
-5.42032e+011
-5.43203e+011
-5.44244e+011
-5.45133e+011
-5.45869e+011
-5.46479e+011
-5.47008e+011
-5.47516e+011
-5.48066e+011
-5.4848e+011
-5.50127e+011
-5.51476e+011
-5.52776e+011
-5.54626e+011
-5.56728e+011
-5.58895e+011
-5.60806e+011
-5.62306e+011
-5.63167e+011
-5.63173e+011
-5.62144e+011
-5.59969e+011
-5.56627e+011
-5.52212e+011
-5.46928e+011
-5.41164e+011
-5.35316e+011
-5.29873e+011
-5.25389e+011
-5.22464e+011
-5.21703e+011
-5.24559e+011
-5.26605e+011
-5.34081e+011
-5.44269e+011
-5.56313e+011
-5.73764e+011
-5.89894e+011
-6.08307e+011
-6.27744e+011
-6.47205e+011
-6.65758e+011
-6.82483e+011
-6.9648e+011
-7.06899e+011
-7.12972e+011
-7.14042e+011
-7.09601e+011
-6.99311e+011
-6.83024e+011
-6.60805e+011
-6.32938e+011
-5.99923e+011
-5.62475e+011
-5.21521e+011
-4.78183e+011
-4.33509e+011
-3.89147e+011
-3.47114e+011
-3.08356e+011
-2.74616e+011
-2.47682e+011
-2.29138e+011
-2.20497e+011
-2.23134e+011
-2.38015e+011
-2.66149e+011
-3.02013e+011
-3.62483e+011
-4.56395e+011
-5.55716e+011
-6.48336e+011
-7.96294e+011
-9.58957e+011
-1.10366e+012
-1.28312e+012
-1.49732e+012
-1.71674e+012
-1.9483e+012
-2.19077e+012
-2.44226e+012
-2.70022e+012
-2.96144e+012
-3.2221e+012
-3.47775e+012
-3.72328e+012
-3.95301e+012
-4.16071e+012
-4.33967e+012
-4.48297e+012
-4.58362e+012
-4.63504e+012
-4.63111e+012
-4.56708e+012
-4.44014e+012
-4.24921e+012
-3.99548e+012
-3.68274e+012
-3.31772e+012
-2.91027e+012
-2.47372e+012
-2.02426e+012
-1.58058e+012
-1.16297e+012
-7.9195e+011
-4.76414e+011
-2.94088e+011
-1.77827e+011
-1.79433e+011
-3.0214e+011
-5.02672e+011
-7.86232e+011
-1.10125e+012
-1.40574e+012
-1.60061e+012
-1.67091e+012
-1.18458e+012
-1.20309e+012
-5.32779e+011
-5.31098e+011
-5.30585e+011
-5.30283e+011
-5.3048e+011
-5.30982e+011
-5.31697e+011
-5.32542e+011
-5.33411e+011
-5.34476e+011
-5.35273e+011
-5.36425e+011
-5.37682e+011
-5.38223e+011
-5.39301e+011
-5.40098e+011
-5.40737e+011
-5.41196e+011
-5.41464e+011
-5.41536e+011
-5.41415e+011
-5.41117e+011
-5.40672e+011
-5.40113e+011
-5.39483e+011
-5.38829e+011
-5.38199e+011
-5.37637e+011
-5.37272e+011
-5.36613e+011
-5.36455e+011
-5.36555e+011
-5.36534e+011
-5.36653e+011
-5.36858e+011
-5.37191e+011
-5.37597e+011
-5.38047e+011
-5.38515e+011
-5.38976e+011
-5.3941e+011
-5.39801e+011
-5.40137e+011
-5.4041e+011
-5.4067e+011
-5.40603e+011
-5.40459e+011
-5.40478e+011
-5.40287e+011
-5.4003e+011
-5.39701e+011
-5.39318e+011
-5.38898e+011
-5.38465e+011
-5.38062e+011
-5.37518e+011
-5.37475e+011
-5.37123e+011
-5.36601e+011
-5.36665e+011
-5.36661e+011
-5.368e+011
-5.37067e+011
-5.37461e+011
-5.37977e+011
-5.38601e+011
-5.39322e+011
-5.40126e+011
-5.40999e+011
-5.41919e+011
-5.42864e+011
-5.43806e+011
-5.446e+011
-5.45607e+011
-5.46893e+011
-5.47707e+011
-5.48031e+011
-5.4871e+011
-5.49027e+011
-5.49048e+011
-5.48746e+011
-5.48074e+011
-5.47005e+011
-5.45526e+011
-5.43652e+011
-5.41425e+011
-5.38918e+011
-5.36238e+011
-5.33518e+011
-5.30924e+011
-5.28629e+011
-5.27063e+011
-5.25078e+011
-5.24227e+011
-5.24491e+011
-5.25351e+011
-5.26731e+011
-5.28708e+011
-5.3115e+011
-5.33795e+011
-5.36389e+011