/*--------------------------------*- C++ -*----------------------------------*\
| =========                 |                                                 |
| \\      /  F ield         | OpenFOAM: The Open Source CFD Toolbox           |
|  \\    /   O peration     | Version:  5.x                                   |
|   \\  /    A nd           | Web:      www.OpenFOAM.org                      |
|    \\/     M anipulation  |                                                 |
\*---------------------------------------------------------------------------*/
/*   Windows 32 and 64 bit porting by blueCAPE: http://www.bluecape.com.pt   *\
|  Based on Windows porting (2.0.x v4) by Symscape: http://www.symscape.com   |
\*---------------------------------------------------------------------------*/
FoamFile
{
    version     2.0;
    format      ascii;
    class       volVectorField;
    location    "3000";
    object      U;
}
// * * * * * * * * * * * * * * * * * * * * * * * * * * * * * * * * * * * * * //

dimensions      [0 1 -1 0 0 0 0];

internalField   nonuniform List<vector> 
4000
(
(5899.44 -7933.19 -9.35459e-015)
(18385.5 -9897.38 0)
(26737.5 -5450.46 0)
(28897.6 45.0655 0)
(25792.9 4125.75 0)
(18887.3 6512.24 0)
(9223.31 8091.64 2.14122e-015)
(-2536.48 9499.19 0)
(-15976.1 10713 0)
(-30722 11839.8 1.83293e-015)
(-46319.2 12431.9 0)
(-62203.9 12402.5 0)
(-77848.1 12038.9 1.58317e-015)
(-92881.4 11393.8 0)
(-106943 10496.9 1.45021e-015)
(-119725 9388.26 1.39072e-015)
(-130974 8111.63 1.33508e-015)
(-140491 6709.26 1.28288e-015)
(-148134 5227.91 1.23381e-015)
(-153828 3715.04 1.18768e-015)
(-157553 2183.3 1.14443e-015)
(-159303 549.908 1.10422e-015)
(-159110 -1084.1 0)
(-157115 -2414.33 1.03082e-015)
(-153601 -3479.91 9.98118e-016)
(-148787 -4383.26 9.68398e-016)
(-142881 -5109.94 9.4166e-016)
(-136132 -5646.82 9.17859e-016)
(-128786 -5993.33 8.9696e-016)
(-121088 -6152.83 8.78886e-016)
(-113272 -6136.04 0)
(-105559 -5957.82 8.50726e-016)
(-98142.6 -5637.07 8.40307e-016)
(-91192.3 -5196.57 8.32047e-016)
(-84845.8 -4661.36 8.25702e-016)
(-79207.9 -4057.88 8.2101e-016)
(-74349.3 -3413.45 8.17702e-016)
(-70307.7 -2760.05 8.15521e-016)
(-67074.7 -2163.29 8.14266e-016)
(-64603.7 -1619.58 0)
(-62849.9 -1077.42 8.13493e-016)
(-61744.2 -577.116 8.1353e-016)
(-61207.6 -149.157 8.1376e-016)
(-61126 165.579 8.14018e-016)
(-61341.6 350.859 8.14202e-016)
(-61734.2 417.715 8.14546e-016)
(-62103 380.685 8.14975e-016)
(-62430.7 307.327 0)
(-62620.7 157.526 8.16256e-016)
(-62576.6 -140.621 8.17339e-016)
(-62157 -548.772 8.18877e-016)
(-61278.7 -912.234 8.20972e-016)
(-59948 -1265.38 8.23815e-016)
(-58187.9 -1604.19 8.27555e-016)
(-56023.3 -1906.52 8.3233e-016)
(-53513.5 -2147.88 8.38242e-016)
(-50745.3 -2311.64 0)
(-47819.5 -2420.86 8.53803e-016)
(-44849 -2440.22 8.63525e-016)
(-41977.4 -2292.49 8.74387e-016)
(-39410.3 -1969.17 8.8627e-016)
(-37331.4 -1492.3 8.99019e-016)
(-35835.4 -959.558 9.12466e-016)
(-35084.1 -254.995 9.26278e-016)
(-35268.3 575.966 0)
(-36500.3 1522.02 9.52596e-016)
(-38901.5 2553.76 9.64644e-016)
(-42547.8 3483.27 9.75612e-016)
(-47400.3 4350.31 9.85065e-016)
(-53432.2 5292.24 9.92461e-016)
(-60620.9 6208.6 9.97553e-016)
(-68853.2 7006.05 1.00023e-015)
(-77950.4 7637.48 1.00041e-015)
(-87684.2 8061.65 9.98093e-016)
(-97776.6 8243.25 9.93377e-016)
(-107913 8154.93 9.8645e-016)
(-117740 7773.32 9.77583e-016)
(-126883 7085.28 9.67124e-016)
(-134953 6087.7 9.5549e-016)
(-141558 4790.62 9.43152e-016)
(-146332 3175.69 9.30734e-016)
(-148865 1057.5 0)
(-148703 -1513.96 9.08487e-016)
(-145590 -4053.16 8.98962e-016)
(-139440 -6533.23 8.92221e-016)
(-130157 -9106.34 8.89402e-016)
(-117676 -11715.5 8.916e-016)
(-102029 -14299.9 9.00032e-016)
(-83340.8 -16762.9 9.15986e-016)
(-61846.7 -18655.3 9.40413e-016)
(-38210.2 -19584.4 0)
(-13129.1 -20346.4 1.0191e-015)
(13339.4 -21291.5 1.05051e-015)
(40676.8 -21752.2 1.06307e-015)
(68308.1 -22684.7 1.0836e-015)
(96260.6 -22898.1 1.11074e-015)
(123135 -21631.4 1.14329e-015)
(148148 -19794.9 1.18224e-015)
(170579 -17489.7 1.22719e-015)
(189769 -14722.5 1.2774e-015)
(205016 -11522.2 1.33231e-015)
(215817 -7861.65 1.39122e-015)
(221552 -3457.04 1.45328e-015)
(221192 2091.33 1.51429e-015)
(214393 7681.59 1.5754e-015)
(200895 13175.5 1.63869e-015)
(180541 19017.8 1.70308e-015)
(152933 25165.8 1.76874e-015)
(118449 30345.9 1.83697e-015)
(77695.4 34298.7 1.90739e-015)
(30946.5 38195.2 1.97862e-015)
(-21077.5 42468.4 1.9583e-015)
(-78883.7 47317.6 1.84179e-015)
(-142402 52499.9 1.72108e-015)
(-210088 55820.8 1.6076e-015)
(-280607 57111.2 1.50156e-015)
(-352483 57516.5 1.4011e-015)
(-424685 57098.7 1.3044e-015)
(-496042 55872.4 1.20947e-015)
(-565627 53960.4 1.11419e-015)
(-632440 51368.3 1.01672e-015)
(-695552 48136.2 9.1533e-016)
(-754096 44311.8 8.08436e-016)
(-807279 39948.4 6.94651e-016)
(-854382 35102.7 5.72775e-016)
(-894774 29833.2 4.41818e-016)
(-927897 24184.6 3.00977e-016)
(-953252 18174.7 1.49642e-016)
(-970470 11831.2 -1.23713e-017)
(-978949 4313.78 -1.84853e-016)
(-978041 -3752.83 -3.67845e-016)
(-967906 -11132 -5.61583e-016)
(-948740 -18089.3 -7.65579e-016)
(-920527 -25180.4 -9.78829e-016)
(-883221 -32347.6 -1.20076e-015)
(-836861 -39547.9 -1.43068e-015)
(-781535 -46756.7 -1.66771e-015)
(-717384 -53964.8 -1.91082e-015)
(-644587 -61188.7 -2.15877e-015)
(-563302 -68441.5 -2.41029e-015)
(-473889 -75651.8 -2.66374e-015)
(-376780 -81826.8 -2.9204e-015)
(-273180 -83923.9 -3.18176e-015)
(-165634 -85514.6 -3.43858e-015)
(-51919 -90334.2 -3.67543e-015)
(67547 -94148.4 -3.78775e-015)
(192316 -102070 -3.76995e-015)
(324920 -109155 -3.73142e-015)
(462002 -111538 -3.68009e-015)
(602376 -113181 -3.61069e-015)
(745674 -114606 -3.52302e-015)
(891471 -115808 -3.41789e-015)
(1.03935e+006 -116765 -3.29609e-015)
(1.18888e+006 -117455 -3.15837e-015)
(1.33962e+006 -117855 -3.00543e-015)
(1.49114e+006 -117963 -2.83793e-015)
(1.643e+006 -117773 -2.65645e-015)
(1.79475e+006 -117270 -2.46159e-015)
(1.9459e+006 -116433 -2.2539e-015)
(2.09594e+006 -115234 -2.03398e-015)
(2.24431e+006 -113636 -1.80241e-015)
(2.39039e+006 -111594 -1.55984e-015)
(2.53349e+006 -109051 -1.30696e-015)
(2.67282e+006 -105939 -1.04455e-015)
(2.80752e+006 -102180 -7.73486e-016)
(2.93658e+006 -97684.5 -4.94737e-016)
(3.05888e+006 -92352.5 -2.0942e-016)
(3.17315e+006 -86073.1 8.12093e-017)
(3.27798e+006 -78732.8 3.75746e-016)
(3.37178e+006 -70218.5 6.72632e-016)
(3.45285e+006 -60408.4 9.70119e-016)
(3.51925e+006 -49204.2 1.2664e-015)
(3.56902e+006 -36493.6 1.55951e-015)
(3.59999e+006 -21483.9 1.84665e-015)
(3.609e+006 -2433.07 2.12355e-015)
(3.59255e+006 19323.6 2.38275e-015)
(3.54827e+006 41944.4 2.62681e-015)
(3.47409e+006 65604.2 2.85244e-015)
(3.36786e+006 91025.6 3.05635e-015)
(3.22725e+006 118446 3.23599e-015)
(3.0501e+006 147824 3.38973e-015)
(2.8346e+006 179028 3.5171e-015)
(2.57932e+006 211911 3.61941e-015)
(2.28362e+006 246629 3.70028e-015)
(1.9466e+006 282222 3.76906e-015)
(1.56991e+006 317941 3.84198e-015)
(1.15533e+006 349530 3.95175e-015)
(714889 360657 4.15407e-015)
(256842 350155 4.54011e-015)
(-184067 351397 4.43326e-015)
(-635772 358355 3.7264e-015)
(-1.08568e+006 341177 3.22306e-015)
(-1.48565e+006 292852 2.92198e-015)
(-1.82735e+006 211745 2.72835e-015)
(-2.0756e+006 110610 2.59256e-015)
(-2.20937e+006 -7084.84 2.48699e-015)
(-2.19621e+006 -113569 2.3289e-015)
(-2.0501e+006 -165669 2.23007e-015)
(-2.0737e+006 -180168 3.10211e-015)
(-1.49961e+006 -88671 2.03241e-015)
(8473.89 -17964.9 -2.69893e-015)
(11447.6 -12903.6 0)
(12036 -5589.93 0)
(10135.8 1593.81 0)
(6134.8 7528.26 0)
(10.2248 12136 0)
(-8103.22 15730.2 4.13735e-016)
(-17846.9 18511.5 0)
(-28796.6 20574.6 0)
(-40542.2 21986.5 3.4861e-016)
(-52737.9 22726.9 0)
(-65125.4 22781.6 0)
(-77405.5 22217.1 3.08048e-016)
(-89259.2 21101 0)
(-100400 19498.3 2.88086e-016)
(-110580 17481.4 2.79469e-016)
(-119587 15127.5 2.71553e-016)
(-127254 12519.7 2.64215e-016)
(-133460 9744.22 2.5736e-016)
(-138128 6886.28 2.50914e-016)
(-141225 4022.08 2.44845e-016)
(-142789 1220.85 2.3921e-016)
(-142923 -1431.22 0)
(-141714 -3832.96 2.28575e-016)
(-139250 -5934.74 2.23404e-016)
(-135689 -7720.14 2.18406e-016)
(-131218 -9165.41 2.13577e-016)
(-126031 -10253.8 2.08921e-016)
(-120321 -10982.4 2.04449e-016)
(-114282 -11359.3 2.00172e-016)
(-108100 -11403.6 0)
(-101946 -11143.1 1.92247e-016)
(-95978.4 -10613.4 1.88623e-016)
(-90331.1 -9856.45 1.8524e-016)
(-85115.6 -8918.39 1.82106e-016)
(-80417.8 -7848.25 1.79231e-016)
(-76295.7 -6696.43 1.76622e-016)
(-72780 -5514.37 1.7429e-016)
(-69883.3 -4352.87 1.72261e-016)
(-67598.6 -3251.66 0)
(-65882.5 -2243.05 1.69006e-016)
(-64658.6 -1359.55 1.67748e-016)
(-63856.2 -611.086 1.66743e-016)
(-63406.4 -61.87 1.66034e-016)
(-63206.4 286.919 1.65611e-016)
(-63155.5 414.928 1.65488e-016)
(-63168.5 381.468 1.6556e-016)
(-63159.5 251.667 0)
(-63011.2 -14.0032 1.66079e-016)
(-62669.2 -434.307 1.66707e-016)
(-62104 -1014.04 1.67621e-016)
(-61270.1 -1669.22 1.68695e-016)
(-60125.5 -2309.51 1.69847e-016)
(-58673.1 -2919.71 1.71087e-016)
(-56937.2 -3464.33 1.72407e-016)
(-54962.6 -3904.68 1.73786e-016)
(-52812 -4205.06 0)
(-50571.2 -4335.28 1.76661e-016)
(-48350.1 -4261.75 1.78117e-016)
(-46260.7 -3947.57 1.79493e-016)
(-44416.5 -3348.67 1.80738e-016)
(-42918.3 -2567.48 1.8195e-016)
(-41899.6 -1597.08 1.83186e-016)
(-41512 -328.185 1.84284e-016)
(-41856.6 1143.46 0)
(-43015.8 2770.16 1.85958e-016)
(-45035.8 4547.04 1.86538e-016)
(-47970.9 6384.66 1.87064e-016)
(-51875 8200.43 1.87547e-016)
(-56722.1 9952.99 1.87858e-016)
(-62429.8 11570.3 1.88044e-016)
(-68895.7 12968.1 1.88173e-016)
(-75987.1 14065.4 1.88291e-016)
(-83528.5 14787.2 1.88447e-016)
(-91307.5 15066.6 1.88693e-016)
(-99076 14846.2 1.8908e-016)
(-106559 14080.8 1.89658e-016)
(-113462 12740 1.90479e-016)
(-119477 10810.4 1.91594e-016)
(-124285 8295.83 1.93054e-016)
(-127571 5207.61 1.94939e-016)
(-129071 1565.72 0)
(-128605 -2542.11 2.00534e-016)
(-125968 -6978.78 2.03957e-016)
(-120932 -11635.8 2.07802e-016)
(-113387 -16419.3 2.12199e-016)
(-103328 -21206.7 2.17178e-016)
(-90816.7 -25853.3 2.22763e-016)
(-76006 -30186.9 2.28936e-016)
(-59109.9 -33981.2 2.35561e-016)
(-40265 -37082.9 0)
(-19682.4 -39552.1 2.50327e-016)
(2100.59 -41294.7 2.58971e-016)
(24536.5 -42167.8 2.67343e-016)
(47014.8 -42192.4 2.76429e-016)
(68855.5 -41216.6 2.8589e-016)
(89594 -38991.6 2.94857e-016)
(108773 -35599.6 3.03621e-016)
(125713 -31101.1 3.1204e-016)
(139761 -25545.6 3.1983e-016)
(150287 -18994.3 3.26706e-016)
(156706 -11490.7 3.32345e-016)
(158518 -3002.69 3.36348e-016)
(155458 6360.06 3.37743e-016)
(147231 16318 3.37562e-016)
(133449 26697 3.35859e-016)
(113990 37367.3 3.32197e-016)
(88986.1 48066.6 3.26638e-016)
(58480.2 58433.9 3.20214e-016)
(22384 68314.8 3.12909e-016)
(-19060.8 77742.4 3.01571e-016)
(-65333.4 86439.6 2.86739e-016)
(-115306 94151 2.70747e-016)
(-167980 100654 2.54121e-016)
(-222750 105523 2.38348e-016)
(-279141 108541 2.23727e-016)
(-336352 109790 2.09669e-016)
(-393466 109348 1.95891e-016)
(-449630 107310 1.82118e-016)
(-503955 103741 1.68047e-016)
(-555629 98701.9 1.53401e-016)
(-603890 92278.6 1.37906e-016)
(-648032 84572.1 1.21322e-016)
(-687406 75691.6 1.03455e-016)
(-721414 65751.1 8.41543e-017)
(-749516 54864.4 6.33311e-017)
(-771224 43139.3 4.09575e-017)
(-786086 30671 1.7079e-017)
(-793760 17535 -8.08261e-018)
(-794061 3825.97 -3.41946e-017)
(-786988 -10231.6 -6.13577e-017)
(-772260 -24411.8 -9.01013e-017)
(-749580 -38652.4 -1.20125e-016)
(-718895 -52948 -1.50844e-016)
(-680261 -67229.4 -1.81955e-016)
(-633759 -81409.4 -2.13153e-016)
(-579515 -95402.3 -2.4413e-016)
(-517714 -109125 -2.74576e-016)
(-448616 -122493 -3.04188e-016)
(-372554 -135395 -3.3276e-016)
(-290070 -147650 -3.60047e-016)
(-201456 -158953 -3.86847e-016)
(-106315 -169031 -4.13893e-016)
(-4816.54 -178723 -4.36767e-016)
(102346 -188223 -4.52331e-016)
(214592 -197087 -4.62563e-016)
(330690 -205704 -4.65964e-016)
(449781 -213723 -4.65932e-016)
(572163 -220173 -4.65221e-016)
(697915 -225492 -4.6144e-016)
(826329 -229947 -4.54121e-016)
(956822 -233631 -4.43092e-016)
(1.0889e+006 -236575 -4.2823e-016)
(1.22211e+006 -238795 -4.09471e-016)
(1.35601e+006 -240304 -3.86791e-016)
(1.49015e+006 -241098 -3.60202e-016)
(1.62411e+006 -241162 -3.2973e-016)
(1.75742e+006 -240465 -2.95417e-016)
(1.88963e+006 -238958 -2.57338e-016)
(2.02022e+006 -236575 -2.156e-016)
(2.14866e+006 -233234 -1.7034e-016)
(2.27436e+006 -228829 -1.21734e-016)
(2.39667e+006 -223236 -7.00039e-017)
(2.51488e+006 -216306 -1.54242e-017)
(2.6282e+006 -207868 4.16727e-017)
(2.73574e+006 -197729 1.00889e-016)
(2.83651e+006 -185676 1.61753e-016)
(2.92942e+006 -171477 2.2372e-016)
(3.01326e+006 -154888 2.86155e-016)
(3.08671e+006 -135661 3.48345e-016)
(3.14832e+006 -113540 4.09489e-016)
(3.19651e+006 -88289.6 4.68713e-016)
(3.22952e+006 -59686.1 5.25048e-016)
(3.24555e+006 -27341.5 5.77039e-016)
(3.24315e+006 9485.49 6.21995e-016)
(3.2209e+006 50444.9 6.59597e-016)
(3.17685e+006 95241.4 6.90854e-016)
(3.1089e+006 143719 7.14316e-016)
(3.0153e+006 195743 7.28261e-016)
(2.8946e+006 251060 7.31381e-016)
(2.74564e+006 309226 7.22728e-016)
(2.56762e+006 369582 7.01731e-016)
(2.36019e+006 431245 6.68355e-016)
(2.12375e+006 493173 6.23262e-016)
(1.85986e+006 553929 5.68032e-016)
(1.57084e+006 610900 5.05589e-016)
(1.26024e+006 660007 4.4208e-016)
(930949 696218 3.90015e-016)
(579896 716567 3.5255e-016)
(213222 719203 3.25939e-016)
(-146652 701048 3.13648e-016)
(-490269 659102 3.23328e-016)
(-812302 585504 3.69825e-016)
(-1.10832e+006 478041 4.54733e-016)
(-1.368e+006 335338 5.62408e-016)
(-1.58261e+006 160657 6.88782e-016)
(-1.73237e+006 -31024.9 8.04628e-016)
(-1.79552e+006 -204611 8.74586e-016)
(-1.88648e+006 -299344 1.31358e-015)
(-1.62656e+006 -203799 9.52955e-016)
(4276.29 -24608.6 3.51186e-015)
(4296.32 -13073.9 0)
(2357.72 -3407.98 0)
(-837.628 5271.49 0)
(-5192.82 12670.4 0)
(-10804.9 18759 0)
(-17700.2 23686.4 -4.08215e-016)
(-25721.8 27588.9 0)
(-34644.5 30529.6 0)
(-44204 32536.4 -3.46717e-016)
(-54139.3 33587.6 0)
(-64228.4 33689.5 0)
(-74238.9 32904.5 -3.08788e-016)
(-83926.9 31309.5 0)
(-93064.2 28992.3 -2.88731e-016)
(-101447 26054.4 -2.79554e-016)
(-108899 22609.2 -2.70788e-016)
(-115282 18778.8 -2.62363e-016)
(-120491 14689.8 -2.54237e-016)
(-124460 10468.1 -2.46392e-016)
(-127164 6233.31 -2.38844e-016)
(-128623 2097.71 -2.31668e-016)
(-128901 -1817.17 0)
(-128068 -5389.29 -2.18144e-016)
(-126202 -8539.91 -2.11754e-016)
(-123425 -11222.5 -2.05709e-016)
(-119881 -13400.8 -2.00025e-016)
(-115722 -15052.8 -1.94715e-016)
(-111105 -16174.4 -5.80019e-016)
(-106188 -16777.3 -1.85275e-016)
(-101121 -16889 0)
(-96045.5 -16550.2 -1.77435e-016)
(-91090.6 -15812.6 -1.74106e-016)
(-86368.4 -14737.7 -1.71157e-016)
(-81971.8 -13393.5 -5.15903e-016)
(-77973.5 -11852.2 -1.66322e-016)
(-74424.5 -10187.8 -1.64394e-016)
(-71354.4 -8474.18 -1.62763e-016)
(-68775.4 -6782.75 -1.61421e-016)
(-66681.2 -5174.31 0)
(-65041.1 -3701.97 -4.82505e-016)
(-63808.5 -2426.03 -1.58722e-016)
(-62915.1 -1327.65 -1.58185e-016)
(-62299.3 -484.711 -1.57827e-016)
(-61900.3 38.7552 -1.57629e-016)
(-61645.6 297.582 -1.57597e-016)
(-61469.8 307.031 -4.74302e-016)
(-61278.4 86.7444 0)
(-60990.7 -350.171 -1.58019e-016)
(-60552.1 -977.738 -1.58405e-016)
(-59941.1 -1756.53 -1.58963e-016)
(-59139.8 -2628.9 -1.59628e-016)
(-58124.1 -3523.73 -1.60378e-016)
(-56885.1 -4381.44 -1.61233e-016)
(-55439.9 -5143.6 -1.62202e-016)
(-53824.8 -5753.24 -1.63288e-016)
(-52091.3 -6157.52 0)
(-50308 -6309.32 -1.65818e-016)
(-48559.1 -6164.23 -1.6726e-016)
(-46932.4 -5683.56 -1.68769e-016)
(-45508.8 -4847.83 -1.70319e-016)
(-44375.9 -3674.72 -1.71955e-016)
(-43650 -2151.02 -1.73699e-016)
(-43444.4 -280.998 -1.75451e-016)
(-43837.8 1887.36 0)
(-44890.1 4281.51 -1.78823e-016)
(-46640 6848.58 -1.8041e-016)
(-49118.2 9501.96 -1.81963e-016)
(-52353.6 12148.1 -1.83449e-016)
(-56331.1 14697.6 -1.84755e-016)
(-60989.3 17042.1 -1.85876e-016)
(-66243.3 19062.7 -1.86828e-016)
(-71980.4 20643.7 -1.87609e-016)
(-78056.5 21674.9 -1.8822e-016)
(-84298.3 22056.2 -1.88673e-016)
(-90505.8 21702.2 -1.8898e-016)
(-96457.5 20545 -1.89162e-016)
(-101915 18538.3 -1.89246e-016)
(-106630 15659.8 -1.89267e-016)
(-110352 11912.8 -1.89271e-016)
(-112836 7325.4 -1.89336e-016)
(-113870 1951.17 0)
(-113285 -4097.99 -1.90151e-016)
(-110911 -10651.7 2.0033e-016)
(-106591 -17547.3 2.05846e-016)
(-100238 -24622.2 -1.93131e-016)
(-91835 -31684.6 -1.95051e-016)
(-81425.8 -38519.5 -1.97618e-016)
(-69114.7 -44890.4 -2.00916e-016)
(-55049.6 -50541.9 -2.04927e-016)
(-39376.4 -55252.1 4.58036e-016)
(-22339.3 -58932.1 -2.15428e-016)
(-4361.54 -61484.1 -2.22749e-016)
(14119.1 -62734.7 -2.3094e-016)
(32601.5 -62596.6 -2.4042e-016)
(50513.8 -60864.6 -2.50894e-016)
(67400.2 -57360.9 2.9692e-016)
(82802.3 -52096.2 -2.73059e-016)
(96163 -45107.1 -2.84705e-016)
(106930 -36451.1 -2.96314e-016)
(114570 -26211.2 -3.07541e-016)
(118590 -14480.4 -3.17994e-016)
(118589 -1365.97 3.17267e-016)
(114306 12942.6 -3.34082e-016)
(105509 28123.4 -3.39492e-016)
(91986.5 43876.5 -3.4318e-016)
(73684 59911.1 -3.4476e-016)
(50699.9 75863.1 -3.44244e-016)
(23141.5 91298.2 -3.42307e-016)
(-8858.28 105925 2.54994e-016)
(-44912.3 119564 -3.31344e-016)
(-84469.9 131953 -3.22615e-016)
(-126844 142799 -3.12196e-016)
(-171277 151714 -3.00582e-016)
(-217138 158263 -2.88765e-016)
(-263913 162247 1.70685e-016)
(-310989 163670 -2.64371e-016)
(-357673 162578 -2.51094e-016)
(-403268 159045 -2.36761e-016)
(-447084 153168 -2.21105e-016)
(-488456 145068 -2.03894e-016)
(-526758 134882 1.05447e-016)
(-561403 122761 -1.63994e-016)
(-591841 108866 -1.40999e-016)
(-617567 93363.6 -1.15854e-016)
(-638122 76421.6 -8.85433e-017)
(-653092 58202.6 -5.91084e-017)
(-662114 38862.4 2.15647e-017)
(-664901 18559.7 5.56765e-018)
(-661257 -2536.71 4.02031e-017)
(-651042 -24181.6 7.61701e-017)
(-634053 -46116.1 1.13665e-016)
(-610113 -68199.2 1.52292e-016)
(-579159 -90333.7 -9.6637e-017)
(-541217 -112392 2.30906e-016)
(-496358 -134236 2.70165e-016)
(-444702 -155725 3.08898e-016)
(-386424 -176714 3.46728e-016)
(-321754 -197055 3.83285e-016)
(-250958 -216580 -2.19934e-016)
(-174363 -235105 4.51317e-016)
(-92204.7 -252387 4.82936e-016)
(-4440.82 -268333 5.13067e-016)
(88704.7 -283353 5.38653e-016)
(186591 -297668 5.58923e-016)
(288700 -311125 5.75187e-016)
(394302 -323820 -2.98047e-016)
(502649 -335219 5.91916e-016)
(613643 -344868 5.96444e-016)
(727182 -352996 5.97201e-016)
(842812 -359760 5.93806e-016)
(960068 -365258 5.8613e-016)
(1.07851e+006 -369550 -2.6125e-016)
(1.1977e+006 -372662 5.57569e-016)
(1.31723e+006 -374601 5.36586e-016)
(1.43666e+006 -375367 5.11106e-016)
(1.5556e+006 -374938 4.81123e-016)
(1.67359e+006 -373264 4.46643e-016)
(1.7902e+006 -370269 -1.11457e-016)
(1.90494e+006 -365855 3.64326e-016)
(2.01732e+006 -359896 3.16613e-016)
(2.12678e+006 -352236 2.64662e-016)
(2.23273e+006 -342688 2.08613e-016)
(2.33451e+006 -331032 1.48653e-016)
(2.43143e+006 -317013 1.45772e-016)
(2.52268e+006 -300350 1.80224e-017)
(2.60741e+006 -280729 -5.19768e-017)
(2.68468e+006 -257819 -1.24524e-016)
(2.75345e+006 -231267 -1.99078e-016)
(2.81261e+006 -200714 -2.75007e-016)
(2.86099e+006 -165801 4.48188e-016)
(2.89732e+006 -126173 -4.27959e-016)
(2.92025e+006 -81462 -5.03242e-016)
(2.9284e+006 -31208.2 -5.76093e-016)
(2.92059e+006 24928.9 -6.44018e-016)
(2.89577e+006 86886.3 -7.06284e-016)
(2.85263e+006 154363 -7.62901e-016)
(2.78985e+006 227101 6.51536e-016)
(2.70633e+006 304792 -8.52351e-016)
(2.60122e+006 386940 -8.81588e-016)
(2.47397e+006 472784 -8.98492e-016)
(2.32437e+006 561245 -9.01921e-016)
(2.15261e+006 650867 -8.91213e-016)
(1.95946e+006 739729 4.72011e-016)
(1.74637e+006 825275 -8.284e-016)
(1.51537e+006 904143 -7.79949e-016)
(1.26888e+006 971788 -7.2676e-016)
(1.00882e+006 1.02299e+006 -6.7922e-016)
(736457 1.05391e+006 -6.4419e-016)
(455765 1.06289e+006 1.0534e-016)
(174053 1.04581e+006 -5.97946e-016)
(-103322 995735 -6.04257e-016)
(-372662 907017 -6.3644e-016)
(-631241 776420 -6.93542e-016)
(-875146 603297 -7.67668e-016)
(-1.10161e+006 390623 6.23147e-016)
(-1.3026e+006 150490 -9.67918e-016)
(-1.45858e+006 -94695.5 -1.12398e-015)
(-1.63158e+006 -281663 -1.93961e-015)
(-1.54716e+006 -252601 -1.81722e-015)
(-864.095 -26054 -5.511e-015)
(-1539.93 -11539 0)
(-4434.77 -475.957 0)
(-7845.05 9128.68 0)
(-11992.7 17484.7 0)
(-16940 24609.4 0)
(-22748.2 30544.4 5.23904e-016)
(-29359.9 35321.1 0)
(-36651.8 38946.2 0)
(-44453.7 41417.7 4.29111e-016)
(-52578.3 42723.7 0)
(-60843.1 42874.2 0)
(-69058.2 41921.7 3.77405e-016)
(-77030.3 39946.8 0)
(-84574.4 37051.7 3.53735e-016)
(-91521.9 33361 3.43888e-016)
(-97727.2 29016.1 3.35019e-016)
(-103072 24170.8 3.26933e-016)
(-107466 18985.9 3.1947e-016)
(-110853 13623.6 3.12505e-016)
(-113209 8241.97 3.05941e-016)
(-114543 2991.48 2.99715e-016)
(-114895 -1982.56 0)
(-114320 -6546.84 2.87816e-016)
(-112888 -10599.2 2.82071e-016)
(-110693 -14066.5 2.76453e-016)
(-107850 -16896.9 2.70949e-016)
(-104480 -19060.4 2.65559e-016)
(-100712 -20549.9 5.16547e-016)
(-96672.4 -21379.2 2.55164e-016)
(-92487 -21582 0)
(-88272.3 -21208.8 2.45401e-016)
(-84135.3 -20324.5 2.40814e-016)
(-80169.5 -19006.7 2.36454e-016)
(-76453.3 -17341.2 4.60134e-016)
(-73048.6 -15419.2 2.2851e-016)
(-69999.7 -13334.2 2.24972e-016)
(-67333.9 -11178.6 2.2175e-016)
(-65062.4 -9041.02 2.18865e-016)
(-63180.6 -7001.24 0)
(-61666.7 -5129.74 4.25784e-016)
(-60489.8 -3488.76 2.1234e-016)
(-59598.5 -2121.09 2.10833e-016)
(-58932.4 -1064.5 2.09686e-016)
(-58446.8 -357.048 2.08969e-016)
(-58090.4 7.30929 2.08593e-016)
(-57801.5 46.9912 4.15869e-016)
(-57509.9 -209.928 0)
(-57158.4 -738.726 2.09225e-016)
(-56702.9 -1502.94 2.09978e-016)
(-56116.5 -2450.38 2.10974e-016)
(-55381.4 -3510.47 2.12175e-016)
(-54484.6 -4602.78 2.13523e-016)
(-53423.1 -5650.75 2.14986e-016)
(-52210.6 -6579.16 2.1653e-016)
(-50875.7 -7314.92 2.18116e-016)
(-49459.5 -7790.22 0)
(-48016 -7943.23 2.21277e-016)
(-46610.5 -7720.18 2.22788e-016)
(-45312.9 -7080.17 2.24202e-016)
(-44193.3 -6002.33 2.25499e-016)
(-43331.6 -4503.17 2.26705e-016)
(-42813.1 -2560.85 2.27749e-016)
(-42715.3 -141.374 2.28532e-016)
(-43097.8 2618.9 0)
(-44011 5626.33 2.29666e-016)
(-45500.4 8864.98 2.30084e-016)
(-47588.6 12218.7 2.30355e-016)
(-50283.5 15564.6 2.30549e-016)
(-53569.1 18776.3 2.30686e-016)
(-57398.3 21715.5 2.30822e-016)
(-61701.1 24237.2 2.31022e-016)
(-66383.4 26197.5 2.31356e-016)
(-71326.2 27458.4 2.31894e-016)
(-76387.2 27894.1 2.32708e-016)
(-81403.5 27396.7 2.33873e-016)
(-86194.9 25880.2 2.35454e-016)
(-90567.9 23285.5 2.37508e-016)
(-94321.3 19585.2 2.40087e-016)
(-97253.1 14786.1 2.43238e-016)
(-99168.7 8931.82 2.47002e-016)
(-99892.5 2105.32 0)
(-99273.3 -5559.74 2.56418e-016)
(-97172.7 -13883.1 5.2556e-018)
(-93473.6 -22662.5 7.11827e-018)
(-88105.2 -31675.2 2.74992e-016)
(-81047.2 -40670.8 2.82392e-016)
(-72328.5 -49377 2.90371e-016)
(-62026.4 -57505.6 2.98901e-016)
(-50260.9 -64765.1 3.07957e-016)
(-37184.9 -70887.3 -3.00975e-016)
(-23024.5 -75666.6 3.27636e-016)
(-8108.92 -78902.3 3.3835e-016)
(7191.84 -80387.2 3.49167e-016)
(22457.7 -79959.8 3.59963e-016)
(37226.6 -77440.2 3.70707e-016)
(51070.4 -72683.5 1.28404e-017)
(63555.3 -65651.8 3.90562e-016)
(74210.1 -56361.7 3.99032e-016)
(82567.3 -44879.8 4.05999e-016)
(88179.9 -31322 4.11074e-016)
(90643.7 -15847 4.13904e-016)
(89630.2 1340.68 -9.70629e-018)
(84903.7 19961.8 4.10969e-016)
(76288.2 39650.8 4.05164e-016)
(63669.9 60013.6 3.9674e-016)
(47042.2 80630.6 3.85858e-016)
(26505.8 101044 3.72864e-016)
(2218.01 120776 3.5806e-016)
(-25595.2 139412 -4.17764e-017)
(-56560.6 156584 3.24221e-016)
(-90199.5 171894 3.06663e-016)
(-125970 184968 2.89325e-016)
(-163290 195447 2.72524e-016)
(-201627 203000 2.56607e-016)
(-240495 207433 -4.93175e-017)
(-279377 208682 2.27513e-016)
(-317720 206766 2.13868e-016)
(-354964 201761 2.00442e-016)
(-390555 193773 1.86868e-016)
(-423951 182943 1.72808e-016)
(-454635 169437 -3.27631e-017)
(-482115 153439 1.41969e-016)
(-505927 135147 1.2468e-016)
(-525642 114768 1.05897e-016)
(-540866 92513 8.55149e-017)
(-551245 68594.8 6.35008e-017)
(-556472 43232.6 7.3328e-018)
(-556290 16646.7 1.46949e-017)
(-550494 -10931.8 -1.1884e-017)
(-538915 -39248.3 -3.97025e-017)
(-521393 -68045.7 -6.86775e-017)
(-497799 -97114.4 -9.85582e-017)
(-468075 -126268 6.16129e-017)
(-432230 -155317 -1.59724e-016)
(-390320 -184065 -1.90346e-016)
(-342451 -212318 -2.20545e-016)
(-288772 -239884 -2.49985e-016)
(-229472 -266570 -2.78336e-016)
(-164769 -292186 1.157e-016)
(-94902.1 -316555 -3.30595e-016)
(-20086.3 -339515 -3.53852e-016)
(59532.8 -360992 -3.74533e-016)
(143668 -381104 -3.91877e-016)
(231830 -399885 -4.05741e-016)
(323551 -417233 -4.16117e-016)
(418293 -433117 1.60425e-016)
(515537 -447294 -4.25051e-016)
(615019 -459541 -4.24271e-016)
(716493 -469917 -4.19704e-016)
(819591 -478500 -4.11162e-016)
(923923 -485365 -3.9847e-016)
(1.0291e+006 -490573 1.72552e-016)
(1.13473e+006 -494162 -3.6016e-016)
(1.24043e+006 -496141 -3.3435e-016)
(1.3458e+006 -496508 -3.04043e-016)
(1.45046e+006 -495238 -2.69259e-016)
(1.55401e+006 -492262 -2.30005e-016)
(1.65603e+006 -487481 1.59566e-016)
(1.75609e+006 -480769 -1.3842e-016)
(1.8537e+006 -471964 -8.63718e-017)
(1.94839e+006 -460867 -3.04262e-017)
(2.03961e+006 -447238 2.91346e-017)
(2.12678e+006 -430798 9.1957e-017)
(2.20926e+006 -411229 1.16968e-016)
(2.28638e+006 -388174 2.25565e-016)
(2.35738e+006 -361247 2.95215e-016)
(2.42146e+006 -330038 3.65841e-016)
(2.47776e+006 -294120 4.36616e-016)
(2.52534e+006 -253061 5.066e-016)
(2.56324e+006 -206436 3.81092e-017)
(2.59045e+006 -153824 6.39808e-016)
(2.60592e+006 -94842.4 7.00534e-016)
(2.60863e+006 -29139.6 7.5552e-016)
(2.59768e+006 43539 8.02517e-016)
(2.57225e+006 123136 8.40241e-016)
(2.53145e+006 209400 8.68004e-016)
(2.47449e+006 301960 -9.5794e-017)
(2.40072e+006 400277 8.87847e-016)
(2.3097e+006 503564 8.77208e-016)
(2.20127e+006 610718 8.51526e-016)
(2.07558e+006 720262 8.10394e-016)
(1.93312e+006 830278 7.54134e-016)
(1.77475e+006 938339 -1.97068e-016)
(1.60178e+006 1.04141e+006 6.02667e-016)
(1.41587e+006 1.13577e+006 5.14375e-016)
(1.21883e+006 1.21697e+006 4.2576e-016)
(1.01235e+006 1.28017e+006 3.4555e-016)
(798032 1.32073e+006 2.82899e-016)
(578336 1.33448e+006 -2.10941e-016)
(356498 1.31692e+006 2.47414e-016)
(135264 1.26335e+006 2.92688e-016)
(-83735.1 1.16936e+006 3.8714e-016)
(-299858 1.03198e+006 5.2821e-016)
(-512877 850523 7.11755e-016)
(-723405 627337 -1.03842e-016)
(-930221 370196 1.19339e-015)
(-1.12053e+006 92753.6 1.4901e-015)
(-1.33501e+006 -165730 2.47187e-015)
(-1.38096e+006 -231429 2.63019e-015)
(-3732.64 -23035.6 4.76182e-015)
(-5098.82 -8900.73 0)
(-8447.77 2719.53 0)
(-11771.3 12831.8 0)
(-15515.9 21770.2 0)
(-19749.1 29566.2 0)
(-24555 36192.3 -4.0532e-016)
(-29930.1 41605.7 0)
(-35814.1 45759.3 6.8333e-016)
(-42099.7 48613.2 -3.27452e-016)
(-48655.9 50142.8 6.11171e-016)
(-55340.5 50350.3 5.84527e-016)
(-62001.3 49282 -2.87056e-016)
(-68484.8 47021 0)
(-74642.3 43678.8 -2.69057e-016)
(-80335.6 39396.7 -2.61646e-016)
(-85444.1 34337.6 -2.55003e-016)
(-89868.3 28680.9 -2.48965e-016)
(-93532.4 22615 -2.43402e-016)
(-96386.5 16331.1 -2.38212e-016)
(-98406.7 10016.8 -2.33314e-016)
(-99595.5 3851.1 -2.28653e-016)
(-99978.5 -1998.93 0)
(-99597.7 -7384.08 -2.19693e-016)
(-98510.6 -12183.2 -2.1534e-016)
(-96792.1 -16304.6 -2.11072e-016)
(-94531.3 -19683.7 -2.06882e-016)
(-91826.1 -22283.1 -2.0277e-016)
(-88779.4 -24092.4 -1.98745e-016)
(-85495.2 -25126.1 -1.9482e-016)
(-82074.9 -25423.2 0)
(-78613.9 -25041.3 -1.87332e-016)
(-75200.2 -24055.6 -1.83808e-016)
(-71911.7 -22556.5 -1.80456e-016)
(-68813.3 -20644 -1.77294e-016)
(-65957.1 -18425 -1.74342e-016)
(-63381.1 -16008.4 -1.71617e-016)
(-61109.2 -13502.3 -1.69135e-016)
(-59151.9 -11010 -1.66912e-016)
(-57506.8 -8625.98 0)
(-56158.3 -6434.47 -1.63274e-016)
(-55081.8 -4507.46 -1.61882e-016)
(-54240.4 -2897.98 -1.6072e-016)
(-53589 -1652.24 -1.59835e-016)
(-53087.1 -800.979 -1.5928e-016)
(-52692.9 -344.57 -1.58989e-016)
(-52357.8 -270.576 -1.58939e-016)
(-52029.9 -552.119 0)
(-51663.6 -1151.41 -1.59476e-016)
(-51224.3 -2018.8 -1.60056e-016)
(-50687.8 -3089.89 -1.60821e-016)
(-50038.7 -4287.05 -1.61742e-016)
(-49268.1 -5523.33 -1.62775e-016)
(-48375.4 -6709.84 -1.63895e-016)
(-47371.9 -7757.98 -1.65074e-016)
(-46280.1 -8581.83 -1.66285e-016)
(-45132.8 -9102.28 3.3628e-016)
(-43971.9 -9246.45 -1.68691e-016)
(-42848.9 -8952.85 -1.69837e-016)
(-41819.5 -8177.01 -1.70906e-016)
(-40941.9 -6892.43 -1.71882e-016)
(-40282.8 -5095.75 -1.72787e-016)
(-39912.1 -2790.27 -1.73564e-016)
(-39879.8 9.51785 -1.74134e-016)
(-40223.1 3226.12 0)
(-40993.6 6772.81 -1.74932e-016)
(-42236.1 10560.7 -1.7521e-016)
(-43963.5 14473.2 -1.75375e-016)
(-46174.2 18372.2 1.72442e-016)
(-48853 22107.5 -1.75547e-016)
(-51962.3 25517.1 -1.75616e-016)
(-55445.1 28433.2 -1.75741e-016)
(-59224.6 30688.8 -1.75976e-016)
(-63204.1 32123.4 -1.76376e-016)
(-67267.9 32590.4 -1.76999e-016)
(-71284.5 31964.7 -1.77903e-016)
(-75109.4 30145.8 -1.79139e-016)
(-78587.1 27064.7 -1.80752e-016)
(-81556 22689.8 -1.82782e-016)
(-83854.2 17030.7 -1.85266e-016)
(-85325.4 10141.2 -1.88231e-016)
(-85825.4 2122.5 3.87193e-016)
(-85226.7 -6873.92 -1.95621e-016)
(-83416.7 -16649.2 -1.99979e-016)
(-80304 -26969.1 -2.04808e-016)
(-75830.7 -37568 -2.10105e-016)
(-69977.1 -48150.6 -2.15857e-016)
(-62762.8 -58398.2 -2.22049e-016)
(-54248.1 -67977.7 -2.28659e-016)
(-44533.1 -76554.3 -2.3566e-016)
(-33757.7 -83808.1 0)
(-22117.9 -89454.1 -2.50809e-016)
(-9878.3 -93226.1 -2.59013e-016)
(2653.39 -94875.5 2.79575e-016)
(15129.5 -94191 -2.75818e-016)
(27170.2 -90981.9 -2.84132e-016)
(38398.2 -85108.6 -2.92048e-016)
(48429.5 -76512 -2.99354e-016)
(56865.7 -65203 -3.05749e-016)
(63316.3 -51261.2 -3.10914e-016)
(67412.7 -34835.1 -3.14547e-016)
(68827.5 -16139.9 -3.16372e-016)
(67295.2 4541.55 -3.16036e-016)
(62623.4 26851.4 -3.13069e-016)
(54685.9 50356.2 -3.07993e-016)
(43425.2 74573.9 -3.0089e-016)
(28868.7 98986.6 -2.91948e-016)
(11126.7 123051 -2.81475e-016)
(-9626.64 146219 -2.6966e-016)
(-33150.2 167979 -2.56889e-016)
(-59112.7 187855 -2.43689e-016)
(-87118.1 205392 -2.30451e-016)