# vtk DataFile Version 2.0
track0
ASCII
DATASET POLYDATA
POINTS 11960 float
-0.0205 0.001 1e-005
-0.0203851 0.00100536 1.50241e-005
-0.0202701 0.00101047 1.96636e-005
-0.0201551 0.00101536 2.39713e-005
-0.0200401 0.00102 2.79425e-005
-0.0198625 0.00102682 3.35473e-005
-0.0196934 0.00103276 3.8095e-005
-0.0195243 0.0010381 4.16108e-005
-0.0193552 0.00104282 4.41037e-005
-0.019186 0.00104694 4.5583e-005
-0.0190172 0.00105044 4.60572e-005
-0.0187132 0.00105596 4.60572e-005
-0.0184093 0.00106084 4.60572e-005
-0.0181054 0.0010652 4.60572e-005
-0.0178014 0.00106903 4.60572e-005
-0.0174976 0.00107235 4.60572e-005
-0.0172058 0.00107524 4.60572e-005
-0.016914 0.00107805 4.60572e-005
-0.0166222 0.0010808 4.60572e-005
-0.0163305 0.00108348 4.60572e-005
-0.0160387 0.00108609 4.60572e-005
-0.0157586 0.0010885 4.60572e-005
-0.0154784 0.00109084 4.60572e-005
-0.0151983 0.00109309 4.60572e-005
-0.0149182 0.00109526 4.60572e-005
-0.0146381 0.00109734 4.60572e-005
-0.0143692 0.00109922 4.60572e-005
-0.0141002 0.00110099 4.60572e-005
-0.0138313 0.0011027 4.60572e-005
-0.0135624 0.00110432 4.60572e-005
-0.0132934 0.00110586 4.60572e-005
-0.0130353 0.00110727 4.60572e-005
-0.0127771 0.00110862 4.60572e-005
-0.0125189 0.00110994 4.60572e-005
-0.0122607 0.00111121 4.60572e-005
-0.0120025 0.00111245 4.60572e-005
-0.0117547 0.0011136 4.60572e-005
-0.0115068 0.00111474 4.60572e-005
-0.0112589 0.00111585 4.60572e-005
-0.0110111 0.00111695 4.60572e-005
-0.0107632 0.00111803 4.60572e-005
-0.0105252 0.00111905 4.60572e-005
-0.0102873 0.00112005 4.60572e-005
-0.0100493 0.00112105 4.60572e-005
-0.00981133 0.00112203 4.60572e-005
-0.00957337 0.001123 4.60572e-005
-0.00934491 0.00112391 4.60572e-005
-0.00911645 0.00112482 4.60572e-005
-0.00888799 0.00112571 4.60572e-005
-0.00865954 0.0011266 4.60572e-005
-0.00843108 0.00112747 4.60572e-005
-0.00821175 0.00112831 4.60572e-005
-0.00799242 0.00112913 4.60572e-005
-0.00777309 0.00112995 4.60572e-005
-0.00755376 0.00113076 4.60572e-005
-0.00733443 0.00113157 4.60572e-005
-0.00712387 0.00113235 4.60572e-005
-0.0069133 0.00113311 4.60572e-005
-0.00670273 0.00113387 4.60572e-005
-0.00649216 0.00113463 4.60572e-005
-0.0062816 0.00113539 4.60572e-005
-0.00607944 0.00113611 4.60572e-005
-0.00587729 0.00113683 4.60572e-005
-0.00567514 0.00113755 4.60572e-005
-0.00547298 0.00113827 4.60572e-005
-0.00527083 0.00113898 4.60572e-005
-0.00507675 0.00113967 4.60572e-005
-0.00488267 0.00114035 4.60572e-005
-0.0046886 0.00114104 4.60572e-005
-0.00449452 0.00114172 4.60572e-005
-0.00430044 0.0011424 4.60572e-005
-0.00411412 0.00114306 4.60572e-005
-0.0039278 0.00114372 4.60572e-005
-0.00374147 0.00114437 4.60572e-005
-0.00355515 0.00114503 4.60572e-005
-0.00336883 0.00114569 4.60572e-005
-0.00318995 0.00114633 4.60572e-005
-0.00301107 0.00114696 4.60572e-005
-0.00283219 0.00114759 4.60572e-005
-0.00265331 0.00114822 4.60572e-005
-0.00247443 0.00114886 4.60572e-005
-0.0023027 0.00114948 4.60572e-005
-0.00213097 0.0011501 4.60572e-005
-0.00195924 0.00115072 4.60572e-005
-0.0017875 0.00115133 4.60572e-005
-0.00161577 0.00115196 4.60572e-005
-0.0014509 0.00115257 4.60572e-005
-0.00128603 0.00115317 4.60572e-005
-0.00112116 0.00115378 4.60572e-005
-0.000956289 0.00115439 4.60572e-005
-0.000791418 0.00115501 4.60572e-005
-0.000633135 0.00115561 4.60572e-005
-0.000474851 0.00115622 4.60572e-005
-0.000316567 0.00115683 4.60572e-005
-0.000158284 0.00115745 4.60572e-005
0 0.00115807 4.60572e-005
0.000105677 0.0011585 4.60572e-005
0.000211355 0.00115893 4.60572e-005
0.000317032 0.00115935 4.60572e-005
0.00042271 0.00115979 4.60572e-005
0.000528387 0.00116023 4.60572e-005
0.000634886 0.00116068 4.60572e-005
0.000741385 0.00116114 4.60572e-005
0.000847885 0.00116159 4.60572e-005
0.000954384 0.00116205 4.60572e-005
0.00106088 0.00116253 4.60572e-005
0.00116821 0.00116302 4.60572e-005
0.00127554 0.0011635 4.60572e-005
0.00138286 0.00116399 4.60572e-005
0.00149019 0.00116448 4.60572e-005
0.00159752 0.00116498 4.60572e-005
0.00170568 0.00116549 4.60572e-005
0.00181384 0.00116601 4.60572e-005
0.001922 0.00116652 4.60572e-005
0.00203016 0.00116703 4.60572e-005
0.00213833 0.00116755 4.60572e-005
0.00224733 0.00116807 4.60572e-005
0.00235633 0.0011686 4.60572e-005
0.00246533 0.00116913 4.60572e-005
0.00257434 0.00116966 4.60572e-005
0.00268334 0.00117019 4.60572e-005
0.00279319 0.00117072 4.60572e-005
0.00290304 0.00117126 4.60572e-005
0.00301289 0.00117181 4.60572e-005
0.00312274 0.00117235 4.60572e-005
0.00323259 0.00117289 4.60572e-005
0.00334329 0.00117343 4.60572e-005
0.003454 0.00117399 4.60572e-005
0.0035647 0.00117455 4.60572e-005
0.0036754 0.00117511 4.60572e-005
0.00378611 0.00117566 4.60572e-005
0.00389767 0.00117621 4.60572e-005
0.00400924 0.00117678 4.60572e-005
0.0041208 0.00117735 4.60572e-005
0.00423237 0.00117792 4.60572e-005
0.00434393 0.00117849 4.60572e-005
0.00445636 0.00117904 4.60572e-005
0.00456879 0.00117962 4.60572e-005
0.00468123 0.0011802 4.60572e-005
0.00479366 0.00118078 4.60572e-005
0.00490609 0.00118135 4.60572e-005
0.0050194 0.00118191 4.60572e-005
0.0051327 0.00118249 4.60572e-005
0.00524601 0.00118308 4.60572e-005
0.00535931 0.00118366 4.60572e-005
0.00547262 0.00118425 4.60572e-005
0.00558681 0.00118481 4.60572e-005
0.005701 0.00118539 4.60572e-005
0.00581518 0.00118598 4.60572e-005
0.00592937 0.00118657 4.60572e-005
0.00604356 0.00118716 4.60572e-005
0.00615863 0.00118773 4.60572e-005
0.00627371 0.00118832 4.60572e-005
0.00638878 0.0011889 4.60572e-005
0.00650386 0.00118949 4.60572e-005
0.00661893 0.00119008 4.60572e-005
0.0067349 0.00119065 4.60572e-005
0.00685087 0.00119124 4.60572e-005
0.00696684 0.00119183 4.60572e-005
0.00708281 0.00119242 4.60572e-005
0.00719878 0.001193 4.60572e-005
0.00731565 0.00119358 4.60572e-005
0.00743252 0.00119416 4.60572e-005
0.00754939 0.00119474 4.60572e-005
0.00766626 0.00119533 4.60572e-005
0.00778313 0.00119591 4.60572e-005
0.00790091 0.00119648 4.60572e-005
0.00801869 0.00119706 4.60572e-005
0.00813647 0.00119764 4.60572e-005
0.00825425 0.00119821 4.60572e-005
0.00837203 0.00119879 4.60572e-005
0.00849073 0.00119936 4.60572e-005
0.00860942 0.00119993 4.60572e-005
0.00872812 0.0012005 4.60572e-005
0.00884682 0.00120107 4.60572e-005
0.00896551 0.00120164 4.60572e-005
0.00908513 0.0012022 4.60572e-005
0.00920475 0.00120277 4.60572e-005
0.00932437 0.00120333 4.60572e-005
0.00944398 0.00120389 4.60572e-005
0.0095636 0.00120445 4.60572e-005
0.00968415 0.001205 4.60572e-005
0.0098047 0.00120556 4.60572e-005
0.00992525 0.00120611 4.60572e-005
0.0100458 0.00120666 4.60572e-005
0.0101663 0.00120721 4.60572e-005
0.0102878 0.00120775 4.60572e-005
0.0104093 0.0012083 4.60572e-005
0.0105308 0.00120884 4.60572e-005
0.0106523 0.00120938 4.60572e-005
0.0107738 0.00120991 4.60572e-005
0.0108962 0.00121044 4.60572e-005
0.0110186 0.00121098 4.60572e-005
0.0111411 0.00121151 4.60572e-005
0.0112635 0.00121203 4.60572e-005
0.0113859 0.00121256 4.60572e-005
0.0115093 0.00121307 4.60572e-005
0.0116327 0.00121359 4.60572e-005
0.0117561 0.00121411 4.60572e-005
0.0118795 0.00121462 4.60572e-005
0.0120028 0.00121513 4.60572e-005
0.0121272 0.00121563 4.60572e-005
0.0122515 0.00121613 4.60572e-005
0.0123759 0.00121664 4.60572e-005
0.0125002 0.00121713 4.60572e-005
0.0126245 0.00121762 4.60572e-005
0.0127498 0.0012181 4.60572e-005
0.0128752 0.00121859 4.60572e-005
0.0130005 0.00121907 4.60572e-005
0.0131258 0.00121955 4.60572e-005
0.0132511 0.00122002 4.60572e-005
0.0133774 0.00122048 4.60572e-005
0.0135036 0.00122095 4.60572e-005
0.0136299 0.00122141 4.60572e-005
0.0137562 0.00122187 4.60572e-005
0.0138825 0.00122232 4.60572e-005
0.0140098 0.00122275 4.60572e-005
0.014137 0.0012232 4.60572e-005
0.0142643 0.00122364 4.60572e-005
0.0143915 0.00122407 4.60572e-005
0.0145188 0.00122449 4.60572e-005
0.0146471 0.00122491 4.60572e-005
0.0147753 0.00122532 4.60572e-005
0.0149036 0.00122574 4.60572e-005
0.0150318 0.00122614 4.60572e-005
0.0151601 0.00122654 4.60572e-005
0.0152893 0.00122692 4.60572e-005
0.0154186 0.00122731 4.60572e-005
0.0155478 0.00122769 4.60572e-005
0.0156771 0.00122807 4.60572e-005
0.0158063 0.00122844 4.60572e-005
0.0159366 0.00122879 4.60572e-005
0.0160668 0.00122915 4.60572e-005
0.0161971 0.0012295 4.60572e-005
0.0163274 0.00122984 4.60572e-005
0.0164576 0.00123017 4.60572e-005
0.0165889 0.00123049 4.60572e-005
0.0167201 0.00123081 4.60572e-005
0.0168514 0.00123113 4.60572e-005
0.0169827 0.00123143 4.60572e-005
0.0171139 0.00123173 4.60572e-005
0.0172462 0.00123201 4.60572e-005
0.0173785 0.00123229 4.60572e-005
0.0175108 0.00123256 4.60572e-005
0.0176431 0.00123283 4.60572e-005
0.0177754 0.00123308 4.60572e-005
0.0178302 0.00123318 4.60572e-005
0.017885 0.00123328 4.60572e-005
0.0179398 0.00123338 4.60572e-005
0.0179946 0.00123347 4.60572e-005
0.018048 0.00123357 4.60572e-005
0.0181268 0.0012337 4.60572e-005
0.0182056 0.00123383 4.60572e-005
0.0182844 0.00123396 4.60572e-005
0.0183632 0.00123408 4.60572e-005
0.018442 0.0012342 4.60572e-005
0.0185763 0.0012344 4.60572e-005
0.0187107 0.00123459 4.60572e-005
0.018845 0.00123477 4.60572e-005
0.0189794 0.00123494 4.60572e-005
0.0191137 0.0012351 4.60572e-005
0.0192491 0.00123524 4.60572e-005
0.0193845 0.00123538 4.60572e-005
0.0195199 0.00123551 4.60572e-005
0.0196553 0.00123562 4.60572e-005
0.0197907 0.00123573 4.60572e-005
0.0199272 0.00123582 4.60572e-005
0.0200636 0.0012359 4.60572e-005
0.0202001 0.00123597 4.60572e-005
0.0203365 0.00123603 4.60572e-005
0.020473 0.00123607 4.60572e-005
0.0206105 0.0012361 4.60572e-005
0.020748 0.00123613 4.60572e-005
0.0208855 0.00123613 4.60572e-005
0.021023 0.00123613 4.60572e-005
0.0211606 0.00123611 4.60572e-005
0.0212991 0.00123609 4.60572e-005
0.0214377 0.00123605 4.60572e-005
0.0215763 0.00123599 4.60572e-005
0.0217149 0.00123592 4.60572e-005
0.0218535 0.00123584 4.60572e-005
0.0219931 0.00123575 4.60572e-005
0.0221328 0.00123564 4.60572e-005
0.0222724 0.00123552 4.60572e-005
0.0224121 0.00123538 4.60572e-005
0.0225517 0.00123524 4.60572e-005
0.0226925 0.00123508 4.60572e-005
[...]
POINT_DATA 11960
 FIELD attributes 2
p 1 11960 float
-1666.29 -1653.68 -1639.85 -1626.17 -1612.65 -1591.99 -1577.31 -1562.55 -1547.71 -1532.79 -1511.97 -1463.81 -1415.77 -1367.78 -1319.87 -1277.48 -1245.93 -1220.57 -1195.23 -1169.9 -1153.2 -1141.46 -1132 -1122.54 -1113.08 -1105.47 -1098.67 -1090.75 -1082.83 -1074.91 -1065.89 -1057.44 -1048.81 -1040.19 -1031.58 -1023.2 -1015.26 -1008.08 -1001.01 -994.08 -988.059 -982.29 -977.086 -972.003 -967.076 -962.731 -958.547 -954.586 -950.695 -946.895 -943.343 -939.91 -936.606 -933.357 -930.185 -927.175 -924.251 -921.452 -918.719 -916.071 -913.569 -911.127 -908.793 -906.53 -904.353 -902.297 -900.28 -898.34 -896.462 -894.659 -892.942 -891.244 -889.603 -888.016 -886.496 -885.041 -883.582 -882.165 -880.795 -879.486 -878.229 -876.945 -875.698 -874.5 -873.372 -872.293 -871.16 -870.046 -868.961 -867.95 -866.984 -865.953 -864.973 -864.088 -863.339 -862.66 -861.934 -861.269 -860.717 -860.303 -859.968 -859.476 -859.036 -858.675 -858.421 -858.245 -857.865 -857.616 -857.522 -857.568 -857.744 -857.704 -857.747 -857.871 -858.059 -858.32 -858.565 -858.761 -858.919 -859.044 -859.124 -859.519 -859.767 -859.923 -859.988 -859.893 -860.387 -860.682 -860.875 -860.956 -860.788 -861.346 -861.659 -861.872 -861.975 -861.763 -862.306 -862.576 -862.762 -862.859 -862.621 -863.09 -863.306 -863.464 -863.562 -863.355 -863.745 -863.93 -864.082 -864.202 -864.069 -864.388 -864.554 -864.706 -864.846 -864.793 -865.041 -865.187 -865.329 -865.47 -865.486 -865.67 -865.802 -865.935 -866.067 -866.146 -866.287 -866.42 -866.553 -866.686 -866.816 -866.939 -867.078 -867.216 -867.355 -867.518 -867.64 -867.783 -867.926 -868.069 -868.246 -868.379 -868.525 -868.672 -868.819 -868.996 -869.149 -869.304 -869.458 -869.612 -869.782 -869.964 -870.129 -870.294 -870.459 -870.621 -870.831 -871.007 -871.182 -871.357 -871.509 -871.744 -871.927 -872.111 -872.294 -872.438 -872.691 -872.882 -873.073 -873.263 -873.403 -873.669 -873.867 -874.066 -874.264 -874.406 -874.678 -874.883 -875.088 -875.293 -875.441 -875.714 -875.926 -876.138 -876.35 -876.511 -876.785 -877.009 -877.233 -877.457 -877.64 -877.914 -878.15 -878.387 -878.624 -878.831 -879.1 -879.346 -879.591 -879.836 -880.066 -880.329 -880.58 -880.832 -881.084 -881.332 -881.44 -881.546 -881.652 -881.758 -881.862 -882.014 -882.167 -882.319 -882.472 -882.645 -882.892 -883.157 -883.422 -883.687 -884.003 -884.232 -884.503 -884.775 -885.046 -885.391 -885.61 -885.888 -886.165 -886.443 -886.809 -887.025 -887.308 -887.592 -887.875 -888.252 -888.474 -888.763 -889.052 -889.341 -889.719 -889.954 -890.248 -890.542 -890.836 -891.206 -891.462 -891.76 -892.058 -892.356 -892.71 -892.992 -893.294 -893.596 -893.899 -894.229 -894.541 -894.847 -895.152 -895.458 -895.761 -896.105 -896.413 -896.722 -897.031 -897.303 -897.679 -897.99 -898.301 -898.609 -898.854 -899.252 -899.573 -899.887 -900.186 -900.412 -900.824 -901.16 -901.476 -901.764 -901.977 -902.397 -902.75 -903.068 -903.344 -903.551 -903.977 -904.347 -904.668 -904.93 -905.135 -905.566 -905.952 -906.275 -906.521 -906.724 -907.154 -907.554 -907.877 -908.106 -908.305 -908.728 -909.136 -909.455 -909.669 -909.868 -910.278 -910.687 -910.999 -911.202 -911.406 -911.798 -912.191 -912.494 -912.704 -912.913 -913.286 -913.658 -913.953 -914.169 -914.384 -914.734 -915.084 -915.37 -915.591 -915.812 -916.139 -916.465 -916.741 -916.967 -917.193 -917.496 -917.799 -918.065 -918.294 -918.523 -918.802 -919.081 -919.337 -919.566 -919.796 -920.052 -920.309 -920.551 -920.779 -921.006 -921.24 -921.473 -921.702 -921.926 -922.147 -922.359 -922.571 -922.785 -922.998 -923.21 -923.4 -923.594 -923.791 -923.989 -924.19 -924.358 -924.533 -924.712 -924.893 -925.078 -925.224 -925.381 -925.541 -925.701 -925.868 -925.993 -926.131 -926.269 -926.407 -926.553 -926.655 -926.769 -926.883 -926.998 -927.119 -927.197 -927.286 -927.374 -927.463 -927.558 -927.612 -927.674 -927.736 -927.799 -927.866 -927.895 -927.93 -927.966 -928.001 -928.037 -928.038 -928.039 -928.04 -928.041 -928.042 -928.05 -928.058 -928.066 -928.075 -928.082 -928.063 -928.043 -928.023 -928.004 -927.981 -927.933 -927.882 -927.83 -927.779 -927.722 -927.644 -927.558 -927.473 -927.387 -927.292 -927.182 -927.059 -926.936 -926.812 -926.677 -926.531 -926.371 -926.209 -926.043 -925.867 -925.683 -925.488 -925.285 -925.075 -924.858 -924.634 -924.403 -924.159 -923.902 -923.641 -923.375 -923.108 -922.82 -922.515 -922.209 -921.9 -921.591 -921.259 -920.906 -920.554 -920.2 -919.846 -919.469 -919.069 -918.669 -918.269 -917.868 -917.445 -916.997 -916.548 -916.1 -915.652 -915.18 -914.684 -914.186 -913.688 -913.184 -912.661 -912.122 -911.572 -911.024 -910.46 -909.884 -909.3 -908.696 -908.094 -907.468 -906.838 -906.208 -905.547 -904.887 -904.199 -903.511 -902.824 -902.116 -901.388 -900.641 -899.894 -899.148 -898.391 -897.692 -896.984 -896.276 -895.567 -894.899 -894.792 -894.684 -894.576 -894.469 -894.359 -893.493 -892.624 -891.756 -890.889 -890.003 -889.087 -888.151 -887.215 -886.28 -885.307 -884.341 -883.334 -882.328 -881.32 -880.256 -879.229 -878.159 -877.079 -875.976 -874.835 -873.734 -872.61 -871.453 -870.248 -869.025 -867.845 -866.666 -865.422 -864.114 -862.806 -861.544 -860.282 -858.953 -857.554 -856.156 -854.806 -853.457 -852.036 -850.543 -849.05 -847.609 -846.149 -844.625 -843.057 -841.464 -839.925 -838.332 -836.706 -835.068 -833.369 -831.725 -829.989 -828.255 -826.52 -824.734 -822.938 -821.087 -819.236 -817.386 -815.523 -814.939 -814.342 -813.745 -813.148 -812.565 -811.198 -809.832 -808.465 -807.1 -805.703 -803.65 -801.567 -799.484 -797.402 -795.24 -793.104 -790.886 -788.669 -786.42 -784.096 -781.823 -779.519 -777.16 -774.709 -772.236 -769.818 -767.402 -764.88 -762.25 -759.62 -757.05 -754.481 -751.799 -749.005 -746.212 -743.482 -740.697 -737.834 -734.941 -731.978 -729.082 -726.048 -723.013 -719.98 -716.887 -714.659 -712.368 -710.078 -707.789 -705.637 -704.692 -703.747 -702.802 -701.857 -700.892 -697.531 -694.152 -690.775 -687.398 -683.928 -680.447 -676.879 -673.31 -669.692 -665.997 -662.321 -658.634 -654.863 -650.967 -647.07 -643.194 -639.32 -635.332 -631.232 -627.131 -623.053 -618.925 -614.714 -610.475 -606.167 -601.873 -597.452 -593.033 -588.615 -584.167 -582.876 -581.556 -580.237 -578.917 -577.631 -574.336 -571.041 -567.747 -564.454 -561.089 -556.351 -551.546 -546.742 -541.904 -536.963 -532.047 -527.115 -522.107 -516.971 -511.832 -506.716 -501.602 -496.382 -491.054 -485.723 -480.414 -475.03 -469.602 -464.176 -458.68 -455.214 -451.686 -448.158 -444.632 -441.297 -439.19 -437.083 -434.977 -432.871 -430.727 -425.013 -419.265 -413.52 -407.758 -401.904 -396.065 -390.218 -384.313 -378.322 -372.325 -366.341 -360.36 -354.3 -348.198 -342.076 -335.963 -329.79 -323.612 -317.437 -311.246 -310.422 -309.591 -308.76 -307.929 -307.107 -301.669 -296.232 -290.797 -285.364 -279.876 -273.562 -267.23 -260.888 -254.512 -248.12 -241.737 -235.356 -228.955 -222.529 -216.094 -209.663 -203.226 -196.789 -190.355 -183.912 -183.299 -182.687 -182.075 -181.464 -180.856 -175.009 -169.165 -163.322 -157.482 -151.637 -145.185 -138.737 -132.295 -125.875 -119.446 -113.02 -106.599 -100.214 -93.838 -87.4629 -82.933 -78.4382 -73.949 -69.4608 -65.1393 -63.2645 -61.3899 -59.5154 -57.6425 -55.7808 -49.4883 -43.2144 -36.9424 -30.6987 -24.4824 -18.2713 -12.0623 -5.9107 0.184201 6.28571 12.3845 18.4215 24.4326 30.4423 36.4462 37.1084 37.7621 38.414 39.0659 39.7155 44.9914 50.2664 55.5404 60.8035 66.0072 71.8496 77.6841 83.4561 89.1521 94.8522 100.544 106.203 111.795 117.387 122.925 125.296 127.631 129.957 132.283 134.596 137.735 140.875 144.014 147.145 150.231 155.612 160.944 166.262 171.501 176.721 181.925 187.13 192.236 197.295 202.332 206.154 209.908 213.65 217.392 221.15 222.34 223.529 224.719 225.905 227.072 231.905 236.706 241.507 246.271 250.972 255.653 260.333 264.931 269.443 273.955 278.447 282.874 287.266 291.659 296.02 296.919 297.8 298.679 299.557 300.441 303.816 307.192 310.568 313.939 317.238 321.387 325.503 329.585 333.578 337.562 341.526 345.491 349.363 353.192 356.991 360.318 363.568 366.815 370.062 373.443 373.868 374.292 374.716 375.14 375.553 379.136 382.707 386.278 389.839 393.314 396.781 400.241 403.627 406.935 410.24 413.539 416.828 420.041 423.22 426.36 429.291 432.146 435.002 437.86 440.896 441.059 441.221 441.384 441.547 441.705 444.648 447.585 450.524 453.463 456.316 459.17 461.999 464.787 467.502 470.209 472.918 475.628 478.273 480.849 483.417 485.987 488.503 491.004 493.506 495.972 496.905 497.815 498.726 499.636 500.576 502.051 503.525 505 506.475 507.916 510.241 512.519 514.799 517.056 519.275 521.494 523.713 525.867 527.975 530.082 532.189 534.296 536.355 538.372 540.374 542.376 544.345 546.305 548.266 550.19 551.342 552.478 553.613 554.749 555.948 556.675 557.403 558.13 558.858 559.576 561.396 563.198 565.001 566.804 568.578 570.347 572.091 573.819 575.532 577.237 578.937 580.638 582.308 583.956 585.603 587.245 588.887 590.521 592.13 593.729 595.323 596.917 598.511 600.105 601.672 603.163 604.658 606.153 607.648 609.209 609.266 609.322 609.379 609.435 609.492 611.044 612.595 614.146 615.697 617.258 618.818 620.362 621.907 623.458 625.025 626.589 628.15 629.701 631.28 632.861 634.44 636.019 637.617 639.225 640.834 642.441 644.058 645.71 647.361 649.009 650.656 652.351 654.052 655.753 657.454 658.602 659.776 660.95 662.124 663.273 663.86 664.447 665.034 665.621 666.221 668.039 669.859 671.68 673.501 675.39 677.287 679.167 681.04 682.936 684.846 686.756 688.667 690.738 692.988 695.239 697.491 699.693 701.336 702.645 703.794 704.933 707.349 710.052 712.756 716.136 717.325 718.058 718.641 719.223 719.806 721.727 723.647 725.567 727.171 727.821 728.782 729.846 731.369 733.722 736.073 738.468 740.883 743.321 745.759 748.187 748.552 748.914 749.276 749.637 750.001 752.118 754.234 756.349 758.459 760.561 763.064 765.565 768.11 770.688 773.261 775.131 777.01 778.894 780.777 782.782 783.505 784.228 784.95 785.676 786.407 789.103 791.753 794.399 797.025 799.639 802.27 804.881 807.437 809.987 812.477 813.085 813.676 814.252 814.829 815.428 817.29 819.147 821 822.813 824.568 826.887 829.196 831.34 833.331 835.31 836.977 838.494 839.914 841.328 843.004 843.204 843.405 843.605 843.798 843.971 845.333 846.618 847.888 848.994 849.903 850.693 851.47 851.888 851.92 851.938 851.817 851.323 850.708 850.085 849.297 849.251 849.204 849.157 849.103 849.003 847.49 845.867 844.223 842.394 840.058 837.413 834.753 831.449 827.541 823.616 819.329 814.672 809.36 803.978 798.001 793.408 788.219 783.026 777.828 771.232 769.5 767.766 766.032 764.296 762.379 753.332 743.903 734.449 724.878 713.828 702.15 690.335 678.347 666.023 653.623 640.562 627.491 611.143 591.628 572.085 551.62 531.973 514.694 498.6 483.73 468.137 439.974 410.13 380.372 343.591 315.254 299.299 283.47 267.765 253.909 250.795 247.68 244.565 241.45 240.311 204.86 165.333 126.382 87.9903 0