# vtk DataFile Version 2.0
track0
ASCII
DATASET POLYDATA
POINTS 11960 float
-0.0205 0.001 1e-005
-0.0203851 0.00100536 1.50241e-005
-0.0202701 0.00101047 1.96636e-005
-0.0201551 0.00101536 2.39713e-005
-0.0200401 0.00102 2.79425e-005
-0.0198625 0.00102682 3.35473e-005
-0.0196934 0.00103276 3.8095e-005
-0.0195243 0.0010381 4.16108e-005
-0.0193552 0.00104282 4.41037e-005
-0.019186 0.00104694 4.5583e-005
-0.0190172 0.00105044 4.60572e-005
-0.0187132 0.00105596 4.60572e-005
-0.0184093 0.00106084 4.60572e-005
-0.0181054 0.0010652 4.60572e-005
-0.0178014 0.00106903 4.60572e-005
-0.0174976 0.00107235 4.60572e-005
-0.0172058 0.00107524 4.60572e-005
-0.016914 0.00107805 4.60572e-005
-0.0166222 0.0010808 4.60572e-005
-0.0163305 0.00108348 4.60572e-005
-0.0160387 0.00108609 4.60572e-005
-0.0157586 0.0010885 4.60572e-005
-0.0154784 0.00109084 4.60572e-005
-0.0151983 0.00109309 4.60572e-005
-0.0149182 0.00109526 4.60572e-005
-0.0146381 0.00109734 4.60572e-005
-0.0143692 0.00109922 4.60572e-005
-0.0141002 0.00110099 4.60572e-005
-0.0138313 0.0011027 4.60572e-005
-0.0135624 0.00110432 4.60572e-005
-0.0132934 0.00110586 4.60572e-005
-0.0130353 0.00110727 4.60572e-005
-0.0127771 0.00110862 4.60572e-005
-0.0125189 0.00110994 4.60572e-005
-0.0122607 0.00111121 4.60572e-005
-0.0120025 0.00111245 4.60572e-005
-0.0117547 0.0011136 4.60572e-005
-0.0115068 0.00111474 4.60572e-005
-0.0112589 0.00111585 4.60572e-005
-0.0110111 0.00111695 4.60572e-005
-0.0107632 0.00111803 4.60572e-005
-0.0105252 0.00111905 4.60572e-005
-0.0102873 0.00112005 4.60572e-005
-0.0100493 0.00112105 4.60572e-005
-0.00981133 0.00112203 4.60572e-005
-0.00957337 0.001123 4.60572e-005
-0.00934491 0.00112391 4.60572e-005
-0.00911645 0.00112482 4.60572e-005
-0.00888799 0.00112571 4.60572e-005
-0.00865954 0.0011266 4.60572e-005
-0.00843108 0.00112747 4.60572e-005
-0.00821175 0.00112831 4.60572e-005
-0.00799242 0.00112913 4.60572e-005
-0.00777309 0.00112995 4.60572e-005
-0.00755376 0.00113076 4.60572e-005
-0.00733443 0.00113157 4.60572e-005
-0.00712387 0.00113235 4.60572e-005
-0.0069133 0.00113311 4.60572e-005
-0.00670273 0.00113387 4.60572e-005
-0.00649216 0.00113463 4.60572e-005
-0.0062816 0.00113539 4.60572e-005
-0.00607944 0.00113611 4.60572e-005
-0.00587729 0.00113683 4.60572e-005
-0.00567514 0.00113755 4.60572e-005
-0.00547298 0.00113827 4.60572e-005
-0.00527083 0.00113898 4.60572e-005
-0.00507675 0.00113967 4.60572e-005
-0.00488267 0.00114035 4.60572e-005
-0.0046886 0.00114104 4.60572e-005
-0.00449452 0.00114172 4.60572e-005
-0.00430044 0.0011424 4.60572e-005
-0.00411412 0.00114306 4.60572e-005
-0.0039278 0.00114372 4.60572e-005
-0.00374147 0.00114437 4.60572e-005
-0.00355515 0.00114503 4.60572e-005
-0.00336883 0.00114569 4.60572e-005
-0.00318995 0.00114633 4.60572e-005
-0.00301107 0.00114696 4.60572e-005
-0.00283219 0.00114759 4.60572e-005
-0.00265331 0.00114822 4.60572e-005
-0.00247443 0.00114886 4.60572e-005
-0.0023027 0.00114948 4.60572e-005
-0.00213097 0.0011501 4.60572e-005
-0.00195924 0.00115072 4.60572e-005
-0.0017875 0.00115133 4.60572e-005
-0.00161577 0.00115196 4.60572e-005
-0.0014509 0.00115257 4.60572e-005
-0.00128603 0.00115317 4.60572e-005
-0.00112116 0.00115378 4.60572e-005
-0.000956289 0.00115439 4.60572e-005
-0.000791418 0.00115501 4.60572e-005
-0.000633135 0.00115561 4.60572e-005
-0.000474851 0.00115622 4.60572e-005
-0.000316567 0.00115683 4.60572e-005
-0.000158284 0.00115745 4.60572e-005
0 0.00115807 4.60572e-005
0.000105677 0.0011585 4.60572e-005
0.000211355 0.00115893 4.60572e-005
0.000317032 0.00115935 4.60572e-005
0.00042271 0.00115979 4.60572e-005
0.000528387 0.00116023 4.60572e-005
0.000634886 0.00116068 4.60572e-005
0.000741385 0.00116114 4.60572e-005
0.000847885 0.00116159 4.60572e-005
0.000954384 0.00116205 4.60572e-005
0.00106088 0.00116253 4.60572e-005
0.00116821 0.00116302 4.60572e-005
0.00127554 0.0011635 4.60572e-005
0.00138286 0.00116399 4.60572e-005
0.00149019 0.00116448 4.60572e-005
0.00159752 0.00116498 4.60572e-005
0.00170568 0.00116549 4.60572e-005
0.00181384 0.00116601 4.60572e-005
0.001922 0.00116652 4.60572e-005
0.00203016 0.00116703 4.60572e-005
0.00213833 0.00116755 4.60572e-005
0.00224733 0.00116807 4.60572e-005
0.00235633 0.0011686 4.60572e-005
0.00246533 0.00116913 4.60572e-005
0.00257434 0.00116966 4.60572e-005
0.00268334 0.00117019 4.60572e-005
0.00279319 0.00117072 4.60572e-005
0.00290304 0.00117126 4.60572e-005
0.00301289 0.00117181 4.60572e-005
0.00312274 0.00117235 4.60572e-005
0.00323259 0.00117289 4.60572e-005
0.00334329 0.00117343 4.60572e-005
0.003454 0.00117399 4.60572e-005
0.0035647 0.00117455 4.60572e-005
0.0036754 0.00117511 4.60572e-005
0.00378611 0.00117566 4.60572e-005
0.00389767 0.00117621 4.60572e-005
0.00400924 0.00117678 4.60572e-005
0.0041208 0.00117735 4.60572e-005
0.00423237 0.00117792 4.60572e-005
0.00434393 0.00117849 4.60572e-005
0.00445636 0.00117904 4.60572e-005
0.00456879 0.00117962 4.60572e-005
0.00468123 0.0011802 4.60572e-005
0.00479366 0.00118078 4.60572e-005
0.00490609 0.00118135 4.60572e-005
0.0050194 0.00118191 4.60572e-005
0.0051327 0.00118249 4.60572e-005
0.00524601 0.00118308 4.60572e-005
0.00535931 0.00118366 4.60572e-005
0.00547262 0.00118425 4.60572e-005
0.00558681 0.00118481 4.60572e-005
0.005701 0.00118539 4.60572e-005
0.00581518 0.00118598 4.60572e-005
0.00592937 0.00118657 4.60572e-005
0.00604356 0.00118716 4.60572e-005
0.00615863 0.00118773 4.60572e-005
0.00627371 0.00118832 4.60572e-005
0.00638878 0.0011889 4.60572e-005
0.00650386 0.00118949 4.60572e-005
0.00661893 0.00119008 4.60572e-005
0.0067349 0.00119065 4.60572e-005
0.00685087 0.00119124 4.60572e-005
0.00696684 0.00119183 4.60572e-005
0.00708281 0.00119242 4.60572e-005
0.00719878 0.001193 4.60572e-005
0.00731565 0.00119358 4.60572e-005
0.00743252 0.00119416 4.60572e-005
0.00754939 0.00119474 4.60572e-005
0.00766626 0.00119533 4.60572e-005
0.00778313 0.00119591 4.60572e-005
0.00790091 0.00119648 4.60572e-005
0.00801869 0.00119706 4.60572e-005
0.00813647 0.00119764 4.60572e-005
0.00825425 0.00119821 4.60572e-005
0.00837203 0.00119879 4.60572e-005
0.00849073 0.00119936 4.60572e-005
0.00860942 0.00119993 4.60572e-005
0.00872812 0.0012005 4.60572e-005
0.00884682 0.00120107 4.60572e-005
0.00896551 0.00120164 4.60572e-005
0.00908513 0.0012022 4.60572e-005
0.00920475 0.00120277 4.60572e-005
0.00932437 0.00120333 4.60572e-005
0.00944398 0.00120389 4.60572e-005
0.0095636 0.00120445 4.60572e-005
0.00968415 0.001205 4.60572e-005
0.0098047 0.00120556 4.60572e-005
0.00992525 0.00120611 4.60572e-005
0.0100458 0.00120666 4.60572e-005
0.0101663 0.00120721 4.60572e-005
0.0102878 0.00120775 4.60572e-005
0.0104093 0.0012083 4.60572e-005
0.0105308 0.00120884 4.60572e-005
0.0106523 0.00120938 4.60572e-005
0.0107738 0.00120991 4.60572e-005
0.0108962 0.00121044 4.60572e-005
0.0110186 0.00121098 4.60572e-005
0.0111411 0.00121151 4.60572e-005
0.0112635 0.00121203 4.60572e-005
0.0113859 0.00121256 4.60572e-005
0.0115093 0.00121307 4.60572e-005
0.0116327 0.00121359 4.60572e-005
0.0117561 0.00121411 4.60572e-005
0.0118795 0.00121462 4.60572e-005
0.0120028 0.00121513 4.60572e-005
0.0121272 0.00121563 4.60572e-005
0.0122515 0.00121613 4.60572e-005
0.0123759 0.00121664 4.60572e-005
0.0125002 0.00121713 4.60572e-005
0.0126245 0.00121762 4.60572e-005
0.0127498 0.0012181 4.60572e-005
0.0128752 0.00121859 4.60572e-005
0.0130005 0.00121907 4.60572e-005
0.0131258 0.00121955 4.60572e-005
0.0132511 0.00122002 4.60572e-005
0.0133774 0.00122048 4.60572e-005
0.0135036 0.00122095 4.60572e-005
0.0136299 0.00122141 4.60572e-005
0.0137562 0.00122187 4.60572e-005
0.0138825 0.00122232 4.60572e-005
0.0140098 0.00122275 4.60572e-005
0.014137 0.0012232 4.60572e-005
0.0142643 0.00122364 4.60572e-005
0.0143915 0.00122407 4.60572e-005
0.0145188 0.00122449 4.60572e-005
0.0146471 0.00122491 4.60572e-005
0.0147753 0.00122532 4.60572e-005
0.0149036 0.00122574 4.60572e-005
0.0150318 0.00122614 4.60572e-005
0.0151601 0.00122654 4.60572e-005
0.0152893 0.00122692 4.60572e-005
0.0154186 0.00122731 4.60572e-005
0.0155478 0.00122769 4.60572e-005
0.0156771 0.00122807 4.60572e-005
0.0158063 0.00122844 4.60572e-005
0.0159366 0.00122879 4.60572e-005
0.0160668 0.00122915 4.60572e-005
0.0161971 0.0012295 4.60572e-005
0.0163274 0.00122984 4.60572e-005
0.0164576 0.00123017 4.60572e-005
0.0165889 0.00123049 4.60572e-005
0.0167201 0.00123081 4.60572e-005
0.0168514 0.00123113 4.60572e-005
0.0169827 0.00123143 4.60572e-005
0.0171139 0.00123173 4.60572e-005
0.0172462 0.00123201 4.60572e-005
0.0173785 0.00123229 4.60572e-005
0.0175108 0.00123256 4.60572e-005
0.0176431 0.00123283 4.60572e-005
0.0177754 0.00123308 4.60572e-005
0.0178302 0.00123318 4.60572e-005
0.017885 0.00123328 4.60572e-005
0.0179398 0.00123338 4.60572e-005
0.0179946 0.00123347 4.60572e-005
0.018048 0.00123357 4.60572e-005
0.0181268 0.0012337 4.60572e-005
0.0182056 0.00123383 4.60572e-005
0.0182844 0.00123396 4.60572e-005
0.0183632 0.00123408 4.60572e-005
0.018442 0.0012342 4.60572e-005
0.0185763 0.0012344 4.60572e-005
0.0187107 0.00123459 4.60572e-005
0.018845 0.00123477 4.60572e-005
0.0189794 0.00123494 4.60572e-005
0.0191137 0.0012351 4.60572e-005
0.0192491 0.00123524 4.60572e-005
0.0193845 0.00123538 4.60572e-005
0.0195199 0.00123551 4.60572e-005
0.0196553 0.00123562 4.60572e-005
0.0197907 0.00123573 4.60572e-005
0.0199272 0.00123582 4.60572e-005
0.0200636 0.0012359 4.60572e-005
0.0202001 0.00123597 4.60572e-005
0.0203365 0.00123603 4.60572e-005
0.020473 0.00123607 4.60572e-005
0.0206105 0.0012361 4.60572e-005
0.020748 0.00123613 4.60572e-005
0.0208855 0.00123613 4.60572e-005
0.021023 0.00123613 4.60572e-005
0.0211606 0.00123611 4.60572e-005
0.0212991 0.00123609 4.60572e-005
0.0214377 0.00123605 4.60572e-005
0.0215763 0.00123599 4.60572e-005
0.0217149 0.00123592 4.60572e-005
0.0218535 0.00123584 4.60572e-005
0.0219931 0.00123575 4.60572e-005
0.0221328 0.00123564 4.60572e-005
0.0222724 0.00123552 4.60572e-005
0.0224121 0.00123538 4.60572e-005
0.0225517 0.00123524 4.60572e-005
0.0226925 0.00123508 4.60572e-005
[...]
POINT_DATA 11960
 FIELD attributes 1
U 3 11960 float
99.9351 	4.66326 	4.36822 99.8182 	4.43766 	4.02815 99.6961 	4.23156 	3.73475 99.5743 	4.0241 	3.43814 99.4528 	3.81526 	3.13828 99.2657 	3.49068 	2.67023 99.1065 	3.12671 	2.06046 98.9463 	2.76449 	1.45832 98.7851 	2.40404 	0.863818 98.623 	2.04538 	0.276987 98.4386 	1.78841 	0 98.0593 	1.57278 	0 97.7007 	1.40075 	0 97.3422 	1.22907 	0 96.9838 	1.05772 	0 96.68 	0.959372 	0 96.3855 	0.928607 	0 96.178 	0.904863 	0 95.9706 	0.881067 	0 95.7632 	0.857219 	0 95.653 	0.823864 	0 95.4701 	0.796067 	0 95.3699 	0.766586 	0 95.2698 	0.737051 	0 95.1697 	0.70746 	0 95.1472 	0.664305 	0 94.9973 	0.628224 	0 94.9115 	0.600343 	0 94.8257 	0.572437 	0 94.74 	0.544504 	0 94.7231 	0.516876 	0 94.5782 	0.494875 	0 94.4865 	0.480449 	0 94.3963 	0.466211 	0 94.3111 	0.452073 	0 94.2879 	0.439307 	0 94.1659 	0.430022 	0 94.0809 	0.423144 	0 94.0005 	0.416552 	0 93.9284 	0.40977 	0 93.9053 	0.401896 	0 93.8155 	0.395871 	0 93.7465 	0.39091 	0 93.682 	0.386176 	0 93.626 	0.381193 	0 93.602 	0.37528 	0 93.5392 	0.370036 	0 93.485 	0.366069 	0 93.4336 	0.362505 	0 93.3887 	0.358865 	0 93.3614 	0.355021 	0 93.3161 	0.350853 	0 93.2728 	0.348014 	0 93.2304 	0.345733 	0 93.1922 	0.343534 	0 93.1629 	0.341507 	0 93.1304 	0.338433 	0 93.0961 	0.336563 	0 93.061 	0.335334 	0 93.028 	0.334276 	0 92.9986 	0.333508 	0 92.9757 	0.33109 	0 92.9491 	0.329841 	0 92.9202 	0.329358 	0 92.8914 	0.329168 	0 92.8628 	0.329392 	0 92.8475 	0.327263 	0 92.8273 	0.326397 	0 92.8034 	0.326528 	0 92.778 	0.327175 	0 92.7508 	0.328428 	0 92.7409 	0.32642 	0 92.7258 	0.325747 	0 92.7058 	0.32633 	0 92.6827 	0.327714 	0 92.6568 	0.329895 	0 92.6509 	0.327767 	0 92.6397 	0.327186 	0 92.6226 	0.328325 	0 92.6015 	0.330762 	0 92.5768 	0.334295 	0 92.5737 	0.332343 	0 92.5655 	0.331928 	0 92.5506 	0.333524 	0 92.5308 	0.336805 	0 92.5075 	0.341299 	0 92.5066 	0.339119 	0 92.5009 	0.338975 	0 92.4877 	0.341971 	0 92.4688 	0.347689 	0 92.4462 	0.355076 	0 92.4462 	0.35456 	0 92.4426 	0.355624 	3.31066e-020 92.4323 	0.359567 	1.26509e-019 92.417 	0.366012 	1.08789e-019 92.3992 	0.373754 	3.34663e-020 92.4026 	0.37247 	1.689e-018 92.4019 	0.373312 	2.72949e-018 92.3936 	0.378148 	2.61398e-018 92.3796 	0.385832 	1.40351e-018 92.3625 	0.395166 	-4.4175e-019 92.3692 	0.393309 	-9.55268e-019 92.3709 	0.394588 	-1.29557e-018 92.3651 	0.400502 	-1.37993e-018 92.3537 	0.409745 	-9.76043e-019 92.3381 	0.421439 	-2.12985e-019 92.3479 	0.419051 	-1.96116e-019 92.3517 	0.419285 	-1.4275e-019 92.3485 	0.42262 	-4.62136e-020 92.3397 	0.429349 	9.17636e-020 92.3259 	0.439195 	2.67807e-019 92.34 	0.437678 	8.7939e-020 92.3461 	0.437084 	-1.54103e-019 92.3447 	0.437373 	-4.55616e-019 92.3371 	0.439966 	-8.47972e-019 92.3225 	0.445176 	-1.34363e-018 92.3406 	0.447777 	-2.40343e-018 92.3479 	0.448578 	-2.75298e-018 92.3468 	0.447982 	-2.55132e-018 92.3388 	0.447383 	-1.83284e-018 92.3213 	0.446782 	-3.86998e-019 92.3425 	0.455323 	1.26745e-018 92.3499 	0.458519 	2.0344e-018 92.3487 	0.45836 	2.24419e-018 92.3403 	0.455788 	1.88463e-018 92.3195 	0.44899 	5.28268e-019 92.3436 	0.462994 	-1.98034e-018 92.3507 	0.467792 	-2.88521e-018 92.3493 	0.467952 	-2.98203e-018 92.3409 	0.464073 	-2.32437e-018 92.3169 	0.451298 	-5.59293e-021 92.3437 	0.468882 	2.30379e-018 92.35 	0.474015 	2.86873e-018 92.3481 	0.474184 	2.73815e-018 92.3395 	0.469789 	2.07642e-018 92.3122 	0.452519 	-8.37109e-020 92.3416 	0.471986 	-1.78091e-018 92.3463 	0.476814 	-2.46092e-018 92.3432 	0.477131 	-2.82756e-018 92.3342 	0.473214 	-2.83042e-018 92.3029 	0.453503 	-1.47665e-018 92.3354 	0.473309 	-2.84078e-018 92.3378 	0.477378 	-2.9342e-018 92.3334 	0.477845 	-2.73668e-018 92.324 	0.474955 	-2.31927e-018 92.2883 	0.454628 	-7.59381e-019 92.3246 	0.473351 	-7.99988e-019 92.3245 	0.476239 	-5.52956e-019 92.3185 	0.476606 	-2.60159e-019 92.3086 	0.474744 	1.91629e-020 92.2674 	0.455114 	1.9106e-019 92.309 	0.471558 	1.5505e-020 92.3054 	0.473018 	0 92.2974 	0.473026 	0 92.287 	0.471931 	0 92.2385 	0.454009 	0 92.2872 	0.467627 	0 92.2791 	0.467748 	-2.80724e-019 92.2687 	0.467316 	-5.72933e-019 92.2577 	0.46671 	-8.67301e-019 92.1996 	0.45107 	-1.34829e-018 92.2569 	0.461723 	-2.37064e-018 92.2435 	0.460854 	-2.37918e-018 92.2302 	0.459985 	-2.38771e-018 92.2168 	0.459116 	-2.39623e-018 92.1486 	0.446365 	-1.40267e-018 92.2135 	0.454049 	4.8871e-019 92.1968 	0.452756 	9.52272e-019 92.1801 	0.451463 	1.4158e-018 92.1635 	0.45017 	1.8793e-018 92.084 	0.439953 	7.38156e-019 92.1573 	0.445314 	1.8906e-018 92.1369 	0.443589 	1.8955e-018 92.1165 	0.441864 	1.90037e-018 92.0961 	0.440139 	1.90521e-018 92.0036 	0.431785 	7.93204e-019 92.086 	0.435546 	5.93506e-019 92.0614 	0.433379 	4.07643e-019 92.0368 	0.431211 	2.21785e-019 92.0121 	0.429043 	3.59336e-020 91.905 	0.421787 	0 91.9969 	0.424703 	-3.9373e-020 91.9676 	0.422159 	-2.25655e-019 91.9384 	0.419615 	-4.11945e-019 91.909 	0.417071 	-5.98241e-019 91.7862 	0.410226 	-7.98456e-019 91.8874 	0.413 	-1.77195e-018 91.8531 	0.410135 	-1.87521e-018 91.8189 	0.407269 	-1.97844e-018 91.7846 	0.404404 	-2.08162e-018 91.6455 	0.39731 	-1.16477e-018 91.755 	0.400375 	-1.6716e-020 91.7155 	0.397191 	1.51542e-019 91.676 	0.394008 	3.19712e-019 91.6365 	0.390823 	4.87794e-019 91.4815 	0.383014 	-4.70265e-019 91.5977 	0.386639 	-3.72572e-019 91.5528 	0.383132 	-2.63287e-019 91.5079 	0.379625 	-1.54008e-019 91.463 	0.376117 	-4.47343e-020 91.293 	0.367283 	-9.86374e-020 91.4133 	0.371539 	0 91.3629 	0.367708 	0 91.3125 	0.363877 	0 91.262 	0.360044 	0 91.0793 	0.350088 	0 91.2002 	0.354887 	5.23227e-020 91.1443 	0.350753 	1.61557e-019 91.0884 	0.346618 	2.70797e-019 91.0324 	0.342482 	3.80045e-019 90.8398 	0.33151 	4.03557e-019 90.9572 	0.336634 	-2.25509e-019 90.8959 	0.332205 	-2.08486e-019 90.8345 	0.327773 	-1.91352e-019 90.7731 	0.323339 	-1.74107e-019 90.5748 	0.311569 	4.13798e-019 90.6835 	0.316637 	3.90437e-019 90.617 	0.311912 	2.9642e-019 90.5503 	0.307184 	2.02412e-019 90.4836 	0.302453 	1.08412e-019 90.2845 	0.290258 	-1.28312e-019 90.3789 	0.29485 	-4.48806e-019 90.3072 	0.289844 	-4.44013e-019 90.2354 	0.284835 	-4.3911e-019 90.1636 	0.279822 	-4.34096e-019 89.9695 	0.267642 	-1.02508e-019 90.0433 	0.271252 	3.12666e-019 89.9667 	0.265955 	1.81075e-019 89.89 	0.260654 	4.93593e-020 89.8132 	0.255349 	-8.24828e-020 89.6304 	0.243659 	-4.61175e-019 89.6771 	0.245732 	-2.04658e-019 89.5959 	0.240123 	-2.14396e-019 89.5146 	0.23451 	-2.24277e-019 89.4332 	0.228891 	-2.34301e-019 89.2687 	0.218191 	-4.68286e-019 89.2816 	0.218209 	-3.96082e-019 89.1961 	0.212285 	-2.94532e-019 89.1105 	0.206355 	-1.92991e-019 89.0247 	0.200419 	-9.14599e-020 88.8856 	0.191202 	-3.19251e-020 88.8581 	0.188705 	0 88.7686 	0.18247 	0 88.679 	0.176228 	0 88.5891 	0.169979 	0 88.4824 	0.162693 	-9.53148e-021 88.4634 	0.161151 	0 88.4251 	0.158459 	0 88.3868 	0.155766 	0 88.3485 	0.153072 	0 88.3111 	0.150444 	0 88.2552 	0.146539 	0 88.1993 	0.142632 	0 88.1434 	0.138721 	0 88.0874 	0.134808 	0 88.0092 	0.130271 	2.16423e-021 87.9303 	0.12382 	9.33128e-020 87.8325 	0.116892 	1.91033e-019 87.7345 	0.109956 	2.88742e-019 87.6364 	0.103011 	3.86438e-019 87.486 	0.0949039 	5.05401e-019 87.4288 	0.0884727 	7.65243e-019 87.3278 	0.0812385 	7.95379e-019 87.2266 	0.0739944 	8.25763e-019 87.1251 	0.0667404 	8.56395e-019 86.951 	0.0584553 	5.04437e-019 86.9077 	0.0514943 	3.69619e-019 86.8038 	0.0439932 	2.70234e-019 86.6996 	0.0364813 	1.70836e-019 86.5952 	0.0289586 	7.14257e-020 86.4062 	0.0211939 	1.32556e-020 86.3699 	0.0131634 	5.62363e-020 86.2633 	0.00543507 	1.35476e-019 86.1564 	-0.00230484 	2.14704e-019 86.0492 	-0.0100564 	2.93922e-019 85.8536 	-0.0166318 	3.24195e-019 85.8184 	-0.0262381 	7.40876e-020 85.7093 	-0.0341548 	6.74187e-020 85.5999 	-0.0420839 	6.06245e-020 85.4903 	-0.0500253 	5.37045e-020 85.2949 	-0.0547965 	3.2182e-019 85.2559 	-0.066433 	1.07411e-018 85.1447 	-0.0745004 	1.17796e-018 85.0331 	-0.0825807 	1.28197e-018 84.9213 	-0.090674 	1.38615e-018 84.7318 	-0.0930975 	7.61683e-019 84.6855 	-0.107151 	6.61348e-019 84.5723 	-0.115338 	6.49542e-019 84.4588 	-0.123539 	6.37683e-019 84.345 	-0.131754 	6.25772e-019 84.1661 	-0.131386 	6.68985e-019 84.1099 	-0.148173 	3.91022e-019 83.9951 	-0.156452 	-2.71537e-019 83.8799 	-0.164744 	-9.34044e-019 83.7644 	-0.173051 	-1.5965e-018 83.5992 	-0.169533 	-2.32267e-018 83.5317 	-0.189263 	-3.82039e-018 83.4154 	-0.197605 	-3.85286e-018 83.2988 	-0.20596 	-3.8856e-018 83.1818 	-0.21433 	-3.91862e-018 83.0326 	-0.207418 	-2.06354e-018 82.9532 	-0.230208 	-3.89444e-019 82.8357 	-0.238588 	1.48825e-019 82.7179 	-0.246983 	6.87397e-019 82.5998 	-0.255393 	1.22627e-018 82.4677 	-0.244959 	-1.32446e-021 82.3765 	-0.270811 	-1.30216e-018 82.2582 	-0.279212 	-1.33504e-018 82.1396 	-0.287628 	-1.36815e-018 82.0208 	-0.295003 	-1.34284e-018 81.9059 	-0.282101 	-1.90372e-019 81.8023 	-0.309148 	-2.50712e-020 81.6848 	-0.319345 	2.73551e-019 81.5656 	-0.327768 	5.86258e-019 81.4491 	-0.332641 	8.98575e-019 81.3488 	-0.318817 	1.20909e-018 81.2354 	-0.346368 	8.85589e-019 81.1173 	-0.358862 	8.06162e-019 80.9978 	-0.367284 	7.92841e-019 80.8865 	-0.369472 	8.45755e-019 80.7975 	-0.355102 	1.07455e-018 80.6769 	-0.382821 	8.28336e-019 80.5571 	-0.397695 	4.291e-019 80.4376 	-0.406115 	-4.70439e-020 80.3333 	-0.405561 	-4.62027e-019 80.2533 	-0.391001 	-7.81651e-019 80.1276 	-0.418652 	8.09449e-019 80.0053 	-0.435905 	1.64501e-018 79.8861 	-0.444314 	1.83847e-018 79.7902 	-0.44102 	1.23769e-018 79.717 	-0.426507 	-1.23509e-019 79.588 	-0.453849 	1.21725e-018 79.463 	-0.473395 	2.08204e-018 79.3443 	-0.481787 	2.26721e-018 79.2577 	-0.475844 	1.63123e-018 79.1898 	-0.461618 	5.21415e-019 79.059 	-0.488483 	3.61844e-019 78.9312 	-0.510204 	2.83904e-019 78.8134 	-0.518607 	4.1658e-019 78.7364 	-0.510201 	6.73681e-019 78.6725 	-0.496485 	9.70059e-019 78.5409 	-0.52275 	6.58805e-019 78.4106 	-0.546479 	3.8986e-019 78.2939 	-0.554902 	3.74573e-019 78.2265 	-0.54423 	6.38585e-019 78.1657 	-0.531179 	9.37282e-019 78.034 	-0.556616 	6.23083e-019 77.9013 	-0.582019 	3.08714e-019 77.7871 	-0.589999 	0 77.7282 	-0.577863 	0 77.6696 	-0.565715 	0 77.5383 	-0.590176 	0 77.406 	-0.614663 	0 77.2983 	-0.622297 	-2.46321e-019 77.2413 	-0.611265 	-5.33658e-019 77.1846 	-0.600222 	-8.21064e-019 77.0539 	-0.623654 	-5.17746e-019 76.9222 	-0.64711 	-2.14279e-019 76.8209 	-0.654481 	-4.0825e-019 76.7656 	-0.644652 	-9.82192e-019 76.7106 	-0.634813 	-1.55626e-018 76.5805 	-0.657189 	-9.49395e-019 76.4495 	-0.679586 	-3.42241e-019 76.3545 	-0.686726 	-3.18995e-019 76.3007 	-0.678169 	-8.8684e-019 76.2472 	-0.669605 	-1.4548e-018 76.1177 	-0.690994 	-8.53369e-019 75.9875 	-0.712405 	-2.51666e-019 75.8986 	-0.719352 	-8.802e-020 75.8462 	-0.712042 	-2.41188e-019 75.7941 	-0.704725 	-3.94339e-019 75.6652 	-0.725211 	-1.39882e-018 75.5356 	-0.745716 	-2.40336e-018 75.4526 	-0.752506 	-2.33999e-018 75.4016 	-0.746386 	-1.05593e-018 75.3507 	-0.740262 	2.28206e-019 75.2225 	-0.759947 	6.83993e-020 75.0934 	-0.77965 	-9.16023e-020 75.016 	-0.786318 	-2.46908e-020 74.9662 	-0.781303 	-2.9665e-019 74.9166 	-0.776283 	-5.68643e-019 74.7888 	-0.795273 	-2.7908e-019 74.6624 	-0.813814 	-2.62276e-021 74.5901 	-0.820099 	-7.42943e-020 74.5397 	-0.81685 	-1.51208e-019 74.4912 	-0.812837 	-2.28537e-019 74.3638 	-0.831241 	-1.55613e-019 74.2468 	-0.847341 	-1.52376e-019 74.175 	-0.853852 	-4.37531e-019 74.1215 	-0.853076 	-5.68936e-019 74.0738 	-0.849963 	-6.51025e-019 73.9469 	-0.867889 	-2.80186e-018 73.8394 	-0.88184 	-4.1207e-018 73.768 	-0.888578 	-3.93292e-018 73.7108 	-0.890027 	-2.61871e-018 73.6639 	-0.887711 	-5.03186e-019 73.5373 	-0.905266 	6.36579e-019 73.4395 	-0.917311 	1.30551e-018 73.3684 	-0.924276 	1.5406e-018 73.3071 	-0.927748 	1.21418e-018 73.2607 	-0.92613 	7.00874e-020 73.1345 	-0.943409 	1.41242e-019 73.0464 	-0.953739 	1.17721e-019 72.9754 	-0.960929 	5.13804e-020 72.9098 	-0.966272 	-5.89264e-020 72.8636 	-0.965259 	-3.20375e-019 72.7379 	-0.982345 	-3.92778e-020 72.6595 	-0.991104 	0 72.5886 	-0.998513 	0 72.5183 	-1.00562 	-9.87499e-021 72.4721 	-1.00513 	-2.62634e-019 72.3487 	-1.02176 	-9.41699e-021 72.2781 	-1.02937 	-2.73824e-019 72.2071 	-1.03699 	-5.3828e-019 72.1358 	-1.04462 	-8.02786e-019 72.0855 	-1.04574 	-1.28219e-018 71.9724 	-1.06067 	-2.40669e-018 71.9016 	-1.06849 	-2.02554e-018 71.8304 	-1.07631 	-1.64402e-018 71.759 	-1.08413 	-1.26212e-018 71.7034 	-1.08709 	2.52998e-019 71.6004 	-1.10039 	1.51718e-018 71.5292 	-1.1084 	1.71393e-018 71.4578 	-1.11641 	1.91034e-018 71.3861 	-1.12443 	2.1064e-018 71.3251 	-1.12917 	1.44488e-018 71.2319 	-1.1409 	1.1425e-018 71.1603 	-1.1491 	8.36672e-019 71.0885 	-1.1573 	5.30916e-019 71.0163 	-1.16551 	2.25229e-019 70.9498 	-1.17199 	-3.50012e-020 70.8663 	-1.18223 	-1.98483e-019 70.7942 	-1.19062 	-1.59703e-019 70.7218 	-1.19901 	-1.20703e-019 70.6491 	-1.20741 	-8.14826e-020 70.5769 	-1.21558 	-1.43461e-020 70.5641 	-1.21715 	-1.02811e-020 70.5529 	-1.21848 	-1.02248e-020 70.5417 	-1.21981 	-1.01685e-020 70.5305 	-1.22114 	-1.01123e-020 70.5194 	-1.22245 	-1.00566e-020 70.4564 	-1.22973 	-9.4886e-021 70.3932 	-1.237 	-8.91997e-021 70.3297 	-1.24428 	-8.35071e-021 70.266 	-1.25157 	-7.78082e-021 70.2134 	-1.25751 	1.37361e-020 70.1317 	-1.26756 	2.04481e-019 70.0565 	-1.27637 	2.45379e-019 69.981 	-1.28518 	2.86512e-019 69.9051 	-1.294 	3.27879e-019 69.8533 	-1.29991 	3.62567e-020 69.7631 	-1.31162 	-8.60918e-021 69.6872 	-1.32063 	-6.07718e-021 69.6109 	-1.32965 	-3.54457e-021 69.5343 	-1.33868 	-1.01135e-021 69.4947 	-1.34327 	0 69.3959 	-1.35658 	0 69.3194 	-1.3658 	0 69.2424 	-1.37503 	0 69.1651 	-1.38427 	0 69.1375 	-1.3876 	0 69.0302 	-1.40247 	2.16451e-020 68.9528 	-1.41191 	2.34914e-019 68.8751 	-1.42136 	4.4812e-019 68.7997 	-1.4305 	6.61309e-019 68.7813 	-1.43295 	8.75426e-019 68.6703 	-1.44848 	6.41301e-019 68.5873 	-1.45901 	4.5305e-019 68.5088 	-1.46868 	2.72642e-019 68.446 	-1.47649 	1.87568e-019 68.4259 	-1.47934 	3.5661e-019 68.3147 	-1.49494 	1.49232e-018 68.2225 	-1.50714 	1.76157e-018 68.1432 	-1.51704 	1.44835e-018 68.0928 	-1.52358 	5.87221e-019 68.0709 	-1.52683 	-8.08629e-019 67.9594 	-1.54253 	6.15011e-019 67.8581 	-1.55637 	1.71639e-018 67.7778 	-1.56651 	2.18082e-018 67.7397 	-1.57181 	1.46341e-018 67.716 	-1.57544 	3.39873e-019 67.604 	-1.59126 	1.90466e-019 67.4936 	-1.60672 	7.47083e-020 67.4123 	-1.61709 	4.26501e-019 67.3862 	-1.62117 	9.32768e-019 67.3606 	-1.62517 	1.44101e-018 67.2482 	-1.6411 	1.7203e-018 67.1352 	-1.65704 	1.99943e-018 67.0594 	-1.6673 	1.7853e-018 67.0321 	-1.67167 	1.22023e-018 67.0046 	-1.67605 	6.55126e-019 66.8917 	-1.69213 	-1.02492e-020 66.7782 	-1.70823 	-6.75648e-019 66.7063 	-1.71868 	-8.34583e-019 66.677 	-1.72343 	-4.7944e-019 66.6475 	-1.72817 	-1.24269e-019 66.5341 	-1.74444 	-6.94165e-020 66.42 	-1.76071 	-1.45394e-020 66.3518 	-1.77136 	0 66.3205 	-1.77644 	0 66.2889 	-1.78153 	0 66.1748 	-1.79794 	0 66.0609 	-1.81427 	-3.00784e-021 65.9981 	-1.82479 	-2.02e-019 65.9623 	-1.83064 	-2.27476e-019 65.9286 	-1.83608 	-2.38144e-019 65.8138 	-1.85265 	-1.78934e-018 65.7132 	-1.86756 	-2.8219e-018 65.6489 	-1.87834 	-2.56403e-018 65.6022 	-1.88606 	-1.30665e-018 65.5664 	-1.89187 	5.7427e-019 65.4508 	-1.90861 	1.65288e-018 65.3633 	-1.92215 	2.18845e-018 65.2975 	-1.9332 	2.30426e-018 65.2399 	-1.94279 	1.99446e-018 65.2019 	-1.94897 	7.01127e-019 65.0856 	-1.96591 	5.28713e-019 65.011 	-1.9781 	3.56751e-019 64.9436 	-1.98944 	1.84925e-019 64.8758 	-2.00079 	1.3168e-020 64.835 	-2.00746 	-7.84954e-020 64.7245 	-2.02385 	6.23292e-019 64.6559 	-2.03549 	5.83547e-019 64.5869 	-2.04713 	5.43541e-019 64.5175 	-2.05877 	5.03271e-019 64.4654 	-2.06739 	2.79008e-020 64.3682 	-2.08242 	4.05569e-019 64.298 	-2.09437 	3.62173e-019 64.2273 	-2.10632 	3.18512e-019 64.1562 	-2.11828 	2.74586e-019 64.0929 	-2.12883 	2.97475e-020 64.0176 	-2.14101 	1.84566e-019 63.9547 	-2.15177 	1.43164e-019 63.8914 	-2.16252 	1.01555e-019 63.8278 	-2.17328 	5.97378e-020 63.7674 	-2.18344 	2.00614e-020 63.7573 	-2.18508 	1.35109e-020 63.7472 	-2.18673 	6.95542e-021 63.7371 	-2.18837 	3.94936e-022 63.727 	-2.19002 	-6.17055e-021 63.7193 	-2.19148 	1.58598e-020 63.6426 	-2.20428 	1.39232e-020 63.5672 	-2.2169 	1.00928e-020 63.4912 	-2.22951 	6.26083e-021 63.4148 	-2.24214 	2.42738e-021 63.3583 	-2.25317 	0 63.2674 	-2.26771 	0 63.1901 	-2.2807 	0 63.1122 	-2.2937 	0 63.0339 	-2.3067 	0 62.9938 	-2.31672 	0 62.8883 	-2.33301 	2.88636e-020 62.8091 	-2.3464 	1.75999e-019 62.7293 	-2.3598 	3.23059e-019 62.651 	-2.37305 	4.68637e-019 62.6254 	-2.38225 	5.76201e-019 62.5117 	-2.3996 	-1.56596e-019 62.4239 	-2.41412 	-3.5695e-019 62.3421 	-2.42794 	-4.25652e-019 62.2806 	-2.44018 	-1.99221e-019 62.2527 	-2.44987 	5.07863e-019 62.1373 	-2.4676 	3.70572e-019 62.0341 	-2.48396 	1.64037e-019 61.9502 	-2.49822 	-1.48801e-019 61.9057 	-2.5095 	-2.79476e-019 61.8754 	-2.51969 	-3.43773e-019 61.7582 	-2.53783 	3.23544e-019 61.6402 	-2.55597 	9.91e-019 61.5583 	-2.57042 	1.01437e-018 61.5258 	-2.58116 	4.16115e-019 61.493 	-2.59189 	-1.82126e-019 61.3739 	-2.61047 	-1.13556e-019 61.254 	-2.62906 	-4.48074e-020 61.1757 	-2.64401 	-3.65908e-020 61.1406 	-2.6553 	-9.37028e-020 61.1051 	-2.66659 	-1.50744e-019 60.984 	-2.68563 	-5.95854e-020 60.8622 	-2.70467 	3.17226e-020 60.7873 	-2.72016 	-2.92664e-020 60.7495 	-2.73202 	-6.50868e-020 60.7113 	-2.74389 	-1.00925e-019 60.5881 	-2.7634 	-5.98908e-019 60.4761 	-2.78205 	-9.83123e-019 60.4042 	-2.79778 	-9.81269e-019 60.352 	-2.81144 	-6.06004e-019 60.311 	-2.82392 	-1.72864e-020 60.1855 	-2.84393 	-1.12739e-019 60.0921 	-2.86163 	-1.10952e-019 60.0176 	-2.87794 	-5.06031e-020 59.9477 	-2.89373 	0 59.9037 	-2.90687 	0 59.7775 	-2.92732 	0 59.701 	-2.94425 	0 59.624 	-2.96117 	0 59.5463 	-2.97809 	0 59.4889 	-2.99296 	0 59.3817 	-3.01251 	0 59.3025 	-3.0301 	0 59.2227 	-3.04768 	0 59.1422 	-3.06526 	0 59.066 	-3.08237 	0 59.0346 	-3.08835 	0 59.01 	-3.09388 	0 58.9852 	-3.09941 	0 58.9604 	-3.10493 	0 58.9361 	-3.11034 	0 58.8742 	-3.12304 	0 58.812 	-3.13575 	0 58.7494 	-3.14845 	0 58.6864 	-3.16115 	0 58.6346 	-3.17296 	1.95093e-020 58.5364 	-3.19279 	-1.4815e-020 58.4448 	-3.21169 	-3.9651e-020 58.3524 	-3.23059 	-6.44642e-020 58.2593 	-3.24948 	-8.92546e-020 58.1936 	-3.26622 	-6.70392e-020 58.081 	-3.28811 	-3.04799e-019 57.9858 	-3.30776 	-3.24156e-019 57.8898 	-3.3274 	-3.42847e-019 57.8036 	-3.34626 	-3.14128e-019 57.7408 	-3.36331 	-1.75457e-019 57.6246 	-3.38591 	-9.77115e-020 57.5142 	-3.40769 	-5.45603e-020 57.4144 	-3.42809 	-7.04396e-020 57.3418 	-3.44644 	-1.13253e-019 57.2752 	-3.46431 	-1.62423e-019 57.1551 	-3.48763 	-1.01447e-019 57.0341 	-3.51095 	-4.04195e-020 56.9364 	-3.53191 	-5.07767e-020 56.8664 	-3.55059 	-1.50137e-019 56.7957 	-3.56927 	-2.4952e-019 56.6715 	-3.59332 	-1.48638e-019 56.5463 	-3.61736 	-4.77515e-020 56.4505 	-3.63924 	-9.44532e-020 56.3762 	-3.65872 	-2.03736e-019 56.3011 	-3.6782 	-3.13136e-019 56.1725 	-3.70298 	-2.28354e-019 56.0574 	-3.72674 	-1.44904e-019 55.9613 	-3.74913 	-6.3233e-020 55.87 	-3.77085 	-2.10326e-020 55.7902 	-3.79113 	-6.64493e-020 55.657 	-3.81663 	-3.94416e-019 55.5568 	-3.8398 	-3.48256e-019 55.4561 	-3.86294 	-2.98323e-019 55.3544 	-3.88608 	-2.47985e-019 55.2617 	-3.90805 	-5.88849e-020 55.1732 	-3.92606 	1.71635e-020 55.0988 	-3.94308 	8.81516e-020 55.0239 	-3.96009 	1.59185e-019 54.9485 	-3.9771 	2.30264e-019 54.8771 	-3.99308 	2.97119e-019 54.8466 	-4.00013 	3.20021e-019 54.8159 	-4.00719 	3.42914e-019 54.7852 	-4.01423 	3.658e-019 54.7544 	-4.02128 	3.88677e-019 54.7249 	-4.02796 	4.45298e-019 54.6204 	-4.05298 	6.54209e-019 54.5145 	-4.07752 	7.94656e-019 54.4077 	-4.10205 	9.35594e-019 54.2998 	-4.12657 	1.07703e-018 54.1968 	-4.14945 	8.0159e-019 54.0886 	-4.17671 	1.49694e-018 53.9774 	-4.20198 	1.53717e-018 53.865 	-4.22718 	1.55983e-018 53.7546 	-4.25154 	1.19124e-018 53.6476 	-4.27464 	2.22606e-019 53.5338 	-4.30253 	1.58186e-019 53.4187 	-4.33015 	8.9983e-020 53.3008 	-4.3559 	-2.97105e-021 53.1887 	-4.37961 	-9.30933e-020 53.