# vtk DataFile Version 2.0
track0
ASCII
DATASET POLYDATA
POINTS 11980 float
-0.0205 0.001 1e-005
-0.0202034 0.00100022 1e-005
-0.0199069 0.00100067 1e-005
-0.0196103 0.00100132 1e-005
-0.0193137 0.00100219 1e-005
-0.0190172 0.00100326 1e-005
-0.0187132 0.00100466 1e-005
-0.0184093 0.00100588 1e-005
-0.0181054 0.0010071 1e-005
-0.0178015 0.00100832 1e-005
-0.0174976 0.00100953 1e-005
-0.0172058 0.00101083 1e-005
-0.016914 0.00101193 1e-005
-0.0166222 0.00101303 1e-005
-0.0163305 0.00101413 1e-005
-0.0160387 0.00101522 1e-005
-0.0157586 0.00101636 1e-005
-0.0154784 0.00101744 1e-005
-0.0151983 0.00101856 1e-005
-0.0149182 0.00101971 1e-005
-0.0146381 0.0010209 1e-005
-0.0143744 0.00102208 1e-005
-0.0141107 0.00102327 1e-005
-0.013847 0.00102449 1e-005
-0.0135833 0.00102574 1e-005
-0.0133606 0.00102682 1e-005
-0.0133472 0.00102688 1e-005
-0.0133337 0.00102695 1e-005
-0.0133203 0.00102702 1e-005
-0.0133069 0.00102708 1e-005
-0.0132934 0.00102715 1e-005
-0.0130353 0.00102844 1e-005
-0.0127771 0.00102974 1e-005
-0.0125189 0.00103106 1e-005
-0.0122607 0.00103239 1e-005
-0.0120025 0.00103374 1e-005
-0.0117547 0.00103505 1e-005
-0.0115068 0.00103637 1e-005
-0.0112589 0.00103769 1e-005
-0.0110111 0.00103901 1e-005
-0.0107632 0.00104034 1e-005
-0.0105252 0.00104161 1e-005
-0.0102873 0.00104289 1e-005
-0.0100493 0.00104417 1e-005
-0.00981133 0.00104545 1e-005
-0.00957337 0.00104672 1e-005
-0.00934491 0.00104794 1e-005
-0.00911645 0.00104916 1e-005
-0.00888799 0.00105038 1e-005
-0.00865954 0.0010516 1e-005
-0.00843108 0.00105281 1e-005
-0.00821175 0.00105396 1e-005
-0.00799242 0.00105512 1e-005
-0.00777309 0.00105627 1e-005
-0.00755376 0.00105742 1e-005
-0.00733443 0.00105856 1e-005
-0.00712387 0.00105965 1e-005
-0.0069133 0.00106074 1e-005
-0.00670273 0.00106183 1e-005
-0.00649216 0.00106291 1e-005
-0.0062816 0.00106398 1e-005
-0.00607944 0.001065 1e-005
-0.00587729 0.00106603 1e-005
-0.00567514 0.00106705 1e-005
-0.00547298 0.00106806 1e-005
-0.00527083 0.00106907 1e-005
-0.00507675 0.00107003 1e-005
-0.00488267 0.00107099 1e-005
-0.0046886 0.00107195 1e-005
-0.00449452 0.0010729 1e-005
-0.00430044 0.00107385 1e-005
-0.00411412 0.00107475 1e-005
-0.0039278 0.00107566 1e-005
-0.00374147 0.00107656 1e-005
-0.00355515 0.00107745 1e-005
-0.00336883 0.00107835 1e-005
-0.00318995 0.00107919 1e-005
-0.00301107 0.00108004 1e-005
-0.00283219 0.00108089 1e-005
-0.00265331 0.00108174 1e-005
-0.00247443 0.00108258 1e-005
-0.0023027 0.00108338 1e-005
-0.00213097 0.00108418 1e-005
-0.00195924 0.00108498 1e-005
-0.0017875 0.00108578 1e-005
-0.00161577 0.00108657 1e-005
-0.0014509 0.00108732 1e-005
-0.00128603 0.00108808 1e-005
-0.00112116 0.00108884 1e-005
-0.000956289 0.00108959 1e-005
-0.000791418 0.00109035 1e-005
-0.000633135 0.00109106 1e-005
-0.000474851 0.00109179 1e-005
-0.000316567 0.00109251 1e-005
-0.000158284 0.00109322 1e-005
0 0.00109394 1e-005
0.000105677 0.00109441 1e-005
0.000211355 0.00109488 1e-005
0.000317032 0.00109534 1e-005
0.00042271 0.00109581 1e-005
0.000528387 0.00109627 1e-005
0.000634886 0.00109672 1e-005
0.000741385 0.00109718 1e-005
0.000847885 0.00109763 1e-005
0.000954384 0.00109808 1e-005
0.00106088 0.00109853 1e-005
0.00116821 0.00109897 1e-005
0.00127554 0.00109942 1e-005
0.00138286 0.00109985 1e-005
0.00149019 0.00110028 1e-005
0.00159752 0.00110071 1e-005
0.00170568 0.00110113 1e-005
0.00181384 0.00110154 1e-005
0.001922 0.00110195 1e-005
0.00203016 0.00110235 1e-005
0.00213833 0.00110274 1e-005
0.00224733 0.00110312 1e-005
0.00235633 0.0011035 1e-005
0.00246533 0.00110387 1e-005
0.00257434 0.00110423 1e-005
0.00268334 0.00110458 1e-005
0.00279319 0.00110492 1e-005
0.00290304 0.00110526 1e-005
0.00301289 0.0011056 1e-005
0.00312274 0.00110592 1e-005
0.00323259 0.00110624 1e-005
0.00334329 0.00110654 1e-005
0.003454 0.00110684 1e-005
0.0035647 0.00110714 1e-005
0.0036754 0.00110743 1e-005
0.00378611 0.00110771 1e-005
0.00389767 0.00110798 1e-005
0.00400924 0.00110825 1e-005
0.0041208 0.00110851 1e-005
0.00423237 0.00110876 1e-005
0.00434393 0.00110901 1e-005
0.00445636 0.00110924 1e-005
0.00456879 0.00110947 1e-005
0.00468123 0.0011097 1e-005
0.00479366 0.00110991 1e-005
0.00490609 0.00111012 1e-005
0.0050194 0.00111032 1e-005
0.0051327 0.00111051 1e-005
0.00524601 0.0011107 1e-005
0.00535932 0.00111088 1e-005
0.00547262 0.00111105 1e-005
0.00558681 0.00111121 1e-005
0.005701 0.00111137 1e-005
0.00581518 0.00111152 1e-005
0.00592937 0.00111167 1e-005
0.00604356 0.0011118 1e-005
0.00615863 0.00111193 1e-005
0.00627371 0.00111205 1e-005
0.00638878 0.00111216 1e-005
0.00650386 0.00111227 1e-005
0.00661893 0.00111237 1e-005
0.0067349 0.00111246 1e-005
0.00685087 0.00111254 1e-005
0.00696684 0.00111262 1e-005
0.00708281 0.00111269 1e-005
0.00719878 0.00111275 1e-005
0.0072619 0.00111278 1e-005
0.00732502 0.00111281 1e-005
0.00738815 0.00111283 1e-005
0.00745127 0.00111286 1e-005
0.00751256 0.00111288 1e-005
0.00756667 0.00111289 1e-005
0.00762079 0.00111291 1e-005
0.0076749 0.00111292 1e-005
0.00772902 0.00111293 1e-005
0.00778313 0.00111294 1e-005
0.00790091 0.00111296 1e-005
0.00801869 0.00111297 1e-005
0.00813647 0.00111297 1e-005
0.00825425 0.00111296 1e-005
0.00837203 0.00111295 1e-005
0.00849073 0.00111292 1e-005
0.00860942 0.0011129 1e-005
0.00872812 0.00111286 1e-005
0.00884682 0.00111281 1e-005
0.00896551 0.00111276 1e-005
0.00908513 0.00111269 1e-005
0.00920475 0.00111262 1e-005
0.00932437 0.00111255 1e-005
0.00944398 0.00111246 1e-005
0.0095636 0.00111237 1e-005
0.00968415 0.00111226 1e-005
0.0098047 0.00111215 1e-005
0.00992525 0.00111203 1e-005
0.0100458 0.00111191 1e-005
0.0101663 0.00111177 1e-005
0.0102878 0.00111162 1e-005
0.0104093 0.00111147 1e-005
0.0105308 0.00111131 1e-005
0.0106523 0.00111114 1e-005
0.0107738 0.00111097 1e-005
0.0108962 0.00111077 1e-005
0.0110186 0.00111057 1e-005
0.0111411 0.00111037 1e-005
0.0112635 0.00111016 1e-005
0.0113859 0.00110994 1e-005
0.0115093 0.0011097 1e-005
0.0116327 0.00110946 1e-005
0.0117561 0.00110922 1e-005
0.0118795 0.00110897 1e-005
0.0120028 0.0011087 1e-005
0.0121272 0.00110842 1e-005
0.0122515 0.00110813 1e-005
0.0123759 0.00110784 1e-005
0.0125002 0.00110755 1e-005
0.0126245 0.00110724 1e-005
0.0127498 0.00110691 1e-005
0.0128752 0.00110658 1e-005
0.0130005 0.00110624 1e-005
0.0131258 0.0011059 1e-005
0.0132511 0.00110555 1e-005
0.0133774 0.00110517 1e-005
0.0135036 0.00110479 1e-005
0.0136299 0.00110441 1e-005
0.0137562 0.00110402 1e-005
0.0138825 0.00110362 1e-005
0.0140098 0.0011032 1e-005
0.014137 0.00110278 1e-005
0.0142643 0.00110235 1e-005
0.0143915 0.00110191 1e-005
0.0145188 0.00110146 1e-005
0.0146471 0.00110099 1e-005
0.0147753 0.00110052 1e-005
0.0149036 0.00110004 1e-005
0.0150318 0.00109956 1e-005
0.0151601 0.00109906 1e-005
0.0152893 0.00109854 1e-005
0.0154186 0.00109802 1e-005
0.0155478 0.0010975 1e-005
0.0156771 0.00109696 1e-005
0.0158063 0.00109641 1e-005
0.0159366 0.00109585 1e-005
0.0160668 0.00109528 1e-005
0.0161971 0.00109471 1e-005
0.0163274 0.00109412 1e-005
0.0164576 0.00109352 1e-005
0.0165889 0.00109292 1e-005
0.0167201 0.0010923 1e-005
0.0168514 0.00109167 1e-005
0.0169827 0.00109103 1e-005
0.0171139 0.00109039 1e-005
0.0172462 0.00108974 1e-005
0.0173785 0.00108907 1e-005
0.0175108 0.00108839 1e-005
0.0176431 0.0010877 1e-005
0.0177754 0.00108701 1e-005
0.0179087 0.00108631 1e-005
0.018042 0.00108559 1e-005
0.0181753 0.00108487 1e-005
0.0183087 0.00108413 1e-005
0.018442 0.00108339 1e-005
0.0185763 0.00108264 1e-005
0.0187107 0.00108187 1e-005
0.018845 0.00108109 1e-005
0.0189794 0.0010803 1e-005
0.0191137 0.00107951 1e-005
0.0192491 0.00107872 1e-005
0.0193845 0.00107791 1e-005
0.0195199 0.00107707 1e-005
0.0196553 0.00107623 1e-005
0.0197907 0.00107539 1e-005
0.0199272 0.00107455 1e-005
0.0200636 0.00107369 1e-005
0.0202001 0.00107281 1e-005
0.0203365 0.00107192 1e-005
0.020473 0.00107103 1e-005
0.0206105 0.00107014 1e-005
0.020748 0.00106923 1e-005
0.0208855 0.0010683 1e-005
0.021023 0.00106735 1e-005
0.0211606 0.00106642 1e-005
0.0212991 0.00106548 1e-005
0.0214377 0.00106452 1e-005
0.0215763 0.00106354 1e-005
0.0217149 0.00106255 1e-005
0.0218535 0.00106156 1e-005
0.0219931 0.00106058 1e-005
0.0221328 0.00105957 1e-005
0.0222724 0.00105854 1e-005
0.0224121 0.0010575 1e-005
0.0225517 0.00105646 1e-005
0.0226925 0.00105543 1e-005
0.0228332 0.00105437 1e-005
0.022974 0.00105329 1e-005
0.0231147 0.0010522 1e-005
0.0232555 0.00105112 1e-005
0.0233973 0.00105003 1e-005
0.0235391 0.00104893 1e-005
0.023681 0.00104779 1e-005
0.0238228 0.00104665 1e-005
0.0239647 0.00104552 1e-005
0.0241076 0.00104439 1e-005
0.0242505 0.00104323 1e-005
0.0243935 0.00104205 1e-005
0.0245364 0.00104085 1e-005
0.0246794 0.00103967 1e-005
0.0248234 0.00103849 1e-005
0.0249675 0.00103728 1e-005
0.0251115 0.00103605 1e-005
0.0252556 0.00103481 1e-005
0.0253996 0.00103357 1e-005
0.0255448 0.00103234 1e-005
0.02569 0.00103108 1e-005
0.0258351 0.0010298 1e-005
0.0259803 0.00102851 1e-005
0.0261255 0.00102723 1e-005
0.0262718 0.00102594 1e-005
0.0264181 0.00102463 1e-005
0.0265644 0.0010233 1e-005
0.0267107 0.00102196 1e-005
0.026857 0.00102062 1e-005
0.0270044 0.00101929 1e-005
0.0271519 0.00101792 1e-005
0.0272993 0.00101654 1e-005
0.0274468 0.00101515 1e-005
0.0275942 0.00101376 1e-005
0.0277428 0.00101237 1e-005
0.0278914 0.00101095 1e-005
0.0280399 0.00100952 1e-005
0.0281885 0.00100807 1e-005
0.0283371 0.00100663 1e-005
0.0284869 0.00100519 1e-005
0.0286366 0.00100371 1e-005
0.0287863 0.00100222 1e-005
0.0289361 0.00100073 1e-005
0.0290858 0.000999227 1e-005
0.0292367 0.000997725 1e-005
0.0293876 0.000996193 1e-005
0.0295385 0.00099465 1e-005
0.0296894 0.000993099 1e-005
0.0298403 0.000991541 1e-005
0.0299924 0.00098998 1e-005
0.0301445 0.000988389 1e-005
0.0302966 0.00098679 1e-005
0.0304486 0.000985182 1e-005
0.0306007 0.000983566 1e-005
0.030754 0.000981943 1e-005
0.0309072 0.000980294 1e-005
0.0310605 0.000978636 1e-005
0.0312138 0.000976969 1e-005
0.031367 0.000975294 1e-005
0.0315215 0.000973608 1e-005
[...]
POINT_DATA 11980
 FIELD attributes 1
U 3 11980 float
10.0004 	0.00731848 	0 10.0024 	0.0151691 	0 10.0045 	0.0221881 	0 10.0065 	0.029163 	0 10.0085 	0.0360939 	0 10.0135 	0.0463093 	0 10.0163 	0.0402081 	0 10.0207 	0.0401658 	0 10.0252 	0.0401236 	0 10.0296 	0.0400817 	0 10.0356 	0.0445413 	0 10.0385 	0.0378996 	0 10.0424 	0.0378544 	0 10.0464 	0.0378091 	0 10.0504 	0.0377638 	0 10.0545 	0.0408641 	0 10.0567 	0.0387849 	0 10.0592 	0.040093 	0 10.0616 	0.0414028 	0 10.0641 	0.0427141 	0 10.0662 	0.0451716 	0 10.0677 	0.0452818 	0 10.0691 	0.0464836 	0 10.0704 	0.0476865 	0 10.0718 	0.0488905 	0 10.0729 	0.0499085 	0 10.073 	0.0499703 	0 10.073 	0.0500321 	0 10.0731 	0.0500939 	0 10.0732 	0.0501557 	0 10.0732 	0.0502082 	0 10.0738 	0.0508335 	0 10.0743 	0.0514528 	0 10.0748 	0.0520727 	0 10.0753 	0.0526932 	0 10.0758 	0.0531496 	0 10.0757 	0.0534438 	0 10.0754 	0.0536325 	0 10.075 	0.0538214 	0 10.0747 	0.0540104 	0 10.0742 	0.053961 	0 10.0737 	0.0541041 	0 10.0727 	0.054079 	0 10.0716 	0.0540537 	0 10.0705 	0.0540285 	0 10.069 	0.0537341 	0 10.0686 	0.0538121 	0 10.067 	0.0536764 	0 10.0653 	0.0535406 	0 10.0637 	0.0534048 	0 10.0612 	0.0529825 	0 10.0612 	0.0530336 	0 10.0592 	0.0528361 	0 10.0572 	0.0526385 	0 10.0552 	0.0524409 	0 10.0516 	0.051944 	0 10.0522 	0.0519928 	0 10.0499 	0.0517677 	0 10.0476 	0.0515426 	0 10.0453 	0.0513174 	0 10.0407 	0.0507848 	0 10.0422 	0.0508518 	0 10.0397 	0.0506204 	0 10.0372 	0.050389 	0 10.0347 	0.0501575 	0 10.029 	0.0496052 	0 10.0314 	0.0496961 	0 10.0288 	0.0494734 	0 10.0262 	0.0492507 	0 10.0235 	0.0490279 	0 10.0167 	0.048476 	0 10.0203 	0.0485981 	0 10.0176 	0.0483842 	0 10.0149 	0.0481702 	0 10.0122 	0.0479562 	0 10.0041 	0.0473955 	0 10.009 	0.0475461 	0 10.0063 	0.0473736 	0 10.0036 	0.0472011 	0 10.0008 	0.0470286 	0 9.99163 	0.0465171 	0 9.99781 	0.0467232 	0 9.99514 	0.0465497 	0 9.99247 	0.0463762 	0 9.9898 	0.0462026 	0 9.97939 	0.0456354 	0 9.98694 	0.0458339 	0 9.98435 	0.0457773 	0 9.98176 	0.0457207 	0 9.97916 	0.045664 	0 9.96759 	0.0452722 	0 9.97659 	0.0455251 	9.23003e-022 9.97458 	0.0453358 	5.9577e-021 9.97257 	0.0451464 	1.09926e-020 9.97056 	0.044957 	1.60276e-020 9.95849 	0.0443174 	1.36228e-020 9.96869 	0.0443923 	9.34446e-020 9.96686 	0.0440511 	8.67169e-020 9.96502 	0.0437098 	7.99852e-020 9.96319 	0.0433685 	7.32496e-020 9.9509 	0.0426693 	-1.48518e-020 9.96093 	0.0426264 	-4.02548e-020 9.95914 	0.0423313 	-4.47904e-020 9.95735 	0.0420362 	-4.93244e-020 9.95555 	0.041741 	-5.3857e-020 9.94347 	0.0411687 	-2.12767e-020 9.95304 	0.0409763 	-1.87132e-020 9.95111 	0.0404264 	-1.30314e-020 9.94918 	0.0398764 	-7.35002e-021 9.94725 	0.0393263 	-1.66905e-021 9.93541 	0.0385478 	6.95624e-021 9.94457 	0.0382356 	-5.72978e-021 9.94246 	0.0374349 	-2.41957e-020 9.94034 	0.0366341 	-4.26636e-020 9.93822 	0.0358332 	-6.11336e-020 9.92649 	0.0347687 	-8.71303e-020 9.93508 	0.0345169 	-1.22712e-019 9.93262 	0.0337012 	-1.10436e-019 9.93016 	0.0328853 	-9.81531e-020 9.92769 	0.0320692 	-8.58623e-020 9.91599 	0.0308731 	-2.9715e-020 9.92383 	0.0307441 	3.36017e-020 9.92098 	0.030006 	4.69714e-020 9.91813 	0.0292677 	6.03318e-020 9.91527 	0.0285291 	7.36829e-020 9.90364 	0.027309 	3.65294e-020 9.91065 	0.0272241 	-4.51809e-020 9.90743 	0.0265237 	-5.11887e-020 9.9042 	0.0258231 	-5.71824e-020 9.90097 	0.0251222 	-6.31619e-020 9.88952 	0.023912 	-3.39207e-022 9.89558 	0.0237897 	5.88152e-020 9.89195 	0.0230959 	4.94786e-020 9.88832 	0.0224018 	4.01279e-020 9.88468 	0.0217074 	3.0763e-020 9.87349 	0.0205435 	-2.85683e-020 9.8784 	0.0203556 	-8.22377e-020 9.87432 	0.0196683 	-1.0422e-019 9.87024 	0.0189807 	-1.26196e-019 9.86615 	0.0182929 	-1.48168e-019 9.85532 	0.0172087 	-1.35829e-019 9.85886 	0.0169504 	-1.54174e-019 9.85431 	0.0162745 	-1.41847e-019 9.84975 	0.0155982 	-1.29516e-019 9.84519 	0.0149217 	-1.17181e-019 9.83488 	0.0139342 	-8.31263e-020 9.83679 	0.0136126 	-6.97205e-020 9.83176 	0.0129536 	-5.14033e-020 9.82673 	0.0122943 	-3.30877e-020 9.8217 	0.0116347 	-1.47739e-020 9.81214 	0.0107483 	1.944e-021 9.81211 	0.0103585 	0 9.80663 	0.0097123 	0 9.80113 	0.00906582 	0 9.79563 	0.00841905 	0 9.78712 	0.00762916 	0 9.78481 	0.00715703 	-1.66154e-020 9.77887 	0.0065175 	-3.53899e-020 9.77292 	0.00587766 	-5.41662e-020 9.76697 	0.00523751 	-7.29441e-020 9.75985 	0.00454393 	-9.22199e-020 9.75779 	0.00426578 	-9.52231e-020 9.75434 	0.00392389 	-9.56212e-020 9.75089 	0.00358191 	-9.60177e-020 9.74743 	0.00323983 	-9.64128e-020 9.74408 	0.00290759 	-9.67949e-020 9.74108 	0.00261255 	-9.76506e-020 9.73808 	0.00231743 	-9.85067e-020 9.73508 	0.00202224 	-9.9363e-020 9.73207 	0.00172697 	-1.0022e-019 9.72612 	0.00129994 	-1.00209e-019 9.72194 	0.000791826 	-7.53879e-020 9.71503 	0.000162775 	-4.65791e-020 9.70812 	-0.000466657 	-1.77796e-020 9.70119 	-0.00109647 	1.10105e-020 9.68493 	-0.00213482 	4.9255e-020 9.68619 	-0.00238688 	5.0116e-020 9.67886 	-0.00300919 	5.12508e-020 9.67151 	-0.00363191 	5.23834e-020 9.66415 	-0.00425504 	5.35138e-020 9.64122 	-0.00553645 	5.68314e-020 9.64779 	-0.00556237 	4.47584e-020 9.64004 	-0.00617807 	3.26827e-020 9.63229 	-0.00679422 	2.06059e-020 9.62453 	-0.00741082 	8.52797e-021 9.59524 	-0.0088921 	-1.10108e-021 9.60683 	-0.00873429 	-8.02256e-021 9.5987 	-0.00934376 	-1.95476e-020 9.59055 	-0.00995371 	-3.10715e-020 9.5824 	-0.0105641 	-4.25943e-020 9.54724 	-0.012194 	-5.41329e-020 9.56345 	-0.0119022 	-5.38097e-020 9.55496 	-0.0125074 	-6.11217e-020 9.54645 	-0.0131131 	-6.84306e-020 9.53794 	-0.0137193 	-7.57365e-020 9.49751 	-0.0154437 	-9.46821e-020 9.51783 	-0.0150685 	-1.50836e-019 9.50901 	-0.0156698 	-1.41438e-019 9.50016 	-0.0162717 	-1.32053e-019 9.49131 	-0.0168741 	-1.2268e-019 9.44629 	-0.0186334 	-4.13517e-020 9.47016 	-0.0182262 	-2.63252e-020 9.46102 	-0.0188231 	-1.84331e-020 9.45187 	-0.0194206 	-1.05402e-020 9.4427 	-0.0200187 	-2.64662e-021 9.3938 	-0.0217552 	0 9.42064 	-0.0213639 	0 9.41121 	-0.0219574 	0 9.40177 	-0.0225515 	0 9.39231 	-0.0231461 	0 9.3403 	-0.0248098 	0 9.36949 	-0.0244808 	1.5223e-021 9.3598 	-0.0250728 	8.86776e-021 9.3501 	-0.0256655 	1.62125e-020 9.34038 	-0.0262588 	2.35564e-020 9.28599 	-0.0278027 	4.15329e-020 9.31695 	-0.0275846 	1.60978e-019 9.30703 	-0.0281759 	1.63885e-019 9.29709 	-0.0287678 	1.66805e-019 9.28713 	-0.0293604 	1.6974e-019 9.23109 	-0.0307332 	4.17234e-020 9.26305 	-0.0306727 	2.22642e-020 9.25313 	-0.0312586 	1.56354e-020 9.24298 	-0.0318486 	9.07221e-021 9.22979 	-0.0324757 	3.91061e-021 9.17578 	-0.0335945 	1.76318e-020 9.20421 	-0.0337689 	1.0445e-019 9.19835 	-0.034308 	1.15496e-019 9.18801 	-0.034895 	1.16702e-019 9.17064 	-0.0355293 	1.00731e-019 9.12024 	-0.0363826 	4.02053e-021 9.14531 	-0.0367739 	-9.87578e-020 9.14291 	-0.0373135 	-1.29991e-019 9.13241 	-0.0378973 	-1.40181e-019 9.11156 	-0.0384882 	-1.28483e-019 9.06462 	-0.039096 	-6.15768e-020 9.08652 	-0.0396846 	-1.77914e-019 9.08702 	-0.0402674 	-2.19178e-019 9.07639 	-0.0408477 	-2.21415e-019 9.05273 	-0.0413508 	-1.73065e-019 9.00909 	-0.041735 	-4.70488e-020 9.02803 	-0.0425005 	-2.49127e-020 9.03091 	-0.0431638 	-1.08262e-020 9.02016 	-0.0437405 	-3.57497e-021 8.9943 	-0.0441176 	0 8.95376 	-0.0443007 	0 8.96996 	-0.045223 	0 8.97476 	-0.0459983 	0 8.96391 	-0.0465713 	0 8.93641 	-0.046791 	2.05109e-021 8.89878 	-0.0467956 	5.3513e-021 8.91246 	-0.0478548 	2.20439e-021 8.91875 	-0.0487678 	0 8.90782 	-0.0493371 	0 8.87918 	-0.0493743 	2.43844e-021 8.84424 	-0.0492225 	5.74275e-021 8.85561 	-0.0503998 	2.5953e-021 8.86304 	-0.0514707 	1.15412e-021 8.85206 	-0.0520365 	7.73793e-021 8.8227 	-0.0518721 	2.4448e-020 8.79026 	-0.0515851 	4.28575e-020 8.79953 	-0.0528622 	1.67888e-019 8.80778 	-0.0541057 	2.86971e-019 8.79676 	-0.0546682 	2.90403e-019 8.76705 	-0.0542892 	1.68395e-019 8.7369 	-0.0538873 	4.33655e-020 8.74428 	-0.0552479 	2.52195e-020 8.75162 	-0.05661 	7.07474e-021 8.74037 	-0.0571292 	3.13106e-022 8.71231 	-0.0566314 	3.49255e-021 8.68427 	-0.0561332 	6.67186e-021 8.68995 	-0.0575612 	3.65299e-021 8.69557 	-0.0589906 	6.34905e-022 8.68468 	-0.0594795 	2.01216e-021 8.65855 	-0.0589039 	-1.90777e-021 8.63243 	-0.0583279 	-5.82675e-021 8.63657 	-0.0598095 	-4.90944e-020 8.64066 	-0.0612927 	-9.23657e-020 8.63018 	-0.0617517 	-9.37316e-020 8.6058 	-0.0611141 	-5.41419e-020 8.58144 	-0.0604761 	-1.45503e-020 8.58422 	-0.0620009 	8.43783e-020 8.58694 	-0.0635273 	1.83302e-019 8.57689 	-0.0639575 	1.91849e-019 8.55411 	-0.0632706 	1.09463e-019 8.53136 	-0.0625832 	2.70763e-020 8.53292 	-0.0641431 	1.57339e-020 8.53443 	-0.0657046 	4.38824e-021 8.52485 	-0.0661075 	4.42844e-022 8.50352 	-0.0653823 	5.04553e-021 8.48222 	-0.0646565 	9.65001e-021 8.48272 	-0.0662427 	4.13965e-021 8.48316 	-0.0678304 	-1.37567e-021 8.47408 	-0.0682072 	-2.0768e-020 8.45406 	-0.0674545 	-7.07096e-020 8.43406 	-0.0667012 	-1.20654e-019 8.43362 	-0.068299 	-2.51387e-019 8.43313 	-0.0698984 	-3.82114e-019 8.42456 	-0.0702501 	-3.66991e-019 8.40572 	-0.0694861 	-2.17144e-019 8.38691 	-0.0687215 	-6.72984e-020 8.38565 	-0.0703186 	5.64317e-020 8.38431 	-0.0719134 	1.79812e-019 8.37596 	-0.0722113 	1.77433e-019 8.35851 	-0.0714877 	9.03487e-020 8.34077 	-0.0707284 	3.4993e-022 8.33878 	-0.0723206 	-8.8979e-020 8.33589 	-0.073735 	-1.67196e-019 8.32769 	-0.0740389 	-1.76482e-019 8.31243 	-0.0734792 	-1.14284e-019 8.29566 	-0.0727337 	-3.67373e-020 8.29303 	-0.0743169 	-2.55087e-020 8.28887 	-0.0755495 	-1.43791e-020 8.28082 	-0.075861 	-3.50294e-021 8.26745 	-0.0754697 	1.39365e-020 8.25157 	-0.0747442 	3.4496e-020 8.24837 	-0.0763157 	1.27299e-020 8.2432 	-0.0773682 	-2.40552e-021 8.23529 	-0.0776888 	-8.1986e-021 8.22357 	-0.0774678 	-3.00785e-021 8.20849 	-0.0767676 	1.1897e-020 8.20479 	-0.0783264 	-4.59601e-021 8.19882 	-0.0792032 	-1.54767e-020 8.19104 	-0.0795344 	-2.18683e-020 8.18075 	-0.0794833 	-3.40759e-020 8.16641 	-0.0788124 	-5.57058e-020 8.16227 	-0.0803579 	5.2703e-020 8.15568 	-0.0810647 	8.71972e-020 8.14802 	-0.0814081 	8.96618e-020 8.13897 	-0.0815252 	7.01453e-020 8.1253 	-0.0808869 	-2.26754e-020 8.12076 	-0.0824194 	6.88764e-020 8.11371 	-0.0829629 	8.6167e-020 8.10618 	-0.0833198 	8.94385e-020 8.0982 	-0.0836024 	8.65332e-020 8.08515 	-0.0829991 	1.03539e-020 8.08026 	-0.0845192 	-5.66515e-022 8.07288 	-0.0849064 	-4.84822e-022 8.06546 	-0.0852783 	-2.51424e-022 8.05802 	-0.0856504 	-1.80485e-023 8.04591 	-0.0851566 	1.83588e-020 8.04044 	-0.0865158 	0 8.03313 	-0.0869037 	0 8.02581 	-0.0872918 	0 8.01848 	-0.0876801 	0 8.00758 	-0.087367 	1.5357e-020 8.00163 	-0.0885574 	0 7.99442 	-0.0889627 	0 7.9872 	-0.0893683 	0 7.97995 	-0.0897741 	0 7.97012 	-0.0896379 	0 7.96381 	-0.0906674 	0 7.95669 	-0.0910914 	0 7.94955 	-0.0915157 	0 7.94239 	-0.0919402 	0 7.93348 	-0.0919769 	-8.6716e-021 7.92692 	-0.0928532 	0 7.91988 	-0.0932972 	0 7.91282 	-0.0937414 	0 7.90575 	-0.0941859 	0 7.89764 	-0.0943913 	-1.0971e-020 7.89091 	-0.0951222 	0 7.88394 	-0.0955871 	0 7.87696 	-0.0960523 	0 7.86995 	-0.0965177 	0 7.86255 	-0.0968877 	-4.46372e-021 7.85788 	-0.0973288 	-6.00474e-021 7.85313 	-0.0976639 	-1.31243e-020 7.84837 	-0.0979991 	-2.02443e-020 7.84361 	-0.0983343 	-2.7365e-020 7.83896 	-0.0986606 	-3.42913e-020 7.83671 	-0.098815 	-3.73438e-020 7.83445 	-0.0989695 	-4.03962e-020 7.83219 	-0.0991239 	-4.34484e-020 7.82993 	-0.0992785 	-4.65005e-020 7.82792 	-0.099384 	-4.95547e-020 7.8208 	-0.0999396 	-4.83995e-020 7.81376 	-0.100451 	-4.77805e-020 7.80669 	-0.100963 	-4.71589e-020 7.79961 	-0.101476 	-4.65346e-020 7.79354 	-0.101788 	-4.81851e-020 7.78617 	-0.102505 	-3.77491e-020 7.77917 	-0.10304 	-2.73016e-020 7.77215 	-0.103577 	-1.68528e-020 7.76511 	-0.104113 	-6.40258e-021 7.75986 	-0.104304 	0 7.75223 	-0.105178 	-2.81997e-021 7.74527 	-0.105739 	-7.63331e-021 7.73829 	-0.106301 	-1.24459e-020 7.73129 	-0.106863 	-1.72578e-020 7.72683 	-0.10694 	-2.20346e-020 7.71893 	-0.107967 	-5.07467e-020 7.712 	-0.108555 	-7.04986e-020 7.70505 	-0.109144 	-9.02521e-020 7.69808 	-0.109733 	-1.10007e-019 7.69438 	-0.109701 	-1.03314e-019 7.68621 	-0.110879 	-8.12345e-020 7.67931 	-0.111495 	-7.01332e-020 7.67238 	-0.112111 	-5.90259e-020 7.66543 	-0.112728 	-4.79123e-020 7.66248 	-0.112596 	-6.89278e-020 7.65404 	-0.113921 	-8.21602e-020 7.64715 	-0.114566 	-6.36852e-020 7.64024 	-0.115212 	-4.5215e-020 7.63367 	-0.11579 	-2.54877e-020 7.63108 	-0.115632 	7.8281e-021 7.62262 	-0.116987 	1.22238e-020 7.61547 	-0.117777 	8.75674e-021 7.60857 	-0.118454 	3.7081e-021 7.60278 	-0.118922 	0 7.60012 	-0.118815 	0 7.59169 	-0.120183 	0 7.58423 	-0.121132 	0 7.57733 	-0.12184 	0 7.57229 	-0.122206 	0 7.56956 	-0.12215 	0 7.56115 	-0.123533 	0 7.55338 	-0.124637 	-7.71637e-021 7.54647 	-0.125378 	-2.54423e-020 7.54216 	-0.125647 	-4.32173e-020 7.53935 	-0.125644 	-6.10217e-020 7.53095 	-0.127044 	-4.1845e-020 7.52286 	-0.1283 	-2.16906e-020 7.51594 	-0.129075 	1.70844e-021 7.51233 	-0.129252 	9.21186e-021 7.50944 	-0.129302 	1.3335e-020 7.50104 	-0.13072 	4.59229e-020 7.49263 	-0.132126 	7.82165e-020 7.48575 	-0.132924 	9.68326e-020 7.48276 	-0.133027 	8.19002e-020 7.47977 	-0.13313 	6.69664e-020 7.47137 	-0.134569 	4.29685e-020 7.46292 	-0.136008 	1.89622e-020 7.45648 	-0.13682 	2.00905e-021 7.45339 	-0.136976 	1.13792e-020 7.45029 	-0.137133 	2.075e-020 7.44188 	-0.138593 	8.42097e-020 7.43342 	-0.140054 	1.47672e-019 7.42737 	-0.140896 	1.48319e-019 7.42417 	-0.141106 	8.54706e-020 7.42096 	-0.141315 	2.26211e-020 7.41253 	-0.142799 	1.40296e-020 7.40405 	-0.144283 	5.44158e-021 7.39838 	-0.145156 	5.62977e-021 7.39506 	-0.145419 	1.47805e-020 7.39173 	-0.145682 	2.39321e-020 7.38327 	-0.147191 	8.59452e-020 7.37476 	-0.148699 	1.47961e-019 7.36944 	-0.149605 	1.48641e-019 7.36599 	-0.149921 	8.72684e-020 7.36252 	-0.150237 	2.58939e-020 7.35403 	-0.151771 	1.7547e-020 7.34562 	-0.153282 	9.19981e-021 7.34064 	-0.154196 	7.57082e-022 7.33692 	-0.154614 	0 7.33331 	-0.154983 	0 7.32477 	-0.156544 	0 7.31708 	-0.157951 	0 7.31198 	-0.158906 	0 7.30779 	-0.159502 	0 7.30403 	-0.159924 	0 7.29543 	-0.161513 	0 7.28844 	-0.16282 	0 7.28322 	-0.163816 	0 7.27855 	-0.164588 	6.83449e-021 7.27463 	-0.165063 	2.27746e-020 7.26597 	-0.16668 	5.23455e-021 7.25965 	-0.167891 	6.04526e-021 7.2543 	-0.168928 	1.46632e-020 7.24916 	-0.169874 	2.4047e-020 7.24506 	-0.170401 	3.69514e-020 7.23633 	-0.172048 	1.23549e-019 7.23066 	-0.173164 	1.3374e-019 7.22517 	-0.174243 	1.38362e-019 7.21965 	-0.175321 	1.42962e-019 7.21527 	-0.17594 	4.60298e-020 7.20701 	-0.177523 	1.34141e-019 7.20141 	-0.178643 	1.22307e-019 7.19577 	-0.179763 	1.10451e-019 7.1901 	-0.180883 	9.85727e-020 7.18521 	-0.181681 	3.81276e-020 7.17761 	-0.183165 	3.14819e-020 7.17186 	-0.184326 	3.19539e-020 7.16606 	-0.185487 	3.24308e-020 7.16023 	-0.186648 	3.29129e-020 7.15482 	-0.187625 	4.80481e-020 7.14787 	-0.189012 	5.40027e-020 7.14195 	-0.190214 	5.15201e-020 7.13599 	-0.191416 	4.90219e-020 7.12998 	-0.192618 	4.65082e-020 7.12406 	-0.193772 	3.96831e-020 7.12156 	-0.194276 	3.33062e-020 7.11934 	-0.19473 	3.11789e-020 7.11711 	-0.195185 	2.90534e-020 7.11488 	-0.19564 	2.69297e-020 7.1127 	-0.196084 	2.48588e-020 7.10869 	-0.196873 	2.06402e-020 7.10466 	-0.197663 	1.6425e-020 7.10061 	-0.198452 	1.22131e-020 7.09655 	-0.199241 	8.00448e-021 7.0932 	-0.199954 	3.77688e-022 7.08635 	-0.201313 	-2.41947e-022 7.07989 	-0.202594 	-1.73977e-022 7.07339 	-0.203876 	-1.05983e-022 7.06683 	-0.205158 	-3.79662e-023 7.06213 	-0.206244 	0 7.05441 	-0.207763 	-6.98345e-021 7.04775 	-0.209085 	-2.08083e-020 7.04104 	-0.210406 	-3.46274e-020 7.03429 	-0.211727 	-4.84408e-020 7.03057 	-0.212735 	-5.95125e-020 7.02192 	-0.214415 	-4.68219e-020 7.01506 	-0.215775 	-3.156e-020 7.00814 	-0.217135 	-1.62921e-020 7.0012 	-0.218493 	-1.05586e-021 6.99844 	-0.219425 	6.3037e-021 6.98916 	-0.221212 	-1.33413e-022 6.98177 	-0.222662 	1.1126e-020 6.97464 	-0.22406 	2.51259e-020 6.96871 	-0.225334 	4.12636e-020 6.96571 	-0.22631 	6.2503e-020 6.95622 	-0.228128 	4.04038e-020 6.94785 	-0.229743 	2.18818e-020 6.94049 	-0.231178 	6.51802e-021 6.93557 	-0.232367 	-1.71471e-021 6.93234 	-0.233386 	-5.06191e-021 6.92261 	-0.235235 	-5.68992e-020 6.91324 	-0.237013 	-9.97882e-020 6.90564 	-0.238485 	-1.03383e-019 6.90176 	-0.239587 	-6.71324e-020 6.89827 	-0.240647 	-2.63603e-020 6.88831 	-0.242526 	-6.77091e-020 6.87828 	-0.244405 	-1.09066e-019 6.87092 	-0.24589 	-1.09404e-019 6.86721 	-0.24699 	-6.59678e-020 6.86346 	-0.24809 	-2.2531e-020 6.85325 	-0.249998 	-6.61028e-020 6.84298 	-0.251906 	-1.0968e-019 6.83588 	-0.253432 	-1.0688e-019 6.83189 	-0.25457 	-5.76172e-020 6.82788 	-0.255708 	-8.3507e-021 6.81741 	-0.257644 	-5.54319e-021 6.80688 	-0.25958 	-2.73782e-021 6.80002 	-0.261146 	0 6.79577 	-0.262321 	0 6.79147 	-0.263495 	0 6.78074 	-0.265458 	0 6.77075 	-0.267344 	0 6.76401 	-0.268915 	0 6.75879 	-0.270235 	0 6.75421 	-0.271444 	0 6.74321 	-0.273432 	0 6.73436 	-0.27521 	-1.6997e-021 6.72734 	-0.276811 	-4.85113e-021 6.72093 	-0.278306 	-4.6626e-021 6.71605 	-0.279548 	3.61504e-021 6.70477 	-0.281559 	-5.4719e-020 6.69708 	-0.283228 	-5.82087e-020 6.68977 	-0.284855 	-5.50463e-020 6.68242 	-0.286482 	-5.18621e-020 6.67696 	-0.287798 	-2.28754e-021 6.66642 	-0.289735 	-8.13528e-021 6.65888 	-0.291388 	6.48986e-022 6.65128 	-0.29304 	9.43457e-021 6.64363 	-0.294692 	1.82215e-020 6.63691 	-0.296187 	2.09774e-020 6.62758 	-0.298006 	4.11474e-020 6.61974 	-0.299682 	4.14079e-020 6.61184 	-0.301357 	4.16512e-020 6.60388 	-0.303032 	4.18773e-020 6.59586 	-0.304706 	4.20352e-020 6.59584 	-0.304711 	4.20373e-020 6.59582 	-0.304715 	4.2033e-020 6.5958 	-0.304719 	4.20288e-020 6.59578 	-0.304723 	4.20245e-020 6.59576 	-0.304727 	4.20203e-020 6.58719 	-0.306416 	3.97899e-020 6.57855 	-0.308106 	3.75645e-020 6.56984 	-0.309795 	3.53441e-020 6.56107 	-0.311484 	3.31288e-020 6.55333 	-0.313045 	2.26379e-020 6.54383 	-0.314901 	2.92522e-020 6.53482 	-0.316613 	2.30445e-020 6.52574 	-0.318325 	1.68484e-020 6.5166 	-0.320037 	1.06641e-020 6.50963 	-0.321491 	-1.46525e-020 6.49917 	-0.323509 	-7.40523e-021 6.4898 	-0.325239 	-9.34775e-021 6.48037 	-0.326968 	-1.13293e-020 6.47159 	-0.328614 	-1.26273e-020 6.46473 	-0.330035 	-1.20508e-020 6.45389 	-0.332064 	-1.0715e-020 6.44352 	-0.33396 	-7.35771e-021 6.43372 	-0.335703 	-1.65341e-021 6.42579 	-0.337229 	3.78035e-021 6.41859 	-0.338666 	9.10616e-021 6.40737 	-0.340704 	4.75079e-021 6.39607 	-0.342741 	3.99386e-022 6.38624 	-0.344472 	0 6.37874 	-0.345922 	0 6.37119 	-0.347373 	0 6.35958 	-0.349417 	0 6.34788 	-0.351461 	0 6.33826 	-0.353221 	0 6.33041 	-0.354682 	0 6.3225 	-0.356143 	0 6.31049 	-0.358192 	0 6.29871 	-0.360207 	5.18783e-022 6.28931 	-0.361955 	5.14608e-021 6.28077 	-0.363496 	9.78633e-021 6.27248 	-0.364965 	1.44338e-020 6.26007 	-0.367016 	1.07187e-020 6.24926 	-0.368885 	9.7407e-021 6.23949 	-0.370635 	1.05611e-020 6.22979 	-0.372352 	1.16118e-020 6.22113 	-0.373825 	1.42998e-020 6.20861 	-0.375844 	-2.54691e-021 6.19852 	-0.377594 	-8.7051e-021 6.18836 	-0.379344 	-1.48505e-020 6.17812 	-0.381093 	-2.0983e-020 6.16842 	-0.382712 	-1.9124e-020 6.1598 	-0.384093 	-1.57494e-020 6.15221 	-0.385361 	-1.33465e-020 6.14458 	-0.386628 	-1.09454e-020 6.13692 	-0.387895 	-8.54602e-021 6.12959 	-0.3891 	-6.26491e-021 6.1267 	-0.389593 	-6.0624e-021 6.1238 	-0.390086 	-5.86147e-021 6.1209 	-0.390579 	-5.66212e-021 6.11799 	-0.391072 	-5.46436e-021 6.11513 	-0.391521 	-2.05171e-021 6.10486 	-0.393319 	5.12107e-021 6.09439 	-0.395064 	5.81625e-021 6.08385 	-0.39681 	6.53647e-021 6.07324 	-0.398555 	7.28184e-021 6.06277 	-0.400097 	-1.99232e-020 6.05255 	-0.402071 	-6.08866e-020 6.04168 	-0.403808 	-7.02951e-020 6.03075 	-0.405545 	-7.97393e-020 6.0198 	-0.407221 	-7.57736e-020 6.00904 	-0.408653 	-1.75935e-020 5.99852 	-0.410657 	-1.51837e-020 5.98761 	-0.41253 	-1.02028e-020 5.97627 	-0.414256 	-2.31631e-021 5.96509 	-0.415755 	7.88828e-021 5.95393 	-0.417177 	1.88978e-020 5.943 	-0.419164 	3.62776e-020 5.93199 	-0.421151 	5.36658e-020 5.92049 	-0.422839 	5.48038e-020 5.90899 	-0.424247 	3.92342e-020 5.89741 	-0.4256