# vtk DataFile Version 2.0
track0
ASCII
DATASET POLYDATA
POINTS 11980 float
-0.0205 0.001 1e-005
-0.0202034 0.00100022 1e-005
-0.0199069 0.00100067 1e-005
-0.0196103 0.00100132 1e-005
-0.0193137 0.00100219 1e-005
-0.0190172 0.00100326 1e-005
-0.0187132 0.00100466 1e-005
-0.0184093 0.00100588 1e-005
-0.0181054 0.0010071 1e-005
-0.0178015 0.00100832 1e-005
-0.0174976 0.00100953 1e-005
-0.0172058 0.00101083 1e-005
-0.016914 0.00101193 1e-005
-0.0166222 0.00101303 1e-005
-0.0163305 0.00101413 1e-005
-0.0160387 0.00101522 1e-005
-0.0157586 0.00101636 1e-005
-0.0154784 0.00101744 1e-005
-0.0151983 0.00101856 1e-005
-0.0149182 0.00101971 1e-005
-0.0146381 0.0010209 1e-005
-0.0143744 0.00102208 1e-005
-0.0141106 0.00102327 1e-005
-0.0138469 0.00102449 1e-005
-0.0135832 0.00102574 1e-005
-0.0133604 0.00102682 1e-005
-0.013347 0.00102688 1e-005
-0.0133336 0.00102695 1e-005
-0.0133202 0.00102702 1e-005
-0.0133068 0.00102708 1e-005
-0.0132934 0.00102715 1e-005
-0.0130353 0.00102844 1e-005
-0.0127771 0.00102974 1e-005
-0.0125189 0.00103106 1e-005
-0.0122607 0.00103239 1e-005
-0.0120025 0.00103374 1e-005
-0.0117547 0.00103505 1e-005
-0.0115068 0.00103636 1e-005
-0.0112589 0.00103768 1e-005
-0.0110111 0.00103901 1e-005
-0.0107632 0.00104034 1e-005
-0.0105252 0.00104161 1e-005
-0.0102873 0.00104289 1e-005
-0.0100493 0.00104417 1e-005
-0.00981133 0.00104544 1e-005
-0.00957337 0.00104672 1e-005
-0.00934491 0.00104794 1e-005
-0.00911645 0.00104916 1e-005
-0.00888799 0.00105038 1e-005
-0.00865954 0.00105159 1e-005
-0.00843108 0.00105281 1e-005
-0.00821175 0.00105396 1e-005
-0.00799242 0.00105512 1e-005
-0.00777309 0.00105627 1e-005
-0.00755376 0.00105742 1e-005
-0.00733443 0.00105856 1e-005
-0.00712387 0.00105965 1e-005
-0.0069133 0.00106074 1e-005
-0.00670273 0.00106182 1e-005
-0.00649216 0.0010629 1e-005
-0.0062816 0.00106398 1e-005
-0.00607944 0.001065 1e-005
-0.00587729 0.00106603 1e-005
-0.00567514 0.00106704 1e-005
-0.00547298 0.00106806 1e-005
-0.00527083 0.00106907 1e-005
-0.00507675 0.00107003 1e-005
-0.00488267 0.00107099 1e-005
-0.0046886 0.00107195 1e-005
-0.00449452 0.0010729 1e-005
-0.00430044 0.00107385 1e-005
-0.00411412 0.00107475 1e-005
-0.0039278 0.00107566 1e-005
-0.00374147 0.00107656 1e-005
-0.00355515 0.00107745 1e-005
-0.00336883 0.00107835 1e-005
-0.00318995 0.00107919 1e-005
-0.00301107 0.00108004 1e-005
-0.00283219 0.00108089 1e-005
-0.00265331 0.00108173 1e-005
-0.00247443 0.00108258 1e-005
-0.0023027 0.00108337 1e-005
-0.00213097 0.00108418 1e-005
-0.00195924 0.00108498 1e-005
-0.0017875 0.00108577 1e-005
-0.00161577 0.00108657 1e-005
-0.0014509 0.00108732 1e-005
-0.00128603 0.00108808 1e-005
-0.00112116 0.00108884 1e-005
-0.000956289 0.00108959 1e-005
-0.000791418 0.00109035 1e-005
-0.000633135 0.00109106 1e-005
-0.000474851 0.00109179 1e-005
-0.000316567 0.00109251 1e-005
-0.000158284 0.00109322 1e-005
0 0.00109393 1e-005
0.000105677 0.0010944 1e-005
0.000211355 0.00109488 1e-005
0.000317032 0.00109534 1e-005
0.00042271 0.00109581 1e-005
0.000528387 0.00109627 1e-005
0.000634886 0.00109672 1e-005
0.000741385 0.00109718 1e-005
0.000847885 0.00109763 1e-005
0.000954384 0.00109808 1e-005
0.00106088 0.00109853 1e-005
0.00116821 0.00109897 1e-005
0.00127554 0.00109941 1e-005
0.00138286 0.00109985 1e-005
0.00149019 0.00110028 1e-005
0.00159752 0.00110071 1e-005
0.00170568 0.00110113 1e-005
0.00181384 0.00110154 1e-005
0.001922 0.00110195 1e-005
0.00203016 0.00110235 1e-005
0.00213833 0.00110274 1e-005
0.00224733 0.00110312 1e-005
0.00235633 0.0011035 1e-005
0.00246533 0.00110387 1e-005
0.00257434 0.00110423 1e-005
0.00268334 0.00110458 1e-005
0.00279319 0.00110493 1e-005
0.00290304 0.00110527 1e-005
0.00301289 0.0011056 1e-005
0.00312274 0.00110592 1e-005
0.00323259 0.00110624 1e-005
0.00334329 0.00110654 1e-005
0.003454 0.00110685 1e-005
0.0035647 0.00110715 1e-005
0.0036754 0.00110743 1e-005
0.00378611 0.00110772 1e-005
0.00389767 0.00110798 1e-005
0.00400924 0.00110825 1e-005
0.0041208 0.00110851 1e-005
0.00423237 0.00110877 1e-005
0.00434393 0.00110901 1e-005
0.00445636 0.00110925 1e-005
0.00456879 0.00110948 1e-005
0.00468123 0.0011097 1e-005
0.00479366 0.00110992 1e-005
0.00490609 0.00111013 1e-005
0.0050194 0.00111032 1e-005
0.0051327 0.00111052 1e-005
0.00524601 0.00111071 1e-005
0.00535932 0.00111088 1e-005
0.00547262 0.00111106 1e-005
0.00558681 0.00111122 1e-005
0.005701 0.00111138 1e-005
0.00581518 0.00111153 1e-005
0.00592937 0.00111167 1e-005
0.00604356 0.0011118 1e-005
0.00615863 0.00111193 1e-005
0.00627371 0.00111205 1e-005
0.00638878 0.00111216 1e-005
0.00650386 0.00111227 1e-005
0.00661893 0.00111237 1e-005
0.0067349 0.00111246 1e-005
0.00685087 0.00111254 1e-005
0.00696684 0.00111262 1e-005
0.00708281 0.00111269 1e-005
0.00719878 0.00111275 1e-005
0.00726191 0.00111278 1e-005
0.00732504 0.00111281 1e-005
0.00738817 0.00111283 1e-005
0.0074513 0.00111286 1e-005
0.0075126 0.00111288 1e-005
0.0075667 0.00111289 1e-005
0.00762081 0.00111291 1e-005
0.00767492 0.00111292 1e-005
0.00772903 0.00111293 1e-005
0.00778313 0.00111294 1e-005
0.00790091 0.00111296 1e-005
0.00801869 0.00111297 1e-005
0.00813647 0.00111297 1e-005
0.00825425 0.00111296 1e-005
0.00837203 0.00111295 1e-005
0.00849073 0.00111292 1e-005
0.00860942 0.00111289 1e-005
0.00872812 0.00111286 1e-005
0.00884682 0.00111281 1e-005
0.00896551 0.00111276 1e-005
0.00908513 0.00111269 1e-005
0.00920475 0.00111262 1e-005
0.00932437 0.00111254 1e-005
0.00944398 0.00111246 1e-005
0.0095636 0.00111237 1e-005
0.00968415 0.00111226 1e-005
0.0098047 0.00111215 1e-005
0.00992525 0.00111203 1e-005
0.0100458 0.0011119 1e-005
0.0101663 0.00111177 1e-005
0.0102878 0.00111161 1e-005
0.0104093 0.00111146 1e-005
0.0105308 0.0011113 1e-005
0.0106523 0.00111114 1e-005
0.0107738 0.00111096 1e-005
0.0108962 0.00111076 1e-005
0.0110186 0.00111057 1e-005
0.0111411 0.00111037 1e-005
0.0112635 0.00111016 1e-005
0.0113859 0.00110994 1e-005
0.0115093 0.0011097 1e-005
0.0116327 0.00110946 1e-005
0.0117561 0.00110921 1e-005
0.0118795 0.00110896 1e-005
0.0120028 0.0011087 1e-005
0.0121272 0.00110841 1e-005
0.0122515 0.00110813 1e-005
0.0123759 0.00110784 1e-005
0.0125002 0.00110754 1e-005
0.0126245 0.00110723 1e-005
0.0127498 0.0011069 1e-005
0.0128752 0.00110657 1e-005
0.0130005 0.00110624 1e-005
0.0131258 0.00110589 1e-005
0.0132511 0.00110554 1e-005
0.0133774 0.00110516 1e-005
0.0135036 0.00110479 1e-005
0.0136299 0.00110441 1e-005
0.0137562 0.00110402 1e-005
0.0138825 0.00110362 1e-005
0.0140098 0.00110319 1e-005
0.014137 0.00110277 1e-005
0.0142643 0.00110234 1e-005
0.0143915 0.0011019 1e-005
0.0145188 0.00110146 1e-005
0.0146471 0.00110099 1e-005
0.0147753 0.00110052 1e-005
0.0149036 0.00110004 1e-005
0.0150318 0.00109955 1e-005
0.0151601 0.00109905 1e-005
0.0152893 0.00109854 1e-005
0.0154186 0.00109802 1e-005
0.0155478 0.00109749 1e-005
0.0156771 0.00109695 1e-005
0.0158063 0.00109641 1e-005
0.0159366 0.00109585 1e-005
0.0160668 0.00109528 1e-005
0.0161971 0.0010947 1e-005
0.0163274 0.00109412 1e-005
0.0164576 0.00109352 1e-005
0.0165889 0.00109291 1e-005
0.0167201 0.0010923 1e-005
0.0168514 0.00109167 1e-005
0.0169827 0.00109103 1e-005
0.0171139 0.00109039 1e-005
0.0172462 0.00108973 1e-005
0.0173785 0.00108907 1e-005
0.0175108 0.00108839 1e-005
0.0176431 0.0010877 1e-005
0.0177754 0.00108701 1e-005
0.0179087 0.00108631 1e-005
0.018042 0.00108559 1e-005
0.0181753 0.00108486 1e-005
0.0183087 0.00108413 1e-005
0.018442 0.00108338 1e-005
0.0185763 0.00108264 1e-005
0.0187107 0.00108187 1e-005
0.018845 0.00108109 1e-005
0.0189794 0.0010803 1e-005
0.0191137 0.00107951 1e-005
0.0192491 0.00107872 1e-005
0.0193845 0.00107791 1e-005
0.0195199 0.00107707 1e-005
0.0196553 0.00107623 1e-005
0.0197907 0.0010754 1e-005
0.0199272 0.00107455 1e-005
0.0200636 0.00107369 1e-005
0.0202001 0.00107281 1e-005
0.0203365 0.00107192 1e-005
0.020473 0.00107103 1e-005
0.0206105 0.00107014 1e-005
0.020748 0.00106923 1e-005
0.0208855 0.0010683 1e-005
0.021023 0.00106736 1e-005
0.0211606 0.00106642 1e-005
0.0212991 0.00106549 1e-005
0.0214377 0.00106453 1e-005
0.0215763 0.00106354 1e-005
0.0217149 0.00106255 1e-005
0.0218535 0.00106157 1e-005
0.0219931 0.00106058 1e-005
0.0221328 0.00105957 1e-005
0.0222724 0.00105854 1e-005
0.0224121 0.0010575 1e-005
0.0225517 0.00105647 1e-005
0.0226925 0.00105543 1e-005
0.0228332 0.00105438 1e-005
0.022974 0.00105329 1e-005
0.0231147 0.0010522 1e-005
0.0232555 0.00105112 1e-005
0.0233973 0.00105004 1e-005
0.0235391 0.00104893 1e-005
0.023681 0.0010478 1e-005
0.0238228 0.00104666 1e-005
0.0239647 0.00104552 1e-005
0.0241076 0.00104439 1e-005
0.0242505 0.00104324 1e-005
0.0243935 0.00104205 1e-005
0.0245364 0.00104086 1e-005
0.0246794 0.00103968 1e-005
0.0248234 0.0010385 1e-005
0.0249675 0.00103729 1e-005
0.0251115 0.00103605 1e-005
0.0252556 0.00103481 1e-005
0.0253996 0.00103358 1e-005
0.0255448 0.00103235 1e-005
0.02569 0.00103109 1e-005
0.0258351 0.0010298 1e-005
0.0259803 0.00102851 1e-005
0.0261255 0.00102723 1e-005
0.0262718 0.00102595 1e-005
0.0264181 0.00102464 1e-005
0.0265644 0.0010233 1e-005
0.0267107 0.00102196 1e-005
0.026857 0.00102063 1e-005
0.0270044 0.00101929 1e-005
0.0271519 0.00101793 1e-005
0.0272993 0.00101654 1e-005
0.0274468 0.00101515 1e-005
0.0275942 0.00101376 1e-005
0.0277428 0.00101237 1e-005
0.0278914 0.00101095 1e-005
0.0280399 0.00100952 1e-005
0.0281885 0.00100808 1e-005
0.0283371 0.00100663 1e-005
0.0284869 0.00100519 1e-005
0.0286366 0.00100371 1e-005
0.0287863 0.00100222 1e-005
0.0289361 0.00100073 1e-005
0.0290858 0.000999227 1e-005
0.0292367 0.000997725 1e-005
0.0293876 0.000996193 1e-005
0.0295385 0.00099465 1e-005
0.0296894 0.000993099 1e-005
0.0298403 0.000991541 1e-005
0.0299924 0.000989979 1e-005
0.0301445 0.000988389 1e-005
0.0302966 0.000986789 1e-005
0.0304486 0.000985181 1e-005
0.0306007 0.000983565 1e-005
0.030754 0.000981942 1e-005
0.0309072 0.000980293 1e-005
0.0310605 0.000978635 1e-005
0.0312138 0.000976968 1e-005
0.031367 0.000975292 1e-005
0.0315215 0.000973607 1e-005
[...]
POINT_DATA 11980
 FIELD attributes 1
U 3 11980 float
10.0004 	0.00731845 	0 10.0024 	0.015169 	0 10.0045 	0.0221881 	0 10.0065 	0.029163 	0 10.0085 	0.036094 	0 10.0135 	0.0463094 	0 10.0163 	0.0402081 	0 10.0207 	0.0401657 	0 10.0252 	0.0401234 	0 10.0296 	0.0400812 	0 10.0356 	0.0445406 	0 10.0385 	0.0378986 	0 10.0424 	0.037853 	0 10.0464 	0.0378075 	0 10.0504 	0.0377619 	0 10.0545 	0.040862 	0 10.0567 	0.0387827 	0 10.0592 	0.0400907 	0 10.0616 	0.0414004 	0 10.0641 	0.0427117 	0 10.0662 	0.0451692 	0 10.0677 	0.0452795 	0 10.0691 	0.0464815 	0 10.0704 	0.0476846 	0 10.0718 	0.0488888 	0 10.0729 	0.049907 	0 10.073 	0.0499686 	0 10.073 	0.0500303 	0 10.0731 	0.0500919 	0 10.0732 	0.0501535 	0 10.0732 	0.0502059 	0 10.0738 	0.0508313 	0 10.0743 	0.0514507 	0 10.0748 	0.0520707 	0 10.0753 	0.0526912 	0 10.0758 	0.0531478 	0 10.0757 	0.053442 	0 10.0754 	0.0536308 	0 10.075 	0.0538198 	0 10.0747 	0.0540089 	0 10.0742 	0.0539596 	0 10.0737 	0.0541028 	0 10.0727 	0.0540777 	0 10.0716 	0.0540525 	0 10.0705 	0.0540274 	0 10.069 	0.053733 	0 10.0686 	0.0538111 	0 10.067 	0.0536755 	0 10.0653 	0.0535398 	0 10.0637 	0.053404 	0 10.0612 	0.0529818 	0 10.0612 	0.053033 	0 10.0592 	0.0528355 	0 10.0572 	0.052638 	0 10.0552 	0.0524404 	0 10.0516 	0.0519436 	0 10.0522 	0.0519924 	0 10.0499 	0.0517676 	0 10.0476 	0.0515427 	0 10.0453 	0.0513177 	0 10.0407 	0.0507854 	0 10.0422 	0.0508525 	0 10.0397 	0.0506211 	0 10.0372 	0.0503896 	0 10.0347 	0.050158 	0 10.029 	0.0496054 	0 10.0314 	0.0496961 	0 10.0288 	0.0494734 	0 10.0262 	0.0492506 	0 10.0235 	0.0490278 	0 10.0167 	0.0484763 	0 10.0203 	0.0485989 	0 10.0176 	0.0483853 	0 10.0149 	0.0481716 	0 10.0122 	0.0479578 	0 10.0041 	0.0473969 	0 10.009 	0.0475474 	0 10.0063 	0.0473751 	0 10.0036 	0.0472027 	0 10.0008 	0.0470303 	0 9.99162 	0.0465188 	0 9.99781 	0.0467239 	0 9.99514 	0.0465523 	0 9.99247 	0.0463807 	0 9.98979 	0.046209 	0 9.97939 	0.0456462 	0 9.98694 	0.0458469 	0 9.98435 	0.0457857 	0 9.98175 	0.0457244 	0 9.97916 	0.0456632 	0 9.96759 	0.045263 	0 9.97658 	0.0455147 	9.22869e-022 9.97457 	0.0453219 	5.95662e-021 9.97256 	0.045129 	1.09906e-020 9.97054 	0.0449362 	1.60247e-020 9.95847 	0.0442924 	1.36195e-020 9.96867 	0.0443718 	9.3436e-020 9.96684 	0.0440379 	8.67082e-020 9.96501 	0.043704 	7.99766e-020 9.96317 	0.0433701 	7.32412e-020 9.95089 	0.0426761 	-1.48539e-020 9.96092 	0.0426346 	-4.02542e-020 9.95913 	0.0423452 	-4.4789e-020 9.95735 	0.0420557 	-4.93222e-020 9.95556 	0.0417663 	-5.3854e-020 9.94348 	0.0412007 	-2.12763e-020 9.95305 	0.0410052 	-1.87127e-020 9.95113 	0.0404557 	-1.30311e-020 9.94921 	0.0399062 	-7.34982e-021 9.94728 	0.0393566 	-1.66901e-021 9.93545 	0.0385821 	6.95586e-021 9.94461 	0.0382672 	-5.7295e-021 9.9425 	0.0374652 	-2.41948e-020 9.94039 	0.036663 	-4.26621e-020 9.93827 	0.0358607 	-6.11314e-020 9.92655 	0.0347969 	-8.71274e-020 9.93513 	0.0345423 	-1.2271e-019 9.93268 	0.0337245 	-1.10434e-019 9.93021 	0.0329066 	-9.81517e-020 9.92775 	0.0320885 	-8.58614e-020 9.91604 	0.0308918 	-2.97136e-020 9.92388 	0.0307604 	3.36048e-020 9.92104 	0.0300206 	4.69744e-020 9.91818 	0.0292805 	6.03347e-020 9.91533 	0.0285402 	7.36857e-020 9.9037 	0.0273193 	3.65286e-020 9.91071 	0.0272327 	-4.51881e-020 9.90748 	0.026531 	-5.11961e-020 9.90425 	0.025829 	-5.71899e-020 9.90101 	0.0251268 	-6.31695e-020 9.88957 	0.0239159 	-3.39319e-022 9.89562 	0.0237922 	5.88232e-020 9.89199 	0.0230974 	4.94863e-020 9.88836 	0.0224023 	4.01353e-020 9.88472 	0.0217069 	3.07701e-020 9.87353 	0.0205423 	-2.85688e-020 9.87844 	0.0203534 	-8.22429e-020 9.87437 	0.0196652 	-1.04225e-019 9.87028 	0.0189767 	-1.26203e-019 9.86619 	0.018288 	-1.48174e-019 9.85536 	0.017203 	-1.35831e-019 9.8589 	0.0169439 	-1.54181e-019 9.85435 	0.0162669 	-1.41854e-019 9.84979 	0.0155897 	-1.29522e-019 9.84523 	0.0149123 	-1.17187e-019 9.83491 	0.013924 	-8.31279e-020 9.83682 	0.0136015 	-6.97224e-020 9.83179 	0.0129417 	-5.14045e-020 9.82676 	0.0122815 	-3.30883e-020 9.82173 	0.0116211 	-1.47737e-020 9.81216 	0.0107339 	1.94439e-021 9.81214 	0.0103435 	0 9.80665 	0.00969673 	0 9.80116 	0.00904965 	0 9.79566 	0.00840229 	0 9.78714 	0.00761179 	0 9.78483 	0.0071394 	-1.66157e-020 9.77889 	0.00649954 	-3.53912e-020 9.77294 	0.00585938 	-5.41684e-020 9.76698 	0.00521891 	-7.29473e-020 9.75986 	0.00452498 	-9.22242e-020 9.7578 	0.00424678 	-9.52283e-020 9.75435 	0.00390481 	-9.56263e-020 9.7509 	0.00356274 	-9.60228e-020 9.74744 	0.00322058 	-9.64178e-020 9.74409 	0.00288827 	-9.68e-020 9.74109 	0.00259323 	-9.76557e-020 9.73809 	0.00229812 	-9.85117e-020 9.73509 	0.00200293 	-9.9368e-020 9.73208 	0.00170767 	-1.00225e-019 9.72613 	0.00128064 	-1.00213e-019 9.72195 	0.000772683 	-7.53921e-020 9.71504 	0.000143783 	-4.65825e-020 9.70812 	-0.000485496 	-1.77823e-020 9.7012 	-0.00111516 	1.10087e-020 9.68494 	-0.00215339 	4.92556e-020 9.6862 	-0.00240509 	5.01166e-020 9.67886 	-0.00302708 	5.12513e-020 9.67151 	-0.00364947 	5.23839e-020 9.66415 	-0.00427228 	5.35143e-020 9.64122 	-0.00555342 	5.68323e-020 9.64779 	-0.00557885 	4.47589e-020 9.64004 	-0.00619412 	3.2683e-020 9.63229 	-0.00680984 	2.06059e-020 9.62452 	-0.007426 	8.52769e-021 9.59523 	-0.00890694 	-1.10127e-021 9.60682 	-0.00874857 	-8.02203e-021 9.59869 	-0.00935757 	-1.9547e-020 9.59055 	-0.00996704 	-3.10709e-020 9.58239 	-0.010577 	-4.25937e-020 9.54723 	-0.0122064 	-5.41322e-020 9.56344 	-0.011914 	-5.38079e-020 9.55494 	-0.0125188 	-6.11198e-020 9.54644 	-0.013124 	-6.84286e-020 9.53792 	-0.0137298 	-7.57344e-020 9.49749 	-0.0154537 	-9.46813e-020 9.51782 	-0.0150779 	-1.50843e-019 9.50899 	-0.0156787 	-1.41446e-019 9.50015 	-0.0162801 	-1.32061e-019 9.49129 	-0.016882 	-1.22688e-019 9.44626 	-0.0186409 	-4.13518e-020 9.47014 	-0.0182331 	-2.63245e-020 9.461 	-0.0188295 	-1.84324e-020 9.45185 	-0.0194265 	-1.05396e-020 9.44268 	-0.020024 	-2.64605e-021 9.39378 	-0.0217601 	0 9.42061 	-0.0213682 	0 9.41118 	-0.0219611 	0 9.40174 	-0.0225546 	0 9.39229 	-0.0231488 	0 9.34027 	-0.024812 	0 9.36946 	-0.0244823 	1.5217e-021 9.35977 	-0.0250737 	8.86699e-021 9.35007 	-0.0256659 	1.62115e-020 9.34035 	-0.0262586 	2.35553e-020 9.28596 	-0.027802 	4.15323e-020 9.31692 	-0.0275832 	1.60985e-019 9.307 	-0.0281739 	1.63891e-019 9.29706 	-0.0287652 	1.66812e-019 9.2871 	-0.0293572 	1.69746e-019 9.23106 	-0.0307295 	4.17228e-020 9.26301 	-0.0306684 	2.2264e-020 9.2531 	-0.0312537 	1.56344e-020 9.24295 	-0.031843 	9.07141e-021 9.22975 	-0.0324696 	3.91133e-021 9.17575 	-0.033588 	1.76322e-020 9.20418 	-0.0337617 	1.04448e-019 9.19831 	-0.0343002 	1.15499e-019 9.18798 	-0.0348867 	1.16706e-019 9.1706 	-0.0355205 	1.00728e-019 9.1202 	-0.0363734 	4.02061e-021 9.14527 	-0.036764 	-9.87552e-020 9.14287 	-0.0373031 	-1.29994e-019 9.13237 	-0.0378865 	-1.40183e-019 9.11152 	-0.038477 	-1.28481e-019 9.06459 	-0.0390845 	-6.15763e-020 9.08649 	-0.0396725 	-1.7791e-019 9.08699 	-0.040255 	-2.19179e-019 9.07635 	-0.0408349 	-2.21417e-019 9.05269 	-0.0413377 	-1.73061e-019 9.00905 	-0.0417217 	-4.70481e-020 9.02799 	-0.0424868 	-2.49125e-020 9.03088 	-0.0431498 	-1.08257e-020 9.02012 	-0.0437263 	-3.57463e-021 8.99427 	-0.0441033 	0 8.95373 	-0.0442863 	0 8.96993 	-0.0452083 	0 8.97473 	-0.0459835 	0 8.96388 	-0.0465564 	0 8.93638 	-0.0467761 	2.05115e-021 8.89875 	-0.0467807 	5.35133e-021 8.91243 	-0.0478398 	2.20443e-021 8.91873 	-0.0487528 	0 8.9078 	-0.0493222 	0 8.87916 	-0.0493595 	2.43845e-021 8.84422 	-0.0492078 	5.74274e-021 8.85559 	-0.0503852 	2.59529e-021 8.86302 	-0.0514562 	1.15414e-021 8.85204 	-0.0520223 	7.73806e-021 8.82268 	-0.0518581 	2.44483e-020 8.79024 	-0.0515712 	4.2858e-020 8.79952 	-0.0528487 	1.6789e-019 8.80776 	-0.0540924 	2.86973e-019 8.79674 	-0.0546552 	2.90405e-019 8.76704 	-0.0542765 	1.68396e-019 8.73689 	-0.0538749 	4.3366e-020 8.74427 	-0.055236 	2.52198e-020 8.75161 	-0.0565985 	7.07473e-021 8.74036 	-0.0571181 	3.1304e-022 8.71231 	-0.0566207 	3.49259e-021 8.68427 	-0.0561229 	6.67199e-021 8.68994 	-0.0575514 	3.65302e-021 8.69557 	-0.0589813 	6.34827e-022 8.68468 	-0.0594707 	2.0127e-021 8.65855 	-0.0588955 	-1.90734e-021 8.63243 	-0.0583199 	-5.82642e-021 8.63657 	-0.0598022 	-4.90953e-020 8.64067 	-0.061286 	-9.23679e-020 8.63018 	-0.0617455 	-9.37336e-020 8.60581 	-0.0611084 	-5.41426e-020 8.58145 	-0.0604708 	-1.45497e-020 8.58422 	-0.0619962 	8.4383e-020 8.58695 	-0.0635233 	1.83311e-019 8.5769 	-0.063954 	1.91858e-019 8.55413 	-0.0632676 	1.09468e-019 8.53137 	-0.0625806 	2.7078e-020 8.53293 	-0.0641412 	1.57352e-020 8.53444 	-0.0657033 	4.389e-021 8.52487 	-0.0661068 	4.43582e-022 8.50354 	-0.065382 	5.04631e-021 8.48224 	-0.0646566 	9.65083e-021 8.48273 	-0.0662434 	4.14039e-021 8.48318 	-0.0678317 	-1.375e-021 8.47409 	-0.068209 	-2.07697e-020 8.45408 	-0.0674567 	-7.07132e-020 8.43408 	-0.0667038 	-1.20659e-019 8.43365 	-0.0683022 	-2.51398e-019 8.43316 	-0.0699021 	-3.82132e-019 8.42458 	-0.0702543 	-3.67008e-019 8.40574 	-0.0694906 	-2.17154e-019 8.38693 	-0.0687263 	-6.73024e-020 8.38567 	-0.0703238 	5.64323e-020 8.38434 	-0.0719191 	1.79822e-019 8.37598 	-0.0722175 	1.77443e-019 8.35854 	-0.071494 	9.03521e-020 8.34079 	-0.0707349 	3.50129e-022 8.33881 	-0.0723274 	-8.89816e-020 8.33592 	-0.0737421 	-1.67204e-019 8.32772 	-0.0740464 	-1.7649e-019 8.31245 	-0.0734868 	-1.14287e-019 8.29568 	-0.0727414 	-3.67381e-020 8.29305 	-0.0743247 	-2.55091e-020 8.2889 	-0.0755575 	-1.43793e-020 8.28085 	-0.0758692 	-3.50276e-021 8.26748 	-0.075478 	1.39371e-020 8.25159 	-0.0747525 	3.44968e-020 8.2484 	-0.076324 	1.27305e-020 8.24323 	-0.0773766 	-2.40543e-021 8.23531 	-0.0776971 	-8.19859e-021 8.22359 	-0.0774762 	-3.00746e-021 8.20851 	-0.0767759 	1.18975e-020 8.20481 	-0.0783346 	-4.59573e-021 8.19884 	-0.0792113 	-1.54766e-020 8.19106 	-0.0795424 	-2.18683e-020 8.18077 	-0.0794912 	-3.4076e-020 8.16643 	-0.0788202 	-5.57058e-020 8.16228 	-0.0803655 	5.27025e-020 8.15569 	-0.0810721 	8.71971e-020 8.14804 	-0.0814153 	8.96616e-020 8.13899 	-0.0815322 	7.0145e-020 8.12532 	-0.0808937 	-2.26754e-020 8.12078 	-0.0824259 	6.8875e-020 8.11373 	-0.0829691 	8.61652e-020 8.10619 	-0.0833258 	8.94367e-020 8.09821 	-0.0836081 	8.65318e-020 8.08516 	-0.0830045 	1.03536e-020 8.08027 	-0.0845242 	-5.66579e-022 8.07289 	-0.0849111 	-4.84814e-022 8.06547 	-0.0852827 	-2.51422e-022 8.05803 	-0.0856545 	-1.80504e-023 8.04592 	-0.0851604 	1.83579e-020 8.04045 	-0.0865192 	0 8.03314 	-0.0869066 	0 8.02582 	-0.0872944 	0 8.01848 	-0.0876823 	0 8.00759 	-0.0873689 	1.53561e-020 8.00164 	-0.0885589 	0 7.99442 	-0.0889638 	0 7.9872 	-0.089369 	0 7.97995 	-0.0897745 	0 7.97012 	-0.089638 	0 7.96381 	-0.090667 	0 7.95669 	-0.0910907 	0 7.94955 	-0.0915146 	0 7.94239 	-0.0919388 	0 7.93348 	-0.0919751 	-8.6708e-021 7.92692 	-0.0928511 	0 7.91988 	-0.0932947 	0 7.91282 	-0.0937386 	0 7.90574 	-0.0941827 	0 7.89764 	-0.0943879 	-1.09699e-020 7.89091 	-0.0951185 	0 7.88394 	-0.0955831 	0 7.87695 	-0.096048 	0 7.86995 	-0.0965131 	0 7.86254 	-0.0968829 	-4.46314e-021 7.85787 	-0.0973238 	-6.00413e-021 7.85312 	-0.0976587 	-1.31229e-020 7.84837 	-0.0979937 	-2.02422e-020 7.8436 	-0.0983288 	-2.73621e-020 7.83896 	-0.0986549 	-3.42878e-020 7.8367 	-0.0988093 	-3.73402e-020 7.83445 	-0.0989637 	-4.03925e-020 7.83219 	-0.0991181 	-4.34447e-020 7.82993 	-0.0992725 	-4.64968e-020 7.82791 	-0.0993781 	-4.9551e-020 7.8208 	-0.0999334 	-4.83959e-020 7.81375 	-0.100445 	-4.77769e-020 7.80669 	-0.100957 	-4.71554e-020 7.7996 	-0.101469 	-4.65312e-020 7.79353 	-0.101782 	-4.81815e-020 7.78616 	-0.102498 	-3.77463e-020 7.77916 	-0.103033 	-2.72997e-020 7.77215 	-0.10357 	-1.68516e-020 7.76511 	-0.104106 	-6.40221e-021 7.75986 	-0.104297 	0 7.75222 	-0.105171 	-2.81982e-021 7.74526 	-0.105732 	-7.63279e-021 7.73829 	-0.106294 	-1.2445e-020 7.73128 	-0.106856 	-1.72566e-020 7.72683 	-0.106932 	-2.2033e-020 7.71892 	-0.10796 	-5.07425e-020 7.712 	-0.108548 	-7.0493e-020 7.70505 	-0.109137 	-9.02451e-020 7.69808 	-0.109725 	-1.09999e-019 7.69438 	-0.109694 	-1.03308e-019 7.68621 	-0.110872 	-8.12298e-020 7.67931 	-0.111488 	-7.01295e-020 7.67238 	-0.112105 	-5.9023e-020 7.66543 	-0.112721 	-4.79104e-020 7.66249 	-0.112589 	-6.89233e-020 7.65404 	-0.113914 	-8.21537e-020 7.64715 	-0.11456 	-6.36799e-020 7.64024 	-0.115206 	-4.52109e-020 7.63368 	-0.115784 	-2.54855e-020 7.63108 	-0.115626 	7.82813e-021 7.62263 	-0.116981 	1.22236e-020 7.61548 	-0.117771 	8.75633e-021 7.60858 	-0.118448 	3.70806e-021 7.60279 	-0.118917 	0 7.60013 	-0.118809 	0 7.5917 	-0.120178 	0 7.58424 	-0.121127 	0 7.57734 	-0.121836 	0 7.5723 	-0.122201 	0 7.56957 	-0.122146 	0 7.56116 	-0.123529 	0 7.55339 	-0.124633 	-7.71704e-021 7.54648 	-0.125375 	-2.54421e-020 7.54217 	-0.125643 	-4.32164e-020 7.53936 	-0.12564 	-6.102e-020 7.53096 	-0.127041 	-4.18441e-020 7.52288 	-0.128297 	-2.16904e-020 7.51595 	-0.129072 	1.70764e-021 7.51235 	-0.129249 	9.21192e-021 7.50945 	-0.129299 	1.3335e-020 7.50105 	-0.130718 	4.59213e-020 7.49264 	-0.132124 	7.82126e-020 7.48576 	-0.132922 	9.68299e-020 7.48277 	-0.133025 	8.18981e-020 7.47978 	-0.133128 	6.69651e-020 7.47138 	-0.134567 	4.29681e-020 7.46293 	-0.136007 	1.89629e-020 7.45649 	-0.136819 	2.00842e-021 7.4534 	-0.136975 	1.13782e-020 7.45031 	-0.137132 	2.07488e-020 7.44189 	-0.138593 	8.42063e-020 7.43343 	-0.140054 	1.47667e-019 7.42739 	-0.140896 	1.48313e-019 7.42419 	-0.141105 	8.54672e-020 7.42098 	-0.141315 	2.26197e-020 7.41255 	-0.142799 	1.40285e-020 7.40406 	-0.144283 	5.44081e-021 7.39839 	-0.145156 	5.62906e-021 7.39507 	-0.145419 	1.47795e-020 7.39174 	-0.145682 	2.3931e-020 7.38328 	-0.147191 	8.59425e-020 7.37477 	-0.148699 	1.47957e-019 7.36946 	-0.149605 	1.48637e-019 7.366 	-0.149921 	8.72657e-020 7.36254 	-0.150237 	2.58927e-020 7.35404 	-0.151771 	1.7546e-020 7.34563 	-0.153283 	9.19902e-021 7.34065 	-0.154196 	7.565e-022 7.33693 	-0.154614 	0 7.33332 	-0.154984 	0 7.32478 	-0.156545 	0 7.31709 	-0.157952 	0 7.31199 	-0.158906 	0 7.3078 	-0.159503 	0 7.30404 	-0.159925 	0 7.29545 	-0.161513 	0 7.28845 	-0.16282 	0 7.28323 	-0.163816 	0 7.27856 	-0.164588 	6.83546e-021 7.27464 	-0.165063 	2.27754e-020 7.26598 	-0.16668 	5.23554e-021 7.25966 	-0.167891 	6.04468e-021 7.25432 	-0.168928 	1.46625e-020 7.24917 	-0.169874 	2.40465e-020 7.24507 	-0.170401 	3.69507e-020 7.23634 	-0.172047 	1.23547e-019 7.23067 	-0.173164 	1.33743e-019 7.22518 	-0.174243 	1.38365e-019 7.21966 	-0.175321 	1.42965e-019 7.21528 	-0.17594 	4.60267e-020 7.20702 	-0.177523 	1.34144e-019 7.20142 	-0.178642 	1.2231e-019 7.19578 	-0.179762 	1.10454e-019 7.19011 	-0.180882 	9.85764e-020 7.18522 	-0.18168 	3.8127e-020 7.17762 	-0.183164 	3.14806e-020 7.17187 	-0.184325 	3.19526e-020 7.16607 	-0.185486 	3.24296e-020 7.16024 	-0.186647 	3.29117e-020 7.15483 	-0.187624 	4.80494e-020 7.14788 	-0.189011 	5.40056e-020 7.14196 	-0.190213 	5.1523e-020 7.136 	-0.191415 	4.90248e-020 7.13 	-0.192618 	4.65111e-020 7.12408 	-0.193771 	3.96833e-020 7.12157 	-0.194275 	3.33021e-020 7.11935 	-0.19473 	3.11734e-020 7.11712 	-0.195185 	2.90465e-020 7.11489 	-0.19564 	2.69214e-020 7.1127 	-0.196085 	2.48491e-020 7.10869 	-0.196874 	2.06322e-020 7.10467 	-0.197662 	1.64186e-020 7.10062 	-0.198452 	1.22083e-020 7.09656 	-0.199241 	8.0013e-021 7.09321 	-0.199953 	3.77419e-022 7.08637 	-0.201312 	-2.41953e-022 7.0799 	-0.202593 	-1.73982e-022 7.0734 	-0.203875 	-1.05988e-022 7.06685 	-0.205157 	-3.79709e-023 7.06215 	-0.206243 	0 7.05442 	-0.207762 	-6.98452e-021 7.04776 	-0.209084 	-2.08095e-020 7.04105 	-0.210405 	-3.46287e-020 7.0343 	-0.211727 	-4.84422e-020 7.03058 	-0.212734 	-5.95142e-020 7.02194 	-0.214414 	-4.68233e-020 7.01507 	-0.215774 	-3.15612e-020 7.00816 	-0.217134 	-1.62933e-020 7.00121 	-0.218493 	-1.0563e-021 6.99845 	-0.219425 	6.30335e-021 6.98918 	-0.221211 	-1.33849e-022 6.98179 	-0.222662 	1.11272e-020 6.97465 	-0.22406 	2.51272e-020 6.96872 	-0.225334 	4.12646e-020 6.96573 	-0.22631 	6.25042e-020 6.95623 	-0.228128 	4.04047e-020 6.94787 	-0.229743 	2.18831e-020 6.9405 	-0.231178 	6.51915e-021 6.93559 	-0.232367 	-1.71449e-021 6.93236 	-0.233386 	-5.06175e-021 6.92263 	-0.235235 	-5.68998e-020 6.91326 	-0.237014 	-9.97857e-020 6.90565 	-0.238485 	-1.03381e-019 6.90177 	-0.239588 	-6.71324e-020 6.89829 	-0.240648 	-2.63597e-020 6.88832 	-0.242527 	-6.77093e-020 6.8783 	-0.244406 	-1.09066e-019 6.87094 	-0.245891 	-1.09405e-019 6.86723 	-0.246991 	-6.59682e-020 6.86348 	-0.248092 	-2.25307e-020 6.85327 	-0.25 	-6.61033e-020 6.843 	-0.251907 	-1.09682e-019 6.83589 	-0.253434 	-1.06882e-019 6.83191 	-0.254572 	-5.76181e-020 6.82789 	-0.25571 	-8.35063e-021 6.81743 	-0.257646 	-5.54306e-021 6.8069 	-0.259582 	-2.73764e-021 6.80004 	-0.261149 	0 6.79578 	-0.262323 	0 6.79149 	-0.263498 	0 6.78076 	-0.26546 	0 6.77077 	-0.267347 	0 6.76403 	-0.268919 	0 6.75881 	-0.270238 	0 6.75422 	-0.271448 	0 6.74322 	-0.273435 	0 6.73437 	-0.275214 	-1.69957e-021 6.72736 	-0.276814 	-4.85108e-021 6.72095 	-0.27831 	-4.66182e-021 6.71607 	-0.279552 	3.61603e-021 6.70478 	-0.281563 	-5.47195e-020 6.6971 	-0.283232 	-5.82126e-020 6.68979 	-0.284859 	-5.505e-020 6.68243 	-0.286486 	-5.18658e-020 6.67698 	-0.287803 	-2.28678e-021 6.66644 	-0.28974 	-8.13563e-021 6.6589 	-0.291393 	6.48879e-022 6.6513 	-0.293045 	9.43471e-021 6.64365 	-0.294697 	1.82219e-020 6.63693 	-0.296193 	2.09771e-020 6.6276 	-0.298012 	4.115e-020 6.61976 	-0.299687 	4.14105e-020 6.61186 	-0.301363 	4.16538e-020 6.6039 	-0.303038 	4.18797e-020 6.59588 	-0.304712 	4.20355e-020 6.59586 	-0.304717 	4.20378e-020 6.59584 	-0.304721 	4.20333e-020 6.59582 	-0.304725 	4.20289e-020 6.5958 	-0.304729 	4.20245e-020 6.59578 	-0.304734 	4.202e-020 6.5872 	-0.306423 	3.97898e-020 6.57856 	-0.308113 	3.75646e-020 6.56986 	-0.309802 	3.53444e-020 6.56109 	-0.311491 	3.31292e-020 6.55335 	-0.313051 	2.26389e-020 6.54384 	-0.314908 	2.92525e-020 6.53483 	-0.31662 	2.30445e-020 6.52576 	-0.318332 	1.68483e-020 6.51662 	-0.320044 	1.06639e-020 6.50965 	-0.321498 	-1.46529e-020 6.49919 	-0.323516 	-7.40538e-021 6.48982 	-0.325246 	-9.34819e-021 6.48038 	-0.326975 	-1.13298e-020 6.4716 	-0.328622 	-1.26279e-020 6.46474 	-0.330042 	-1.20513e-020 6.45391 	-0.332071 	-1.07154e-020 6.44354 	-0.333968 	-7.35799e-021 6.43374 	-0.335711 	-1.65351e-021 6.42581 	-0.337237 	3.78043e-021 6.41861 	-0.338674 	9.1064e-021 6.40738 	-0.340712 	4.75091e-021 6.39608 	-0.342749 	3.99392e-022 6.38625 	-0.34448 	0 6.37876 	-0.345931 	0 6.3712 	-0.347381 	0 6.35959 	-0.349426 	0 6.3479 	-0.35147 	0 6.33827 	-0.35323 	0 6.33042 	-0.354691 	0 6.32251 	-0.356152 	0 6.3105 	-0.358201 	0 6.29872 	-0.360216 	5.1889e-022 6.28932 	-0.361963 	5.14633e-021 6.28078 	-0.363505 	9.78672e-021 6.2725 	-0.364974 	1.44343e-020 6.26008 	-0.367025 	1.07192e-020 6.24927 	-0.368894 	9.74126e-021 6.2395 	-0.370644 	1.05617e-020 6.2298 	-0.372361 	1.16124e-020 6.22114 	-0.373834 	1.43004e-020 6.20862 	-0.375853 	-2.54621e-021 6.19853 	-0.377603 	-8.70452e-021 6.18837 	-0.379353 	-1.485e-020 6.17813 	-0.381103 	-2.09827e-020 6.16843 	-0.382721 	-1.91246e-020 6.15981 	-0.384102 	-1.57504e-020 6.15222 	-0.385369 	-1.33479e-020 6.14459 	-0.386637 	-1.09471e-020 6.13693 	-0.387904 	-8.548e-021 6.1296 	-0.389109 	-6.26718e-021 6.12671 	-0.389602 	-6.0646e-021 6.12381 	-0.390095 	-5.86361e-021 6.12091 	-0.390588 	-5.6642e-021 6.118 	-0.391081 	-5.46637e-021 6.11514 	-0.39153 	-2.05224e-021 6.10486 	-0.393328 	5.1235e-021 6.09439 	-0.395074 	5.8188e-021 6.08386 	-0.396819 	6.53913e-021 6.07325 	-0.398564 	7.28463e-021 6.06278 	-0.400106 	-1.9924e-020 6.05255 	-0.40208 	-6.08919e-020 6.04169 	-0.403817 	-7.03008e-020 6.03075 	-0.405554 	-7.97453e-020 6.01981 	-0.40723 	-7.57742e-020 6.00905 	-0.408662 	-1.75927e-020 5.99853 	-0.410666 	-1.51828e-020 5.98761 	-0.412539 	-1.02023e-020 5.97627 	-0.414265 	-2.31562e-021 5.9651 	-0.415764 	7.88951e-021 5.95393 	-0.417186 	1.88993e-020 5.943 	-0.419173 	3.62796e-020 5.93199 	-0.42116 	5.36682e-020 5.9205 	-0.422848 	5.48061e-020 5.90899 	-0.424256 	3.92362e-020 5.89741 	-0.425664 	2.36686e-020 5.88607 	-0.427632 	1.58141e-020