# vtk DataFile Version 2.0
track0
ASCII
DATASET POLYDATA
POINTS 11930 float
-0.0205 0.001 1e-005
-0.020385 0.00100536 1.50261e-005
-0.02027 0.00101047 1.96675e-005
-0.020155 0.00101535 2.39768e-005
-0.0200399 0.00101999 2.79493e-005
-0.0198618 0.00102682 3.35705e-005
-0.0196928 0.00103274 3.81113e-005
-0.0195239 0.00103805 4.16223e-005
-0.0193549 0.00104276 4.41123e-005
-0.0191858 0.00104685 4.55907e-005
-0.0190172 0.00105032 4.60658e-005
-0.0187132 0.00105579 4.60658e-005
-0.0184093 0.00106062 4.60658e-005
-0.0181054 0.00106492 4.60658e-005
-0.0178014 0.00106871 4.60658e-005
-0.0174976 0.00107198 4.60658e-005
-0.0172058 0.00107482 4.60658e-005
-0.016914 0.00107761 4.60658e-005
-0.0166222 0.00108034 4.60658e-005
-0.0163305 0.00108301 4.60658e-005
-0.0160387 0.00108563 4.60658e-005
-0.0157586 0.00108804 4.60658e-005
-0.0154784 0.00109038 4.60658e-005
-0.0151983 0.00109264 4.60658e-005
-0.0149182 0.00109482 4.60658e-005
-0.0146381 0.00109692 4.60658e-005
-0.0143692 0.0010988 4.60658e-005
-0.0141002 0.00110058 4.60658e-005
-0.0138313 0.00110229 4.60658e-005
-0.0135624 0.00110392 4.60658e-005
-0.0132934 0.00110548 4.60658e-005
-0.0130353 0.00110689 4.60658e-005
-0.0127771 0.00110826 4.60658e-005
-0.0125189 0.00110958 4.60658e-005
-0.0122607 0.00111086 4.60658e-005
-0.0120025 0.00111211 4.60658e-005
-0.0117547 0.00111327 4.60658e-005
-0.0115068 0.0011144 4.60658e-005
-0.0112589 0.00111552 4.60658e-005
-0.0110111 0.00111662 4.60658e-005
-0.0107632 0.00111771 4.60658e-005
-0.0105252 0.00111873 4.60658e-005
-0.0102873 0.00111974 4.60658e-005
-0.0100493 0.00112073 4.60658e-005
-0.00981133 0.00112172 4.60658e-005
-0.00957337 0.0011227 4.60658e-005
-0.00934491 0.00112362 4.60658e-005
-0.00911645 0.00112453 4.60658e-005
-0.00888799 0.00112544 4.60658e-005
-0.00865954 0.00112634 4.60658e-005
-0.00843108 0.00112723 4.60658e-005
-0.00821175 0.00112808 4.60658e-005
-0.00799242 0.00112892 4.60658e-005
-0.00777309 0.00112976 4.60658e-005
-0.00755376 0.00113059 4.60658e-005
-0.00733443 0.00113142 4.60658e-005
-0.00712387 0.00113222 4.60658e-005
-0.0069133 0.00113301 4.60658e-005
-0.00670273 0.00113379 4.60658e-005
-0.00649216 0.00113458 4.60658e-005
-0.0062816 0.00113536 4.60658e-005
-0.00607944 0.00113611 4.60658e-005
-0.00587729 0.00113686 4.60658e-005
-0.00567514 0.0011376 4.60658e-005
-0.00547298 0.00113835 4.60658e-005
-0.00527083 0.00113909 4.60658e-005
-0.00507675 0.00113981 4.60658e-005
-0.00488267 0.00114052 4.60658e-005
-0.0046886 0.00114123 4.60658e-005
-0.00449452 0.00114194 4.60658e-005
-0.00430044 0.00114265 4.60658e-005
-0.00411412 0.00114334 4.60658e-005
-0.0039278 0.00114402 4.60658e-005
-0.00374147 0.0011447 4.60658e-005
-0.00355515 0.00114538 4.60658e-005
-0.00336883 0.00114606 4.60658e-005
-0.00318995 0.00114672 4.60658e-005
-0.00301107 0.00114737 4.60658e-005
-0.00283219 0.00114802 4.60658e-005
-0.00265331 0.00114867 4.60658e-005
-0.00247443 0.00114933 4.60658e-005
-0.0023027 0.00114997 4.60658e-005
-0.00213097 0.0011506 4.60658e-005
-0.00195924 0.00115123 4.60658e-005
-0.0017875 0.00115186 4.60658e-005
-0.00161577 0.0011525 4.60658e-005
-0.0014509 0.00115312 4.60658e-005
-0.00128603 0.00115374 4.60658e-005
-0.00112116 0.00115435 4.60658e-005
-0.000956289 0.00115496 4.60658e-005
-0.000791418 0.00115559 4.60658e-005
-0.000633135 0.0011562 4.60658e-005
-0.000474851 0.00115681 4.60658e-005
-0.000316567 0.00115741 4.60658e-005
-0.000158284 0.00115802 4.60658e-005
0 0.00115864 4.60658e-005
0.000105677 0.00115906 4.60658e-005
0.000211355 0.00115948 4.60658e-005
0.000317032 0.00115989 4.60658e-005
0.00042271 0.00116031 4.60658e-005
0.000528387 0.00116074 4.60658e-005
0.000634886 0.00116118 4.60658e-005
0.000741385 0.00116162 4.60658e-005
0.000847885 0.00116205 4.60658e-005
0.000954384 0.0011625 4.60658e-005
0.00106088 0.00116295 4.60658e-005
0.00116821 0.00116341 4.60658e-005
0.00127554 0.00116388 4.60658e-005
0.00138286 0.00116434 4.60658e-005
0.00149019 0.00116481 4.60658e-005
0.00159752 0.00116528 4.60658e-005
0.00170568 0.00116577 4.60658e-005
0.00181384 0.00116626 4.60658e-005
0.001922 0.00116675 4.60658e-005
0.00203016 0.00116724 4.60658e-005
0.00213833 0.00116773 4.60658e-005
0.00224733 0.00116823 4.60658e-005
0.00235633 0.00116873 4.60658e-005
0.00246533 0.00116923 4.60658e-005
0.00257434 0.00116974 4.60658e-005
0.00268334 0.00117024 4.60658e-005
0.00279319 0.00117075 4.60658e-005
0.00290304 0.00117126 4.60658e-005
0.00301289 0.00117178 4.60658e-005
0.00312274 0.0011723 4.60658e-005
0.00323259 0.00117281 4.60658e-005
0.00334329 0.00117332 4.60658e-005
0.003454 0.00117385 4.60658e-005
0.0035647 0.00117438 4.60658e-005
0.0036754 0.00117491 4.60658e-005
0.00378611 0.00117543 4.60658e-005
0.00389767 0.00117595 4.60658e-005
0.00400924 0.00117648 4.60658e-005
0.0041208 0.00117702 4.60658e-005
0.00423237 0.00117756 4.60658e-005
0.00434393 0.00117809 4.60658e-005
0.00445636 0.00117861 4.60658e-005
0.00456879 0.00117915 4.60658e-005
0.00468123 0.0011797 4.60658e-005
0.00479366 0.00118024 4.60658e-005
0.00490609 0.00118078 4.60658e-005
0.0050194 0.0011813 4.60658e-005
0.0051327 0.00118185 4.60658e-005
0.00524601 0.00118239 4.60658e-005
0.00535931 0.00118294 4.60658e-005
0.00547262 0.00118349 4.60658e-005
0.00558681 0.00118401 4.60658e-005
0.005701 0.00118456 4.60658e-005
0.00581518 0.00118511 4.60658e-005
0.00592937 0.00118566 4.60658e-005
0.00604356 0.00118621 4.60658e-005
0.00615863 0.00118674 4.60658e-005
0.00627371 0.00118728 4.60658e-005
0.00638878 0.00118783 4.60658e-005
0.00650386 0.00118838 4.60658e-005
0.00661893 0.00118893 4.60658e-005
0.0067349 0.00118947 4.60658e-005
0.00685087 0.00119001 4.60658e-005
0.00696684 0.00119056 4.60658e-005
0.00708281 0.00119111 4.60658e-005
0.00719878 0.00119166 4.60658e-005
0.00731565 0.00119219 4.60658e-005
0.00743252 0.00119273 4.60658e-005
0.00754939 0.00119328 4.60658e-005
0.00766626 0.00119382 4.60658e-005
0.00778313 0.00119436 4.60658e-005
0.00790091 0.00119489 4.60658e-005
0.00801869 0.00119543 4.60658e-005
0.00813647 0.00119597 4.60658e-005
0.00825425 0.00119651 4.60658e-005
0.00837203 0.00119704 4.60658e-005
0.00849073 0.00119757 4.60658e-005
0.00860942 0.0011981 4.60658e-005
0.00872812 0.00119863 4.60658e-005
0.00884682 0.00119916 4.60658e-005
0.00896551 0.00119969 4.60658e-005
0.00908513 0.00120022 4.60658e-005
0.00920475 0.00120074 4.60658e-005
0.00932437 0.00120127 4.60658e-005
0.00944398 0.00120179 4.60658e-005
0.0095636 0.00120232 4.60658e-005
0.00968415 0.00120283 4.60658e-005
0.0098047 0.00120335 4.60658e-005
0.00992525 0.00120387 4.60658e-005
0.0100458 0.00120439 4.60658e-005
0.0101663 0.0012049 4.60658e-005
0.0102878 0.00120541 4.60658e-005
0.0104093 0.00120592 4.60658e-005
0.0105308 0.00120643 4.60658e-005
0.0106523 0.00120694 4.60658e-005
0.0107738 0.00120745 4.60658e-005
0.0108962 0.00120795 4.60658e-005
0.0110186 0.00120845 4.60658e-005
0.0111411 0.00120895 4.60658e-005
0.0112635 0.00120945 4.60658e-005
0.0113859 0.00120995 4.60658e-005
0.0115093 0.00121044 4.60658e-005
0.0116327 0.00121094 4.60658e-005
0.0117561 0.00121143 4.60658e-005
0.0118795 0.00121192 4.60658e-005
0.0120028 0.0012124 4.60658e-005
0.0121272 0.00121288 4.60658e-005
0.0122515 0.00121337 4.60658e-005
0.0123759 0.00121385 4.60658e-005
0.0125002 0.00121433 4.60658e-005
0.0126245 0.0012148 4.60658e-005
0.0127498 0.00121527 4.60658e-005
0.0128752 0.00121575 4.60658e-005
0.0130005 0.00121622 4.60658e-005
0.0131258 0.00121668 4.60658e-005
0.0132511 0.00121715 4.60658e-005
0.0133774 0.0012176 4.60658e-005
0.0135036 0.00121806 4.60658e-005
0.0136299 0.00121852 4.60658e-005
0.0137562 0.00121897 4.60658e-005
0.0138825 0.00121942 4.60658e-005
0.0140098 0.00121986 4.60658e-005
0.014137 0.00122031 4.60658e-005
0.0142643 0.00122075 4.60658e-005
0.0143915 0.00122118 4.60658e-005
0.0145188 0.00122162 4.60658e-005
0.0146471 0.00122204 4.60658e-005
0.0147753 0.00122247 4.60658e-005
0.0149036 0.00122289 4.60658e-005
0.0150318 0.00122331 4.60658e-005
0.0151601 0.00122373 4.60658e-005
0.0152893 0.00122413 4.60658e-005
0.0154186 0.00122454 4.60658e-005
0.0155478 0.00122494 4.60658e-005
0.0156771 0.00122534 4.60658e-005
0.0158063 0.00122574 4.60658e-005
0.0159366 0.00122612 4.60658e-005
0.0160668 0.00122651 4.60658e-005
0.0161971 0.00122689 4.60658e-005
0.0163274 0.00122727 4.60658e-005
0.0164576 0.00122763 4.60658e-005
0.0165889 0.001228 4.60658e-005
0.0167201 0.00122836 4.60658e-005
0.0168514 0.00122871 4.60658e-005
0.0169827 0.00122906 4.60658e-005
0.0171139 0.00122941 4.60658e-005
0.0172462 0.00122974 4.60658e-005
0.0173785 0.00123008 4.60658e-005
0.0175108 0.0012304 4.60658e-005
0.0176431 0.00123073 4.60658e-005
0.0177754 0.00123104 4.60658e-005
0.0177884 0.00123107 4.60658e-005
0.0178014 0.0012311 4.60658e-005
0.0178144 0.00123113 4.60658e-005
0.0178274 0.00123116 4.60658e-005
0.0178404 0.00123119 4.60658e-005
0.0179607 0.00123147 4.60658e-005
0.018081 0.00123174 4.60658e-005
0.0182013 0.001232 4.60658e-005
0.0183217 0.00123226 4.60658e-005
0.018442 0.00123251 4.60658e-005
0.0185763 0.00123278 4.60658e-005
0.0187107 0.00123305 4.60658e-005
0.018845 0.00123331 4.60658e-005
0.0189794 0.00123356 4.60658e-005
0.0191137 0.00123381 4.60658e-005
0.0192491 0.00123404 4.60658e-005
0.0193845 0.00123427 4.60658e-005
0.0195199 0.00123449 4.60658e-005
0.0196553 0.0012347 4.60658e-005
0.0197907 0.0012349 4.60658e-005
0.0199272 0.0012351 4.60658e-005
0.0200636 0.00123528 4.60658e-005
0.0202001 0.00123546 4.60658e-005
0.0203365 0.00123563 4.60658e-005
0.020473 0.00123579 4.60658e-005
0.0206105 0.00123593 4.60658e-005
0.020748 0.00123607 4.60658e-005
0.0208855 0.0012362 4.60658e-005
0.021023 0.00123633 4.60658e-005
0.0211606 0.00123644 4.60658e-005
0.0212991 0.00123654 4.60658e-005
0.0214377 0.00123663 4.60658e-005
0.0215763 0.00123671 4.60658e-005
0.0217149 0.00123678 4.60658e-005
0.0218535 0.00123684 4.60658e-005
0.0219931 0.00123689 4.60658e-005
0.0221328 0.00123693 4.60658e-005
0.0222724 0.00123696 4.60658e-005
0.0224121 0.00123697 4.60658e-005
0.0225517 0.00123698 4.60658e-005
0.0226925 0.00123698 4.60658e-005
[...]
POINT_DATA 11930
 FIELD attributes 2
p 1 11930 float
-1548.76 -1536.13 -1522.28 -1508.58 -1495.04 -1474.31 -1459.62 -1444.85 -1430 -1415.08 -1394.29 -1346.12 -1298.06 -1250.06 -1202.13 -1159.67 -1128.2 -1102.87 -1077.54 -1052.23 -1035.46 -1023.77 -1014.25 -1004.73 -995.21 -987.432 -980.497 -972.458 -964.419 -956.38 -947.274 -938.741 -930.125 -921.508 -912.916 -904.641 -896.792 -889.717 -882.731 -875.892 -869.942 -864.257 -859.099 -854.05 -849.144 -844.785 -840.615 -836.646 -832.74 -828.917 -825.326 -821.884 -818.571 -815.311 -812.125 -809.096 -806.18 -803.397 -800.683 -798.055 -795.573 -793.166 -790.877 -788.664 -786.538 -784.533 -782.567 -780.687 -778.878 -777.145 -775.501 -773.859 -772.285 -770.774 -769.334 -767.963 -766.56 -765.209 -763.915 -762.692 -761.526 -760.296 -759.112 -757.991 -756.949 -755.962 -754.88 -753.83 -752.831 -751.917 -751.052 -750.068 -749.135 -748.3 -747.598 -746.963 -746.213 -745.527 -744.969 -744.566 -744.252 -743.724 -743.244 -742.835 -742.536 -742.317 -741.881 -741.553 -741.355 -741.288 -741.339 -741.178 -741.103 -741.112 -741.193 -741.355 -741.451 -741.54 -741.623 -741.7 -741.769 -742.03 -742.195 -742.3 -742.345 -742.285 -742.663 -742.876 -743.008 -743.052 -742.899 -743.354 -743.592 -743.745 -743.805 -743.596 -744.073 -744.295 -744.44 -744.503 -744.252 -744.69 -744.86 -744.972 -745.026 -744.759 -745.123 -745.248 -745.338 -745.396 -745.167 -745.455 -745.555 -745.639 -745.712 -745.551 -745.767 -745.844 -745.917 -745.99 -745.894 -746.036 -746.09 -746.145 -746.199 -746.162 -746.243 -746.288 -746.332 -746.376 -746.391 -746.439 -746.486 -746.533 -746.58 -746.635 -746.671 -746.723 -746.774 -746.826 -746.906 -746.943 -747 -747.056 -747.112 -747.203 -747.255 -747.319 -747.382 -747.446 -747.539 -747.614 -747.688 -747.762 -747.837 -747.926 -748.03 -748.119 -748.208 -748.296 -748.384 -748.518 -748.622 -748.727 -748.831 -748.918 -749.078 -749.198 -749.317 -749.436 -749.525 -749.706 -749.838 -749.971 -750.103 -750.198 -750.394 -750.54 -750.686 -750.832 -750.937 -751.145 -751.305 -751.465 -751.625 -751.747 -751.962 -752.136 -752.309 -752.483 -752.624 -752.845 -753.035 -753.224 -753.413 -753.58 -753.807 -754.014 -754.22 -754.426 -754.621 -754.852 -755.073 -755.294 -755.515 -755.735 -755.758 -755.781 -755.804 -755.827 -755.85 -756.061 -756.272 -756.483 -756.693 -756.935 -757.155 -757.403 -757.651 -757.898 -758.208 -758.416 -758.677 -758.938 -759.199 -759.548 -759.748 -760.021 -760.295 -760.568 -760.947 -761.146 -761.431 -761.715 -762 -762.401 -762.605 -762.901 -763.196 -763.492 -763.906 -764.123 -764.428 -764.734 -765.039 -765.457 -765.693 -766.007 -766.322 -766.637 -767.048 -767.309 -767.632 -767.954 -768.277 -768.676 -768.966 -769.296 -769.626 -769.956 -770.336 -770.659 -770.996 -771.333 -771.671 -772.027 -772.384 -772.728 -773.072 -773.416 -773.746 -774.138 -774.489 -774.839 -775.186 -775.493 -775.911 -776.275 -776.631 -776.975 -777.265 -777.704 -778.084 -778.446 -778.783 -779.06 -779.515 -779.912 -780.279 -780.608 -780.878 -781.344 -781.76 -782.133 -782.453 -782.723 -783.199 -783.634 -784.014 -784.327 -784.597 -785.082 -785.537 -785.923 -786.226 -786.498 -786.988 -787.459 -787.849 -788.14 -788.414 -788.901 -789.383 -789.773 -790.057 -790.337 -790.818 -791.298 -791.687 -791.977 -792.267 -792.738 -793.209 -793.598 -793.901 -794.204 -794.664 -795.123 -795.513 -795.831 -796.149 -796.597 -797.044 -797.434 -797.767 -798.1 -798.534 -798.969 -799.359 -799.706 -800.052 -800.474 -800.895 -801.285 -801.643 -802.001 -802.409 -802.818 -803.206 -803.573 -803.94 -804.335 -804.731 -805.115 -805.488 -805.861 -806.244 -806.626 -807.006 -807.382 -807.758 -808.127 -808.498 -808.871 -809.245 -809.62 -809.976 -810.336 -810.701 -811.069 -811.439 -811.782 -812.131 -812.485 -812.843 -813.206 -813.533 -813.87 -814.212 -814.556 -814.907 -815.218 -815.542 -815.869 -816.197 -816.532 -816.826 -817.134 -817.443 -817.752 -818.069 -818.345 -818.634 -818.923 -819.212 -819.509 -819.764 -820.032 -820.3 -820.568 -820.845 -821.079 -821.325 -821.57 -821.816 -822.069 -822.282 -822.504 -822.726 -822.948 -823.174 -823.365 -823.562 -823.758 -823.954 -824.151 -824.193 -824.235 -824.277 -824.319 -824.36 -824.487 -824.615 -824.742 -824.869 -824.995 -825.136 -825.274 -825.413 -825.552 -825.687 -825.798 -825.903 -826.009 -826.115 -826.215 -826.296 -826.367 -826.438 -826.51 -826.572 -826.62 -826.655 -826.69 -826.724 -826.745 -826.76 -826.755 -826.75 -826.744 -826.722 -826.697 -826.655 -826.608 -826.556 -826.491 -826.424 -826.343 -826.252 -826.151 -826.04 -825.929 -825.808 -825.671 -825.518 -825.359 -825.2 -825.038 -824.852 -824.644 -824.435 -824.226 -824.018 -823.78 -823.517 -823.254 -822.993 -822.732 -822.442 -822.124 -821.806 -821.489 -821.173 -820.828 -820.452 -820.076 -819.702 -819.328 -818.925 -818.488 -818.051 -817.617 -817.181 -816.715 -816.219 -815.72 -815.222 -814.715 -814.185 -813.633 -813.068 -812.505 -811.923 -811.326 -810.717 -810.084 -809.452 -808.792 -808.125 -807.457 -806.754 -806.049 -805.31 -804.571 -803.832 -803.066 -802.278 -801.465 -800.652 -799.839 -799.01 -798.135 -797.246 -796.356 -795.467 -794.574 -794.239 -793.9 -793.561 -793.222 -792.891 -792.264 -791.637 -791.011 -790.385 -789.748 -788.717 -787.675 -786.633 -785.591 -784.524 -783.427 -782.304 -781.181 -780.058 -778.891 -777.729 -776.523 -775.317 -774.104 -772.842 -771.6 -770.323 -769.033 -767.717 -766.368 -765.041 -763.697 -762.321 -760.899 -759.464 -758.049 -756.636 -755.169 -753.645 -752.121 -750.619 -749.117 -747.56 -745.948 -744.335 -742.744 -741.153 -739.505 -737.802 -736.099 -734.417 -732.726 -730.981 -729.202 -727.408 -725.635 -723.829 -721.993 -720.143 -718.258 -716.393 -714.47 -712.542 -710.614 -708.644 -706.668 -704.646 -702.625 -700.604 -698.564 -696.885 -695.185 -693.486 -691.787 -690.175 -689.744 -689.314 -688.884 -688.454 -688.018 -685.826 -683.631 -681.435 -679.241 -677.013 -674.752 -672.462 -670.174 -667.886 -665.536 -663.196 -660.822 -658.44 -656.03 -653.585 -651.152 -648.709 -646.234 -643.701 -641.162 -638.634 -636.108 -633.53 -630.898 -628.265 -625.645 -623.025 -620.348 -617.622 -614.897 -612.184 -609.445 -606.668 -603.876 -601.058 -598.253 -595.388 -592.519 -589.65 -586.752 -583.826 -580.865 -577.904 -574.944 -571.982 -571.869 -571.754 -571.64 -571.525 -571.411 -568.48 -565.55 -562.62 -559.691 -556.738 -553.619 -550.485 -547.352 -544.218 -541.04 -537.841 -534.628 -531.408 -528.161 -524.896 -521.61 -518.325 -515.013 -511.663 -508.312 -504.941 -501.57 -498.164 -494.731 -491.297 -487.842 -484.374 -480.878 -477.374 -473.859 -470.323 -466.749 -463.172 -459.596 -456.008 -453.305 -450.583 -447.861 -445.14 -442.53 -441.576 -440.621 -439.667 -438.713 -437.752 -434.029 -430.304 -426.579 -422.854 -419.095 -415.312 -411.513 -407.714 -403.899 -400.057 -396.202 -392.345 -388.473 -384.563 -380.651 -376.726 -372.801 -368.846 -364.869 -360.891 -356.898 -352.893 -348.864 -344.832 -340.79 -336.732 -332.64 -328.55 -324.459 -320.364 -318.659 -316.945 -315.232 -313.518 -311.84 -309.399 -306.958 -304.517 -302.076 -299.62 -295.422 -291.22 -287.018 -282.813 -278.577 -274.33 -270.079 -265.824 -261.545 -257.258 -252.959 -248.662 -244.347 -240.014 -235.68 -231.334 -226.983 -222.612 -218.239 -213.861 -209.472 -205.059 -200.647 -196.235 -191.82 -190.306 -188.785 -187.265 -185.745 -184.25 -181.315 -178.38 -175.445 -172.511 -169.564 -165.081 -160.596 -156.112 -151.623 -147.116 -142.601 -138.087 -133.572 -129.037 -124.502 -119.958 -115.414 -110.857 -106.296 -101.733 -97.1622 -92.5828 -87.9984 -83.4145 -78.8309 -75.5628 -72.2899 -69.0172 -65.7448 -62.5746 -61.2246 -59.8746 -58.5246 -57.1747 -55.8217 -51.2015 -46.5829 -41.9648 -37.3466 -32.7148 -28.0781 -23.444 -18.813 -14.1738 -9.53135 -4.88329 -0.235813 4.41456 9.0606 13.7088 18.3633 23.0191 27.6759 32.3322 36.9836 39.937 42.8906 45.844 48.7972 51.6746 53.3961 55.1175 56.8388 58.5601 60.2826 64.9489 69.6101 74.2709 78.9314 83.5942 88.2604 92.9246 97.5792 102.231 106.886 111.544 116.202 120.855 125.498 130.141 134.789 139.429 144.069 148.708 153.345 154.259 155.171 156.083 156.995 157.901 161.622 165.343 169.064 172.785 176.502 181.131 185.749 190.365 194.973 199.581 204.19 208.799 213.395 217.978 222.562 227.148 231.726 236.298 240.869 245.432 247.553 249.666 251.779 253.892 255.972 258.418 260.863 263.308 265.753 268.192 272.733 277.262 281.79 286.311 290.826 295.338 299.851 304.346 308.826 313.308 317.787 322.257 326.716 331.176 335.625 337.736 339.837 341.938 344.038 346.109 348.446 350.783 353.119 355.456 357.783 362.198 366.598 370.999 375.388 379.77 384.146 388.521 392.879 397.217 401.558 405.892 410.21 414.521 418.831 423.136 424.243 425.344 426.445 427.546 428.639 431.82 435 438.18 441.359 444.524 448.777 453.021 457.259 461.477 465.693 469.898 474.104 478.285 482.455 486.623 490.114 493.586 497.056 500.525 503.928 504.605 505.282 505.96 506.636 507.31 511.414 515.513 519.611 523.703 527.778 531.838 535.898 539.937 543.956 547.977 551.982 555.971 559.948 563.925 567.896 568.792 569.683 570.573 571.463 572.349 575.397 578.446 581.494 584.538 587.564 591.463 595.358 599.237 603.089 606.942 610.779 614.605 618.41 622.215 626.004 627.489 628.964 630.436 631.908 633.374 635.658 637.941 640.225 642.503 644.767 648.483 652.187 655.882 659.544 663.205 666.847 670.481 674.083 677.683 681.26 682.82 684.369 685.915 687.461 689.015 691.011 693.006 695.002 696.994 698.973 702.481 705.956 709.409 712.777 716.138 719.479 722.847 726.331 729.823 733.366 734.987 736.302 737.522 738.741 739.988 741.654 743.32 744.986 746.55 747.764 749.985 752.825 755.918 760.492 765.264 769.921 773.979 776.421 778.867 780.963 781.123 781.32 781.572 781.825 782.079 783.896 785.715 787.534 789.845 792.475 795.425 798.367 801.171 803.975 806.715 807.26 807.793 808.307 808.82 809.343 811.544 813.743 815.941 818.068 820.15 822.759 825.366 827.877 830.372 832.815 833.436 834.042 834.622 835.202 835.802 837.623 839.441 841.257 843.005 844.707 846.978 849.247 851.355 853.38 855.355 856.036 856.687 857.287 857.886 858.523 859.762 860.999 862.232 863.384 864.474 866.108 867.735 869.162 870.382 871.593 872.258 872.834 873.308 873.78 874.313 874.735 875.155 875.573 875.935 876.232 876.867 877.385 877.798 877.863 877.917 877.837 877.557 877.04 876.516 875.894 875.766 875.594 875.399 875.202 874.999 874.063 873.116 872.157 871.065 869.693 867.879 866.053 863.786 861.108 858.418 855.47 852.133 848.537 844.934 841.15 840.205 839.136 838.046 836.956 835.788 832.209 828.619 825.019 821.37 817.284 811.619 805.65 799.414 792.438 785.354 777.8 770.234 762.095 753.472 744.791 735.586 725.215 714.544 703.87 692.691 687.941 683.182 678.422 673.661 668.247 660.828 653.406 645.979 638.547 631.074 617.233 601.527 585.789 569.105 549.776 529.475 509.773 492.214 478.23 464.319 449.66 435.002 407.543 367.753 327.929 286.311 253.414 237.008 228.37 231.282 234.003 177.4 120.02 62.3453 0