# vtk DataFile Version 2.0
track0
ASCII
DATASET POLYDATA
POINTS 11930 float
-0.0205 0.001 1e-005
-0.0203851 0.00100536 1.50245e-005
-0.0202701 0.00101047 1.96644e-005
-0.0201551 0.00101535 2.39724e-005
-0.0200401 0.00102 2.7944e-005
-0.0198623 0.00102682 3.3552e-005
-0.0196933 0.00103276 3.80986e-005
-0.0195242 0.00103809 4.16137e-005
-0.0193551 0.00104281 4.41063e-005
-0.019186 0.00104692 4.55855e-005
-0.0190172 0.00105042 4.60598e-005
-0.0187132 0.00105593 4.60598e-005
-0.0184093 0.0010608 4.60598e-005
-0.0181054 0.00106514 4.60598e-005
-0.0178014 0.00106895 4.60598e-005
-0.0174976 0.00107224 4.60598e-005
-0.0172058 0.0010751 4.60598e-005
-0.016914 0.00107788 4.60598e-005
-0.0166222 0.0010806 4.60598e-005
-0.0163305 0.00108325 4.60598e-005
-0.0160387 0.00108584 4.60598e-005
-0.0157586 0.00108823 4.60598e-005
-0.0154784 0.00109055 4.60598e-005
-0.0151983 0.00109279 4.60598e-005
-0.0149182 0.00109495 4.60598e-005
-0.0146381 0.00109702 4.60598e-005
-0.0143692 0.00109889 4.60598e-005
-0.0141002 0.00110067 4.60598e-005
-0.0138313 0.00110236 4.60598e-005
-0.0135624 0.00110399 4.60598e-005
-0.0132934 0.00110553 4.60598e-005
-0.0130353 0.00110694 4.60598e-005
-0.0127771 0.00110829 4.60598e-005
-0.0125189 0.0011096 4.60598e-005
-0.0122607 0.00111088 4.60598e-005
-0.0120025 0.00111212 4.60598e-005
-0.0117547 0.00111327 4.60598e-005
-0.0115068 0.0011144 4.60598e-005
-0.0112589 0.00111551 4.60598e-005
-0.0110111 0.00111661 4.60598e-005
-0.0107632 0.00111769 4.60598e-005
-0.0105252 0.0011187 4.60598e-005
-0.0102873 0.0011197 4.60598e-005
-0.0100493 0.00112069 4.60598e-005
-0.00981133 0.00112167 4.60598e-005
-0.00957337 0.00112264 4.60598e-005
-0.00934491 0.00112355 4.60598e-005
-0.00911645 0.00112445 4.60598e-005
-0.00888799 0.00112534 4.60598e-005
-0.00865954 0.00112623 4.60598e-005
-0.00843108 0.0011271 4.60598e-005
-0.00821175 0.00112793 4.60598e-005
-0.00799242 0.00112876 4.60598e-005
-0.00777309 0.00112957 4.60598e-005
-0.00755376 0.00113039 4.60598e-005
-0.00733443 0.00113119 4.60598e-005
-0.00712387 0.00113196 4.60598e-005
-0.0069133 0.00113273 4.60598e-005
-0.00670273 0.00113349 4.60598e-005
-0.00649216 0.00113425 4.60598e-005
-0.0062816 0.001135 4.60598e-005
-0.00607944 0.00113573 4.60598e-005
-0.00587729 0.00113645 4.60598e-005
-0.00567514 0.00113717 4.60598e-005
-0.00547298 0.00113788 4.60598e-005
-0.00527083 0.0011386 4.60598e-005
-0.00507675 0.00113929 4.60598e-005
-0.00488267 0.00113997 4.60598e-005
-0.0046886 0.00114066 4.60598e-005
-0.00449452 0.00114134 4.60598e-005
-0.00430044 0.00114202 4.60598e-005
-0.00411412 0.00114268 4.60598e-005
-0.0039278 0.00114333 4.60598e-005
-0.00374147 0.00114399 4.60598e-005
-0.00355515 0.00114464 4.60598e-005
-0.00336883 0.0011453 4.60598e-005
-0.00318995 0.00114593 4.60598e-005
-0.00301107 0.00114656 4.60598e-005
-0.00283219 0.00114719 4.60598e-005
-0.00265331 0.00114781 4.60598e-005
-0.00247443 0.00114845 4.60598e-005
-0.0023027 0.00114906 4.60598e-005
-0.00213097 0.00114967 4.60598e-005
-0.00195924 0.00115028 4.60598e-005
-0.0017875 0.00115089 4.60598e-005
-0.00161577 0.0011515 4.60598e-005
-0.0014509 0.0011521 4.60598e-005
-0.00128603 0.00115269 4.60598e-005
-0.00112116 0.00115328 4.60598e-005
-0.000956289 0.00115388 4.60598e-005
-0.000791418 0.00115448 4.60598e-005
-0.000633135 0.00115507 4.60598e-005
-0.000474851 0.00115566 4.60598e-005
-0.000316567 0.00115624 4.60598e-005
-0.000158284 0.00115683 4.60598e-005
0 0.00115743 4.60598e-005
0.000105677 0.00115784 4.60598e-005
0.000211355 0.00115825 4.60598e-005
0.000317032 0.00115865 4.60598e-005
0.00042271 0.00115906 4.60598e-005
0.000528387 0.00115948 4.60598e-005
0.000634886 0.0011599 4.60598e-005
0.000741385 0.00116033 4.60598e-005
0.000847885 0.00116075 4.60598e-005
0.000954384 0.00116119 4.60598e-005
0.00106088 0.00116162 4.60598e-005
0.00116821 0.00116208 4.60598e-005
0.00127554 0.00116253 4.60598e-005
0.00138286 0.00116298 4.60598e-005
0.00149019 0.00116344 4.60598e-005
0.00159752 0.0011639 4.60598e-005
0.00170568 0.00116438 4.60598e-005
0.00181384 0.00116486 4.60598e-005
0.001922 0.00116534 4.60598e-005
0.00203016 0.00116581 4.60598e-005
0.00213833 0.0011663 4.60598e-005
0.00224733 0.00116679 4.60598e-005
0.00235633 0.00116728 4.60598e-005
0.00246533 0.00116778 4.60598e-005
0.00257434 0.00116827 4.60598e-005
0.00268334 0.00116877 4.60598e-005
0.00279319 0.00116927 4.60598e-005
0.00290304 0.00116978 4.60598e-005
0.00301289 0.00117029 4.60598e-005
0.00312274 0.0011708 4.60598e-005
0.00323259 0.0011713 4.60598e-005
0.00334329 0.00117181 4.60598e-005
0.003454 0.00117233 4.60598e-005
0.0035647 0.00117285 4.60598e-005
0.0036754 0.00117337 4.60598e-005
0.00378611 0.00117389 4.60598e-005
0.00389767 0.0011744 4.60598e-005
0.00400924 0.00117493 4.60598e-005
0.0041208 0.00117546 4.60598e-005
0.00423237 0.00117599 4.60598e-005
0.00434393 0.00117652 4.60598e-005
0.00445636 0.00117703 4.60598e-005
0.00456879 0.00117757 4.60598e-005
0.00468123 0.00117811 4.60598e-005
0.00479366 0.00117864 4.60598e-005
0.00490609 0.00117918 4.60598e-005
0.0050194 0.00117969 4.60598e-005
0.0051327 0.00118023 4.60598e-005
0.00524601 0.00118077 4.60598e-005
0.00535931 0.00118132 4.60598e-005
0.00547262 0.00118186 4.60598e-005
0.00558681 0.00118237 4.60598e-005
0.005701 0.00118291 4.60598e-005
0.00581518 0.00118346 4.60598e-005
0.00592937 0.001184 4.60598e-005
0.00604356 0.00118454 4.60598e-005
0.00615863 0.00118507 4.60598e-005
0.00627371 0.00118561 4.60598e-005
0.00638878 0.00118615 4.60598e-005
0.00650386 0.0011867 4.60598e-005
0.00661893 0.00118724 4.60598e-005
0.0067349 0.00118776 4.60598e-005
0.00685087 0.0011883 4.60598e-005
0.00696684 0.00118885 4.60598e-005
0.00708281 0.00118939 4.60598e-005
0.00719878 0.00118993 4.60598e-005
0.00731565 0.00119045 4.60598e-005
0.00743252 0.00119099 4.60598e-005
0.00754939 0.00119153 4.60598e-005
0.00766626 0.00119206 4.60598e-005
0.00778313 0.0011926 4.60598e-005
0.00790091 0.00119312 4.60598e-005
0.00801869 0.00119366 4.60598e-005
0.00813647 0.00119419 4.60598e-005
0.00825425 0.00119472 4.60598e-005
0.00837203 0.00119525 4.60598e-005
0.00849073 0.00119577 4.60598e-005
0.00860942 0.0011963 4.60598e-005
0.00872812 0.00119683 4.60598e-005
0.00884682 0.00119735 4.60598e-005
0.00896551 0.00119788 4.60598e-005
0.00908513 0.00119839 4.60598e-005
0.00920475 0.00119892 4.60598e-005
0.00932437 0.00119944 4.60598e-005
0.00944398 0.00119995 4.60598e-005
0.0095636 0.00120047 4.60598e-005
0.00968415 0.00120098 4.60598e-005
0.0098047 0.0012015 4.60598e-005
0.00992525 0.00120201 4.60598e-005
0.0100458 0.00120252 4.60598e-005
0.0101663 0.00120303 4.60598e-005
0.0102878 0.00120354 4.60598e-005
0.0104093 0.00120404 4.60598e-005
0.0105308 0.00120455 4.60598e-005
0.0106523 0.00120505 4.60598e-005
0.0107738 0.00120555 4.60598e-005
0.0108962 0.00120605 4.60598e-005
0.0110186 0.00120655 4.60598e-005
0.0111411 0.00120704 4.60598e-005
0.0112635 0.00120754 4.60598e-005
0.0113859 0.00120803 4.60598e-005
0.0115093 0.00120851 4.60598e-005
0.0116327 0.001209 4.60598e-005
0.0117561 0.00120949 4.60598e-005
0.0118795 0.00120997 4.60598e-005
0.0120028 0.00121045 4.60598e-005
0.0121272 0.00121093 4.60598e-005
0.0122515 0.0012114 4.60598e-005
0.0123759 0.00121188 4.60598e-005
0.0125002 0.00121235 4.60598e-005
0.0126245 0.00121282 4.60598e-005
0.0127498 0.00121328 4.60598e-005
0.0128752 0.00121375 4.60598e-005
0.0130005 0.00121421 4.60598e-005
0.0131258 0.00121467 4.60598e-005
0.0132511 0.00121513 4.60598e-005
0.0133774 0.00121557 4.60598e-005
0.0135036 0.00121603 4.60598e-005
0.0136299 0.00121647 4.60598e-005
0.0137562 0.00121692 4.60598e-005
0.0138825 0.00121736 4.60598e-005
0.0140098 0.00121779 4.60598e-005
0.014137 0.00121823 4.60598e-005
0.0142643 0.00121866 4.60598e-005
0.0143915 0.00121909 4.60598e-005
0.0145188 0.00121951 4.60598e-005
0.0146471 0.00121993 4.60598e-005
0.0147753 0.00122035 4.60598e-005
0.0149036 0.00122076 4.60598e-005
0.0150318 0.00122117 4.60598e-005
0.0151601 0.00122157 4.60598e-005
0.0152893 0.00122197 4.60598e-005
0.0154186 0.00122237 4.60598e-005
0.0155478 0.00122276 4.60598e-005
0.0156771 0.00122315 4.60598e-005
0.0158063 0.00122353 4.60598e-005
0.0159366 0.0012239 4.60598e-005
0.0160668 0.00122428 4.60598e-005
0.0161971 0.00122465 4.60598e-005
0.0163274 0.00122501 4.60598e-005
0.0164576 0.00122537 4.60598e-005
0.0165889 0.00122572 4.60598e-005
0.0167201 0.00122607 4.60598e-005
0.0168514 0.00122641 4.60598e-005
0.0169827 0.00122675 4.60598e-005
0.0171139 0.00122708 4.60598e-005
0.0172076 0.00122731 4.60598e-005
0.0173013 0.00122754 4.60598e-005
0.0173949 0.00122776 4.60598e-005
0.0174886 0.00122799 4.60598e-005
0.0175793 0.0012282 4.60598e-005
0.0176185 0.00122829 4.60598e-005
0.0176577 0.00122838 4.60598e-005
0.0176969 0.00122847 4.60598e-005
0.0177362 0.00122855 4.60598e-005
0.0177754 0.00122864 4.60598e-005
0.0179087 0.00122894 4.60598e-005
0.018042 0.00122923 4.60598e-005
0.0181753 0.00122951 4.60598e-005
0.0183087 0.00122978 4.60598e-005
0.018442 0.00123005 4.60598e-005
0.0185763 0.00123031 4.60598e-005
0.0187107 0.00123056 4.60598e-005
0.018845 0.0012308 4.60598e-005
0.0189794 0.00123104 4.60598e-005
0.0191137 0.00123127 4.60598e-005
0.0192491 0.00123149 4.60598e-005
0.0193845 0.0012317 4.60598e-005
0.0195199 0.00123191 4.60598e-005
0.0196553 0.00123211 4.60598e-005
0.0197907 0.00123229 4.60598e-005
0.0199272 0.00123247 4.60598e-005
0.0200636 0.00123264 4.60598e-005
0.0202001 0.00123281 4.60598e-005
0.0203365 0.00123296 4.60598e-005
0.020473 0.0012331 4.60598e-005
0.0206105 0.00123324 4.60598e-005
0.020748 0.00123336 4.60598e-005
0.0208855 0.00123348 4.60598e-005
0.021023 0.00123359 4.60598e-005
0.0211606 0.00123368 4.60598e-005
0.0212991 0.00123377 4.60598e-005
0.0214377 0.00123384 4.60598e-005
0.0215763 0.00123391 4.60598e-005
0.0217149 0.00123397 4.60598e-005
0.0218535 0.00123401 4.60598e-005
0.0219931 0.00123405 4.60598e-005
0.0221328 0.00123408 4.60598e-005
0.0222724 0.00123409 4.60598e-005
0.0224121 0.00123409 4.60598e-005
0.0225517 0.00123408 4.60598e-005
0.0226925 0.00123407 4.60598e-005
[...]
POINT_DATA 11930
 FIELD attributes 2
p 1 11930 float
-1546.03 -1533.46 -1519.68 -1506.04 -1492.56 -1471.97 -1457.33 -1442.62 -1427.83 -1412.97 -1392.25 -1344.17 -1296.16 -1248.2 -1200.32 -1157.84 -1126.18 -1100.7 -1075.22 -1049.76 -1032.9 -1021.13 -1011.64 -1002.16 -992.685 -985.066 -978.31 -970.408 -962.505 -954.602 -945.558 -937.098 -928.445 -919.788 -911.148 -902.731 -894.748 -887.548 -880.438 -873.48 -867.436 -861.649 -856.44 -851.351 -846.416 -842.078 -837.907 -833.961 -830.084 -826.296 -822.756 -819.346 -816.065 -812.836 -809.68 -806.681 -803.783 -801.008 -798.299 -795.671 -793.183 -790.767 -788.462 -786.228 -784.078 -782.047 -780.06 -778.154 -776.312 -774.544 -772.864 -771.2 -769.599 -768.054 -766.576 -765.167 -763.747 -762.375 -761.053 -759.796 -758.594 -757.357 -756.161 -755.02 -753.949 -752.93 -751.848 -750.794 -749.782 -748.843 -747.951 -746.975 -746.048 -745.209 -744.489 -743.833 -743.105 -742.438 -741.885 -741.468 -741.133 -740.629 -740.166 -739.762 -739.452 -739.213 -738.791 -738.475 -738.279 -738.2 -738.236 -738.085 -738.021 -738.035 -738.114 -738.272 -738.384 -738.482 -738.571 -738.65 -738.715 -738.987 -739.153 -739.258 -739.303 -739.234 -739.62 -739.83 -739.959 -740.004 -739.842 -740.306 -740.541 -740.694 -740.758 -740.54 -741.03 -741.247 -741.392 -741.462 -741.201 -741.651 -741.817 -741.928 -741.987 -741.71 -742.086 -742.206 -742.295 -742.358 -742.116 -742.417 -742.513 -742.596 -742.673 -742.499 -742.728 -742.803 -742.876 -742.95 -742.849 -743.001 -743.058 -743.116 -743.174 -743.135 -743.227 -743.277 -743.327 -743.377 -743.392 -743.452 -743.506 -743.56 -743.614 -743.671 -743.72 -743.78 -743.84 -743.9 -743.984 -744.033 -744.099 -744.164 -744.229 -744.325 -744.387 -744.459 -744.531 -744.602 -744.699 -744.782 -744.863 -744.944 -745.025 -745.119 -745.228 -745.321 -745.415 -745.508 -745.599 -745.736 -745.843 -745.95 -746.057 -746.147 -746.308 -746.428 -746.548 -746.669 -746.76 -746.94 -747.072 -747.205 -747.337 -747.434 -747.626 -747.771 -747.916 -748.06 -748.167 -748.369 -748.526 -748.684 -748.841 -748.963 -749.17 -749.339 -749.509 -749.678 -749.819 -750.031 -750.215 -750.399 -750.583 -750.748 -750.966 -751.168 -751.369 -751.57 -751.763 -751.922 -752.075 -752.228 -752.38 -752.528 -752.592 -752.656 -752.72 -752.784 -752.858 -753.076 -753.304 -753.532 -753.759 -754.032 -754.233 -754.473 -754.714 -754.954 -755.271 -755.459 -755.712 -755.965 -756.219 -756.572 -756.753 -757.018 -757.283 -757.548 -757.931 -758.112 -758.388 -758.665 -758.941 -759.344 -759.532 -759.82 -760.107 -760.395 -760.809 -761.012 -761.31 -761.607 -761.905 -762.322 -762.547 -762.854 -763.162 -763.469 -763.878 -764.132 -764.448 -764.765 -765.082 -765.476 -765.763 -766.089 -766.414 -766.739 -767.113 -767.437 -767.77 -768.104 -768.437 -768.785 -769.147 -769.488 -769.83 -770.171 -770.491 -770.889 -771.24 -771.588 -771.931 -772.228 -772.654 -773.021 -773.377 -773.717 -773.998 -774.446 -774.832 -775.194 -775.528 -775.798 -776.262 -776.668 -777.038 -777.363 -777.63 -778.105 -778.532 -778.91 -779.228 -779.497 -779.983 -780.431 -780.817 -781.128 -781.399 -781.894 -782.361 -782.754 -783.055 -783.329 -783.827 -784.309 -784.705 -784.996 -785.273 -785.767 -786.258 -786.654 -786.938 -787.222 -787.708 -788.193 -788.586 -788.88 -789.175 -789.649 -790.123 -790.516 -790.823 -791.13 -791.591 -792.052 -792.443 -792.764 -793.084 -793.53 -793.977 -794.367 -794.7 -795.032 -795.464 -795.895 -796.283 -796.627 -796.97 -797.386 -797.803 -798.187 -798.54 -798.892 -799.293 -799.694 -800.074 -800.434 -800.793 -801.179 -801.565 -801.939 -802.303 -802.667 -803.038 -803.409 -803.777 -804.143 -804.508 -804.865 -805.223 -805.584 -805.947 -806.31 -806.653 -807 -807.353 -807.708 -808.067 -808.396 -808.733 -809.075 -809.42 -809.771 -810.086 -810.412 -810.743 -811.075 -811.416 -811.717 -812.032 -812.349 -812.666 -812.994 -813.279 -813.58 -813.881 -814.182 -814.493 -814.761 -815.044 -815.328 -815.611 -815.904 -816.155 -816.419 -816.683 -816.948 -817.221 -817.453 -817.697 -817.941 -818.185 -818.436 -818.649 -818.871 -819.093 -819.316 -819.541 -819.735 -819.934 -820.132 -820.33 -820.529 -820.536 -820.543 -820.55 -820.557 -820.564 -820.73 -820.896 -821.062 -821.228 -821.393 -821.538 -821.681 -821.824 -821.967 -822.106 -822.223 -822.334 -822.444 -822.555 -822.659 -822.746 -822.822 -822.898 -822.975 -823.041 -823.096 -823.136 -823.176 -823.216 -823.241 -823.263 -823.264 -823.264 -823.263 -823.247 -823.229 -823.193 -823.152 -823.105 -823.045 -822.985 -822.91 -822.825 -822.729 -822.623 -822.517 -822.403 -822.271 -822.123 -821.968 -821.815 -821.659 -821.478 -821.273 -821.068 -820.864 -820.661 -820.428 -820.169 -819.91 -819.654 -819.398 -819.112 -818.797 -818.482 -818.17 -817.859 -817.517 -817.144 -816.772 -816.402 -816.032 -815.633 -815.199 -814.766 -814.335 -813.902 -813.44 -812.949 -812.453 -811.96 -811.455 -810.929 -810.382 -809.821 -809.262 -808.683 -808.09 -807.487 -806.858 -806.232 -805.575 -804.913 -804.251 -803.553 -802.852 -802.119 -801.386 -800.653 -799.894 -799.111 -798.304 -797.497 -796.691 -795.87 -795.001 -794.119 -793.237 -792.355 -791.47 -791.227 -790.981 -790.735 -790.489 -790.247 -789.537 -788.827 -788.117 -787.408 -786.687 -785.665 -784.633 -783.6 -782.568 -781.509 -780.424 -779.311 -778.198 -777.086 -775.929 -774.779 -773.584 -772.39 -771.187 -769.937 -768.707 -767.444 -766.166 -764.861 -763.527 -762.211 -760.881 -759.519 -758.11 -756.689 -755.287 -753.887 -752.434 -750.925 -749.417 -747.929 -746.441 -744.899 -743.302 -741.706 -740.129 -738.553 -736.921 -735.235 -733.549 -731.883 -730.206 -728.478 -726.717 -724.941 -723.184 -721.393 -719.574 -717.742 -715.875 -714.027 -712.12 -710.209 -708.298 -706.347 -704.387 -702.383 -700.378 -698.374 -696.353 -694.745 -693.118 -691.491 -689.864 -688.317 -687.834 -687.35 -686.867 -686.383 -685.894 -683.72 -681.542 -679.364 -677.186 -674.975 -672.731 -670.459 -668.188 -665.917 -663.583 -661.26 -658.903 -656.538 -654.144 -651.716 -649.298 -646.873 -644.414 -641.896 -639.373 -636.861 -634.351 -631.788 -629.171 -626.553 -623.948 -621.344 -618.681 -615.97 -613.259 -610.56 -607.836 -605.073 -602.295 -599.49 -596.699 -593.847 -590.991 -588.135 -585.25 -582.337 -579.387 -576.438 -573.49 -570.54 -570.381 -570.22 -570.059 -569.898 -569.737 -566.864 -563.991 -561.118 -558.246 -555.35 -552.241 -549.117 -545.993 -542.869 -539.699 -536.509 -533.304 -530.092 -526.852 -523.594 -520.315 -517.037 -513.732 -510.386 -507.041 -503.675 -500.31 -496.908 -493.477 -490.046 -486.595 -483.13 -479.636 -476.134 -472.62 -469.085 -465.512 -461.936 -458.36 -454.771 -451.953 -449.115 -446.277 -443.44 -440.724 -439.882 -439.04 -438.198 -437.356 -436.508 -432.782 -429.053 -425.324 -421.596 -417.834 -414.047 -410.243 -406.438 -402.618 -398.77 -394.908 -391.045 -387.167 -383.248 -379.328 -375.394 -371.462 -367.498 -363.51 -359.521 -355.519 -351.504 -347.464 -343.419 -339.364 -335.295 -331.19 -327.085 -322.981 -318.87 -317.053 -315.225 -313.398 -311.57 -309.784 -307.439 -305.095 -302.751 -300.406 -298.047 -293.832 -289.611 -285.391 -281.168 -276.912 -272.645 -268.374 -264.098 -259.797 -255.486 -251.166 -246.847 -242.507 -238.149 -233.789 -229.418 -225.042 -220.643 -216.242 -211.836 -207.419 -202.976 -198.534 -194.091 -189.646 -188.084 -186.517 -184.949 -183.382 -181.841 -178.92 -175.999 -173.079 -170.159 -167.225 -162.707 -158.187 -153.668 -149.143 -144.597 -140.046 -135.494 -130.94 -126.366 -121.789 -117.206 -112.623 -108.024 -103.421 -98.8157 -94.2025 -89.58 -84.952 -80.3245 -75.6957 -72.4934 -69.2856 -66.078 -62.8707 -59.7633 -58.3027 -56.8422 -55.3816 -53.9212 -52.4571 -47.7899 -43.1239 -38.4585 -33.7926 -29.1126 -24.4283 -19.7458 -15.0661 -10.3769 -5.68448 -0.987061 3.70975 8.41064 13.1077 17.807 22.5122 27.2192 31.9271 36.6345 41.3384 44.0424 46.7466 49.4507 52.1546 54.7938 56.8148 58.8357 60.8565 62.8772 64.8995 69.6187 74.3325 79.0458 83.7587 88.4741 93.1926 97.9101 102.617 107.322 112.029 116.739 121.449 126.153 130.85 135.545 140.244 144.934 149.624 154.313 159.004 159.445 159.886 160.327 160.767 161.207 165.449 169.691 173.933 178.175 182.411 187.088 191.756 196.42 201.073 205.727 210.382 215.037 219.679 224.305 228.933 233.563 238.18 242.793 247.405 252.012 253.476 254.935 256.394 257.853 259.296 262.432 265.569 268.705 271.841 274.967 279.547 284.112 288.675 293.226 297.773 302.318 306.862 311.389 315.896 320.406 324.913 329.405 333.89 338.374 342.852 344.156 345.454 346.752 348.05 349.337 352.497 355.657 358.816 361.976 365.121 369.555 373.976 378.393 382.792 387.187 391.576 395.965 400.333 404.679 409.028 413.369 417.688 422.002 426.316 430.631 430.851 431.069 431.287 431.505 431.723 435.789 439.854 443.919 447.983 452.025 456.274 460.52 464.75 468.955 473.162 477.358 481.548 485.716 489.879 494.031 496.597 499.147 501.694 504.242 506.756 508.335 509.914 511.493 513.07 514.639 518.728 522.804 526.879 530.94 534.989 539.022 543.055 547.066 551.053 555.041 559.014 562.961 566.902 570.844 574.786 574.833 574.88 574.926 574.973 575.02 578.876 582.733 586.59 590.441 594.267 598.123 601.98 605.81 609.615 613.421 617.21 620.98 624.734 628.489 632.235 632.95 633.658 634.365 635.073 635.779 638.779 641.779 644.778 647.772 650.744 654.404 658.063 661.693 665.294 668.896 672.479 676.044 679.585 683.126 686.65 687.552 688.446 689.339 690.232 691.128 693.72 696.313 698.905 701.492 704.061 707.504 710.937 714.309 717.605 720.9 724.173 727.503 730.919 734.335 737.793 738.846 739.695 740.482 741.27 742.07 744.172 746.273 748.374 750.347 751.866 754.019 756.487 759.605 764.31 769.009 773.593 777.252 779.629 782.01 784.35 784.368 784.391 784.421 784.45 784.48 786.402 788.326 790.25 792.705 795.515 798.389 801.236 803.964 806.692 809.375 809.728 810.073 810.404 810.736 811.072 813.386 815.698 818.009 820.245 822.431 824.959 827.482 829.91 832.337 834.703 835.192 835.669 836.124 836.58 837.049 838.923 840.794 842.663 844.46 846.209 848.4 850.588 852.608 854.569 856.468 857.066 857.634 858.159 858.682 859.236 860.482 861.726 862.966 864.123 865.214 866.772 868.323 869.68 870.83 871.971 872.579 873.101 873.525 873.948 874.424 874.833 875.24 875.645 875.993 876.274 876.843 877.303 877.647 877.653 877.65 877.511 877.173 876.603 876.026 875.353 875.218 875.04 874.838 874.636 874.426 873.447 872.458 871.456 870.326 868.917 867.062 865.194 862.89 860.18 857.458 854.478 851.122 847.501 843.873 840.056 839.048 837.909 836.749 835.589 834.34 830.811 827.271 823.722 820.126 816.105 810.43 804.436 798.194 791.233 784.149 776.596 769.031 760.911 752.284 743.613 734.421 724.095 713.44 702.784 691.591 686.56 681.522 676.481 671.44 665.667 658.567 651.464 644.356 637.245 630.096 616.211 600.54 584.836 568.254 548.96 528.695 509.102 491.582 477.576 463.712 449.103 434.494 407.07 367.311 327.519 285.933 252.696 236.345 228.142 231.118 233.906 178.05 120.64 62.9361 0