/*--------------------------------*- C++ -*----------------------------------*\
| =========                 |                                                 |
| \\      /  F ield         | OpenFOAM: The Open Source CFD Toolbox           |
|  \\    /   O peration     | Version:  5.x                                   |
|   \\  /    A nd           | Web:      www.OpenFOAM.org                      |
|    \\/     M anipulation  |                                                 |
\*---------------------------------------------------------------------------*/
/*   Windows 32 and 64 bit porting by blueCAPE: http://www.bluecape.com.pt   *\
|  Based on Windows porting (2.0.x v4) by Symscape: http://www.symscape.com   |
\*---------------------------------------------------------------------------*/
FoamFile
{
    version     2.0;
    format      ascii;
    class       volScalarField;
    location    "0.06";
    object      p;
}
// * * * * * * * * * * * * * * * * * * * * * * * * * * * * * * * * * * * * * //

dimensions      [0 2 -2 0 0 0 0];

internalField   nonuniform List<scalar> 
750
(
0.36614236
0.36607904
0.36585924
0.36551985
0.36517508
0.36470119
0.36422863
0.36368829
0.36313707
0.36255648
0.36196294
0.36135465
0.36073627
0.36010411
0.35945248
0.35878123
0.35805862
0.35727703
0.3563955
0.35521749
0.35406283
0.35115639
0.3500108
0.34028263
0.33634021
0.36614481
0.36609392
0.36585746
0.36552929
0.36517585
0.36470583
0.36423009
0.36369049
0.36313818
0.36255755
0.36196375
0.36135537
0.36073694
0.36010497
0.35945395
0.35878325
0.35806205
0.35728444
0.35640119
0.35524232
0.35406545
0.35126272
0.34998891
0.34049825
0.3363321
0.36615636
0.36611111
0.36586502
0.365541
0.36518221
0.36471266
0.36423433
0.36369425
0.36314075
0.36255963
0.36196545
0.3613569
0.36073852
0.3601071
0.35945719
0.35878815
0.3580703
0.35729832
0.35642204
0.35528314
0.35411908
0.35139562
0.35011417
0.34073429
0.33674227
0.36617835
0.36612886
0.36588277
0.36555476
0.36519397
0.36472185
0.36424117
0.36369967
0.36314469
0.36256272
0.36196795
0.36135917
0.36074096
0.36011033
0.35946199
0.35879549
0.35808294
0.35731767
0.3564561
0.35533968
0.35420959
0.35156454
0.35034575
0.34105111
0.33745497
0.36620905
0.36615028
0.36590787
0.36557214
0.36520995
0.36473388
0.36425033
0.36370682
0.36314992
0.36256681
0.36197121
0.36136215
0.36074418
0.36011454
0.35946825
0.35880504
0.35809947
0.35734266
0.35650099
0.3554132
0.35432824
0.3517816
0.3506704
0.34148069
0.33843111
0.36624759
0.3661771
0.36593919
0.3655939
0.36522972
0.36474894
0.36426168
0.36371572
0.36315638
0.36257186
0.36197525
0.3613658
0.36074811
0.36011962
0.35947583
0.35881655
0.35811933
0.35737333
0.35655574
0.35550351
0.35447891
0.35204683
0.35111125
0.34199311
0.33998065
0.36629416
0.36620937
0.36597711
0.36562004
0.36525341
0.36476699
0.36427518
0.36372632
0.36316406
0.36257784
0.36198
0.36137009
0.36075268
0.3601255
0.3594846
0.35882987
0.35814204
0.35740908
0.35661976
0.35560681
0.35465405
0.35233636
0.35163828
0.34251588
0.34247822
0.36634825
0.36624863
0.36602094
0.36565113
0.36528087
0.36478803
0.36429078
0.36373857
0.36317291
0.36258469
0.36198545
0.36137499
0.36075789
0.36013218
0.35949454
0.35884497
0.35816743
0.35744949
0.35669103
0.35572348
0.35485741
0.35268166
0.35231175
0.34329274
0.34617842
0.36640697
0.36630029
0.36606664
0.36568924
0.36531118
0.36481221
0.36430831
0.36375247
0.36318287
0.3625924
0.3619916
0.36138051
0.36076368
0.36013964
0.35950569
0.35886203
0.35819557
0.35749422
0.35676694
0.35585349
0.35510124
0.35313484
0.35325255
0.34473861
0.35058774
0.36646837
0.36636724
0.36611179
0.36573564
0.36534345
0.36483985
0.36432748
0.36376809
0.36319385
0.36260093
0.36199831
0.36138646
0.36076983
0.36014752
0.35951754
0.35888023
0.35822567
0.35754281
0.35684501
0.35599611
0.35533705
0.35368061
0.35417105
0.34684967
0.35540387
0.31197377
0.30157521
0.28528212
0.27329355
0.26029003
0.24765772
0.23492383
0.22223296
0.20952944
0.19683219
0.18413295
0.17143426
0.15873542
0.14603659
0.13333776
0.12063893
0.10794009
0.09524126
0.082542427
0.069843594
0.057144763
0.044445931
0.03174709
0.019048271
0.0063494222
0.31190216
0.30136163
0.28527525
0.27326043
0.260292
0.24765768
0.23492389
0.22223266
0.20952947
0.19683217
0.18413296
0.17143426
0.15873543
0.14603659
0.13333776
0.12063893
0.10794009
0.095241261
0.082542427
0.069843595
0.057144763
0.04444593
0.031747091
0.019048272
0.0063494248
0.3114236
0.30120994
0.28516317
0.27324241
0.26027212
0.24765851
0.23492277
0.22223253
0.20952934
0.19683218
0.18413296
0.17143426
0.15873543
0.14603659
0.13333776
0.12063893
0.10794009
0.09524126
0.082542426
0.069843595
0.057144764
0.044445929
0.031747092
0.01904827
0.0063494269
0.31058819
0.30111189
0.28493873
0.27324493
0.26024107
0.24765784
0.23492107
0.22223241
0.20952913
0.1968322
0.18413296
0.17143427
0.15873543
0.14603659
0.13333776
0.12063893
0.10794009
0.095241258
0.082542428
0.069843597
0.057144763
0.044445928
0.031747093
0.019048264
0.006349426
0.30960577
0.3010846
0.28465931
0.27324031
0.26021536
0.24765533
0.23491896
0.22223231
0.20952888
0.19683224
0.18413295
0.17143428
0.15873543
0.14603659
0.13333776
0.12063893
0.10794009
0.09524126
0.08254243
0.069843596
0.057144761
0.044445928
0.031747097
0.019048257
0.0063494219
0.30867224
0.30109188
0.28446526
0.27318575
0.26019548
0.24765339
0.2349163
0.22223234
0.20952864
0.19683229
0.18413294
0.17143429
0.15873542
0.14603659
0.13333776
0.12063893
0.1079401
0.095241262
0.082542428
0.069843593
0.05714476
0.044445928
0.031747099
0.019048253
0.0063494191
0.3076287
0.30111757
0.28431972
0.27312348
0.26017335
0.24765236
0.23491345
0.22223252
0.20952844
0.19683234
0.18413292
0.1714343
0.15873542
0.14603659
0.13333776
0.12063893
0.1079401
0.095241263
0.082542427
0.069843592
0.05714476
0.044445928
0.031747101
0.019048257
0.0063494212
0.30608021
0.30099901
0.28414606
0.27309788
0.26015597
0.24765152
0.23491133
0.2222327
0.20952835
0.19683241
0.1841329
0.17143431
0.15873542
0.14603659
0.13333776
0.12063893
0.1079401
0.095241263
0.082542428
0.069843593
0.05714476
0.044445928
0.031747102
0.019048271
0.0063494308
0.30331384
0.30073369
0.28402132
0.27310069
0.26014692
0.24765292
0.23491008
0.22223294
0.20952834
0.1968325
0.18413289
0.17143433
0.15873542
0.1460366
0.13333776
0.12063893
0.1079401
0.095241263
0.082542428
0.069843593
0.05714476
0.044445928
0.031747104
0.019048287
0.006349443
0.29764895
0.30111193
0.28391722
0.27321919
0.26011427
0.24766212
0.23490556
0.22223381
0.20952791
0.19683258
0.18413287
0.17143433
0.15873542
0.1460366
0.13333776
0.12063893
0.1079401
0.095241263
0.082542428
0.069843593
0.057144761
0.044445929
0.031747104
0.019048279
0.0063494344
0.36660532
0.36651733
0.36621329
0.3658394
0.36541363
0.36490161
0.36436909
0.36380233
0.36321771
0.36261926
0.36201237
0.36139875
0.36078226
0.36016323
0.35954109
0.35891672
0.35828658
0.35764526
0.35700343
0.3563071
0.35573167
0.3548583
0.35549664
0.35200113
0.36862776
0.3668977
0.36679033
0.36643893
0.36602566
0.36555958
0.36501298
0.36445086
0.3638641
0.36326249
0.36265222
0.36203773
0.3614202
0.36080339
0.3601895
0.359579
0.35897451
0.35837943
0.35779286
0.35723223
0.35667808
0.35622405
0.35573592
0.35588558
0.35376675
0.35858644
0.36728073
0.36713425
0.36672962
0.36625061
0.36573499
0.36514371
0.364546
0.36393397
0.36331268
0.36268809
0.36206416
0.36144151
0.36082331
0.36021313
0.35961275
0.35902636
0.35846193
0.35792435
0.35743579
0.35699815
0.35669227
0.35646506
0.35667777
0.35635472
0.35832814
0.36776505
0.36757291
0.36708032
0.36651474
0.36593342
0.36528924
0.36464982
0.36400827
0.36336489
0.36272443
0.3620891
0.36145997
0.3608395
0.3602304
0.35963673
0.35906463
0.35852375
0.35802477
0.35758957
0.35723613
0.35702876
0.35695162
0.35721502
0.35769154
0.35819793
0.36838012
0.36812512
0.36748992
0.36681239
0.36614755
0.36544204
0.36475654
0.36408246
0.36341543
0.36275807
0.36211051
0.36147359
0.36084872
0.36023781
0.35964667
0.35908293
0.35855669
0.35808224
0.3576812
0.35738076
0.3572287
0.35723262
0.35752812
0.35824879
0.35827541
0.36918407
0.36879732
0.36795171
0.36713091
0.36636606
0.36559241
0.36485885
0.36415137
0.36346061
0.3627861
0.36212632
0.36148065
0.360849
0.36023394
0.35964108
0.35907863
0.35855746
0.35809286
0.35770668
0.35742837
0.3572973
0.35732958
0.35761216
0.35837127
0.35822553
0.37027412
0.36953261
0.3684346
0.36744715
0.36657049
0.36572754
0.36494817
0.36420917
0.36349647
0.36280638
0.36213474
0.36147958
0.3608399
0.36021851
0.35962002
0.35905209
0.3585261
0.35805762
0.35766747
0.35738429
0.3572435
0.35726168
0.35750673
0.35823968
0.35803533
0.37200331
0.37019999
0.36888185
0.36772493
0.36673596
0.36583178
0.36501413
0.36424887
0.36351811
0.36281473
0.3621321
0.3614667
0.36081736
0.36018571
0.35957583
0.35899422
0.35845129
0.35796206
0.35754589
0.35722971
0.35704616
0.35701152
0.35718786
0.35786507
0.35765541
0.37583453
0.37084873
0.36929705
0.36793082
0.36684183
0.36589363
0.36504969
0.36426599
0.36352146
0.36280608
0.36211189
0.36143353
0.36076927
0.36011913
0.35948635
0.3588759
0.35829585
0.35775898
0.35728316
0.3568932
0.35662019
0.35648276
0.35653836
0.357113
0.35695612
0.37680738
0.36938549
0.36949697
0.36800674
0.36689459
0.36592749
0.36507046
0.36427953
0.36353146
0.36281433
0.36211966
0.36144205
0.36077942
0.36013205
0.3595028
0.35889725
0.35832392
0.35779476
0.35732754
0.35694584
0.35667936
0.35654674
0.35658326
0.35710614
0.35685557
)
;

boundaryField
{
    inlet
    {
        type            zeroGradient;
    }
    walls
    {
        type            zeroGradient;
    }
    outlet
    {
        type            fixedValue;
        value           uniform 0;
    }
    centreline
    {
        type            symmetryPlane;
    }
    frontAndBack
    {
        type            empty;
    }
}


// ************************************************************************* //
