/*--------------------------------*- C++ -*----------------------------------*\
| =========                 |                                                 |
| \\      /  F ield         | OpenFOAM: The Open Source CFD Toolbox           |
|  \\    /   O peration     | Version:  5.x                                   |
|   \\  /    A nd           | Web:      www.OpenFOAM.org                      |
|    \\/     M anipulation  |                                                 |
\*---------------------------------------------------------------------------*/
/*   Windows 32 and 64 bit porting by blueCAPE: http://www.bluecape.com.pt   *\
|  Based on Windows porting (2.0.x v4) by Symscape: http://www.symscape.com   |
\*---------------------------------------------------------------------------*/
FoamFile
{
    version     2.0;
    format      ascii;
    class       surfaceScalarField;
    location    "0.06";
    object      phi;
}
// * * * * * * * * * * * * * * * * * * * * * * * * * * * * * * * * * * * * * //

dimensions      [0 3 -1 0 0 0 0];

internalField   nonuniform List<scalar> 
1430
(
5.0628791e-006
-6.1598731e-008
5.1276771e-006
-6.4798014e-008
5.1838332e-006
-5.6156123e-008
5.2319717e-006
-4.8138463e-008
5.2723926e-006
-4.0420928e-008
5.3093171e-006
-3.692443e-008
5.3411828e-006
-3.1865734e-008
5.3718058e-006
-3.0623006e-008
5.4023911e-006
-3.0585302e-008
5.4362839e-006
-3.389277e-008
5.4765797e-006
-4.0295731e-008
5.5278303e-006
-5.1250677e-008
5.595753e-006
-6.7922621e-008
5.6884195e-006
-9.2666497e-008
5.817472e-006
-1.2905249e-007
5.9996634e-006
-1.8219137e-007
6.2606085e-006
-2.6094508e-007
6.640439e-006
-3.798305e-007
7.198225e-006
-5.57786e-007
8.0462133e-006
-8.4798828e-007
9.3252847e-006
-1.2790713e-006
1.1430251e-005
-2.1049667e-006
1.4761205e-005
-3.3309539e-006
1.9673891e-005
-4.9126858e-006
-6.0716787e-006
2.574557e-005
5.0627668e-006
-1.2308524e-007
5.1282324e-006
-1.3026358e-007
5.1842096e-006
-1.1213327e-007
5.2321745e-006
-9.610332e-008
5.2728876e-006
-8.1134021e-008
5.3094191e-006
-7.3455879e-008
5.3413779e-006
-6.3824546e-008
5.3717169e-006
-6.0961939e-008
5.4021881e-006
-6.1056518e-008
5.4358239e-006
-6.7528527e-008
5.4758587e-006
-8.0330593e-008
5.5267167e-006
-1.0210861e-007
5.5941034e-006
-1.3530932e-007
5.6860236e-006
-1.8458667e-007
5.8139161e-006
-2.5694499e-007
5.9944464e-006
-3.6272165e-007
6.2527464e-006
-5.1924508e-007
6.6282614e-006
-7.5534548e-007
7.1798504e-006
-1.109375e-006
8.0124673e-006
-1.6806051e-006
9.2843259e-006
-2.5509299e-006
1.1346655e-005
-4.1672962e-006
1.4686407e-005
-6.670705e-006
1.9491127e-005
-9.7174061e-006
-1.2166405e-005
2.5585854e-005
5.0628544e-006
-1.8465933e-007
5.1289092e-006
-1.9631832e-007
5.1847207e-006
-1.679448e-007
5.2329625e-006
-1.4434512e-007
5.2734569e-006
-1.2162841e-007
5.309904e-006
-1.0990291e-007
5.3415876e-006
-9.5508203e-008
5.3716481e-006
-9.1022429e-008
5.4017602e-006
-9.1168624e-008
5.4349577e-006
-1.0072597e-007
5.4744399e-006
-1.1981281e-007
5.5245476e-006
-1.5221628e-007
5.5908776e-006
-2.0163927e-007
5.6812924e-006
-2.7500147e-007
5.8069713e-006
-3.8262393e-007
5.9841308e-006
-5.3988106e-007
6.2372308e-006
-7.7234508e-007
6.6045748e-006
-1.1226895e-006
7.1422206e-006
-1.6470208e-006
7.951298e-006
-2.4896824e-006
9.1890524e-006
-3.7886843e-006
1.1209158e-005
-6.1874019e-006
1.4475336e-005
-9.9368831e-006
1.9173487e-005
-1.4415557e-005
-1.8053463e-005
2.5060545e-005
5.0629149e-006
-2.4629387e-007
5.1295311e-006
-2.6293457e-007
5.1856833e-006
-2.2409696e-007
5.2340245e-006
-1.9268627e-007
5.2744139e-006
-1.6201788e-007
5.3106204e-006
-1.4610938e-007
5.3419432e-006
-1.2683094e-007
5.3715641e-006
-1.2064339e-007
5.4011524e-006
-1.2075688e-007
5.4336946e-006
-1.3326821e-007
5.4723438e-006
-1.58462e-007
5.5213316e-006
-2.0120407e-007
5.5860967e-006
-2.6640427e-007
5.6742718e-006
-3.6317659e-007
5.796649e-006
-5.0500108e-007
5.9688268e-006
-7.1205892e-007
6.2141868e-006
-1.0177051e-006
6.5692506e-006
-1.4777532e-006
7.0864599e-006
-2.1642302e-006
7.8608892e-006
-3.2641117e-006
9.0475967e-006
-4.9753919e-006
1.099767e-005
-8.1374752e-006
1.4136228e-005
-1.3075441e-005
1.8620356e-005
-1.8899685e-005
-2.3526191e-005
2.4093084e-005
5.0628118e-006
-3.0782536e-007
5.1301517e-006
-3.302745e-007
5.1869818e-006
-2.8092698e-007
5.2354241e-006
-2.4112854e-007
5.2757175e-006
-2.0231128e-007
5.3115776e-006
-1.8196951e-007
5.3424254e-006
-1.5767871e-007
5.3714588e-006
-1.496768e-007
5.4003537e-006
-1.4965179e-007
5.4320299e-006
-1.6494437e-007
5.469572e-006
-1.9600405e-007
5.5170794e-006
-2.4871152e-007
5.5797867e-006
-3.291115e-007
5.6650147e-006
-4.4840467e-007
5.783054e-006
-6.230403e-007
5.9487225e-006
-8.7772745e-007
6.1839262e-006
-1.2529087e-006
6.5227551e-006
-1.8165821e-006
7.0131827e-006
-2.6546578e-006
7.742539e-006
-3.993468e-006
8.859314e-006
-6.0921669e-006
1.0704811e-005
-9.9829726e-006
1.3645071e-005
-1.6015701e-005
1.7790958e-005
-2.3045572e-005
-2.8338737e-005
2.2603505e-005
5.0625649e-006
-3.6910989e-007
5.1308482e-006
-3.9855784e-007
5.188588e-006
-3.3866671e-007
5.2372085e-006
-2.8974903e-007
5.2773607e-006
-2.4246355e-007
5.3127851e-006
-2.1739391e-007
5.3430373e-006
-1.8793081e-007
5.3713383e-006
-1.7797781e-007
5.3993718e-006
-1.7768534e-007
5.4299758e-006
-1.9554832e-007
5.4661469e-006
-2.321752e-007
5.5118273e-006
-2.9439186e-007
5.5720018e-006
-3.89286e-007
5.653608e-006
-5.3001081e-007
5.7663328e-006
-7.357651e-007
5.9240465e-006
-1.0354411e-006
6.1468021e-006
-1.4756644e-006
6.4656324e-006
-2.1354124e-006
6.9232701e-006
-3.1122954e-006
7.5970474e-006
-4.6672453e-006
8.6225377e-006
-7.1176572e-006
1.0323436e-005
-1.1683871e-005
1.2985952e-005
-1.8678216e-005
1.669045e-005
-2.6750071e-005
-3.2300397e-005
2.065211e-005
5.0623308e-006
-4.3016033e-007
5.1317062e-006
-4.6793329e-007
5.1905624e-006
-3.9752289e-007
5.2394165e-006
-3.3860309e-007
5.2793623e-006
-2.8240932e-007
5.3142566e-006
-2.5228822e-007
5.3437953e-006
-2.1746951e-007
5.3712161e-006
-2.0539866e-007
5.3982248e-006
-2.0469395e-007
5.427559e-006
-2.2488253e-007
5.4621046e-006
-2.667208e-007
5.5056226e-006
-3.3790983e-007
5.5628111e-006
-4.4647454e-007
5.6401561e-006
-6.0735578e-007
5.7466452e-006
-8.4225422e-007
5.8950246e-006
-1.1838205e-006
6.1032762e-006
-1.6839159e-006
6.3988621e-006
-2.4309983e-006
6.8184103e-006
-3.5318436e-006
7.4279804e-006
-5.2768155e-006
8.3423242e-006
-8.032001e-006
9.8589322e-006
-1.3200479e-005
1.2159771e-005
-2.0979055e-005
1.5380996e-005
-2.9971296e-005
-3.5354996e-005
1.8435595e-005
5.0622871e-006
-4.9116711e-007
5.1328945e-006
-5.385407e-007
5.1929625e-006
-4.5759082e-007
5.2421186e-006
-3.8775921e-007
5.2817409e-006
-3.2203156e-007
5.3160182e-006
-2.8656561e-007
5.3447208e-006
-2.461721e-007
5.3711123e-006
-2.3179014e-007
5.3969362e-006
-2.3051781e-007
5.4248132e-006
-2.5275949e-007
5.4574929e-006
-2.9940047e-007
5.4985262e-006
-3.7894316e-007
5.5522992e-006
-5.0024757e-007
5.6247849e-006
-6.7984144e-007
5.7241821e-006
-9.4165142e-007
5.8619808e-006
-1.3216192e-006
6.0539643e-006
-1.8758994e-006
6.3236731e-006
-2.7007071e-006
6.7006918e-006
-3.9088624e-006
7.2380084e-006
-5.8141321e-006
8.0211489e-006
-8.8151414e-006
9.302617e-006
-1.4481947e-005
1.115839e-005
-2.2834828e-005
1.3913658e-005
-3.2726564e-005
-3.7407812e-005
1.5966474e-005
5.0625117e-006
-5.5239852e-007
5.1346912e-006
-6.1072016e-007
5.1957523e-006
-5.1865189e-007
5.2454425e-006
-4.3744935e-007
5.2844906e-006
-3.6107972e-007
5.31811e-006
-3.2018492e-007
5.3458287e-006
-2.7389083e-007
5.371047e-006
-2.5700841e-007
5.3955297e-006
-2.5500048e-007
5.4217708e-006
-2.7900063e-007
5.4523634e-006
-3.2999308e-007
5.4906143e-006
-4.1719396e-007
5.540575e-006
-5.502083e-007
5.6076633e-006
-7.4692978e-007
5.6992137e-006
-1.0332018e-006
5.8253633e-006
-1.4477688e-006
5.999642e-006
-2.050178e-006
6.2413544e-006
-2.9424195e-006
6.5720223e-006
-4.2395303e-006
7.0304098e-006
-6.2725196e-006
7.6641874e-006
-9.4489191e-006
8.6593913e-006
-1.5477151e-005
1.0007327e-005
-2.4182764e-005
1.2260727e-005
-3.4979965e-005
-3.8147042e-005
1.2999957e-005
5.0630375e-006
-6.1415568e-007
5.1371772e-006
-6.8485979e-007
5.1991381e-006
-5.8061283e-007
5.2493167e-006
-4.8762792e-007
5.2877698e-006
-3.9953283e-007
5.3205049e-006
-3.5292001e-007
5.3471756e-006
-3.005615e-007
5.3710281e-006
-2.8086091e-007
5.3940393e-006
-2.7801167e-007
5.4184626e-006
-3.0342382e-007
5.4467671e-006
-3.5829765e-007
5.4819686e-006
-4.5239537e-007
5.5277706e-006
-5.9601032e-007
5.5889998e-006
-8.0815903e-007
5.6720623e-006
-1.1162642e-006
5.7856883e-006
-1.5613948e-006
5.9410425e-006
-2.2055322e-006
6.1528435e-006
-3.1542205e-006
6.4354998e-006
-4.5221865e-006
6.8113011e-006
-6.6483209e-006
7.2940596e-006
-9.9316776e-006
7.9649873e-006
-1.6148079e-005
8.7553781e-006
-2.4973155e-005
1.0088626e-005
-3.6313212e-005
8.9085244e-006
-3.6966941e-005
2.9530872e-005
-3.7853019e-006
3.1234484e-005
-1.7036118e-006
3.1626365e-005
-3.9188075e-007
3.1568921e-005
5.7444154e-008
3.1492537e-005
7.6383728e-008
3.1467919e-005
2.4618628e-008
3.1464779e-005
3.1401276e-009
3.1464601e-005
1.7786921e-010
3.1464264e-005
3.365821e-010
3.1464006e-005
2.576245e-010
3.1463922e-005
8.4106836e-011
3.1463905e-005
1.7065957e-011
3.1463902e-005
2.7797824e-012
3.1463901e-005
9.2529307e-013
3.1463901e-005
4.5387438e-013
3.1463901e-005
-5.2121771e-014
3.1463901e-005
3.878644e-014
3.1463901e-005
1.8741803e-013
3.1463901e-005
5.3107135e-014
3.1463901e-005
-1.3906266e-013
3.1463901e-005
2.9433092e-014
3.14639e-005
6.5898003e-013
3.1463899e-005
1.4861215e-012
3.146389e-005
8.7319085e-012
8.4552577e-012
2.9131782e-005
-7.3312294e-006
3.0782318e-005
-3.3541474e-006
3.1134944e-005
-7.4450595e-007
3.1106715e-005
8.5672763e-008
3.1038793e-005
1.4430597e-007
3.1018002e-005
4.5409878e-008
3.1014629e-005
6.5130151e-009
3.1014569e-005
2.3813418e-010
3.1014247e-005
6.5832264e-010
3.1014051e-005
4.5330085e-010
3.1013974e-005
1.6093409e-010
3.1013961e-005
3.0382004e-011
3.1013959e-005
5.0214423e-012
3.1013958e-005
1.7445716e-012
3.1013958e-005
6.9517012e-013
3.1013958e-005
-1.777345e-013
3.1013958e-005
3.1042951e-014
3.1013957e-005
3.9433473e-013
3.1013957e-005
2.9047824e-015
3.1013957e-005
-1.8730721e-013
3.1013957e-005
1.6772409e-013
3.1013957e-005
1.0181484e-012
3.1013956e-005
3.0117857e-012
3.1013946e-005
1.7927429e-011
1.7385825e-011
2.820921e-005
-1.0479894e-005
2.960275e-005
-4.7476881e-006
2.9916691e-005
-1.0584469e-006
2.9917369e-005
8.499506e-008
2.9872697e-005
1.8897852e-007
2.9857659e-005
6.0447624e-008
2.9854715e-005
9.4569381e-009
2.9854636e-005
3.1672395e-010
2.9854428e-005
8.6658703e-010
2.985431e-005
5.7084835e-010
2.9854258e-005
2.1355865e-010
2.985425e-005
3.8501703e-011
2.9854248e-005
6.1250564e-012
2.9854248e-005
2.0177834e-012
2.9854248e-005
7.0989252e-013
2.9854248e-005
-4.3880304e-014
2.9854248e-005
-4.3087379e-014
2.9854248e-005
1.9333669e-013
2.9854248e-005
-2.3488063e-013
2.9854248e-005
2.95976e-014
2.9854248e-005
5.4431089e-013
2.9854248e-005
1.0992616e-012
2.9854247e-005
3.7066401e-012
2.985424e-005
2.4948757e-011
2.4397389e-011
2.6495574e-005
-1.2882385e-005
2.7433244e-005
-5.6853575e-006
2.7657755e-005
-1.2829584e-006
2.7686035e-005
5.6715699e-008
2.7673206e-005
2.0180711e-007
2.7667e-005
6.6653293e-008
2.7664968e-005
1.1488765e-008
2.7664918e-005
3.6748797e-010
2.7664847e-005
9.3694743e-010
2.7664828e-005
5.8967597e-010
2.7664808e-005
2.3353831e-010
2.7664807e-005
3.9407161e-011
2.7664808e-005
5.6629079e-012
2.7664808e-005
1.621968e-012
2.7664808e-005
5.1218263e-013
2.7664808e-005
2.0260701e-013
2.7664808e-005
-3.4081522e-013
2.7664809e-005
-5.1383885e-013
2.7664809e-005
-1.9880653e-013
2.7664808e-005
6.6930286e-013
2.7664808e-005
9.3903237e-013
2.7664808e-005
1.1521274e-012
2.7664809e-005
3.2457944e-012
2.7664808e-005
2.5187907e-011
2.5245204e-011
2.3918278e-005
-1.4197158e-005
2.4203542e-005
-5.970622e-006
2.4272304e-005
-1.3517205e-006
2.4314713e-005
1.4307309e-008
2.4332895e-005
1.8362486e-007
2.4336848e-005
6.2699995e-008
2.4336307e-005
1.2030229e-008
2.4336354e-005
3.1970383e-010
2.4336418e-005
8.7297624e-010
2.4336496e-005
5.1213232e-010
2.4336511e-005
2.1831218e-010
2.4336518e-005
3.2430279e-011
2.433652e-005
3.8172494e-012
2.4336521e-005
8.9927218e-013
2.4336521e-005
1.8500502e-013
2.4336521e-005
4.3309525e-014
2.4336522e-005
-7.6741925e-013
2.4336522e-005
-8.8769275e-013
2.4336521e-005
2.1175778e-013
2.4336521e-005
1.0382101e-012
2.4336521e-005
9.6936214e-013
2.4336521e-005
1.2468647e-012
2.4336522e-005
1.9278661e-012
2.4336531e-005
1.6284304e-011
1.7363321e-011
2.0650966e-005
-1.4196014e-005
2.0171643e-005
-5.4912988e-006
2.0028749e-005
-1.2088266e-006
2.006718e-005
-2.4123315e-008
2.010615e-005
1.4465432e-007
2.0118599e-005
5.0251182e-008
2.0119948e-005
1.06813e-008
2.0120133e-005
1.3474828e-010
2.0120302e-005
7.0429808e-010
2.0120448e-005
3.6553399e-010
2.0120493e-005
1.7391409e-010
2.0120506e-005
1.933731e-011
2.0120508e-005
1.3695796e-012
2.0120509e-005
-3.933183e-014
2.0120509e-005
-1.6773663e-013
2.012051e-005
-2.6803178e-013
2.012051e-005
-7.5941326e-013
2.0120509e-005
-6.6701637e-013
2.0120509e-005
2.2265699e-013
2.012051e-005
6.4763313e-013
2.012051e-005
8.4412692e-013
2.012051e-005
1.3465856e-012
2.0120512e-005
1.8209171e-013
2.0120526e-005
1.4107444e-012
3.6188198e-012
1.6979745e-005
-1.2740164e-005
1.5765567e-005
-4.2771207e-006
1.5442316e-005
-8.8557578e-007
1.5458625e-005
-4.0432618e-008
1.5506442e-005
9.6837581e-008
1.552346e-005
3.3233017e-008
1.55264e-005
7.7411567e-009
1.5526646e-005
-1.1126662e-010
1.5526869e-005
4.8132555e-010
1.5527038e-005
1.9693548e-010
1.5527097e-005
1.1446706e-010
1.5527112e-005
4.9414982e-012
1.5527114e-005
-6.5313552e-013
1.5527115e-005
-9.5893068e-013
1.5527115e-005
-4.3724998e-013
1.5527115e-005
-3.7927447e-013
1.5527115e-005
-3.8447963e-013
1.5527114e-005
-2.5961785e-013
1.5527114e-005
-4.5905779e-014
1.5527115e-005
1.5561088e-013
1.5527115e-005
6.9077606e-013
1.5527115e-005
1.2484709e-012
1.5527117e-005
-1.1987752e-012
1.552713e-005
-1.1510365e-011
-8.6996304e-012
1.3010912e-005
-9.7846024e-006
1.1346372e-005
-2.6125804e-006
1.0954027e-005
-4.9323067e-007
1.0943972e-005
-3.0377894e-008
1.0989571e-005
5.1238541e-008
1.1006483e-005
1.6321362e-008
1.1009986e-005
4.2378226e-009
1.1010128e-005
-2.5292227e-010
1.1010348e-005
2.6085514e-010
1.1010484e-005
6.1509229e-011
1.1010541e-005
5.6965855e-011
1.101055e-005
-4.2024086e-012
1.1010551e-005
-1.3941884e-012
1.1010551e-005
-1.2392927e-012
1.1010551e-005
-4.5050043e-013
1.1010551e-005
-3.0477107e-013
1.1010551e-005
-1.1414773e-013
1.1010551e-005
1.0183541e-014
1.1010551e-005
-9.8397594e-014
1.1010551e-005
-3.6298016e-014
1.1010551e-005
4.5700842e-013
1.1010552e-005
8.6138237e-013
1.1010552e-005
-1.3872369e-012
1.1010555e-005
-1.463655e-011
-1.2365463e-011
8.6237093e-006
-5.4083543e-006
6.9872039e-006
-9.7607495e-007
6.6429224e-006
-1.4894918e-007
6.6257109e-006
-1.3166409e-008
6.660069e-006
1.6880443e-008
6.672413e-006
3.9773916e-009
6.6751883e-006
1.4624432e-009
6.6751303e-006
-1.9491422e-010
6.6752976e-006
9.3521603e-011
6.6753614e-006
-2.3588368e-012
6.6754022e-006
1.6185791e-011
6.6754025e-006
-4.4540069e-012
6.6754019e-006
-8.0339261e-013
6.6754013e-006
-7.0728615e-013
6.675401e-006
-2.211055e-013
6.6754008e-006
-1.3374961e-013
6.6754007e-006
-6.056345e-015
6.6754006e-006
4.7632213e-014
6.6754006e-006
-5.5235186e-014
6.6754006e-006
-5.1195008e-014
6.675401e-006
1.5723767e-013
6.6754015e-006
3.365437e-013
6.6754007e-006
-5.4835613e-013
6.6753935e-006
-7.3624862e-012
-6.4993594e-012
3.5001701e-006
2.5240952e-006
2.3751459e-006
2.3619795e-006
2.3788599e-006
2.3828373e-006
2.3842997e-006
2.3841048e-006
2.3841983e-006
2.384196e-006
2.3842122e-006
2.3842077e-006
2.3842069e-006
2.3842062e-006
2.3842059e-006
2.3842058e-006
2.3842058e-006
2.3842058e-006
2.3842057e-006
2.3842057e-006
2.3842059e-006
2.3842062e-006
2.3842057e-006
2.3841984e-006
1.5195086e-005
-8.054011e-007
1.5431005e-005
-9.2077795e-007
1.5623577e-005
-7.7318545e-007
1.5772293e-005
-6.3634404e-007
1.5889085e-005
-5.1632406e-007
1.5977195e-005
-4.4103043e-007
1.6051455e-005
-3.7482106e-007
1.6113515e-005
-3.4292149e-007
1.6172834e-005
-3.3733025e-007
1.623409e-005
-3.6467971e-007
1.6304222e-005
-4.284297e-007
1.6390031e-005
-5.3820399e-007
1.6500595e-005
-7.0657452e-007
1.6646708e-005
-9.5427189e-007
1.6841741e-005
-1.311298e-006
1.7102765e-005
-1.8224188e-006
1.7449485e-005
-2.5522519e-006
1.7897969e-005
-3.6027045e-006
1.8466381e-005
-5.0905981e-006
1.9100661e-005
-7.2826015e-006
1.9759986e-005
-1.0591002e-005
1.9892379e-005
-1.6280472e-005
1.8978425e-005
-2.40592e-005
1.4699038e-005
-3.2033826e-005
-2.2267903e-005
1.5213082e-005
-1.0146425e-006
1.547848e-005
-1.1861751e-006
1.5679783e-005
-9.7448861e-007
1.5828406e-005
-7.8496692e-007
1.5935277e-005
-6.2319558e-007
1.6010466e-005
-5.1621899e-007
1.6068868e-005
-4.3322377e-007
1.6114734e-005
-3.8878716e-007
1.6155396e-005
-3.7799186e-007
1.6195176e-005
-4.0445975e-007
1.623872e-005
-4.7197408e-007
1.6290055e-005
-5.8953837e-007
1.63542e-005
-7.7071977e-007
1.6436084e-005
-1.0361564e-006
1.6540705e-005
-1.4159183e-006
1.6672241e-005
-1.9539553e-006
1.6831741e-005
-2.711752e-006
1.7009112e-005
-3.7800756e-006
1.7182597e-005
-5.2640823e-006
1.7256069e-005
-7.3560738e-006
1.7039349e-005
-1.0374282e-005
1.5861934e-005
-1.5103057e-005
1.2957733e-005
-2.1154999e-005
6.6189261e-006
-2.5695018e-005
-1.5648977e-005
1.5251767e-005
-1.2625686e-006
1.5546994e-005
-1.4814025e-006
1.5761011e-005
-1.1885052e-006
1.5899904e-005
-9.238597e-007
1.5991304e-005
-7.1459592e-007
1.6047868e-005
-5.7278296e-007
1.6086453e-005
-4.7180906e-007
1.6112542e-005
-4.1487543e-007
1.6131923e-005
-3.9737328e-007
1.6147625e-005
-4.2016128e-007
1.6162067e-005
-4.864167e-007
1.6176339e-005
-6.0381053e-007
1.6191285e-005
-7.8566558e-007
1.6206176e-005
-1.0510474e-006
1.6218356e-005
-1.4280985e-006
1.6221345e-005
-1.9569435e-006
1.6201368e-005
-2.6917753e-006
1.6128403e-005
-3.7071106e-006
1.5953424e-005
-5.0891035e-006
1.5562621e-005
-6.9652708e-006
1.4736107e-005
-9.5477675e-006
1.2886285e-005
-1.3253236e-005
9.3600754e-006
-1.7628789e-005
3.5760027e-006
-1.9910946e-005
-1.2072974e-005
1.531782e-005
-1.576548e-006
1.5658584e-005
-1.8221664e-006
1.587949e-005
-1.4094113e-006
1.6000027e-005
-1.0443967e-006
1.6066213e-005
-7.8078148e-007
1.6097783e-005
-6.0435328e-007
1.6111992e-005
-4.860174e-007
1.6115227e-005
-4.1811074e-007
1.6111418e-005
-3.9356384e-007
1.6101804e-005
-4.1054796e-007
1.6086412e-005
-4.7102479e-007
1.6063482e-005
-5.8088034e-007
1.6029591e-005
-7.5177401e-007
1.5979184e-005
-1.0006413e-006
1.5903291e-005
-1.3522047e-006
1.5786969e-005
-1.8406218e-006
1.5605739e-005
-2.5105452e-006
1.5317963e-005
-3.4193349e-006
1.4860251e-005
-4.6313908e-006
1.4121277e-005
-6.226297e-006
1.2907368e-005
-8.3338593e-006
1.0803513e-005
-1.114938e-005
7.3803472e-006
-1.4205624e-005
2.6501086e-006
-1.5180707e-005
-9.4228657e-006
1.5471334e-005
-2.0440408e-006
1.5896306e-005
-2.2471383e-006
1.6112536e-005
-1.6256416e-006
1.6198054e-005
-1.1299144e-006
1.6224998e-005
-8.0772621e-007
1.6223157e-005
-6.0251139e-007
1.6208367e-005
-4.7122733e-007
1.6186163e-005
-3.9590735e-007
1.6158088e-005
-3.6548899e-007
1.6123075e-005
-3.755347e-007
1.6078539e-005
-4.2648879e-007
1.6019874e-005
-5.2221541e-007
1.5940125e-005
-6.7202494e-007
1.5829593e-005
-8.9010927e-007
1.567403e-005
-1.1966414e-006
1.5452351e-005
-1.618943e-006
1.5133171e-005
-2.1913654e-006
1.4669346e-005
-2.9555094e-006
1.3993168e-005
-3.9552136e-006
1.3003352e-005
-5.2364809e-006
1.1543897e-005
-6.8744042e-006
9.3469419e-006
-8.9524245e-006
6.18371e-006
-1.1042392e-005
2.3460088e-006
-1.1343006e-005
-7.0768569e-006
1.5849289e-005
-2.8894888e-006
1.6397238e-005
-2.7950877e-006
1.657441e-005
-1.8028127e-006
1.6590999e-005
-1.1465034e-006
1.6558437e-005
-7.7516463e-007
1.6512757e-005
-5.5683124e-007
1.646446e-005
-4.2293075e-007
1.6414922e-005
-3.4636947e-007
1.6362281e-005
-3.1284781e-007
1.6302721e-005
-3.159743e-007
1.6230696e-005
-3.5446442e-007
1.6138864e-005
-4.3038254e-007
1.6017476e-005
-5.5063727e-007
1.5853255e-005
-7.2588795e-007
1.5627586e-005
-9.709726e-007
1.5315159e-005
-1.3065161e-006
1.4880555e-005
-1.7567613e-006
1.4274468e-005
-2.3494227e-006
1.343069e-005
-3.1114355e-006
1.2260574e-005
-4.0663653e-006
1.0641482e-005
-5.2553115e-006
8.4021452e-006
-6.7130879e-006
5.4481666e-006
-8.0884133e-006
2.1521667e-006
-8.0470056e-006
-4.9246902e-006
1.6460969e-005
-4.3466171e-006
1.7013476e-005
-3.3475945e-006
1.7048294e-005
-1.8376304e-006
1.6944236e-005
-1.0424461e-006
1.6829971e-005
-6.6089935e-007
1.6731393e-005
-4.5825311e-007
1.6646947e-005
-3.3848484e-007
1.6570163e-005
-2.6958536e-007
1.6494579e-005
-2.3726376e-007
1.6413193e-005
-2.3458858e-007
1.6317448e-005
-2.5871904e-007
1.6197831e-005
-3.1076571e-007
1.6042065e-005
-3.9487082e-007
1.5834168e-005
-5.1799142e-007
1.5552657e-005
-6.8946143e-007
1.5169269e-005
-9.2312807e-007
1.4646711e-005
-1.234203e-006
1.3936065e-005
-1.6387767e-006
1.2975606e-005
-2.1509767e-006
1.1689739e-005
-2.7804987e-006
9.9823791e-006
-3.5479513e-006
7.735141e-006
-4.4658498e-006
4.9208992e-006
-5.2741714e-006
1.9451765e-006
-5.0712829e-006
-2.9795136e-006
1.6697393e-005
-6.0401688e-006
1.6710859e-005
-3.3610612e-006
1.6403789e-005
-1.5305602e-006
1.6126162e-005
-7.6481916e-007
1.5920053e-005
-4.547898e-007
1.5768486e-005
-3.0668648e-007
1.5651508e-005
-2.2150659e-007
1.5553099e-005
-1.7117621e-007
1.5461701e-005
-1.4586566e-007
1.5367303e-005
-1.4019077e-007
1.5259455e-005
-1.5087145e-007
1.512708e-005
-1.7839079e-007
1.4956628e-005
-2.2441811e-007
1.4731249e-005
-2.9261312e-007
1.4429463e-005
-3.8767523e-007
1.4022666e-005
-5.1633058e-007
1.3474963e-005
-6.8650065e-007
1.2741961e-005
-9.0577457e-007
1.1770108e-005
-1.1791238e-006
1.0498329e-005
-1.5087192e-006
8.8530243e-006
-1.9026467e-006
6.7491263e-006
-2.3619518e-006
4.1965535e-006
-2.7215986e-006
1.6096407e-006
-2.48437e-006
-1.3698729e-006
1.5037363e-005
-6.0736913e-006
1.3734789e-005
-2.0584864e-006
1.2920989e-005
-7.1676053e-007
1.2485658e-005
-3.2948823e-007
1.2220243e-005
-1.8937524e-007
1.2041078e-005
-1.2752086e-007
1.1910883e-005
-9.1311923e-008
1.1808272e-005
-6.8564582e-008
1.1718801e-005
-5.6395302e-008
1.1631027e-005
-5.2416492e-008
1.1534911e-005
-5.4755574e-008
1.1419901e-005
-6.3380875e-008
1.1274176e-005
-7.8693297e-008
1.1083289e-005
-1.0172587e-007
1.082955e-005
-1.3393595e-007
1.0490374e-005
-1.7715516e-007
1.003769e-005
-2.3381632e-007
9.4377879e-006
-3.058723e-007
8.6523487e-006
-3.9368455e-007
7.640245e-006
-4.966156e-007
6.3531436e-006
-6.1554524e-007
4.7385887e-006
-7.4739684e-007
2.8352309e-006
-8.1824075e-007
1.0120641e-006
-6.6120319e-007
-3.5780878e-007
8.9301497e-006
6.8716633e-006
6.1549028e-006
5.8254146e-006
5.6360393e-006
5.5085185e-006
5.4172066e-006
5.348642e-006
5.2922467e-006
5.2398302e-006
5.1850746e-006
5.1216937e-006
5.0430004e-006
4.9412746e-006
4.8073386e-006
4.6301835e-006
4.3963671e-006
4.0904949e-006
3.6968103e-006
3.2001947e-006
2.5846495e-006
1.8372527e-006
1.0190119e-006
3.5780878e-007
)
;

boundaryField
{
    inlet
    {
        type            calculated;
        value           nonuniform List<scalar> 
20
(
-5.0012803e-006
-5.0012803e-006
-5.0012803e-006
-5.0012803e-006
-5.0012803e-006
-5.0012803e-006
-5.0012803e-006
-5.0012803e-006
-5.0012803e-006
-5.0012803e-006
-1.5003841e-005
-1.5003841e-005
-1.5003841e-005
-1.5003841e-005
-1.5003841e-005
-1.5003841e-005
-1.5003841e-005
-1.5003841e-005
-1.5003841e-005
-1.5003841e-005
)
;
    }
    walls
    {
        type            calculated;
        value           uniform 0;
    }
    outlet
    {
        type            calculated;
        value           nonuniform List<scalar> 10(3.1463881e-005 3.1013937e-005 2.9854233e-005 2.7664808e-005 2.4336539e-005 2.012054e-005 1.5527142e-005 1.1010559e-005 6.6753876e-006 2.3841919e-006);
    }
    centreline
    {
        type            symmetryPlane;
        value           uniform 0;
    }
    frontAndBack
    {
        type            empty;
        value           nonuniform 0();
    }
}


// ************************************************************************* //
