/*--------------------------------*- C++ -*----------------------------------*\
| =========                 |                                                 |
| \\      /  F ield         | OpenFOAM: The Open Source CFD Toolbox           |
|  \\    /   O peration     | Version:  5.x                                   |
|   \\  /    A nd           | Web:      www.OpenFOAM.org                      |
|    \\/     M anipulation  |                                                 |
\*---------------------------------------------------------------------------*/
/*   Windows 32 and 64 bit porting by blueCAPE: http://www.bluecape.com.pt   *\
|  Based on Windows porting (2.0.x v4) by Symscape: http://www.symscape.com   |
\*---------------------------------------------------------------------------*/
FoamFile
{
    version     2.0;
    format      ascii;
    class       surfaceScalarField;
    location    "0.06";
    object      phi_0;
}
// * * * * * * * * * * * * * * * * * * * * * * * * * * * * * * * * * * * * * //

dimensions      [0 3 -1 0 0 0 0];

internalField   nonuniform List<scalar> 
1430
(
5.0626865e-006
-6.1406151e-008
5.1272214e-006
-6.453491e-008
5.1830984e-006
-5.5876939e-008
5.2310524e-006
-4.7953988e-008
5.2712988e-006
-4.0246413e-008
5.3081048e-006
-3.6805977e-008
5.3398681e-006
-3.1763365e-008
5.3704204e-006
-3.0552215e-008
5.4009514e-006
-3.0530996e-008
5.4348066e-006
-3.3855217e-008
5.4750755e-006
-4.0268944e-008
5.5263067e-006
-5.1231168e-008
5.594213e-006
-6.7906255e-008
5.6868618e-006
-9.264876e-008
5.8158873e-006
-1.2902549e-007
5.9980349e-006
-1.8214763e-007
6.258897e-006
-2.6086212e-007
6.6385868e-006
-3.796898e-007
7.1961248e-006
-5.575379e-007
8.0437126e-006
-8.4758783e-007
9.3219638e-006
-1.2782512e-006
1.1425152e-005
-2.1031878e-006
1.4753403e-005
-3.3282514e-006
1.9662658e-005
-4.9092548e-006
-6.0667995e-006
2.5729458e-005
5.0625812e-006
-1.2270698e-007
5.1277711e-006
-1.2972479e-007
5.1834771e-006
-1.1158294e-007
5.2312501e-006
-9.5727017e-008
5.2717941e-006
-8.0790388e-008
5.3082036e-006
-7.3215368e-008
5.3400628e-006
-6.3622614e-008
5.3703299e-006
-6.0819269e-008
5.4007479e-006
-6.094897e-008
5.434346e-006
-6.7453315e-008
5.4743545e-006
-8.027742e-008
5.5251932e-006
-1.0206983e-007
5.592564e-006
-1.3527703e-007
5.6844667e-006
-1.8455153e-007
5.8123334e-006
-2.5689214e-007
5.9928203e-006
-3.6263451e-007
6.2510412e-006
-5.1908304e-007
6.626418e-006
-7.550665e-007
7.1777713e-006
-1.1088912e-006
8.0099881e-006
-1.6798046e-006
9.2810059e-006
-2.5492689e-006
1.1341555e-005
-4.1637368e-006
1.4678902e-005
-6.6655981e-006
1.9481623e-005
-9.7119753e-006
-1.2160063e-005
2.5574887e-005
5.0626683e-006
-1.8409491e-007
5.1284494e-006
-1.9550591e-007
5.1839835e-006
-1.6711706e-007
5.2320349e-006
-1.4377841e-007
5.2723591e-006
-1.2111452e-007
5.308685e-006
-1.0954127e-007
5.3402696e-006
-9.5207207e-008
5.3702589e-006
-9.080854e-008
5.4003183e-006
-9.1008402e-008
5.4334787e-006
-1.0061366e-007
5.472935e-006
-1.1973375e-007
5.523024e-006
-1.5215878e-007
5.5893388e-006
-2.0159184e-007
5.6797373e-006
-2.7494998e-007
5.8053918e-006
-3.8254668e-007
5.9825104e-006
-5.3975304e-007
6.2355356e-006
-7.7210828e-007
6.6027498e-006
-1.1222807e-006
7.1401763e-006
-1.6463178e-006
7.9488655e-006
-2.4884938e-006
9.1857553e-006
-3.7861587e-006
1.1204118e-005
-6.1820991e-006
1.4468439e-005
-9.9299196e-006
1.9166881e-005
-1.4410417e-005
-1.8050759e-005
2.5057577e-005
5.0627286e-006
-2.4554315e-007
5.12907e-006
-2.618473e-007
5.1849409e-006
-2.2298803e-007
5.2330906e-006
-1.9192806e-007
5.27331e-006
-1.6133392e-007
5.309396e-006
-1.4562721e-007
5.3406206e-006
-1.2643186e-007
5.3701712e-006
-1.2035914e-007
5.3997077e-006
-1.2054485e-007
5.4322137e-006
-1.3311961e-007
5.4708378e-006
-1.5835787e-007
5.5198077e-006
-2.0112866e-007
5.5845586e-006
-2.6634276e-007
5.6727189e-006
-3.6311025e-007
5.7950739e-006
-5.0490166e-007
5.9672144e-006
-7.1189348e-007
6.212506e-006
-1.0173999e-006
6.5674515e-006
-1.4772261e-006
7.0844652e-006
-2.1633314e-006
7.858522e-006
-3.2625507e-006
9.04436e-006
-4.9719967e-006
1.0992808e-005
-8.1305469e-006
1.4130217e-005
-1.3067329e-005
1.8616914e-005
-1.8897114e-005
-2.3531633e-005
2.4097787e-005
5.0626231e-006
-3.0688592e-007
5.129687e-006
-3.289112e-007
5.1862322e-006
-2.7953321e-007
5.2344814e-006
-2.4017728e-007
5.2746054e-006
-2.0145791e-007
5.3103458e-006
-1.8136759e-007
5.3410968e-006
-1.571828e-007
5.370061e-006
-1.4932335e-007
5.3989052e-006
-1.4938912e-007
5.4305462e-006
-1.6476052e-007
5.4680642e-006
-1.9587591e-007
5.5155549e-006
-2.4861929e-007
5.5782493e-006
-3.2903722e-007
5.6634645e-006
-4.4832536e-007
5.7814844e-006
-6.2292156e-007
5.9471197e-006
-8.7752879e-007
6.1822631e-006
-1.2525433e-006
6.5209884e-006
-1.8159514e-006
7.0112473e-006
-2.6535903e-006
7.7402565e-006
-3.9915599e-006
8.8562135e-006
-6.0879537e-006
1.0700325e-005
-9.9746579e-006
1.364018e-005
-1.6007184e-005
1.7790028e-005
-2.3046963e-005
-2.8354159e-005
2.2612554e-005
5.0623697e-006
-3.6797531e-007
5.1303776e-006
-3.9691906e-007
5.1878284e-006
-3.3698397e-007
5.2362545e-006
-2.8860337e-007
5.2762383e-006
-2.4144174e-007
5.311544e-006
-2.1667327e-007
5.3417008e-006
-1.8733964e-007
5.3699342e-006
-1.7755668e-007
5.3979185e-006
-1.7737346e-007
5.4284885e-006
-1.9533049e-007
5.4646369e-006
-2.3202434e-007
5.5103018e-006
-2.9428416e-007
5.5704651e-006
-3.8920048e-007
5.6520605e-006
-5.2992074e-007
5.7647693e-006
-7.356304e-007
5.9224547e-006
-1.0352142e-006
6.1451595e-006
-1.475248e-006
6.4639017e-006
-2.1346937e-006
6.9214003e-006
-3.1110888e-006
7.5948675e-006
-4.6650272e-006
8.6196338e-006
-7.11272e-006
1.0319446e-005
-1.167447e-005
1.2982196e-005
-1.8669935e-005
1.6690893e-005
-2.6755659e-005
-3.2323998e-005
2.0660731e-005
5.0621246e-006
-4.2881956e-007
5.1312266e-006
-4.6602109e-007
5.18979e-006
-3.9554732e-007
5.2384483e-006
-3.3726166e-007
5.2782271e-006
-2.8122059e-007
5.3130039e-006
-2.5145001e-007
5.3424493e-006
-2.167851e-007
5.3698044e-006
-2.0491171e-007
5.3967655e-006
-2.0433459e-007
5.4260673e-006
-2.2463222e-007
5.4605917e-006
-2.6654873e-007
5.5040957e-006
-3.3778822e-007
5.5612748e-006
-4.4637951e-007
5.6386114e-006
-6.072574e-007
5.7450884e-006
-8.4210738e-007
5.8934454e-006
-1.1835712e-006
6.1016563e-006
-1.6834589e-006
6.3971708e-006
-2.4302082e-006
6.8166112e-006
-3.5305292e-006
7.4259133e-006
-5.2743292e-006
8.3396384e-006
-8.0264451e-006
9.8554295e-006
-1.3190261e-005
1.2157007e-005
-2.0971512e-005
1.5381966e-005
-2.9980619e-005
-3.5382772e-005
1.844074e-005
5.0620651e-006
-4.8960434e-007
5.1324025e-006
-5.3635852e-007
5.1921741e-006
-4.5531888e-007
5.2411334e-006
-3.8622091e-007
5.2805905e-006
-3.2067769e-007
5.3147517e-006
-2.856112e-007
5.3433636e-006
-2.4539703e-007
5.3696915e-006
-2.3123956e-007
5.3954699e-006
-2.3011303e-007
5.4233161e-006
-2.5247844e-007
5.4559763e-006
-2.9920885e-007
5.4969975e-006
-3.7880942e-007
5.550763e-006
-5.0014504e-007
5.6232431e-006
-6.7973747e-007
5.7226323e-006
-9.4149653e-007
5.8604149e-006
-1.3213538e-006
6.0523681e-006
-1.8754121e-006
6.3220224e-006
-2.6998625e-006
6.6989646e-006
-3.9074714e-006
7.236066e-006
-5.8114306e-006
8.0187068e-006
-8.809086e-006
9.299632e-006
-1.4471186e-005
1.1156374e-005
-2.2828254e-005
1.3915031e-005
-3.2739276e-005
-3.7436194e-005
1.5968453e-005
5.0622686e-006
-5.5059256e-007
5.1341849e-006
-6.0827488e-007
5.194944e-006
-5.1607789e-007
5.2444382e-006
-4.3571512e-007
5.2833221e-006
-3.5956161e-007
5.3168274e-006
-3.1911641e-007
5.3444585e-006
-2.7302817e-007
5.3696156e-006
-2.5639663e-007
5.3940552e-006
-2.5455265e-007
5.4202676e-006
-2.7869085e-007
5.4508425e-006
-3.297837e-007
5.4890832e-006
-4.1705007e-007
5.5390388e-006
-5.5010062e-007
5.6061245e-006
-7.468232e-007
5.6976712e-006
-1.0330432e-006
5.8238116e-006
-1.4474942e-006
5.9980704e-006
-2.0496709e-006
6.2397472e-006
-2.9415392e-006
6.57037e-006
-4.2380943e-006
7.028599e-006
-6.2696595e-006
7.6620252e-006
-9.4425122e-006
8.65691e-006
-1.5466071e-005
1.0005732e-005
-2.4177076e-005
1.2262182e-005
-3.4995726e-005
-3.8174137e-005
1.3000125e-005
5.0627732e-006
-6.1208545e-007
5.1366506e-006
-6.8215226e-007
5.1983083e-006
-5.7773554e-007
5.24829e-006
-4.8569675e-007
5.2865816e-006
-3.9785325e-007
5.319204e-006
-3.5173873e-007
5.3457914e-006
-2.9961558e-007
5.369585e-006
-2.8019024e-007
5.392556e-006
-2.7752364e-007
5.4169527e-006
-3.0308751e-007
5.4452416e-006
-3.5807254e-007
5.4804348e-006
-4.5224334e-007
5.5262342e-006
-5.9589994e-007
5.5874639e-006
-8.0805295e-007
5.6705276e-006
-1.1161068e-006
5.7841514e-006
-1.5611181e-006
5.9394981e-006
-2.2050175e-006
6.1512822e-006
-3.1533232e-006
6.4339249e-006
-4.520737e-006
6.8096315e-006
-6.6453662e-006
7.2921811e-006
-9.9250617e-006
7.9628927e-006
-1.6136782e-005
8.7539052e-006
-2.4968089e-005
1.008968e-005
-3.6331501e-005
8.908905e-006
-3.6993362e-005
2.950624e-005
-3.7767824e-006
3.1201573e-005
-1.6953328e-006
3.158918e-005
-3.8760627e-007
3.1531167e-005
5.801299e-008
3.1455523e-005
7.5644003e-008
3.1431323e-005
2.4200023e-008
3.1428258e-005
3.0643907e-009
3.1428066e-005
1.9261489e-010
3.1427722e-005
3.4361513e-010
3.1427465e-005
2.5712748e-010
3.1427382e-005
8.328577e-011
3.1427365e-005
1.6951642e-011
3.1427362e-005
2.8398834e-012
3.1427361e-005
9.4413213e-013
3.142736e-005
4.5731529e-013
3.142736e-005
-4.6651095e-014
3.142736e-005
4.1450277e-014
3.142736e-005
1.8551547e-013
3.142736e-005
5.1309769e-014
3.142736e-005
-1.3367778e-013
3.142736e-005
3.4472218e-014
3.142736e-005
6.5680952e-013
3.1427358e-005
1.464564e-012
3.1427349e-005
8.5609262e-012
8.2992156e-012
2.9116736e-005
-7.3186312e-006
3.0762086e-005
-3.3406812e-006
3.1111007e-005
-7.3652696e-007
3.1081953e-005
8.706706e-008
3.1014449e-005
1.4314748e-007
3.0993979e-005
4.4669851e-008
3.0990673e-005
6.3709274e-009
3.0990605e-005
2.6055696e-010
3.0990277e-005
6.7163915e-010
3.0990081e-005
4.5285926e-010
3.0990005e-005
1.5952831e-010
3.0989991e-005
3.0197864e-011
3.0989989e-005
5.1212984e-012
3.0989988e-005
1.7909115e-012
3.0989988e-005
7.024575e-013
3.0989988e-005
-1.6889837e-013
3.0989988e-005
3.6337843e-014
3.0989988e-005
3.8949449e-013
3.0989988e-005
2.2300481e-015
3.0989988e-005
-1.7840831e-013
3.0989988e-005
1.7042197e-013
3.0989987e-005
1.0125913e-012
3.0989986e-005
2.9817479e-012
3.0989977e-005
1.7668341e-011
1.7145366e-011
2.8209141e-005
-1.0470195e-005
2.9602434e-005
-4.7339744e-006
2.9914047e-005
-1.04814e-006
2.9913699e-005
8.7415333e-008
2.9869001e-005
1.8784575e-007
2.9854115e-005
5.955531e-008
2.9851219e-005
9.2671033e-009
2.9851141e-005
3.3900903e-010
2.9850928e-005
8.842703e-010
2.985081e-005
5.7116449e-010
2.9850757e-005
2.1197504e-010
2.9850749e-005
3.8288142e-011
2.9850748e-005
6.2497237e-012
2.9850748e-005
2.0957873e-012
2.9850748e-005
7.2249319e-013
2.9850747e-005
-4.0710088e-014
2.9850747e-005
-3.5295819e-014
2.9850748e-005
1.929168e-013
2.9850748e-005
-2.3072984e-013
2.9850748e-005
3.3486628e-014
2.9850747e-005
5.3661057e-013
2.9850747e-005
1.0907954e-012
2.9850747e-005
3.6887529e-012
2.985074e-005
2.4730608e-011
2.4186835e-011
2.6509259e-005
-1.2881667e-005
2.7451542e-005
-5.6762567e-006
2.7675811e-005
-1.2724097e-006
2.7703324e-005
5.9902415e-008
2.7690119e-005
2.0105125e-007
2.7683877e-005
6.5796692e-008
2.7681862e-005
1.1282455e-008
2.7681817e-005
3.8421954e-010
2.7681744e-005
9.5660328e-010
2.7681725e-005
5.9110546e-010
2.7681704e-005
2.3215314e-010
2.7681703e-005
3.9219534e-011
2.7681704e-005
5.7962833e-012
2.7681704e-005
1.7186514e-012
2.7681704e-005
5.2982112e-013
2.7681704e-005
2.0189038e-013
2.7681704e-005
-3.3096708e-013
2.7681705e-005
-5.0398447e-013
2.7681705e-005
-1.9276292e-013
2.7681704e-005
6.6237226e-013
2.7681704e-005
9.253542e-013
2.7681704e-005
1.1468817e-012
2.7681704e-005
3.2528574e-012
2.7681704e-005
2.5128164e-011
2.5176251e-011
2.3938361e-005
-1.4207474e-005
2.4231089e-005
-5.968985e-006
2.430197e-005
-1.3432905e-006
2.4344279e-005
1.7593273e-008
2.4361996e-005
1.833343e-007
2.4365777e-005
6.2015247e-008
2.4365216e-005
1.1843834e-008
2.436527e-005
3.2969289e-010
2.4365335e-005
8.9216346e-010
2.4365412e-005
5.1442927e-010
2.4365426e-005
2.1734448e-010
2.4365433e-005
3.2314082e-011
2.4365435e-005
3.9434549e-012
2.4365436e-005
9.9712784e-013
2.4365436e-005
2.0388885e-013
2.4365436e-005
4.6485847e-014
2.4365437e-005
-7.5710163e-013
2.4365437e-005
-8.7390729e-013
2.4365437e-005
2.1307594e-013
2.4365436e-005
1.0258971e-012
2.4365436e-005
9.6161666e-013
2.4365436e-005
1.2477019e-012
2.4365437e-005
1.958764e-012
2.4365446e-005
1.6441107e-011
1.7500014e-011
2.0667798e-005
-1.421454e-005
2.0195757e-005
-5.4969443e-006
2.0056493e-005
-1.2040268e-006
2.0095577e-005
-2.1490409e-008
2.0134231e-005
1.4468058e-007
2.0146464e-005
4.9782309e-008
2.0147764e-005
1.0543743e-008
2.0147954e-005
1.3973096e-010
2.0148125e-005
7.2091349e-010
2.0148271e-005
3.6799064e-010
2.0148315e-005
1.733861e-010
2.0148328e-005
1.9303494e-011
2.0148331e-005
1.4721491e-012
2.0148332e-005
4.7722129e-014
2.0148332e-005
-1.5340453e-013
2.0148332e-005
-2.6275329e-013
2.0148332e-005
-7.5157789e-013
2.0148332e-005
-6.557292e-013
2.0148332e-005
2.1977762e-013
2.0148332e-005
6.3735692e-013
2.0148333e-005
8.4449548e-013
2.0148332e-005
1.3513187e-012
2.0148334e-005
2.3080956e-013
2.0148349e-005
1.7456528e-012
3.9262326e-012
1.6986876e-005
-1.2760676e-005
1.5776492e-005
-4.2865609e-006
1.5456725e-005
-8.8425912e-007
1.5474171e-005
-3.8936625e-008
1.5521891e-005
9.6960197e-008
1.5538713e-005
3.2960357e-008
1.5541595e-005
7.6621631e-009
1.5541844e-005
-1.0898205e-010
1.5542071e-005
4.9363691e-010
1.554224e-005
1.9880956e-010
1.5542299e-005
1.1426674e-010
1.5542313e-005
4.9599875e-012
1.5542315e-005
-5.8544765e-013
1.5542316e-005
-8.9703401e-013
1.5542317e-005
-4.2929664e-013
1.5542317e-005
-3.7405508e-013
1.5542316e-005
-3.8059513e-013
1.5542316e-005
-2.5333812e-013
1.5542316e-005
-4.8289382e-014
1.5542317e-005
1.5054861e-013
1.5542317e-005
6.9406963e-013
1.5542317e-005
1.2559585e-012
1.5542318e-005
-1.1428991e-012
1.5542331e-005
-1.1126878e-011
-8.3458862e-012
1.3007771e-005
-9.7999934e-006
1.1341937e-005
-2.620727e-006
1.0951534e-005
-4.9385581e-007
1.0942519e-005
-2.9921949e-008
1.0988156e-005
5.1323376e-008
1.100492e-005
1.6196472e-008
1.1008375e-005
4.2071805e-009
1.1008517e-005
-2.5182923e-010
1.1008743e-005
2.6792573e-010
1.100888e-005
6.2461133e-011
1.1008937e-005
5.6941749e-011
1.1008946e-005
-4.1761275e-012
1.1008947e-005
-1.3629489e-012
1.1008947e-005
-1.206242e-012
1.1008947e-005
-4.4877173e-013
1.1008947e-005
-3.0122544e-013
1.1008947e-005
-1.1342489e-013
1.1008946e-005
1.2122214e-014
1.1008946e-005
-9.8406746e-014
1.1008947e-005
-3.6879536e-014
1.1008947e-005
4.5937791e-013
1.1008947e-005
8.6919917e-013
1.1008948e-005
-1.3416458e-012
1.1008951e-005
-1.4350932e-011
-1.2102438e-011
8.6149063e-006
-5.4147747e-006
6.9737888e-006
-9.7960941e-007
6.6295437e-006
-1.4961063e-007
6.6128127e-006
-1.3190974e-008
6.647229e-006
1.6907057e-008
6.6594804e-006
3.9450419e-009
6.6622301e-006
1.4574517e-009
6.6621727e-006
-1.9446179e-010
6.6623447e-006
9.5871252e-011
6.6624093e-006
-2.1153649e-012
6.66245e-006
1.620734e-011
6.6624502e-006
-4.4421003e-012
6.6624497e-006
-7.9612743e-013
6.6624491e-006
-6.9726509e-013
6.6624489e-006
-2.2182807e-013
6.6624487e-006
-1.3244506e-013
6.6624485e-006
-6.4193347e-015
6.6624485e-006
4.75563e-014
6.6624484e-006
-5.4659414e-014
6.6624485e-006
-5.0549311e-014
6.6624488e-006
1.5785073e-013
6.6624494e-006
3.4044604e-013
6.6624486e-006
-5.2824734e-013
6.6624415e-006
-7.2488268e-012
-6.3948133e-012
3.4941302e-006
2.5145208e-006
2.3649101e-006
2.3517191e-006
2.3686262e-006
2.3725712e-006
2.3740286e-006
2.3738342e-006
2.37393e-006
2.3739279e-006
2.3739441e-006
2.3739397e-006
2.3739389e-006
2.3739381e-006
2.3739379e-006
2.3739378e-006
2.3739377e-006
2.3739378e-006
2.3739377e-006
2.3739377e-006
2.3739379e-006
2.3739382e-006
2.3739377e-006
2.3739305e-006
1.5194306e-005
-8.0255083e-007
1.5429172e-005
-9.1701753e-007
1.5620982e-005
-7.6954575e-007
1.5769034e-005
-6.3374928e-007
1.5885407e-005
-5.1422592e-007
1.5973169e-005
-4.3950021e-007
1.6047215e-005
-3.7366147e-007
1.6109112e-005
-3.42088e-007
1.616833e-005
-3.367408e-007
1.622952e-005
-3.64278e-007
1.6299618e-005
-4.2817086e-007
1.6385416e-005
-5.3804104e-007
1.6495987e-005
-7.0647096e-007
1.6642121e-005
-9.5418633e-007
1.6837188e-005
-1.3111744e-006
1.7098249e-005
-1.8221785e-006
1.7445021e-005
-2.5517896e-006
1.7893561e-005
-3.6018634e-006
1.8462081e-005
-5.089257e-006
1.9096507e-005
-7.2797922e-006
1.9756006e-005
-1.0584561e-005
1.9888664e-005
-1.626944e-005
1.8975754e-005
-2.4055179e-005
1.469922e-005
-3.2054967e-005
-2.2294142e-005
1.5212168e-005
-1.0108782e-006
1.5476424e-005
-1.1812735e-006
1.5676911e-005
-9.7003249e-007
1.5824882e-005
-7.8172055e-007
1.5931361e-005
-6.2070486e-007
1.6006257e-005
-5.1439616e-007
1.6064484e-005
-4.3188776e-007
1.611023e-005
-3.878346e-007
1.6150822e-005
-3.7733209e-007
1.6190565e-005
-4.0402177e-007
1.6234099e-005
-4.717049e-007
1.6285446e-005
-5.8938783e-007
1.6349624e-005
-7.7064867e-007
1.6431561e-005
-1.0361232e-006
1.6536258e-005
-1.4158716e-006
1.6667901e-005
-1.9538219e-006
1.6827551e-005
-2.7114394e-006
1.7005127e-005
-3.7794394e-006
1.7178899e-005
-5.2630285e-006
1.7252967e-005
-7.35386e-006
1.7037598e-005
-1.0369192e-005
1.586233e-005
-1.5094172e-005
1.2959176e-005
-2.1152025e-005
6.6177824e-006
-2.5713574e-005
-1.567636e-005
1.5250725e-005
-1.2577626e-006
1.5544644e-005
-1.4751916e-006
1.5757763e-005
-1.1831524e-006
1.5896029e-005
-9.1998659e-007
1.598709e-005
-7.1176514e-007
1.6043437e-005
-5.7074356e-007
1.6081904e-005
-4.7035431e-007
1.6107926e-005
-4.1385678e-007
1.6127277e-005
-3.9668348e-007
1.6142975e-005
-4.1971907e-007
1.6157433e-005
-4.861635e-007
1.6171742e-005
-6.0369666e-007
1.6186744e-005
-7.8565082e-007
1.6201716e-005
-1.0510953e-006
1.6214013e-005
-1.428168e-006
1.6217166e-005
-1.956975e-006
1.6197419e-005
-2.6916929e-006
1.6124784e-005
-3.7068042e-006
1.5950249e-005
-5.0884937e-006
1.5560264e-005
-6.9638747e-006
1.4735488e-005
-9.5444153e-006
1.2888693e-005
-1.3247377e-005
9.3643811e-006
-1.7627714e-005
3.5778319e-006
-1.9927025e-005
-1.2098528e-005
1.5316359e-005
-1.5702806e-006
1.5655472e-005
-1.8143047e-006
1.5875394e-005
-1.4030741e-006
1.5995388e-005
-1.039981e-006
1.6061336e-005
-7.7771332e-007
1.6092798e-005
-6.0220505e-007
1.6106968e-005
-4.8452433e-007
1.6110201e-005
-4.1709021e-007
1.610641e-005
-3.9289209e-007
1.6096829e-005
-4.1013789e-007
1.6081481e-005
-4.708153e-007
1.605861e-005
-5.8082564e-007
1.6024797e-005
-7.5183841e-007
1.59745e-005
-1.0007978e-006
1.5898757e-005
-1.352425e-006
1.5782647e-005
-1.8408658e-006
1.5601716e-005
-2.5107612e-006
1.5314369e-005
-3.4194571e-006
1.4857238e-005
-4.6313632e-006
1.411918e-005
-6.2258164e-006
1.2906927e-005
-8.3321626e-006
1.0805969e-005
-1.1146419e-005
7.3853758e-006
-1.420712e-005
2.6541065e-006
-1.5195755e-005
-9.444421e-006
1.546865e-005
-2.0350897e-006
1.5891382e-005
-2.2370363e-006
1.6106596e-005
-1.6182884e-006
1.6191769e-005
-1.1251544e-006
1.6218668e-005
-8.0461153e-007
1.6216868e-005
-6.0040509e-007
1.6202146e-005
-4.6980245e-007
1.6180017e-005
-3.949614e-007
1.6152016e-005
-3.6489101e-007
1.6117076e-005
-3.7519775e-007
1.6072614e-005
-4.2635298e-007
1.6014033e-005
-5.2224494e-007
1.5934388e-005
-6.7219391e-007
1.5823993e-005
-8.904026e-007
1.5668615e-005
-1.1970465e-006
1.5447195e-005
-1.6194464e-006
1.5128381e-005
-2.1919467e-006
1.4665075e-005
-2.9561515e-006
1.3989618e-005
-3.955906e-006
1.300085e-005
-5.2370481e-006
1.1543036e-005
-6.8743493e-006
9.3486708e-006
-8.9520536e-006
6.1879582e-006
-1.1046408e-005
2.34994e-006
-1.1357737e-005
-7.0944809e-006
1.5844837e-005
-2.8760852e-006
1.639029e-005
-2.78249e-006
1.6566702e-005
-1.7947e-006
1.6583315e-005
-1.1417677e-006
1.6551003e-005
-7.7229954e-007
1.6505563e-005
-5.5496516e-007
1.6457462e-005
-4.2170171e-007
1.6408084e-005
-3.4558308e-007
1.6355575e-005
-3.1238165e-007
1.6296127e-005
-3.1574971e-007
1.6224206e-005
-3.5443208e-007
1.6132481e-005
-4.305197e-007
1.6011218e-005
-5.5093134e-007
1.5847153e-005
-7.2633728e-007
1.5621694e-005
-9.7158764e-007
1.5309561e-005
-1.3073131e-006
1.4875365e-005
-1.757751e-006
1.4269853e-005
-2.3506401e-006
1.3426872e-005
-3.1129246e-006
1.2257881e-005
-4.0680568e-006
1.0640441e-005
-5.2569089e-006
8.403419e-006
-6.715032e-006
5.4514862e-006
-8.094475e-006
2.1551651e-006
-8.0614158e-006
-4.9393158e-006
1.6456707e-005
-4.3289515e-006
1.7008341e-005
-3.3341233e-006
1.7043354e-005
-1.8297133e-006
1.693988e-005
-1.0382934e-006
1.6826212e-005
-6.5863208e-007
1.6728086e-005
-4.5683924e-007
1.6643961e-005
-3.3757605e-007
1.6567409e-005
-2.6903113e-007
1.6491996e-005
-2.3696905e-007
1.641074e-005
-2.3449372e-007
1.63151e-005
-2.5879166e-007
1.6195576e-005
-3.1099568e-007
1.6039906e-005
-3.952613e-007
1.5832121e-005
-5.1855235e-007
1.5550758e-005
-6.9022513e-007
1.5167577e-005
-9.2413168e-007
1.4645312e-005
-1.2354863e-006
1.3935082e-005
-1.6404101e-006
1.2975202e-005
-2.1530448e-006
1.1690158e-005
-2.7830124e-006
9.9840177e-006
-3.5507687e-006
7.7383819e-006
-4.4693961e-006
4.9251094e-006
-5.2812025e-006
1.9480323e-006
-5.0843387e-006
-2.9912835e-006
1.6698257e-005
-6.0233677e-006
1.6714973e-005
-3.3508394e-006
1.640966e-005
-1.5244004e-006
1.6133227e-005
-7.618599e-007
1.5927968e-005
-4.5337369e-007
1.5776986e-005
-3.0585718e-007
1.5660398e-005
-2.209874e-007
1.5562245e-005
-1.7087864e-007
1.5471011e-005
-1.4573464e-007
1.5376709e-005
-1.401919e-007
1.5268907e-005
-1.509899e-007
1.5136537e-005
-1.7862572e-007
1.4966056e-005
-2.2478028e-007
1.4740623e-005
-2.9311925e-007
1.4438756e-005
-3.8835763e-007
1.4031852e-005
-5.1722765e-007
1.3484035e-005
-6.8766984e-007
1.2750905e-005
-9.0727979e-007
1.1778909e-005
-1.1810486e-006
1.0507005e-005
-1.5111089e-006
8.8616951e-006
-1.9054585e-006
6.7577921e-006
-2.3654931e-006
4.2040932e-006
-2.7275036e-006
1.6135792e-006
-2.4938246e-006
-1.3777043e-006
1.5045494e-005
-6.0650208e-006
1.3749308e-005
-2.054653e-006
1.293862e-005
-7.1371222e-007
1.2504962e-005
-3.2820192e-007
1.2240435e-005
-1.8884717e-007
1.2061816e-005
-1.272382e-007
1.1931969e-005
-9.1140533e-008
1.1829564e-005
-6.8473367e-008
1.1740197e-005
-5.6367167e-008
1.1652445e-005
-5.2440117e-008
1.1556282e-005
-5.4826939e-008
1.1441158e-005
-6.3502282e-008
1.1295249e-005
-7.8871291e-008
1.1104101e-005
-1.0197128e-007
1.0850008e-005
-1.3426445e-007
1.0510368e-005
-1.7758764e-007
1.0057085e-005
-2.3438636e-007
9.4564145e-006
-3.0660951e-007
8.6699985e-006
-3.9463263e-007
7.6566947e-006
-4.9780504e-007
6.3682109e-006
-6.169747e-007
4.7519232e-006
-7.4920535e-007
2.8454009e-006
-8.2098123e-007
1.0167503e-006
-6.6517393e-007
-3.6095396e-007
8.9388202e-006
6.8841672e-006
6.1704549e-006
5.842253e-006
5.6534059e-006
5.5261677e-006
5.4350271e-006
5.3665538e-006
5.3101866e-006
5.2577465e-006
5.2029195e-006
5.1394173e-006
5.060546e-006
4.9585747e-006
4.8243102e-006
4.6467226e-006
4.4123362e-006
4.1057267e-006
3.7110941e-006
3.2132891e-006
2.5963144e-006
1.8471091e-006
1.0261279e-006
3.6095396e-007
)
;

boundaryField
{
    inlet
    {
        type            calculated;
        value           nonuniform List<scalar> 
20
(
-5.0012803e-006
-5.0012803e-006
-5.0012803e-006
-5.0012803e-006
-5.0012803e-006
-5.0012803e-006
-5.0012803e-006
-5.0012803e-006
-5.0012803e-006
-5.0012803e-006
-1.5003841e-005
-1.5003841e-005
-1.5003841e-005
-1.5003841e-005
-1.5003841e-005
-1.5003841e-005
-1.5003841e-005
-1.5003841e-005
-1.5003841e-005
-1.5003841e-005
)
;
    }
    walls
    {
        type            calculated;
        value           uniform 0;
    }
    outlet
    {
        type            calculated;
        value           nonuniform List<scalar> 10(3.1427341e-005 3.0989968e-005 2.9850733e-005 2.7681703e-005 2.4365454e-005 2.0148363e-005 1.5542344e-005 1.1008955e-005 6.6624358e-006 2.3739241e-006);
    }
    centreline
    {
        type            symmetryPlane;
        value           uniform 0;
    }
    frontAndBack
    {
        type            empty;
        value           nonuniform 0();
    }
}


// ************************************************************************* //
