/*--------------------------------*- C++ -*----------------------------------*\
| =========                 |                                                 |
| \\      /  F ield         | OpenFOAM: The Open Source CFD Toolbox           |
|  \\    /   O peration     | Version:  5.x                                   |
|   \\  /    A nd           | Web:      www.OpenFOAM.org                      |
|    \\/     M anipulation  |                                                 |
\*---------------------------------------------------------------------------*/
/*   Windows 32 and 64 bit porting by blueCAPE: http://www.bluecape.com.pt   *\
|  Based on Windows porting (2.0.x v4) by Symscape: http://www.symscape.com   |
\*---------------------------------------------------------------------------*/
FoamFile
{
    version     2.0;
    format      ascii;
    class       volSymmTensorField;
    location    "0.06";
    object      sigma;
}
// * * * * * * * * * * * * * * * * * * * * * * * * * * * * * * * * * * * * * //

dimensions      [0 2 -2 0 0 0 0];

internalField   nonuniform List<symmTensor> 
750
(
(-5.9126573e-005 9.0639843e-006 0 8.9579007e-005 0 0)
(-0.00017551941 -1.3219907e-006 0 0.00012282415 0 0)
(-2.8272968e-005 -1.9144072e-006 0 6.2901469e-005 0 0)
(-0.0001130594 1.2160452e-007 0 9.1165597e-005 0 0)
(-4.811459e-005 -1.7262319e-006 0 5.9361715e-005 0 0)
(-7.310162e-005 -9.2938527e-008 0 6.7258428e-005 0 0)
(-5.5108188e-005 -4.9508434e-007 0 5.7699366e-005 0 0)
(-6.2572085e-005 4.1794822e-007 0 6.1294043e-005 0 0)
(-6.5139996e-005 9.1333223e-007 0 6.5534794e-005 0 0)
(-7.7720321e-005 1.8507772e-006 0 7.7387123e-005 0 0)
(-9.7457625e-005 2.9800108e-006 0 9.7305508e-005 0 0)
(-0.00012511967 4.3923072e-006 0 0.00012472114 0 0)
(-0.00017031656 6.5616536e-006 0 0.00016965215 0 0)
(-0.00023242155 9.4879147e-006 0 0.0002311854 0 0)
(-0.00032329498 1.3762966e-005 0 0.00032082409 0 0)
(-0.00045375814 2.0027191e-005 0 0.00044896848 0 0)
(-0.00064917839 3.0010905e-005 0 0.00063988716 0 0)
(-0.00092640411 4.3797426e-005 0 0.00090501831 0 0)
(-0.0013775227 6.9679424e-005 0 0.0013402091 0 0)
(-0.0020311305 0.00010386339 0 0.0019251104 0 0)
(-0.0031294337 0.00018038452 0 0.0029560182 0 0)
(-0.0049491319 0.00027208314 0 0.004364619 0 0)
(-0.0079336144 0.00040971303 0 0.0068861399 0 0)
(-0.012107153 0.00048617771 0 0.0092834246 0 0)
(-0.015041021 -0.00016625754 0 0.011601368 0 0)
(-5.8411118e-005 2.5194693e-005 0 9.5175258e-005 0 0)
(-0.00017671229 -3.530734e-006 0 0.0001128869 0 0)
(-2.8163579e-005 -4.865234e-006 0 7.2020011e-005 0 0)
(-0.00011294373 -3.7719585e-007 0 8.5523636e-005 0 0)
(-4.8220776e-005 -4.4856712e-006 0 6.2950746e-005 0 0)
(-7.2782384e-005 -5.2252313e-007 0 6.5304075e-005 0 0)
(-5.4956704e-005 -1.1491661e-006 0 5.832344e-005 0 0)
(-6.2218487e-005 1.3522052e-006 0 6.0531297e-005 0 0)
(-6.4770992e-005 2.9746498e-006 0 6.5277001e-005 0 0)
(-7.7226964e-005 5.7211753e-006 0 7.6774145e-005 0 0)
(-9.6738536e-005 9.125499e-006 0 9.6550619e-005 0 0)
(-0.00012420259 1.334744e-005 0 0.00012371035 0 0)
(-0.00016908225 1.983325e-005 0 0.00016829442 0 0)
(-0.00023064597 2.8557574e-005 0 0.00022924143 0 0)
(-0.00032059517 4.1283387e-005 0 0.00031785152 0 0)
(-0.00044973421 5.997515e-005 0 0.00044459245 0 0)
(-0.00064338698 8.9478843e-005 0 0.00063349735 0 0)
(-0.00091526976 0.00013031729 0 0.00089281949 0 0)
(-0.0013645324 0.00020896863 0 0.0013267198 0 0)
(-0.0020040029 0.00030620532 0 0.0018895041 0 0)
(-0.0030947653 0.00054341613 0 0.0029271967 0 0)
(-0.0048844562 0.00081836442 0 0.0042618554 0 0)
(-0.0079415011 0.0011713484 0 0.0069101709 0 0)
(-0.012254081 0.0014928463 0 0.009256111 0 0)
(-0.015527717 -0.00029891122 0 0.011981861 0 0)
(-5.7542103e-005 3.9430858e-005 0 9.7313288e-005 0 0)
(-0.00017864765 -5.2996173e-006 0 0.00010931325 0 0)
(-2.7735679e-005 -7.238546e-006 0 7.5368774e-005 0 0)
(-0.00011310494 -1.4234796e-006 0 8.3268362e-005 0 0)
(-4.8259184e-005 -6.7912391e-006 0 6.4090642e-005 0 0)
(-7.2246745e-005 -1.1792688e-006 0 6.4182961e-005 0 0)
(-5.4615878e-005 -1.6114553e-006 0 5.8241315e-005 0 0)
(-6.1538865e-005 2.2736071e-006 0 5.9759141e-005 0 0)
(-6.4027354e-005 5.1197966e-006 0 6.4596928e-005 0 0)
(-7.6247279e-005 9.619617e-006 0 7.5799767e-005 0 0)
(-9.5352745e-005 1.5279957e-005 0 9.5213412e-005 0 0)
(-0.00012243483 2.2305849e-005 0 0.00012198134 0 0)
(-0.00016665329 3.3064365e-005 0 0.00016592326 0 0)
(-0.00022707878 4.7478941e-005 0 0.00022576907 0 0)
(-0.00031532632 6.8512106e-005 0 0.0003127143 0 0)
(-0.00044181767 9.9470318e-005 0 0.00043689283 0 0)
(-0.00063142378 0.00014789154 0 0.00062187196 0 0)
(-0.00089582139 0.00021600265 0 0.00087383982 0 0)
(-0.001334263 0.00034422436 0 0.0012978585 0 0)
(-0.0019532143 0.0005104952 0 0.0018389965 0 0)
(-0.003013499 0.00088340911 0 0.0028524965 0 0)
(-0.0047830366 0.0013415907 0 0.0041469719 0 0)
(-0.0078721656 0.0020073355 0 0.0068316176 0 0)
(-0.012492142 0.0026433371 0 0.0092533275 0 0)
(-0.016107427 -4.7451271e-005 0 0.012283688 0 0)
(-5.644588e-005 5.4002285e-005 0 9.6957945e-005 0 0)
(-0.00018118867 -6.7453313e-006 0 0.00011054183 0 0)
(-2.7183784e-005 -9.7042879e-006 0 7.5250339e-005 0 0)
(-0.00011343472 -2.4854043e-006 0 8.3475552e-005 0 0)
(-4.8271951e-005 -9.2373822e-006 0 6.3863872e-005 0 0)
(-7.1491715e-005 -1.9631067e-006 0 6.3605833e-005 0 0)
(-5.4071447e-005 -2.1868759e-006 0 5.7569011e-005 0 0)
(-6.0535291e-005 3.0411649e-006 0 5.883289e-005 0 0)
(-6.2916228e-005 7.1094829e-006 0 6.3454111e-005 0 0)
(-7.4744268e-005 1.3311804e-005 0 7.4315661e-005 0 0)
(-9.3428102e-005 2.1239165e-005 0 9.3280646e-005 0 0)
(-0.0001197992 3.0986946e-005 0 0.00011934669 0 0)
(-0.00016288864 4.5911235e-005 0 0.00016216165 0 0)
(-0.00022171951 6.5891898e-005 0 0.00022041096 0 0)
(-0.00030752541 9.5065786e-005 0 0.00030492217 0 0)
(-0.00043009029 0.00013786477 0 0.00042515266 0 0)
(-0.00061324689 0.0002046869 0 0.00060376807 0 0)
(-0.00086812515 0.00029938009 0 0.00084619406 0 0)
(-0.0012864185 0.00047689608 0 0.0012502661 0 0)
(-0.0018765033 0.00070356987 0 0.001764578 0 0)
(-0.0028809549 0.0012400086 0 0.0027199526 0 0)
(-0.004615049 0.0019028489 0 0.0039738599 0 0)
(-0.0076964579 0.0028940874 0 0.0066209444 0 0)
(-0.012692695 0.0039874232 0 0.0091616869 0 0)
(-0.016379321 0.00069295199 0 0.012373891 0 0)
(-5.4858035e-005 6.973293e-005 0 9.5360065e-005 0 0)
(-0.00018449313 -7.9051287e-006 0 0.00011389872 0 0)
(-2.665268e-005 -1.2382957e-005 0 7.4386387e-005 0 0)
(-0.00011388706 -3.3913884e-006 0 8.4509978e-005 0 0)
(-4.8306613e-005 -1.1872618e-005 0 6.3392129e-005 0 0)
(-7.0494578e-005 -2.7674605e-006 0 6.2982093e-005 0 0)
(-5.3324224e-005 -2.8026568e-006 0 5.6613476e-005 0 0)
(-5.9211264e-005 3.7670109e-006 0 5.7619591e-005 0 0)
(-6.144093e-005 9.0385724e-006 0 6.1932527e-005 0 0)
(-7.275658e-005 1.6909758e-005 0 7.2353341e-005 0 0)
(-9.087257e-005 2.7040909e-005 0 9.0717325e-005 0 0)
(-0.00011632978 3.9450422e-005 0 0.00011588722 0 0)
(-0.0001579075 5.8391229e-005 0 0.00015719454 0 0)
(-0.00021465774 8.3763412e-005 0 0.00021336022 0 0)
(-0.000297243 0.00012076863 0 0.00029467263 0 0)
(-0.00041467147 0.00017493509 0 0.0004097546 0 0)
(-0.00058918149 0.00025929948 0 0.00057981796 0 0)
(-0.00083156856 0.00037938547 0 0.00080979675 0 0)
(-0.0012246526 0.00059988194 0 0.0011885025 0 0)
(-0.0017748724 0.00089053697 0 0.0016653241 0 0)
(-0.0027208024 0.0015510237 0 0.0025556002 0 0)
(-0.0044003962 0.0024106303 0 0.0037509107 0 0)
(-0.0073851364 0.003799782 0 0.0062696831 0 0)
(-0.01272252 0.0054772735 0 0.0088420629 0 0)
(-0.016040831 0.001834415 0 0.012089302 0 0)
(-5.2469237e-005 8.6753461e-005 0 9.2699976e-005 0 0)
(-0.00018886672 -8.8509008e-006 0 0.00011875531 0 0)
(-2.6152268e-005 -1.5440112e-005 0 7.3206892e-005 0 0)
(-0.00011446307 -4.1336609e-006 0 8.5935188e-005 0 0)
(-4.8391614e-005 -1.4806129e-005 0 6.2833919e-005 0 0)
(-6.9219514e-005 -3.5919993e-006 0 6.2129204e-005 0 0)
(-5.2389181e-005 -3.4894314e-006 0 5.5443638e-005 0 0)
(-5.7570644e-005 4.4184104e-006 0 5.6100941e-005 0 0)
(-5.9608052e-005 1.0873452e-005 0 6.0053385e-005 0 0)
(-7.0304915e-005 2.0369686e-005 0 6.9930121e-005 0 0)
(-8.7677597e-005 3.2641866e-005 0 8.753017e-005 0 0)
(-0.00011203363 4.7618207e-005 0 0.00011160897 0 0)
(-0.00015175374 7.0398426e-005 0 0.00015105603 0 0)
(-0.00020600395 0.00010095109 0 0.00020473172 0 0)
(-0.00028457239 0.00014539016 0 0.00028206805 0 0)
(-0.00039576237 0.00021017975 0 0.00039092377 0 0)
(-0.00055968095 0.00031096879 0 0.00055055063 0 0)
(-0.00078696446 0.00045403734 0 0.00076579688 0 0)
(-0.0011484476 0.00071465603 0 0.0011126027 0 0)
(-0.0016524448 0.0010612614 0 0.001546486 0 0)
(-0.0025074842 0.0018582434 0 0.0023442081 0 0)
(-0.0041036463 0.0029155401 0 0.0034516204 0 0)
(-0.0068610006 0.00476993 0 0.0057262184 0 0)
(-0.012487508 0.0070860211 0 0.0082445145 0 0)
(-0.014833245 0.0032351147 0 0.011301649 0 0)
(-4.905011e-005 0.00010485305 0 8.9003169e-005 0 0)
(-0.00019457501 -9.7126879e-006 0 0.00012489363 0 0)
(-2.5668641e-005 -1.9004479e-005 0 7.1944024e-005 0 0)
(-0.00011516375 -4.7678199e-006 0 8.7563392e-005 0 0)
(-4.8548808e-005 -1.8103677e-005 0 6.2284822e-005 0 0)
(-6.7631516e-005 -4.470178e-006 0 6.1011876e-005 0 0)
(-5.1275613e-005 -4.2746798e-006 0 5.4060239e-005 0 0)
(-5.5615834e-005 4.9661123e-006 0 5.4290064e-005 0 0)
(-5.7426953e-005 1.2584353e-005 0 5.7819484e-005 0 0)
(-6.7396709e-005 2.3642245e-005 0 6.7056806e-005 0 0)
(-8.3898054e-005 3.7987543e-005 0 8.3754424e-005 0 0)
(-0.00010695634 5.5372939e-005 0 0.00010654536 0 0)
(-0.00014454011 8.1784887e-005 0 0.00014385213 0 0)
(-0.00019584322 0.00011722254 0 0.00019458818 0 0)
(-0.0002697514 0.00016856026 0 0.00026728991 0 0)
(-0.00037379167 0.0002431675 0 0.00036899677 0 0)
(-0.00052578418 0.00035843822 0 0.00051678219 0 0)
(-0.00073442814 0.00052351783 0 0.00071365005 0 0)
(-0.0010587601 0.00081908798 0 0.0010233107 0 0)
(-0.0015075296 0.0012185925 0 0.0014042382 0 0)
(-0.0022389168 0.0021437906 0 0.0020767128 0 0)
(-0.0036956839 0.0034093986 0 0.0030359318 0 0)
(-0.0059623976 0.0058889994 0 0.0047999442 0 0)
(-0.011904897 0.0086670753 0 0.0072900813 0 0)
(-0.011241845 0.0048346463 0 0.0088455432 0 0)
(-4.4451198e-005 0.00012390189 0 8.4791943e-005 0 0)
(-0.00020189473 -1.0631465e-005 0 0.00013133948 0 0)
(-2.5152317e-005 -2.3211043e-005 0 7.1363077e-005 0 0)
(-0.0001159808 -5.4179895e-006 0 8.8957532e-005 0 0)
(-4.8776311e-005 -2.1787979e-005 0 6.1729565e-005 0 0)
(-6.5697085e-005 -5.4344835e-006 0 5.962559e-005 0 0)
(-4.9996123e-005 -5.1838275e-006 0 5.2459682e-005 0 0)
(-5.3347104e-005 5.3902608e-006 0 5.2179872e-005 0 0)
(-5.4913858e-005 1.4148102e-005 0 5.5240419e-005 0 0)
(-6.4042507e-005 2.6677985e-005 0 6.3723805e-005 0 0)
(-7.9576395e-005 4.3026594e-005 0 7.9406491e-005 0 0)
(-0.00010115479 6.2707061e-005 0 0.00010073336 0 0)
(-0.00013624207 9.2477499e-005 0 0.00013553806 0 0)
(-0.00018421893 0.00013244082 0 0.00018292548 0 0)
(-0.00025291485 0.00019014706 0 0.00025040299 0 0)
(-0.0003489558 0.00027358541 0 0.00034407477 0 0)
(-0.00048712804 0.00040236396 0 0.00047809841 0 0)
(-0.00067630135 0.00058468816 0 0.00065580212 0 0)
(-0.00095738054 0.00091098855 0 0.00092276619 0 0)
(-0.0013477521 0.0013530412 0 0.0012476676 0 0)
(-0.0019498133 0.0023671336 0 0.0017843191 0 0)
(-0.0032481813 0.0037810296 0 0.0025822774 0 0)
(-0.0050850391 0.006649355 0 0.0038767094 0 0)
(-0.011067022 0.009630301 0 0.0062460166 0 0)
(-0.0071847509 0.0064967564 0 0.005583478 0 0)
(-3.8702535e-005 0.00014341799 0 8.1726108e-005 0 0)
(-0.00021096186 -1.1636818e-005 0 0.00013519651 0 0)
(-2.4613706e-005 -2.8200447e-005 0 7.3146064e-005 0 0)
(-0.0001168283 -6.2520914e-006 0 8.8801545e-005 0 0)
(-4.9072897e-005 -2.5849264e-005 0 6.1756737e-005 0 0)
(-6.3402009e-005 -6.5682645e-006 0 5.7656752e-005 0 0)
(-4.8559211e-005 -6.2714584e-006 0 5.0821326e-005 0 0)
(-5.0773437e-005 5.6309032e-006 0 4.9700714e-005 0 0)
(-5.2074655e-005 1.5491309e-005 0 5.2355619e-005 0 0)
(-6.030188e-005 2.9436594e-005 0 5.9992533e-005 0 0)
(-7.4658065e-005 4.7632862e-005 0 7.4482062e-005 0 0)
(-9.46242e-005 6.9491458e-005 0 9.4211956e-005 0 0)
(-0.00012697448 0.0001023118 0 0.00012627446 0 0)
(-0.00017123003 0.00014650578 0 0.00016994375 0 0)
(-0.00023407031 0.00020998347 0 0.00023160035 0 0)
(-0.0003212158 0.00030125248 0 0.00031640044 0 0)
(-0.0004450349 0.00044141264 0 0.00043617063 0 0)
(-0.00060991307 0.00063967464 0 0.00058961547 0 0)
(-0.00084812804 0.00098853745 0 0.00081454446 0 0)
(-0.0011676819 0.0014597727 0 0.0010703427 0 0)
(-0.0015894617 0.0025615772 0 0.0014354202 0 0)
(-0.0025778276 0.0040829602 0 0.0019206679 0 0)
(-0.0035455858 0.0074716821 0 0.0023924528 0 0)
(-0.0082730572 0.010741889 0 0.0036773118 0 0)
(-0.0014590638 0.0088715488 0 -7.9364817e-005 0 0)
(-3.1817505e-005 0.00016206292 0 8.4879856e-005 0 0)
(-0.00022183208 -1.2847451e-005 0 0.00012785953 0 0)
(-2.4278908e-005 -3.4062037e-005 0 8.5576624e-005 0 0)
(-0.00011749338 -7.3853898e-006 0 8.2794023e-005 0 0)
(-4.938961e-005 -3.0155584e-005 0 6.4699364e-005 0 0)
(-6.0740377e-005 -7.9804813e-006 0 5.4379602e-005 0 0)
(-4.6945801e-005 -7.4459191e-006 0 4.9411366e-005 0 0)
(-4.7883134e-005 5.6613676e-006 0 4.6737118e-005 0 0)
(-4.8897595e-005 1.6639895e-005 0 4.9173868e-005 0 0)
(-5.6136917e-005 3.1947627e-005 0 5.5840552e-005 0 0)
(-6.9133604e-005 5.1799411e-005 0 6.9024226e-005 0 0)
(-8.735551e-005 7.5682524e-005 0 8.6982719e-005 0 0)
(-0.00011680802 0.00011143264 0 0.00011615169 0 0)
(-0.00015684995 0.00015942205 0 0.00015564395 0 0)
(-0.00021306378 0.00022802465 0 0.00021067679 0 0)
(-0.00029013891 0.00032629466 0 0.00028529662 0 0)
(-0.00039770502 0.00047655693 0 0.00038876969 0 0)
(-0.00054208016 0.00068361708 0 0.00052060548 0 0)
(-0.00073723668 0.0010485916 0 0.00070310385 0 0)
(-0.000986134 0.0015299453 0 0.00088168531 0 0)
(-0.0011706107 0.0026633291 0 0.0010405207 0 0)
(-0.001843379 0.0041538564 0 0.0011714688 0 0)
(-0.0013395548 0.0074930205 0 0.00053483957 0 0)
(-0.0033564057 0.0098812694 0 -4.0736391e-005 0 0)
(0.0035931022 0.0094482252 0 -0.006234344 0 0)
(-0.010499555 -0.00054914776 0 0.0081869347 0 0)
(-0.004291548 -0.00052204068 0 0.0039793564 0 0)
(-0.0012553424 -0.00030725885 0 0.0011064024 0 0)
(-0.00024218108 -0.0002074639 0 0.00025186655 0 0)
(-3.072898e-005 -0.00015042155 0 1.7295352e-005 0 0)
(-2.511026e-006 -0.00013915045 0 3.057041e-006 0 0)
(-4.5224764e-006 -0.00013656095 0 2.4573966e-006 0 0)
(-1.3196579e-006 -0.00013636314 0 5.1763452e-007 0 0)
(-7.5428331e-007 -0.00013626602 0 -3.5492858e-007 0 0)
(-7.4211738e-007 -0.00013625046 0 -2.7412176e-007 0 0)
(-9.3142047e-007 -0.00013625705 0 -1.0576349e-007 0 0)
(-1.0056596e-006 -0.00013626497 0 -3.067349e-008 0 0)
(-1.0235424e-006 -0.00013626876 0 -1.1955423e-008 0 0)
(-1.0315907e-006 -0.00013626958 0 -4.6300791e-009 0 0)
(-1.034188e-006 -0.00013626983 0 -1.7361609e-009 0 0)
(-1.0354839e-006 -0.00013626984 0 -4.9550415e-010 0 0)
(-1.0357823e-006 -0.00013626996 0 -2.0116199e-010 0 0)
(-1.0358318e-006 -0.00013627024 0 -1.8232071e-010 0 0)
(-1.0359864e-006 -0.00013627 0 -3.0586376e-011 0 0)
(-1.0361742e-006 -0.00013627038 0 1.5351489e-010 0 0)
(-1.036293e-006 -0.00013627088 0 3.435553e-010 0 0)
(-1.0368543e-006 -0.00013626994 0 1.1698008e-009 0 0)
(-1.0357843e-006 -0.00013626878 0 4.7311087e-009 0 0)
(-1.0462573e-006 -0.00013626882 0 3.1005982e-008 0 0)
(-1.0503061e-006 -0.00013625564 0 2.9153864e-008 0 0)
(-0.010532361 -0.0013637503 0 0.0080835431 0 0)
(-0.0043826898 -0.0010641833 0 0.0040543858 0 0)
(-0.0012196749 -0.00040416143 0 0.00102095 0 0)
(-0.00024213961 -0.00011177024 0 0.00024603462 0 0)
(-2.4405578e-005 5.0150798e-005 0 2.4946459e-006 0 0)
(-2.631602e-006 8.0948789e-005 0 -1.6202114e-007 0 0)
(-6.9292014e-006 8.7905158e-005 0 1.1261432e-006 0 0)
(-4.4427684e-006 8.8587252e-005 0 4.7821939e-007 0 0)
(-3.9721615e-006 8.8820338e-005 0 -3.7935882e-007 0 0)
(-3.9674973e-006 8.8857241e-005 0 -2.5756476e-007 0 0)
(-4.1516043e-006 8.8826457e-005 0 -9.9636109e-008 0 0)
(-4.2216464e-006 8.8802289e-005 0 -2.9054486e-008 0 0)
(-4.2384699e-006 8.8790906e-005 0 -1.0727645e-008 0 0)
(-4.2460415e-006 8.878855e-005 0 -4.2927092e-009 0 0)
(-4.2485332e-006 8.8788071e-005 0 -1.4324557e-009 0 0)
(-4.2496954e-006 8.878764e-005 0 -4.124608e-010 0 0)
(-4.2498806e-006 8.8787718e-005 0 -2.1798195e-010 0 0)
(-4.2499001e-006 8.8786392e-005 0 -1.6171462e-010 0 0)
(-4.2501321e-006 8.8785706e-005 0 5.9804863e-011 0 0)
(-4.2502496e-006 8.8786768e-005 0 1.4864611e-010 0 0)
(-4.2502911e-006 8.8783832e-005 0 2.7545606e-010 0 0)
(-4.2507816e-006 8.8787294e-005 0 1.1454142e-009 0 0)
(-4.2497438e-006 8.8790914e-005 0 3.7254506e-009 0 0)
(-4.2506083e-006 8.8788992e-005 0 2.132835e-008 0 0)
(-4.2533558e-006 8.8845643e-005 0 1.9587907e-008 0 0)
(-0.010674115 -0.0013116339 0 0.0080372174 0 0)
(-0.0042756794 -0.00028141892 0 0.0039612244 0 0)
(-0.0011390253 0.00090318759 0 0.00091388442 0 0)
(-0.00023095873 0.0013839678 0 0.00020319 0 0)
(-5.5854977e-005 0.0016128708 0 -1.1046952e-005 0 0)
(-4.0910433e-005 0.001656894 0 -5.5196668e-006 0 0)
(-5.0267985e-005 0.0016649415 0 -6.0898767e-007 0 0)
(-4.8934403e-005 0.0016660605 0 1.800159e-007 0 0)
(-4.8844057e-005 0.0016662982 0 -3.8475166e-007 0 0)
(-4.8851952e-005 0.001666322 0 -2.2702551e-007 0 0)
(-4.9017843e-005 0.0016662472 0 -8.814331e-008 0 0)
(-4.9076349e-005 0.0016662054 0 -2.5339802e-008 0 0)
(-4.9090302e-005 0.0016661867 0 -8.7014327e-009 0 0)
(-4.9096542e-005 0.0016661834 0 -3.4463636e-009 0 0)
(-4.9098401e-005 0.0016661818 0 -1.1030058e-009 0 0)
(-4.9099189e-005 0.0016661816 0 -3.6816636e-010 0 0)
(-4.9099074e-005 0.0016661735 0 -1.6674966e-010 0 0)
(-4.9099435e-005 0.0016661788 0 7.1895003e-011 0 0)
(-4.909968e-005 0.0016661803 0 1.7388876e-010 0 0)
(-4.9099506e-005 0.0016661802 0 -4.4610212e-011 0 0)
(-4.909957e-005 0.0016661766 0 1.4963841e-010 0 0)
(-4.9100265e-005 0.0016661806 0 9.2722405e-010 0 0)
(-4.9099687e-005 0.0016661836 0 1.9624899e-009 0 0)
(-4.9096506e-005 0.0016661859 0 4.8338681e-009 0 0)
(-4.9102423e-005 0.0016662669 0 3.6136693e-009 0 0)
(-0.010414766 -0.00022704528 0 0.0077370969 0 0)
(-0.0038616606 0.0022508322 0 0.003526167 0 0)
(-0.001271228 0.0041006798 0 0.000773435 0 0)
(-0.00053625507 0.0047565453 0 0.00015591542 0 0)
(-0.00044006405 0.0050095345 0 -1.5008641e-005 0 0)
(-0.00042842002 0.0050636754 0 -9.1594771e-006 0 0)
(-0.00044150999 0.005068756 0 -2.520296e-006 0 0)
(-0.00044157206 0.0050697413 0 -2.6820384e-007 0 0)
(-0.00044204727 0.0050697381 0 -3.4773667e-007 0 0)
(-0.00044205398 0.0050696969 0 -1.6787545e-007 0 0)
(-0.00044217278 0.0050695664 0 -6.4092164e-008 0 0)
(-0.00044220309 0.0050695093 0 -1.9885168e-008 0 0)
(-0.00044221129 0.0050694857 0 -5.7725966e-009 0 0)
(-0.00044221526 0.0050694822 0 -2.1188592e-009 0 0)
(-0.00044221558 0.0050694744 0 -7.1772691e-010 0 0)
(-0.00044221576 0.005069478 0 -2.721197e-010 0 0)
(-0.00044221622 0.0050694784 0 1.2453101e-010 0 0)
(-0.00044221645 0.005069477 0 3.1214539e-010 0 0)
(-0.00044221622 0.0050694782 0 -3.0239457e-011 0 0)
(-0.00044221515 0.0050694675 0 -2.4279096e-010 0 0)
(-0.00044221581 0.0050694746 0 -2.5862873e-011 0 0)
(-0.00044221652 0.0050694775 0 4.2895079e-010 0 0)
(-0.00044221651 0.0050694791 0 -2.3437016e-010 0 0)
(-0.00044220984 0.0050694715 0 -1.197101e-008 0 0)
(-0.00044222143 0.0050695668 0 -1.3029347e-008 0 0)
(-0.0092960482 0.0019360839 0 0.0067009635 0 0)
(-0.0034609498 0.0066261385 0 0.0025706842 0 0)
(-0.002346098 0.0089543282 0 0.00064212954 0 0)
(-0.0018398778 0.0099547918 0 8.3535267e-005 0 0)
(-0.0018766547 0.010135191 0 -1.0152337e-005 0 0)
(-0.00187323 0.010186574 0 -8.3231881e-006 0 0)
(-0.0018851929 0.010185531 0 -3.9380619e-006 0 0)
(-0.0018864928 0.01018556 0 -6.068888e-007 0 0)
(-0.0018874327 0.010185038 0 -2.3958918e-007 0 0)
(-0.0018873764 0.010184899 0 -7.0615796e-008 0 0)
(-0.0018874013 0.010184722 0 -3.096591e-008 0 0)
(-0.0018873943 0.010184659 0 -8.4937783e-009 0 0)
(-0.0018873888 0.010184629 0 -2.0434943e-009 0 0)
(-0.0018873889 0.010184625 0 -4.9922897e-010 0 0)
(-0.0018873864 0.010184614 0 -1.2966997e-010 0 0)
(-0.0018873872 0.01018462 0 -4.3320059e-011 0 0)
(-0.0018873873 0.010184619 0 2.4282877e-010 0 0)
(-0.0018873872 0.010184616 0 2.4860129e-010 0 0)
(-0.001887385 0.010184607 0 -1.2641385e-010 0 0)
(-0.001887386 0.010184615 0 -1.614838e-010 0 0)
(-0.0018873869 0.010184619 0 -1.6580954e-010 0 0)
(-0.0018873875 0.010184622 0 -3.0492886e-010 0 0)
(-0.0018873888 0.010184623 0 -1.6818997e-009 0 0)
(-0.0018873812 0.010184615 0 -2.2894797e-008 0 0)
(-0.0018873935 0.010184678 0 -2.369969e-008 0 0)
(-0.0069728298 0.0048835104 0 0.0044628516 0 0)
(-0.0040539816 0.012505896 0 0.0010726896 0 0)
(-0.0048836585 0.014867454 0 0.00035400859 0 0)
(-0.0050201116 0.016070391 0 7.5290319e-005 0 0)
(-0.0051534008 0.016236158 0 5.5165367e-006 0 0)
(-0.0051342526 0.01626582 0 -4.1137867e-006 0 0)
(-0.0051402824 0.016258195 0 -3.8343095e-006 0 0)
(-0.0051406158 0.016256675 0 -6.7546983e-007 0 0)
(-0.0051415972 0.016255504 0 -2.7678919e-008 0 0)
(-0.0051413443 0.016255318 0 5.0994545e-008 0 0)
(-0.0051412457 0.016255129 0 9.790301e-009 0 0)
(-0.0051411889 0.016255069 0 3.5249199e-009 0 0)
(-0.00514117 0.016255041 0 1.9235579e-009 0 0)
(-0.005141166 0.016255037 0 1.1147923e-009 0 0)
(-0.0051411634 0.016255035 0 4.649493e-010 0 0)
(-0.0051411626 0.016255034 0 2.0926612e-010 0 0)
(-0.0051411624 0.016255034 0 1.0567527e-010 0 0)
(-0.0051411597 0.016255024 0 -3.2150607e-011 0 0)
(-0.005141161 0.016255029 0 -7.7593563e-012 0 0)
(-0.0051411623 0.016255033 0 1.4083967e-010 0 0)
(-0.0051411622 0.016255034 0 -1.9623493e-010 0 0)
(-0.0051411621 0.016255034 0 -9.1081599e-010 0 0)
(-0.0051411641 0.016255033 0 -2.1933179e-009 0 0)
(-0.0051411594 0.01625503 0 -2.3134775e-008 0 0)
(-0.0051411575 0.016255027 0 -2.3362453e-008 0 0)
(-0.004570493 0.0098726636 0 0.00089724351 0 0)
(-0.0061265402 0.018062916 0 -0.00052610621 0 0)
(-0.0094775885 0.020993833 0 -6.6567764e-005 0 0)
(-0.010156046 0.021988529 0 6.8602245e-005 0 0)
(-0.010356663 0.022121111 0 3.0033263e-005 0 0)
(-0.01030976 0.022145732 0 1.7979658e-006 0 0)
(-0.010307665 0.022132913 0 -2.0702058e-006 0 0)
(-0.010304677 0.022130945 0 -4.5489188e-007 0 0)
(-0.010305232 0.022129289 0 2.6134705e-007 0 0)
(-0.010304723 0.022129225 0 1.6605807e-007 0 0)
(-0.010304518 0.022129075 0 4.857665e-008 0 0)
(-0.010304418 0.022129035 0 1.342251e-008 0 0)
(-0.010304392 0.022129017 0 5.0246767e-009 0 0)
(-0.010304385 0.022129013 0 2.3639992e-009 0 0)
(-0.010304381 0.022129012 0 8.1002918e-010 0 0)
(-0.010304381 0.022129012 0 2.8765117e-010 0 0)
(-0.01030438 0.022129012 0 -1.1530153e-010 0 0)
(-0.01030438 0.022129011 0 -2.2743324e-010 0 0)
(-0.01030438 0.022129009 0 1.2302406e-010 0 0)
(-0.010304379 0.022129008 0 2.4261504e-010 0 0)
(-0.010304379 0.022129009 0 -1.7030443e-010 0 0)
(-0.01030438 0.022129011 0 -1.0847626e-009 0 0)
(-0.010304382 0.022129011 0 -1.8873534e-009 0 0)
(-0.010304381 0.022129008 0 -1.3623393e-008 0 0)
(-0.010304363 0.022128948 0 -1.3261627e-008 0 0)
(-0.0040905273 0.0144825 0 -0.00222232 0 0)
(-0.0099925358 0.024000162 0 -0.0022579613 0 0)
(-0.015387272 0.025889622 0 -0.00034869731 0 0)
(-0.01615802 0.026524169 0 5.3707171e-005 0 0)
(-0.01640496 0.026621594 0 4.7840467e-005 0 0)
(-0.016333696 0.026648861 0 6.5291383e-006 0 0)
(-0.016327496 0.026635326 0 5.949458e-007 0 0)
(-0.016320818 0.026634349 0 -1.2132837e-008 0 0)
(-0.016321266 0.026632934 0 5.2166649e-007 0 0)
(-0.016320573 0.026633127 0 2.2109683e-007 0 0)
(-0.016320386 0.026633065 0 7.2789214e-008 0 0)
(-0.016320276 0.026633064 0 1.7798208e-008 0 0)
(-0.016320253 0.026633058 0 6.0011192e-009 0 0)
(-0.016320249 0.026633058 0 2.6998961e-009 0 0)
(-0.016320246 0.026633059 0 8.1177027e-010 0 0)
(-0.016320245 0.026633059 0 2.1030209e-010 0 0)
(-0.016320245 0.026633059 0 -1.5137637e-010 0 0)
(-0.016320244 0.026633059 0 -1.5733875e-010 0 0)
(-0.016320244 0.026633059 0 2.449728e-011 0 0)
(-0.016320245 0.026633059 0 2.7124909e-011 0 0)
(-0.016320245 0.026633059 0 -8.0269567e-011 0 0)
(-0.016320245 0.02663306 0 -8.3719998e-010 0 0)
(-0.016320245 0.026633056 0 -1.3272035e-009 0 0)
(-0.016320248 0.026633055 0 -3.035102e-012 0 0)
(-0.016320217 0.026632969 0 1.1503611e-009 0 0)
(-0.0085631157 0.022560938 0 -0.004992514 0 0)
(-0.015398792 0.028305258 0 -0.0033287366 0 0)
(-0.021000347 0.028585676 0 -0.00036434512 0 0)
(-0.021260697 0.028777806 0 -2.317131e-006 0 0)
(-0.021595011 0.02886801 0 5.629349e-005 0 0)
(-0.021496304 0.028893571 0 4.6745051e-006 0 0)
(-0.021504036 0.028888793 0 3.5220492e-006 0 0)
(-0.02149261 0.028888346 0 1.2272768e-007 0 0)
(-0.02149477 0.028888253 0 6.7861683e-007 0 0)
(-0.021493853 0.02888859 0 1.7885113e-007 0 0)
(-0.021493904 0.028888665 0 7.5003646e-008 0 0)
(-0.021493816 0.028888695 0 1.6140493e-008 0 0)
(-0.021493809 0.0288887 0 5.152046e-009 0 0)
(-0.02149381 0.028888704 0 2.2326234e-009 0 0)
(-0.021493808 0.028888706 0 5.3963732e-010 0 0)
(-0.021493808 0.028888706 0 1.5480419e-010 0 0)
(-0.021493808 0.028888706 0 2.007699e-011 0 0)
(-0.021493808 0.028888706 0 -5.5189048e-012 0 0)
(-0.021493808 0.028888706 0 -1.3940544e-010 0 0)
(-0.021493808 0.028888706 0 -1.8464377e-010 0 0)
(-0.021493809 0.028888707 0 -1.751121e-010 0 0)
(-0.02149381 0.028888707 0 -7.7829505e-010 0 0)
(-0.021493811 0.028888705 0 -1.0579387e-009 0 0)
(-0.021493816 0.028888706 0 9.3919612e-009 0 0)
(-0.021493797 0.028888658 0 1.1001536e-008 0 0)
(-0.029449924 0.038383739 0 -0.0089037258 0 0)
(-0.02448109 0.030663492 0 -0.0022134134 0 0)
(-0.032509332 0.032310969 0 -0.00028471808 0 0)
(-0.030502615 0.031186855 0 -2.2650182e-005 0 0)
(-0.031482413 0.031650383 0 2.9592546e-005 0 0)
(-0.031210626 0.031562106 0 2.6780356e-006 0 0)
(-0.031294944 0.031606907 0 2.9125749e-006 0 0)
(-0.031269867 0.031597114 0 2.144317e-008 0 0)
(-0.031277996 0.031601425 0 4.1644311e-007 0 0)
(-0.031276741 0.031601213 0 5.9179947e-008 0 0)
(-0.031277218 0.031601546 0 4.0325261e-008 0 0)
(-0.031277199 0.031601578 0 5.0948144e-009 0 0)
(-0.031277208 0.031601587 0 1.8582867e-009 0 0)
(-0.031277218 0.031601595 0 6.7332584e-010 0 0)
(-0.031277218 0.031601595 0 8.2535166e-011 0 0)
(-0.031277219 0.031601596 0 3.4103303e-011 0 0)
(-0.031277219 0.031601596 0 4.2190893e-011 0 0)
(-0.031277218 0.031601596 0 3.2187253e-011 0 0)
(-0.031277218 0.031601596 0 -9.4613852e-011 0 0)
(-0.031277218 0.031601595 0 -2.3453406e-010 0 0)
(-0.031277218 0.031601595 0 -3.8162531e-010 0 0)
(-0.031277215 0.031601594 0 -8.2119751e-010 0 0)
(-0.031277212 0.031601592 0 -2.1299963e-009 0 0)
(-0.031277214 0.031601594 0 8.7944512e-009 0 0)
(-0.031277204 0.031601636 0 1.120124e-008 0 0)
(-1.692378e-005 0.00017801695 0 9.7517498e-005 0 0)
(-0.00024689709 -1.598193e-005 0 0.00010996543 0 0)
(-2.2602321e-005 -4.3680021e-005 0 0.00011294649 0 0)
(-0.00011857266 -1.6571172e-005 0 7.0667079e-005 0 0)
(-5.0225723e-005 -3.5873782e-005 0 6.8601189e-005 0 0)
(-5.4481536e-005 -1.326217e-005 0 4.828238e-005 0 0)
(-4.3390965e-005 -9.2320377e-006 0 4.4982393e-005 0 0)
(-4.1546325e-005 5.2276045e-006 0 4.022459e-005 0 0)
(-4.200434e-005 1.8718119e-005 0 4.1763561e-005 0 0)
(-4.7066309e-005 3.6025433e-005 0 4.6384586e-005 0 0)
(-5.7421062e-005 5.91259e-005 0 5.6809824e-005 0 0)
(-7.2109842e-005 8.6624761e-005 0 7.111117e-005 0 0)
(-9.5317699e-005 0.00012668872 0 9.3902308e-005 0 0)
(-0.00012681789 0.00018057755 0 0.00012462276 0 0)
(-0.00017013521 0.00025677543 0 0.00016645956 0 0)
(-0.00022787943 0.00036492701 0 0.00022153077 0 0)
(-0.00030408041 0.00052659427 0 0.00029386688 0 0)
(-0.00039614763 0.00074862003 0 0.00037473434 0 0)
(-0.00050473384 0.001121379 0 0.00047497614 0 0)
(-0.00061749448 0.0016198838 0 0.00053330684 0 0)
(-0.00059013607 0.0026330099 0 0.0005096442 0 0)
(-0.00063126905 0.0041109933 0 8.4827363e-005 0 0)
(0.0007627666 0.0067003564 0 -0.0011335338 0 0)
(0.001514795 0.0074251199 0 -0.0034164782 0 0)
(0.0095920405 0.0039302957 0 -0.01080187 0 0)
(-1.5284651e-005 0.00019623755 0 0.00010928917 0 0)
(-0.00027356133 -1.8980875e-005 0 0.00011348308 0 0)
(-2.280957e-005 -5.6953208e-005 0 0.00012495646 0 0)
(-0.00011800776 -3.782838e-005 0 6.5879383e-005 0 0)
(-4.7357242e-005 -4.2141264e-005 0 6.3443578e-005 0 0)
(-4.4108779e-005 -2.3050016e-005 0 4.0568165e-005 0 0)
(-3.4511484e-005 -1.1744445e-005 0 3.5210397e-005 0 0)
(-3.009624e-005 4.2233498e-006 0 2.9381127e-005 0 0)
(-2.8902859e-005 2.0979212e-005 0 2.8809094e-005 0 0)
(-3.0979576e-005 4.1252021e-005 0 3.0647462e-005 0 0)
(-3.6492313e-005 6.7530309e-005 0 3.63114e-005 0 0)
(-4.4798178e-005 9.8784832e-005 0 4.4378136e-005 0 0)
(-5.7654957e-005 0.00014297739 0 5.6905525e-005 0 0)
(-7.4953944e-005 0.00020340873 0 7.3763026e-005 0 0)
(-9.6772007e-005 0.00028553207 0 9.4524366e-005 0 0)
(-0.00012354292 0.00040104116 0 0.00011920617 0 0)
(-0.00015272877 0.00056729676 0 0.00014522977 0 0)
(-0.00017870606 0.00079313863 0 0.0001620965 0 0)
(-0.00018360157 0.0011346114 0 0.00015672877 0 0)
(-0.00014493578 0.0015791646 0 7.6231347e-005 0 0)
(5.9216478e-005 0.0023622706 0 -0.00016648419 0 0)
(0.00046761651 0.0032746237 0 -0.00093016803 0 0)
(0.0022589887 0.0045617634 0 -0.0027747474 0 0)
(0.0047731865 0.0024368464 0 -0.0065530012 0 0)
(0.0059722251 -0.0035495422 0 -0.0089843465 0 0)
(-3.0496264e-005 0.00022834659 0 0.0001239829 0 0)
(-0.00029670484 -2.5427463e-005 0 0.00013827257 0 0)
(-2.2180622e-005 -7.6892817e-005 0 0.00012002971 0 0)
(-0.00011343292 -5.8589344e-005 0 6.7049632e-005 0 0)
(-4.0972533e-005 -5.1378041e-005 0 5.0670062e-005 0 0)
(-3.194482e-005 -3.1051323e-005 0 3.1172267e-005 0 0)
(-2.2821493e-005 -1.4657527e-005 0 2.251205e-005 0 0)
(-1.6811284e-005 3.4991231e-006 0 1.6452764e-005 0 0)
(-1.3873442e-005 2.2766759e-005 0 1.3773995e-005 0 0)
(-1.2941498e-005 4.4627155e-005 0 1.2780727e-005 0 0)
(-1.3568384e-005 7.231309e-005 0 1.3425129e-005 0 0)
(-1.5322336e-005 0.00010700234 0 1.5036932e-005 0 0)
(-1.7705735e-005 0.00015168475 0 1.7154181e-005 0 0)
(-2.0175437e-005 0.00021299973 0 1.9223818e-005 0 0)
(-2.1422403e-005 0.00029664681 0 1.9653737e-005 0 0)
(-1.8870582e-005 0.00041021634 0 1.5298892e-005 0 0)
(-6.6349171e-006 0.00056877426 0 2.0331791e-007 0 0)