/*--------------------------------*- C++ -*----------------------------------*\
| =========                 |                                                 |
| \\      /  F ield         | OpenFOAM: The Open Source CFD Toolbox           |
|  \\    /   O peration     | Version:  5.x                                   |
|   \\  /    A nd           | Web:      www.OpenFOAM.org                      |
|    \\/     M anipulation  |                                                 |
\*---------------------------------------------------------------------------*/
/*   Windows 32 and 64 bit porting by blueCAPE: http://www.bluecape.com.pt   *\
|  Based on Windows porting (2.0.x v4) by Symscape: http://www.symscape.com   |
\*---------------------------------------------------------------------------*/
FoamFile
{
    version     2.0;
    format      ascii;
    class       volSymmTensorField;
    location    "0.06";
    object      sigma_0;
}
// * * * * * * * * * * * * * * * * * * * * * * * * * * * * * * * * * * * * * //

dimensions      [0 2 -2 0 0 0 0];

internalField   nonuniform List<symmTensor> 
750
(
(-5.830095e-005 9.0531855e-006 0 8.8983858e-005 0 0)
(-0.00017547286 -1.3291262e-006 0 0.00012237048 0 0)
(-2.721561e-005 -1.9118568e-006 0 6.2123104e-005 0 0)
(-0.00011287026 1.4286297e-007 0 9.0820125e-005 0 0)
(-4.7587307e-005 -1.7243317e-006 0 5.8910698e-005 0 0)
(-7.2839315e-005 -8.0453581e-008 0 6.696319e-005 0 0)
(-5.4823953e-005 -4.896102e-007 0 5.7429635e-005 0 0)
(-6.236675e-005 4.2403397e-007 0 6.1084272e-005 0 0)
(-6.4957552e-005 9.1676098e-007 0 6.5354748e-005 0 0)
(-7.7560752e-005 1.8525769e-006 0 7.7227635e-005 0 0)
(-9.7295729e-005 2.9793095e-006 0 9.7144665e-005 0 0)
(-0.0001249514 4.3896811e-006 0 0.00012455416 0 0)
(-0.00017010083 6.5551854e-006 0 0.00016943856 0 0)
(-0.00023213918 9.476757e-006 0 0.00023090658 0 0)
(-0.00032290338 1.374551e-005 0 0.00032044116 0 0)
(-0.00045318591 1.9998968e-005 0 0.00044840996 0 0)
(-0.00064832605 2.9966336e-005 0 0.0006390699 0 0)
(-0.00092513423 4.3728656e-005 0 0.00090381329 0 0)
(-0.0013755112 6.9563026e-005 0 0.0013383523 0 0)
(-0.0020280762 0.00010368141 0 0.0019223969 0 0)
(-0.0031242543 0.00018002222 0 0.0029516173 0 0)
(-0.0049401181 0.0002715633 0 0.0043576878 0 0)
(-0.0079163155 0.00040872554 0 0.0068742565 0 0)
(-0.012080361 0.0004839634 0 0.0092682071 0 0)
(-0.014998862 -0.00016977206 0 0.011580172 0 0)
(-5.7576113e-005 2.5140578e-005 0 9.4638794e-005 0 0)
(-0.00017667374 -3.5498555e-006 0 0.00011231568 0 0)
(-2.7103052e-005 -4.849924e-006 0 7.13436e-005 0 0)
(-0.00011275359 -3.2358781e-007 0 8.5119702e-005 0 0)
(-4.7695257e-005 -4.4748413e-006 0 6.2534704e-005 0 0)
(-7.2519288e-005 -4.8960712e-007 0 6.4994965e-005 0 0)
(-5.4673965e-005 -1.1322924e-006 0 5.8060884e-005 0 0)
(-6.2013762e-005 1.3688624e-006 0 6.0319993e-005 0 0)
(-6.4589633e-005 2.9841452e-006 0 6.5098832e-005 0 0)
(-7.7068209e-005 5.7254531e-006 0 7.6615262e-005 0 0)
(-9.6578326e-005 9.1224369e-006 0 9.6391437e-005 0 0)
(-0.00012403588 1.3338444e-005 0 0.00012354492 0 0)
(-0.00016886828 1.9812755e-005 0 0.00016808259 0 0)
(-0.00023036605 2.8523188e-005 0 0.00022896499 0 0)
(-0.00032020891 4.1230266e-005 0 0.0003174742 0 0)
(-0.00044916625 5.9889397e-005 0 0.00044403757 0 0)
(-0.00064254793 8.9346216e-005 0 0.00063269509 0 0)
(-0.00091401488 0.00013011062 0 0.00089162513 0 0)
(-0.0013625512 0.00020862448 0 0.0013249013 0 0)
(-0.0020011007 0.00030569508 0 0.001886922 0 0)
(-0.00308952 0.0005422809 0 0.0029227723 0 0)
(-0.004875829 0.00081682287 0 0.0042552423 0 0)
(-0.007924293 0.0011688243 0 0.0068985465 0 0)
(-0.012229565 0.0014862841 0 0.0092430068 0 0)
(-0.01548994 -0.00030899514 0 0.011964768 0 0)
(-5.6696507e-005 3.9309341e-005 0 9.679046e-005 0 0)
(-0.00017861753 -5.3321042e-006 0 0.00010870402 0 0)
(-2.6668315e-005 -7.2061742e-006 0 7.4717964e-005 0 0)
(-0.00011291464 -1.343964e-006 0 8.284447e-005 0 0)
(-4.7735757e-005 -6.7672892e-006 0 6.368424e-005 0 0)
(-7.1982874e-005 -1.1282415e-006 0 6.3869159e-005 0 0)
(-5.4335706e-005 -1.5822205e-006 0 5.7982648e-005 0 0)
(-6.1335479e-005 2.3002166e-006 0 5.9548661e-005 0 0)
(-6.3848082e-005 5.1354009e-006 0 6.4420924e-005 0 0)
(-7.6090451e-005 9.6261847e-006 0 7.5642712e-005 0 0)
(-9.5195218e-005 1.5274569e-005 0 9.5056789e-005 0 0)
(-0.00012227124 2.2290363e-005 0 0.00012181893 0 0)
(-0.00016644315 3.3029876e-005 0 0.0001657152 0 0)
(-0.00022680398 4.7421677e-005 0 0.00022549755 0 0)
(-0.00031494915 6.8424101e-005 0 0.0003123459 0 0)
(-0.00044126231 9.9327491e-005 0 0.00043634998 0 0)
(-0.00063060604 0.00014767386 0 0.00062109074 0 0)
(-0.00089460089 0.00021566482 0 0.00087267829 0 0)
(-0.0013323465 0.00034365037 0 0.0012961033 0 0)
(-0.0019504585 0.00050963493 0 0.0018365532 0 0)
(-0.0030083153 0.00088161338 0 0.00284814 0 0)
(-0.004774665 0.0013390491 0 0.0041406083 0 0)
(-0.0078558503 0.0020028168 0 0.0068208589 0 0)
(-0.012471499 0.0026328882 0 0.0092434932 0 0)
(-0.016078125 -6.5186883e-005 0 0.012272488 0 0)
(-5.559157e-005 5.3811076e-005 0 9.6425348e-005 0 0)
(-0.0001811652 -6.7937654e-006 0 0.00010994108 0 0)
(-2.6105171e-005 -9.6570248e-006 0 7.4581809e-005 0 0)
(-0.000113244 -2.378099e-006 0 8.3055522e-005 0 0)
(-4.7750969e-005 -9.199828e-006 0 6.345487e-005 0 0)
(-7.1227149e-005 -1.8929241e-006 0 6.3293762e-005 0 0)
(-5.3794934e-005 -2.1445217e-006 0 5.7312606e-005 0 0)
(-6.0334034e-005 3.0783428e-006 0 5.8625138e-005 0 0)
(-6.273999e-005 7.1318463e-006 0 6.3280877e-005 0 0)
(-7.4590594e-005 1.3321457e-005 0 7.416182e-005 0 0)
(-9.3274083e-005 2.1232095e-005 0 9.3127531e-005 0 0)
(-0.00011963995 3.096568e-005 0 0.00011918862 0 0)
(-0.00016268455 4.5863633e-005 0 0.00016195964 0 0)
(-0.00022145351 6.5812954e-005 0 0.00022014818 0 0)
(-0.00030716053 9.4943846e-005 0 0.000304566 0 0)
(-0.00042955542 0.00013766989 0 0.00042463045 0 0)
(-0.00061245919 0.00020438578 0 0.00060301616 0 0)
(-0.00086695903 0.00029891063 0 0.00084508824 0 0)
(-0.0012845817 0.00047614526 0 0.0012485857 0 0)
(-0.0018738751 0.00070237616 0 0.0017622673 0 0)
(-0.0028760267 0.0012374755 0 0.0027158572 0 0)
(-0.0046069821 0.0018990722 0 0.0039678615 0 0)
(-0.0076819275 0.0028877467 0 0.0066118656 0 0)
(-0.01267702 0.0039741786 0 0.0091562705 0 0)
(-0.016363856 0.00067222274 0 0.012371182 0 0)
(-5.3996086e-005 6.9479733e-005 0 9.4817771e-005 0 0)
(-0.00018447598 -7.9690877e-006 0 0.00011331018 0 0)
(-2.5558305e-005 -1.2323254e-005 0 7.3695548e-005 0 0)
(-0.00011369488 -3.2532908e-006 0 8.4095797e-005 0 0)
(-4.7788854e-005 -1.1822298e-005 0 6.2981416e-005 0 0)
(-7.022932e-005 -2.6779429e-006 0 6.2672646e-005 0 0)
(-5.3052453e-005 -2.7472572e-006 0 5.6360226e-005 0 0)
(-5.9012929e-005 3.8146055e-006 0 5.7415401e-005 0 0)
(-6.1268675e-005 9.0675196e-006 0 6.1763001e-005 0 0)
(-7.260704e-005 1.6922368e-005 0 7.2203683e-005 0 0)
(-9.0723293e-005 2.7032168e-005 0 9.0568919e-005 0 0)
(-0.00011617613 3.9423497e-005 0 0.00011573474 0 0)
(-0.00015771123 5.8330983e-005 0 0.00015700025 0 0)
(-0.00021440357 8.3663796e-005 0 0.00021310919 0 0)
(-0.00029689401 0.00012061419 0 0.00029433217 0 0)
(-0.0004141639 0.00017468828 0 0.00040925981 0 0)
(-0.00058843419 0.00025891939 0 0.00057910523 0 0)
(-0.00083047145 0.00037879498 0 0.00080876094 0 0)
(-0.0012229503 0.00059890593 0 0.0011869521 0 0)
(-0.0017724096 0.00088899079 0 0.0016631796 0 0)
(-0.0027161674 0.0015479965 0 0.0025518059 0 0)
(-0.0043925595 0.002406205 0 0.0037451883 0 0)
(-0.0073725565 0.0037929133 0 0.0062623678 0 0)
(-0.0127121 0.0054629609 0 0.008841167 0 0)
(-0.01603963 0.0018099542 0 0.012095762 0 0)
(-5.1597214e-005 8.6451212e-005 0 9.2146398e-005 0 0)
(-0.00018885886 -8.9268619e-006 0 0.00011818081 0 0)
(-2.5037769e-005 -1.5369141e-005 0 7.2489624e-005 0 0)
(-0.00011426819 -3.960472e-006 0 8.5526091e-005 0 0)
(-4.7878371e-005 -1.4743723e-005 0 6.2422312e-005 0 0)
(-6.8953404e-005 -3.4825055e-006 0 6.1822242e-005 0 0)
(-5.2123284e-005 -3.4205647e-006 0 5.5194676e-005 0 0)
(-5.7376069e-005 4.4765494e-006 0 5.5901127e-005 0 0)
(-5.9440729e-005 1.0909158e-005 0 5.9888534e-005 0 0)
(-7.0160409e-005 2.0385408e-005 0 6.9785569e-005 0 0)
(-8.7534371e-005 3.2631863e-005 0 8.7387729e-005 0 0)
(-0.00011188679 4.7586107e-005 0 0.00011146328 0 0)
(-0.00015156757 7.0326687e-005 0 0.0001508718 0 0)
(-0.00020576344 0.00010083232 0 0.00020449442 0 0)
(-0.00028424276 0.00014520527 0 0.00028174678 0 0)
(-0.00039528622 0.00020988777 0 0.00039046073 0 0)
(-0.00055898417 0.00031051435 0 0.00054988754 0 0)
(-0.00078594629 0.00045334035 0 0.00076484113 0 0)
(-0.0011469036 0.00071349714 0 0.0011112071 0 0)
(-0.0016501761 0.001059436 0 0.0015445333 0 0)
(-0.002503388 0.0018545683 0 0.0023409289 0 0)
(-0.0040967227 0.0029097653 0 0.0034467895 0 0)
(-0.0068513255 0.0047617527 0 0.005721357 0 0)
(-0.012481891 0.0070717424 0 0.0082476559 0 0)
(-0.014844991 0.0032135713 0 0.011314702 0 0)
(-4.8160445e-005 0.00010451787 0 8.8429951e-005 0 0)
(-0.00019458309 -9.7957252e-006 0 0.00012434227 0 0)
(-2.4530189e-005 -1.8922594e-005 0 7.1193804e-005 0 0)
(-0.0001149651 -4.5540226e-006 0 8.7160437e-005 0 0)
(-4.8042093e-005 -1.8029851e-005 0 6.1873155e-005 0 0)
(-6.7364148e-005 -4.3396194e-006 0 6.0707559e-005 0 0)
(-5.1016805e-005 -4.1916621e-006 0 5.3816455e-005 0 0)
(-5.542592e-005 5.0350682e-006 0 5.409565e-005 0 0)
(-5.7265512e-005 1.2627184e-005 0 5.766021e-005 0 0)
(-6.7258194e-005 2.3661499e-005 0 6.6918306e-005 0 0)
(-8.3761929e-005 3.7976808e-005 0 8.3619017e-005 0 0)
(-0.00010681762 5.5336541e-005 0 0.00010640778 0 0)
(-0.00014436597 8.1702622e-005 0 0.00014367998 0 0)
(-0.00019561898 0.00011708549 0 0.00019436728 0 0)
(-0.0002694448 0.00016834731 0 0.00026699155 0 0)
(-0.00037335368 0.00024283191 0 0.00036857209 0 0)
(-0.00052514105 0.00035792212 0 0.00051617164 0 0)
(-0.00073350308 0.00052273203 0 0.00071278867 0 0)
(-0.0010573901 0.00081777638 0 0.0010220803 0 0)
(-0.0015055009 0.0012165105 0 0.0014025328 0 0)
(-0.0022352963 0.002139763 0 0.0020738963 0 0)
(-0.003689478 0.0034030795 0 0.0030319025 0 0)
(-0.0059560021 0.0058801474 0 0.00479809 0 0)
(-0.011902592 0.008656594 0 0.0072954284 0 0)
(-0.01126931 0.0048185688 0 0.0088702746 0 0)
(-4.3531464e-005 0.00012354849 0 8.4184175e-005 0 0)
(-0.00020192851 -1.0717607e-005 0 0.00013082524 0 0)
(-2.3986548e-005 -2.3118612e-005 0 7.0571108e-005 0 0)
(-0.00011577772 -5.1574502e-006 0 8.8562734e-005 0 0)
(-4.8278966e-005 -2.1703884e-005 0 6.1318183e-005 0 0)
(-6.542771e-005 -5.2813774e-006 0 5.9324094e-005 0 0)
(-4.9745808e-005 -5.0860418e-006 0 5.2222089e-005 0 0)
(-5.3162795e-005 5.4703008e-006 0 5.1991975e-005 0 0)
(-5.4759251e-005 1.41984e-005 0 5.5087649e-005 0 0)
(-6.3910951e-005 2.6701329e-005 0 6.359229e-005 0 0)
(-7.944815e-005 4.3015703e-005 0 7.9278951e-005 0 0)
(-0.00010102534 6.266757e-005 0 0.00010060512 0 0)
(-0.00013608029 9.2386503e-005 0 0.00013537823 0 0)
(-0.00018401263 0.00013228949 0 0.00018272252 0 0)
(-0.00025263321 0.00018991058 0 0.00025012964 0 0)
(-0.00034855977 0.00027321304 0 0.00034369281 0 0)
(-0.00048655844 0.00040177963 0 0.00047756064 0 0)
(-0.00067548672 0.00058382459 0 0.00065505114 0 0)
(-0.00095622392 0.00090953238 0 0.00092174047 0 0)
(-0.0013460235 0.0013507194 0 0.0012462627 0 0)
(-0.0019468938 0.0023627274 0 0.0017822158 0 0)
(-0.0032432658 0.003774083 0 0.0025795795 0 0)
(-0.0050796843 0.0066416336 0 0.0038756698 0 0)
(-0.011066812 0.0096225038 0 0.0062519677 0 0)
(-0.0071958633 0.0064921053 0 0.0055953028 0 0)
(-3.7735918e-005 0.00014305766 0 8.1081864e-005 0 0)
(-0.00021103454 -1.1725366e-005 0 0.00013469661 0 0)
(-2.3417547e-005 -2.8100491e-005 0 7.233012e-005 0 0)
(-0.00011662019 -5.9373889e-006 0 8.8399431e-005 0 0)
(-4.8588419e-005 -2.5756241e-005 0 6.1353844e-005 0 0)
(-6.3129693e-005 -6.3907768e-006 0 5.7355336e-005 0 0)
(-4.8319008e-005 -6.1583741e-006 0 5.059215e-005 0 0)
(-5.0595604e-005 5.7223195e-006 0 4.9519929e-005 0 0)
(-5.1927705e-005 1.5549481e-005 0 5.2210201e-005 0 0)
(-6.017806e-005 2.946437e-005 0 5.9868814e-005 0 0)
(-7.4539052e-005 4.762261e-005 0 7.4363632e-005 0 0)
(-9.4505144e-005 6.9449123e-005 0 9.4093929e-005 0 0)
(-0.00012682787 0.00010221327 0 0.00012612948 0 0)
(-0.00017104447 0.00014634094 0 0.00016976123 0 0)
(-0.00023381874 0.00020972427 0 0.00023135646 0 0)
(-0.00032085949 0.00030085432 0 0.00031605743 0 0)
(-0.00044451937 0.00044079418 0 0.00043568585 0 0)
(-0.00060921066 0.00063875812 0 0.00058897563 0 0)
(-0.00084709415 0.00098703131 0 0.00081363458 0 0)
(-0.0011662393 0.0014573743 0 0.0010692182 0 0)
(-0.0015873512 0.0025569039 0 0.0014340094 0 0)
(-0.002573398 0.0040762991 0 0.0019183155 0 0)
(-0.0035449536 0.0074634601 0 0.0023950688 0 0)
(-0.0082790341 0.010735768 0 0.0036864163 0 0)
(-0.0014764416 0.0088629453 0 -5.8489628e-005 0 0)
(-3.0786291e-005 0.00016167745 0 8.4255048e-005 0 0)
(-0.00022195782 -1.2940322e-005 0 0.00012724699 0 0)
(-2.3048766e-005 -3.3953696e-005 0 8.4848988e-005 0 0)
(-0.00011727908 -7.0154767e-006 0 8.2327079e-005 0 0)
(-4.8921918e-005 -3.0051401e-005 0 6.4329589e-005 0 0)
(-6.0463732e-005 -7.7795672e-006 0 5.4073654e-005 0 0)
(-4.6717682e-005 -7.3169296e-006 0 4.9192794e-005 0 0)
(-4.7712932e-005 5.7636433e-006 0 4.6563899e-005 0 0)
(-4.8759465e-005 1.6705825e-005 0 4.9036732e-005 0 0)
(-5.6020816e-005 3.1978411e-005 0 5.5724164e-005 0 0)
(-6.9025469e-005 5.1790859e-005 0 6.8915627e-005 0 0)
(-8.7248697e-005 7.5638518e-005 0 8.687595e-005 0 0)
(-0.00011667721 0.00011132717 0 0.00011602137 0 0)
(-0.00015668536 0.00015924434 0 0.00015548059 0 0)
(-0.00021284411 0.00022774699 0 0.00021046193 0 0)
(-0.000289837 0.00032586758 0 0.00028500393 0 0)
(-0.00039727327 0.00047588669 0 0.00038836217 0 0)
(-0.00054148181 0.00068267214 0 0.00052006638 0 0)
(-0.00073649457 0.0010469534 0 0.00070246561 0 0)
(-0.00098499908 0.0015275687 0 0.0008808811 0 0)
(-0.0011694819 0.0026585363 0 0.0010398898 0 0)
(-0.0018405457 0.0041473677 0 0.0011705976 0 0)
(-0.0013394181 0.007486847 0 0.0005368709 0 0)
(-0.0033552699 0.0098783483 0 -3.835535e-005 0 0)
(0.0035904069 0.0094451049 0 -0.0062255132 0 0)
(-0.010448241 -0.00055589969 0 0.0081532481 0 0)
(-0.0042587909 -0.00053088448 0 0.0039531671 0 0)
(-0.0012457287 -0.00031707904 0 0.0010977113 0 0)
(-0.00024255958 -0.00021762244 0 0.00025214402 0 0)
(-3.181457e-005 -0.00016038315 0 1.8314374e-005 0 0)
(-2.984409e-006 -0.00014907995 0 3.5110874e-006 0 0)
(-4.6454632e-006 -0.00014647452 0 2.5337383e-006 0 0)
(-1.361421e-006 -0.0001462707 0 5.1557521e-007 0 0)
(-8.0127904e-007 -0.00014617049 0 -3.5271743e-007 0 0)
(-7.9147192e-007 -0.000146154 0 -2.7017152e-007 0 0)
(-9.7818714e-007 -0.00014616027 0 -1.0406383e-007 0 0)
(-1.0512542e-006 -0.00014616802 0 -3.0317941e-008 0 0)
(-1.0687488e-006 -0.00014617175 0 -1.1918201e-008 0 0)
(-1.0768073e-006 -0.00014617253 0 -4.6048787e-009 0 0)
(-1.0793877e-006 -0.00014617279 0 -1.7264312e-009 0 0)
(-1.0806729e-006 -0.0001461728 0 -4.9615495e-010 0 0)
(-1.0809718e-006 -0.00014617292 0 -2.0141102e-010 0 0)
(-1.0810247e-006 -0.00014617318 0 -1.7855518e-010 0 0)
(-1.0811775e-006 -0.00014617297 0 -2.8653361e-011 0 0)
(-1.081362e-006 -0.00014617334 0 1.5183151e-010 0 0)
(-1.0814843e-006 -0.00014617382 0 3.4533366e-010 0 0)
(-1.0820586e-006 -0.00014617288 0 1.1797089e-009 0 0)
(-1.0809957e-006 -0.00014617172 0 4.7488096e-009 0 0)
(-1.0915802e-006 -0.00014617176 0 3.0930033e-008 0 0)
(-1.0956066e-006 -0.0001461588 0 2.9023332e-008 0 0)
(-0.010484113 -0.001384386 0 0.0080516034 0 0)
(-0.0043533912 -0.0010923369 0 0.0040305303 0 0)
(-0.0012108739 -0.00043559279 0 0.0010126503 0 0)
(-0.0002416986 -0.00014418283 0 0.00024544247 0 0)
(-2.5150934e-005 1.814764e-005 0 3.1953138e-006 0 0)
(-2.9745652e-006 4.9046461e-005 0 2.5274976e-007 0 0)
(-6.9636474e-006 5.6049763e-005 0 1.2023353e-006 0 0)
(-4.3984836e-006 5.675228e-005 0 4.7893488e-007 0 0)
(-3.9297967e-006 5.6993709e-005 0 -3.7792058e-007 0 0)
(-3.927658e-006 5.7033099e-005 0 -2.5456846e-007 0 0)
(-4.1097233e-006 5.7003284e-005 0 -9.8148061e-008 0 0)
(-4.1787877e-006 5.6979599e-005 0 -2.8801737e-008 0 0)
(-4.1953317e-006 5.6968438e-005 0 -1.0669909e-008 0 0)
(-4.2028953e-006 5.6966133e-005 0 -4.2739336e-009 0 0)
(-4.2053729e-006 5.696562e-005 0 -1.4263978e-009 0 0)
(-4.2065269e-006 5.6965192e-005 0 -4.1258399e-010 0 0)
(-4.2067125e-006 5.6965245e-005 0 -2.1852034e-010 0 0)
(-4.206738e-006 5.6963971e-005 0 -1.5900799e-010 0 0)
(-4.2069667e-006 5.6963251e-005 0 5.9104719e-011 0 0)
(-4.2070829e-006 5.6964347e-005 0 1.4764137e-010 0 0)
(-4.2071301e-006 5.6961488e-005 0 2.7954021e-010 0 0)
(-4.2076259e-006 5.6964893e-005 0 1.1519767e-009 0 0)
(-4.2065871e-006 5.6968516e-005 0 3.7387842e-009 0 0)
(-4.2075881e-006 5.6966665e-005 0 2.1332037e-008 0 0)
(-4.2102833e-006 5.7022661e-005 0 1.9552471e-008 0 0)
(-0.010635505 -0.0013452279 0 0.0080118333 0 0)
(-0.004251304 -0.00032902822 0 0.0039418378 0 0)
(-0.0011289029 0.00084800436 0 0.00090601986 0 0)
(-0.00022692797 0.0013265901 0 0.00020175427 0 0)
(-5.3199739e-005 0.001555888 0 -1.0808404e-005 0 0)
(-3.8189279e-005 0.001600006 0 -5.2147867e-006 0 0)
(-4.7330625e-005 0.0016081609 0 -5.3529429e-007 0 0)
(-4.5926833e-005 0.0016093191 0 1.8477778e-007 0 0)
(-4.5832814e-005 0.0016095697 0 -3.8439689e-007 0 0)
(-4.5843335e-005 0.0016095968 0 -2.2535472e-007 0 0)
(-4.6008169e-005 0.0016095235 0 -8.7117724e-008 0 0)
(-4.606625e-005 0.0016094824 0 -2.5123778e-008 0 0)
(-4.6079965e-005 0.001609464 0 -8.696029e-009 0 0)
(-4.6086229e-005 0.0016094608 0 -3.4434196e-009 0 0)
(-4.6088092e-005 0.0016094592 0 -1.0996546e-009 0 0)
(-4.6088879e-005 0.001609459 0 -3.6619949e-010 0 0)
(-4.6088773e-005 0.001609451 0 -1.6851045e-010 0 0)
(-4.6089126e-005 0.0016094562 0 6.8133154e-011 0 0)
(-4.6089367e-005 0.0016094577 0 1.7090025e-010 0 0)
(-4.60892e-005 0.0016094576 0 -4.043949e-011 0 0)
(-4.6089276e-005 0.0016094542 0 1.5810419e-010 0 0)
(-4.6089961e-005 0.0016094579 0 9.3204829e-010 0 0)
(-4.6089374e-005 0.0016094611 0 1.9808314e-009 0 0)
(-4.6086303e-005 0.0016094634 0 4.962885e-009 0 0)
(-4.6092133e-005 0.0016095441 0 3.7316137e-009 0 0)
(-0.010389487 -0.0002680709 0 0.007722047 0 0)
(-0.0038411609 0.0021877664 0 0.0035145632 0 0)
(-0.0012533121 0.004025829 0 0.00076675923 0 0)
(-0.00052080607 0.0046781445 0 0.00015364531 0 0)
(-0.0004258471 0.0049311432 0 -1.5429779e-005 0 0)
(-0.00041453567 0.0049851235 0 -9.0370404e-006 0 0)
(-0.00042757622 0.004990355 0 -2.4600569e-006 0 0)
(-0.00042758839 0.0049913984 0 -2.6078688e-007 0 0)
(-0.00042805749 0.004991412 0 -3.4861079e-007 0 0)
(-0.00042806705 0.0049913743 0 -1.6773583e-007 0 0)
(-0.00042818601 0.0049912455 0 -6.3752441e-008 0 0)
(-0.00042821665 0.0049911892 0 -1.974184e-008 0 0)
(-0.00042822476 0.0049911658 0 -5.7822874e-009 0 0)
(-0.00042822877 0.0049911623 0 -2.1293367e-009 0 0)
(-0.00042822912 0.0049911548 0 -7.180056e-010 0 0)
(-0.0004282293 0.0049911582 0 -2.6923386e-010 0 0)
(-0.00042822975 0.0049911586 0 1.2026742e-010 0 0)
(-0.00042822998 0.0049911572 0 3.0316981e-010 0 0)
(-0.00042822976 0.0049911584 0 -2.990437e-011 0 0)
(-0.00042822872 0.0049911478 0 -2.3470858e-010 0 0)
(-0.00042822936 0.0049911549 0 -1.8418638e-011 0 0)
(-0.00042823006 0.0049911577 0 4.342414e-010 0 0)
(-0.00042823003 0.0049911592 0 -2.1925659e-010 0 0)
(-0.00042822342 0.0049911518 0 -1.1801205e-008 0 0)
(-0.00042823489 0.0049912472 0 -1.2839698e-008 0 0)
(-0.0092852159 0.0018950434 0 0.0066984677 0 0)
(-0.0034407444 0.0065578602 0 0.0025699717 0 0)
(-0.0023124548 0.0088764292 0 0.0006365612 0 0)
(-0.0018048372 0.0098693988 0 8.1511748e-005 0 0)
(-0.0018419143 0.010049181 0 -1.0853028e-005 0 0)
(-0.0018389072 0.010100601 0 -8.3798515e-006 0 0)
(-0.0018510185 0.01009971 0 -3.9064811e-006 0 0)
(-0.0018523038 0.010099814 0 -5.9904369e-007 0 0)
(-0.0018532399 0.01009931 0 -2.4153095e-007 0 0)
(-0.0018531868 0.010099173 0 -7.1845112e-008 0 0)
(-0.0018532132 0.010098998 0 -3.1184404e-008 0 0)
(-0.001853207 0.010098936 0 -8.5312849e-009 0 0)
(-0.0018532017 0.010098906 0 -2.0675007e-009 0 0)
(-0.0018532018 0.010098902 0 -5.1334572e-010 0 0)
(-0.0018531994 0.010098891 0 -1.3570435e-010 0 0)
(-0.0018532002 0.010098897 0 -4.4056428e-011 0 0)
(-0.0018532003 0.010098896 0 2.3944881e-010 0 0)
(-0.0018532002 0.010098893 0 2.4218366e-010 0 0)
(-0.001853198 0.010098884 0 -1.2409831e-010 0 0)
(-0.0018531991 0.010098892 0 -1.5656244e-010 0 0)
(-0.0018531999 0.010098897 0 -1.6331906e-010 0 0)
(-0.0018532005 0.010098899 0 -2.9868353e-010 0 0)
(-0.0018532018 0.0100989 0 -1.6798183e-009 0 0)
(-0.0018531941 0.010098892 0 -2.2803233e-008 0 0)
(-0.0018532064 0.010098956 0 -2.35721e-008 0 0)
(-0.0069815988 0.0048443863 0 0.0044779672 0 0)
(-0.0040259512 0.012458607 0 0.0010762302 0 0)
(-0.0048391235 0.014803438 0 0.00035366256 0 0)
(-0.0049669562 0.016000664 0 7.361323e-005 0 0)
(-0.0050992628 0.01616477 0 4.6009085e-006 0 0)
(-0.0050807389 0.016194385 0 -4.3090563e-006 0 0)
(-0.0050870544 0.016186876 0 -3.8489729e-006 0 0)
(-0.0050874447 0.016185424 0 -6.6843834e-007 0 0)
(-0.0050884279 0.016184272 0 -3.0340421e-008 0 0)
(-0.005088178 0.016184086 0 4.8868238e-008 0 0)
(-0.0050880815 0.016183898 0 9.1455996e-009 0 0)
(-0.005088026 0.016183838 0 3.392796e-009 0 0)
(-0.0050880073 0.016183811 0 1.8987973e-009 0 0)
(-0.0050880034 0.016183806 0 1.1010165e-009 0 0)
(-0.0050880008 0.016183804 0 4.5955211e-010 0 0)
(-0.005088 0.016183803 0 2.0482546e-010 0 0)
(-0.0050879998 0.016183803 0 1.0627647e-010 0 0)
(-0.0050879971 0.016183793 0 -3.0826337e-011 0 0)
(-0.0050879984 0.016183798 0 -7.3367185e-012 0 0)
(-0.0050879997 0.016183802 0 1.3678036e-010 0 0)
(-0.0050879996 0.016183803 0 -1.9930298e-010 0 0)
(-0.0050879995 0.016183803 0 -9.0815937e-010 0 0)
(-0.0050880015 0.016183803 0 -2.2033727e-009 0 0)
(-0.0050879966 0.016183799 0 -2.3183796e-008 0 0)
(-0.0050879949 0.016183796 0 -2.3378764e-008 0 0)
(-0.0045730074 0.0098534425 0 0.00090935044 0 0)
(-0.0061087621 0.018038568 0 -0.00051459573 0 0)
(-0.0094340425 0.020960585 0 -6.3873106e-005 0 0)
(-0.010102541 0.021952167 0 6.7831939e-005 0 0)
(-0.010301155 0.022083056 0 2.9130896e-005 0 0)
(-0.010254716 0.022107393 0 1.5152351e-006 0 0)
(-0.010252967 0.022094607 0 -2.1120827e-006 0 0)
(-0.010250065 0.022092676 0 -4.5058524e-007 0 0)
(-0.010250627 0.022091033 0 2.5916817e-007 0 0)
(-0.010250119 0.022090967 0 1.6376809e-007 0 0)
(-0.010249915 0.022090816 0 4.7763301e-008 0 0)
(-0.010249817 0.022090776 0 1.3295143e-008 0 0)
(-0.010249791 0.022090759 0 5.01507e-009 0 0)
(-0.010249785 0.022090755 0 2.3579392e-009 0 0)
(-0.010249781 0.022090754 0 8.0785675e-010 0 0)
(-0.01024978 0.022090753 0 2.8582675e-010 0 0)
(-0.010249779 0.022090753 0 -1.1091957e-010 0 0)
(-0.010249779 0.022090753 0 -2.2134834e-010 0 0)
(-0.010249779 0.02209075 0 1.2020404e-010 0 0)
(-0.010249779 0.02209075 0 2.3418673e-010 0 0)
(-0.010249779 0.022090751 0 -1.7546077e-010 0 0)
(-0.010249779 0.022090752 0 -1.088229e-009 0 0)
(-0.010249781 0.022090753 0 -1.9023607e-009 0 0)
(-0.010249781 0.022090749 0 -1.3757465e-008 0 0)
(-0.010249762 0.02209069 0 -1.3380146e-008 0 0)
(-0.0040971319 0.014477465 0 -0.002207031 0 0)
(-0.0099848395 0.024001356 0 -0.0022462369 0 0)
(-0.01536196 0.025889135 0 -0.00034455499 0 0)
(-0.01612471 0.026523197 0 5.3699917e-005 0 0)
(-0.016369035 0.026619201 0 4.7171556e-005 0 0)
(-0.016297936 0.026646081 0 6.2490518e-006 0 0)
(-0.016292009 0.026632467 0 5.5193663e-007 0 0)
(-0.016285412 0.026631507 0 -1.0295873e-008 0 0)
(-0.016285862 0.026630095 0 5.2101778e-007 0 0)
(-0.016285169 0.026630286 0 2.1957748e-007 0 0)
(-0.016284981 0.026630223 0 7.2105826e-008 0 0)
(-0.016284872 0.026630221 0 1.7761056e-008 0 0)
(-0.016284849 0.026630215 0 6.0156775e-009 0 0)
(-0.016284844 0.026630215 0 2.7075147e-009 0 0)
(-0.016284841 0.026630216 0 8.1417575e-010 0 0)
(-0.016284841 0.026630216 0 2.1269741e-010 0 0)
(-0.01628484 0.026630216 0 -1.4681536e-010 0 0)
(-0.01628484 0.026630216 0 -1.5252884e-010 0 0)
(-0.01628484 0.026630216 0 2.2794123e-011 0 0)
(-0.01628484 0.026630216 0 2.2351934e-011 0 0)
(-0.016284841 0.026630216 0 -8.5445492e-011 0 0)
(-0.016284841 0.026630217 0 -8.4560563e-010 0 0)
(-0.01628484 0.026630213 0 -1.3359808e-009 0 0)
(-0.016284843 0.026630212 0 -1.0795317e-010 0 0)
(-0.016284812 0.026630126 0 1.0447078e-009 0 0)
(-0.0085695423 0.022558385 0 -0.0049747262 0 0)
(-0.015398787 0.028315904 0 -0.0033192267 0 0)
(-0.020997973 0.028602534 0 -0.0003603824 0 0)
(-0.021253736 0.028796255 0 -2.0101192e-006 0 0)
(-0.021586334 0.028885745 0 5.5902496e-005 0 0)
(-0.021487199 0.028910768 0 4.4740348e-006 0 0)
(-0.021495061 0.028905866 0 3.4893948e-006 0 0)
(-0.021483683 0.02890542 0 1.2565897e-007 0 0)
(-0.021485838 0.028905327 0 6.7868256e-007 0 0)
(-0.021484919 0.028905662 0 1.7851666e-007 0 0)
(-0.021484967 0.028905735 0 7.4533768e-008 0 0)
(-0.02148488 0.028905764 0 1.6222911e-008 0 0)
(-0.021484873 0.02890577 0 5.1816613e-009 0 0)
(-0.021484874 0.028905774 0 2.2519316e-009 0 0)
(-0.021484872 0.028905775 0 5.4562219e-010 0 0)
(-0.021484872 0.028905776 0 1.5825657e-010 0 0)
(-0.021484872 0.028905776 0 2.206142e-011 0 0)
(-0.021484872 0.028905776 0 -4.4896906e-012 0 0)
(-0.021484872 0.028905776 0 -1.3856332e-010 0 0)
(-0.021484872 0.028905776 0 -1.8544857e-010 0 0)
(-0.021484873 0.028905776 0 -1.8025611e-010 0 0)
(-0.021484874 0.028905777 0 -7.9069246e-010 0 0)
(-0.021484875 0.028905775 0 -1.0676494e-009 0 0)
(-0.02148488 0.028905776 0 9.3453896e-009 0 0)
(-0.021484861 0.028905727 0 1.0948963e-008 0 0)
(-0.029467026 0.038382808 0 -0.0088890921 0 0)
(-0.024501248 0.030675103 0 -0.0022102174 0 0)
(-0.032547246 0.03233727 0 -0.00028292852 0 0)
(-0.030538216 0.031214362 0 -2.2565477e-005 0 0)
(-0.03151714 0.031677795 0 2.9501479e-005 0 0)
(-0.031244769 0.031588974 0 2.5954664e-006 0 0)
(-0.03132897 0.031633642 0 2.9073414e-006 0 0)
(-0.031303962 0.031623875 0 2.3845981e-008 0 0)
(-0.031312062 0.031628177 0 4.1772976e-007 0 0)
(-0.031310817 0.031627972 0 5.9483184e-008 0 0)
(-0.031311288 0.031628301 0 4.0268717e-008 0 0)
(-0.03131127 0.031628334 0 5.2168858e-009 0 0)
(-0.031311279 0.031628343 0 1.8839596e-009 0 0)
(-0.031311289 0.031628351 0 6.9256933e-010 0 0)
(-0.031311289 0.031628351 0 8.7039529e-011 0 0)
(-0.03131129 0.031628352 0 3.676121e-011 0 0)
(-0.03131129 0.031628352 0 4.2036734e-011 0 0)
(-0.03131129 0.031628352 0 3.0947134e-011 0 0)
(-0.03131129 0.031628352 0 -9.4445409e-011 0 0)
(-0.031311289 0.031628352 0 -2.3495538e-010 0 0)
(-0.031311289 0.031628351 0 -3.8647686e-010 0 0)
(-0.031311286 0.03162835 0 -8.3319429e-010 0 0)
(-0.031311283 0.031628348 0 -2.1528002e-009 0 0)
(-0.031311285 0.03162835 0 8.7923871e-009 0 0)
(-0.031311275 0.031628392 0 1.1214642e-008 0 0)
(-1.5746404e-005 0.00017740477 0 9.6963804e-005 0 0)
(-0.00024714023 -1.606727e-005 0 0.00010908193 0 0)
(-2.1291661e-005 -4.3505213e-005 0 0.00011241277 0 0)
(-0.00011834621 -1.6156692e-005 0 7.0088501e-005 0 0)
(-4.9799223e-005 -3.5710996e-005 0 6.8275629e-005 0 0)
(-5.4194838e-005 -1.3034161e-005 0 4.7991106e-005 0 0)
(-4.3190498e-005 -9.0720203e-006 0 4.4782734e-005 0 0)
(-4.139323e-005 5.3467292e-006 0 4.0071084e-005 0 0)
(-4.1884971e-005 1.8794741e-005 0 4.1645458e-005 0 0)
(-4.6968787e-005 3.6060302e-005 0 4.6287452e-005 0 0)
(-5.7333054e-005 5.9112701e-005 0 5.6721276e-005 0 0)
(-7.202843e-005 8.6575395e-005 0 7.103016e-005 0 0)
(-9.5219085e-005 0.00012656751 0 9.3803957e-005 0 0)
(-0.00012669825 0.00018037839 0 0.00012450403 0 0)
(-0.00016997868 0.00025646565 0 0.00016630763 0 0)
(-0.0002276701 0.00036446057 0 0.00022133154 0 0)
(-0.00030379293 0.00052586328 0 0.00029359892 0 0)
(-0.00039578901 0.00074762061 0 0.00037443281 0 0)
(-0.00050427034 0.0011196868 0 0.00047458695 0 0)
(-0.00061690228 0.0016175045 0 0.00053304402 0 0)
(-0.00058986364 0.0026283316 0 0.00050983309 0 0)
(-0.0006306719 0.0041051687 0 8.6095745e-005 0 0)
(0.00076174029 0.0066946762 0 -0.0011303785 0 0)
(0.0015151952 0.0074225363 0 -0.0034131903 0 0)
(0.0095872674 0.0039208898 0 -0.010789705 0 0)
(-1.3981809e-005 0.00019523778 0 0.00010868969 0 0)
(-0.00027380542 -1.9019915e-005 0 0.00011244936 0 0)
(-2.1407959e-005 -5.6629689e-005 0 0.00012442542 0 0)
(-0.00011777769 -3.73817e-005 0 6.5280498e-005 0 0)
(-4.6978097e-005 -4.1856935e-005 0 6.3131148e-005 0 0)
(-4.3837891e-005 -2.2790457e-005 0 4.0322287e-005 0 0)
(-3.4352945e-005 -1.154666e-005 0 3.5044539e-005 0 0)
(-2.9980629e-005 4.3602019e-006 0 2.9264695e-005 0 0)
(-2.8818702e-005 2.106383e-005 0 2.8725716e-005 0 0)
(-3.0916331e-005 4.1281642e-005 0 3.0584695e-005 0 0)
(-3.644445e-005 6.7513642e-005 0 3.6262154e-005 0 0)
(-4.4758806e-005 9.8721007e-005 0 4.4338713e-005 0 0)
(-5.7613634e-005 0.00014283926 0 5.6864762e-005 0 0)
(-7.4908039e-005 0.00020317845 0 7.3718055e-005 0 0)
(-9.6721541e-005 0.00028519046 0 9.4478372e-005 0 0)
(-0.00012348375 0.00040053993 0 0.00011915967 0 0)
(-0.00015266811 0.00056653269 0 0.00014519024 0 0)
(-0.0001786551 0.00079210904 0 0.0001621088 0 0)
(-0.00018363234 0.0011329941 0 0.00015684835 0 0)
(-0.00014506423 0.0015769509 0 7.6656421e-005 0 0)
(5.8302227e-005 0.0023583086 0 -0.00016510993 0 0)
(0.00046560861 0.0032701251 0 -0.00092682413 0 0)
(0.0022546614 0.0045589199 0 -0.0027689275 0 0)
(0.004769628 0.0024394572 0 -0.0065470217 0 0)
(0.0059686164 -0.0035548322 0 -0.0089786579 0 0)
(-2.9063011e-005 0.00022703066 0 0.00012323024 0 0)
(-0.00029687691 -2.538839e-005 0 0.00013721383 0 0)
(-2.0693898e-005 -7.6389433e-005 0 0.00011935499 0 0)
(-0.00011321207 -5.802161e-005 0 6.6526085e-005 0 0)
(-4.0657939e-005 -5.0966426e-005 0 5.0374408e-005 0 0)
(-3.1719112e-005 -3.0725543e-005 0 3.0987043e-005 0 0)
(-2.2713632e-005 -1.4411957e-005 0 2.2396114e-005 0 0)
(-1.6744657e-005 3.6607324e-006 0 1.6384143e-005 0 0)
(-1.3830496e-005 2.2879822e-005 0 1.3732321e-005 0 0)
(-1.2919751e-005 4.4673723e-005 0 1.2760118e-005 0 0)
(-1.3561957e-005 7.2298019e-005 0 1.3417664e-005 0 0)
(-1.5329265e-005 0.0001069533 0 1.5044112e-005 0 0)
(-1.7722961e-005 0.00015155458 0 1.7173858e-005 0 0)
(-2.020874e-005 0.00021277745 0 1.9259943e-005 0 0)
(-2.1477969e-005 0.00029631477 0 1.9715056e-005 0 0)
(-1.8958766e-005 0.00040973603 0 1.5401803e-005 0 0)
(-6.7856738e-006 0.00056805809 0 3.7754055e-007 0 0)