/*--------------------------------*- C++ -*----------------------------------*\
| =========                 |                                                 |
| \\      /  F ield         | OpenFOAM: The Open Source CFD Toolbox           |
|  \\    /   O peration     | Version:  5.x                                   |
|   \\  /    A nd           | Web:      www.OpenFOAM.org                      |
|    \\/     M anipulation  |                                                 |
\*---------------------------------------------------------------------------*/
/*   Windows 32 and 64 bit porting by blueCAPE: http://www.bluecape.com.pt   *\
|  Based on Windows porting (2.0.x v4) by Symscape: http://www.symscape.com   |
\*---------------------------------------------------------------------------*/
FoamFile
{
    version     2.0;
    format      ascii;
    class       volVectorField;
    location    "0.06";
    object      U;
}
// * * * * * * * * * * * * * * * * * * * * * * * * * * * * * * * * * * * * * //

dimensions      [0 1 -1 0 0 0 0];

internalField   nonuniform List<vector> 
750
(
(0.038927823 -6.0662917e-005 0)
(0.039550102 -6.0902446e-005 0)
(0.03992827 -5.597682e-005 0)
(0.040416032 -4.5889775e-005 0)
(0.040685208 -3.9632685e-005 0)
(0.041031378 -3.5695804e-005 0)
(0.041266221 -3.0969155e-005 0)
(0.041519832 -2.9725604e-005 0)
(0.041744136 -2.9705114e-005 0)
(0.041992389 -3.2928598e-005 0)
(0.042270266 -3.9141191e-005 0)
(0.042616691 -4.979929e-005 0)
(0.043065003 -6.6010646e-005 0)
(0.043669574 -9.0072851e-005 0)
(0.044501125 -0.00012546731 0)
(0.045671159 -0.00017716357 0)
(0.047324187 -0.00025388815 0)
(0.04971703 -0.00036935923 0)
(0.053218308 -0.00054352209 0)
(0.058340957 -0.00082636778 0)
(0.066449029 -0.0012450363 0)
(0.077948883 -0.0020499864 0)
(0.09964072 -0.003234439 0)
(0.12857615 -0.0047840838 0)
(0.17742568 -0.0058973616 0)
(0.03892816 -0.00017952565 0)
(0.039552726 -0.00018765193 0)
(0.03993015 -0.00016399875 0)
(0.040418943 -0.00013919745 0)
(0.040687702 -0.00011806951 0)
(0.041033333 -0.0001068945 0)
(0.041267557 -9.282419e-005 0)
(0.041519937 -8.8821614e-005 0)
(0.041743128 -8.8903673e-005 0)
(0.041989762 -9.8409544e-005 0)
(0.042265816 -0.00011703511 0)
(0.042609818 -0.00014882532 0)
(0.043054716 -0.00019725425 0)
(0.043654461 -0.00026910948 0)
(0.044479165 -0.0003746987 0)
(0.045638908 -0.00052903612 0)
(0.047275811 -0.00075763565 0)
(0.049645269 -0.0011023625 0)
(0.05310608 -0.0016200632 0)
(0.058162152 -0.00245808 0)
(0.066149121 -0.0037217932 0)
(0.077530686 -0.0060912782 0)
(0.099024014 -0.0097083216 0)
(0.1276764 -0.014212662 0)
(0.17617647 -0.017718335 0)
(0.03892711 -0.00029779767 0)
(0.039556763 -0.00031662459 0)
(0.039934293 -0.00027073916 0)
(0.040424581 -0.00023314693 0)
(0.04069306 -0.00019624973 0)
(0.041037503 -0.00017780688 0)
(0.041270495 -0.00015444458 0)
(0.041520472 -0.00014743459 0)
(0.041741416 -0.00014766487 0)
(0.041984889 -0.00016326259 0)
(0.042257254 -0.00019421611 0)
(0.042596387 -0.00024682683 0)
(0.043034507 -0.00032705097 0)
(0.043624664 -0.00044611729 0)
(0.044435626 -0.00062090689 0)
(0.045574724 -0.00087638942 0)
(0.047180049 -0.001254309 0)
(0.049500623 -0.0018243124 0)
(0.052882705 -0.0026781929 0)
(0.057803718 -0.0040542609 0)
(0.065554122 -0.0061588913 0)
(0.076659741 -0.010059986 0)
(0.09774888 -0.016128849 0)
(0.12568633 -0.023460497 0)
(0.17330478 -0.029394693 0)
(0.038923169 -0.00041721881 0)
(0.039560968 -0.00044511551 0)
(0.039940393 -0.00037913013 0)
(0.040432934 -0.00032669763 0)
(0.040701364 -0.00027468579 0)
(0.041043978 -0.00024821834 0)
(0.041275067 -0.00021555806 0)
(0.041521489 -0.00020530873 0)
(0.041739043 -0.0002055892 0)
(0.041977871 -0.00022704649 0)
(0.042244684 -0.00027005332 0)
(0.042576467 -0.00034300367 0)
(0.043004563 -0.00045428357 0)
(0.043580493 -0.00061947805 0)
(0.044370963 -0.0008617296 0)
(0.045479258 -0.0012155841 0)
(0.047038396 -0.001738387 0)
(0.04928462 -0.0025261772 0)
(0.052551144 -0.0037033025 0)
(0.057270822 -0.005593555 0)
(0.064682997 -0.0085196896 0)
(0.07534298 -0.013919249 0)
(0.09578353 -0.022372735 0)
(0.1223794 -0.032410015 0)
(0.1681691 -0.040549772 0)
(0.038915963 -0.00053690641 0)
(0.039564861 -0.00057429684 0)
(0.039948018 -0.00048889374 0)
(0.040444076 -0.00042020309 0)
(0.040712586 -0.00035300963 0)
(0.041052695 -0.0003180182 0)
(0.041281191 -0.00027587387 0)
(0.041522907 -0.00026218615 0)
(0.041735932 -0.00026233138 0)
(0.041968642 -0.0002893588 0)
(0.042228091 -0.00034398622 0)
(0.042550096 -0.0004366536 0)
(0.04296501 -0.00057800841 0)
(0.043522215 -0.00078780202 0)
(0.044285745 -0.0010951135 0)
(0.045353573 -0.0015435833 0)
(0.046852621 -0.0022050659 0)
(0.04900064 -0.0032001566 0)
(0.052114554 -0.0046828223 0)
(0.056571245 -0.0070547788 0)
(0.063545047 -0.010761276 0)
(0.07356622 -0.017613277 0)
(0.093019951 -0.028300926 0)
(0.11750504 -0.04081848 0)
(0.16035597 -0.050699108 0)
(0.038905974 -0.00065598708 0)
(0.039568887 -0.00070550896 0)
(0.039957119 -0.00059984014 0)
(0.040458235 -0.00051416141 0)
(0.040726853 -0.00043098529 0)
(0.041063634 -0.00038710332 0)
(0.041288932 -0.00033512553 0)
(0.041524757 -0.00031779691 0)
(0.04173213 -0.00031756098 0)
(0.041957275 -0.00034979112 0)
(0.042207599 -0.00041551881 0)
(0.042517501 -0.000527094 0)
(0.04291618 -0.00069728599 0)
(0.043450345 -0.00094975273 0)
(0.044180805 -0.0013191325 0)
(0.045199116 -0.0018575645 0)
(0.04662473 -0.002649816 0)
(0.04865235 -0.00383891 0)
(0.051577456 -0.0056038445 0)
(0.055713929 -0.0084187909 0)
(0.062144755 -0.012843818 0)
(0.071296495 -0.021064182 0)
(0.089386899 -0.033751614 0)
(0.110859 -0.04846126 0)
(0.15019401 -0.059224239 0)
(0.038894405 -0.00077416895 0)
(0.039574194 -0.00083935999 0)
(0.039968008 -0.00071229081 0)
(0.040475915 -0.00060879042 0)
(0.040744337 -0.00050852073 0)
(0.041076873 -0.00045529498 0)
(0.041298438 -0.00039308999 0)
(0.04152714 -0.00037185471 0)
(0.041727752 -0.00037095989 0)
(0.041943933 -0.00040794787 0)
(0.042183457 -0.00048415401 0)
(0.042478987 -0.00061367101 0)
(0.042858498 -0.00081119791 0)
(0.04336553 -0.0011040415 0)
(0.044057108 -0.0015319565 0)
(0.045017422 -0.0021547782 0)
(0.046356659 -0.0030683489 0)
(0.048244951 -0.0044357065 0)
(0.05095012 -0.0064557789 0)
(0.054714501 -0.0096669245 0)
(0.060522665 -0.014738039 0)
(0.068570127 -0.024219998 0)
(0.084934725 -0.038643529 0)
(0.1023715 -0.055260923 0)
(0.13879291 -0.0660121 0)
(0.038883024 -0.00089183395 0)
(0.039582233 -0.00097557625 0)
(0.039981272 -0.00082684037 0)
(0.040497823 -0.00070395961 0)
(0.040765209 -0.00058553144 0)
(0.041092604 -0.00052237453 0)
(0.041309907 -0.00044955522 0)
(0.041530193 -0.00042406978 0)
(0.041722971 -0.000422215 0)
(0.041928809 -0.00046346561 0)
(0.042155998 -0.00054939112 0)
(0.042434967 -0.00069572929 0)
(0.042792499 -0.00091887911 0)
(0.04326855 -0.0012494575 0)
(0.043915822 -0.0017317985 0)
(0.044810299 -0.0024325803 0)
(0.046051615 -0.0034568663 0)
(0.047784865 -0.0049843372 0)
(0.050244823 -0.007229337 0)
(0.053593294 -0.010780818 0)
(0.058698026 -0.016389463 0)
(0.065408122 -0.02694692 0)
(0.079497868 -0.042685298 0)
(0.09210638 -0.060999173 0)
(0.12688006 -0.07084673 0)
(0.038873894 -0.0010108001 0)
(0.039594173 -0.0011122765 0)
(0.039997413 -0.000945495 0)
(0.040524857 -0.00079902564 0)
(0.040789507 -0.00066206514 0)
(0.041111133 -0.00058816535 0)
(0.041323504 -0.00050427793 0)
(0.041534038 -0.00047413717 0)
(0.041717951 -0.00047101384 0)
(0.041912109 -0.00051596825 0)
(0.04212552 -0.00061074916 0)
(0.042385941 -0.00077262862 0)
(0.042718854 -0.001019515 0)
(0.043160421 -0.0013848347 0)
(0.043758551 -0.0019169565 0)
(0.044580345 -0.0026884681 0)
(0.045713961 -0.003812008 0)
(0.04727987 -0.0054807938 0)
(0.049473227 -0.0079167466 0)
(0.05236796 -0.011748757 0)
(0.056702602 -0.017755573 0)
(0.061858844 -0.029166101 0)
(0.073090241 -0.04571965 0)
(0.080539973 -0.06581811 0)
(0.11340452 -0.07402592 0)
(0.038868079 -0.0011312293 0)
(0.039610211 -0.0012518678 0)
(0.040016676 -0.0010664347 0)
(0.040557995 -0.0008951366 0)
(0.040817118 -0.00073744767 0)
(0.041132774 -0.00065250332 0)
(0.041339329 -0.00055705635 0)
(0.041538752 -0.00052171264 0)
(0.041712813 -0.00051709871 0)
(0.041894045 -0.00056510695 0)
(0.04209227 -0.00066789549 0)
(0.042332355 -0.00084391872 0)
(0.042638402 -0.0011124543 0)
(0.043042397 -0.0015093705 0)
(0.043587281 -0.0020864529 0)
(0.044330732 -0.0029212834 0)
(0.045348811 -0.0041319253 0)
(0.046736075 -0.0059207009 0)
(0.04864632 -0.008511208 0)
(0.051071991 -0.012557424 0)
(0.05461343 -0.018849054 0)
(0.058159748 -0.03079246 0)
(0.066143547 -0.047911438 0)
(0.067735839 -0.069661418 0)
(0.093779713 -0.074224443 0)
(0.22024729 -0.0037112037 0)
(0.23829052 -0.0016763194 0)
(0.24542851 -0.00038843561 0)
(0.24499846 6.4355632e-005 0)
(0.24426345 7.8662424e-005 0)
(0.24389137 2.5019422e-005 0)
(0.24385636 3.0167411e-006 0)
(0.24385102 2.0898917e-007 0)
(0.24385046 3.4383616e-007 0)
(0.24384694 2.7222495e-007 0)
(0.24384603 8.5117168e-008 0)
(0.24384577 1.7765416e-008 0)
(0.24384573 2.9624368e-009 0)
(0.24384573 9.4083039e-010 0)
(0.24384572 5.1583712e-010 0)
(0.24384572 4.510228e-011 0)
(0.24384572 5.0787822e-011 0)
(0.24384572 1.1030617e-010 0)
(0.24384572 7.1498627e-011 0)
(0.24384572 -1.3580729e-010 0)
(0.24384572 -2.0604439e-011 0)
(0.24384572 7.9966326e-010 0)
(0.24384571 1.4120148e-009 0)
(0.2438457 8.2471327e-009 0)
(0.24384557 8.0110209e-009 0)
(0.21809019 -0.01088028 0)
(0.23481431 -0.0049763826 0)
(0.24162717 -0.0011108114 0)
(0.24132605 0.00015044948 0)
(0.24073384 0.00022168594 0)
(0.24040045 7.0053444e-005 0)
(0.24036908 9.3823887e-006 0)
(0.24036273 4.1828397e-007 0)
(0.24036269 9.9696298e-007 0)
(0.24035967 7.2007353e-007 0)
(0.24035892 2.4494184e-007 0)
(0.24035869 4.7837401e-008 0)
(0.24035866 8.0264538e-009 0)
(0.24035866 2.7458338e-009 0)
(0.24035865 1.1970919e-009 0)
(0.24035865 -3.2945357e-010 0)
(0.24035865 6.8711712e-011 0)
(0.24035865 7.599831e-010 0)
(0.24035865 2.0643419e-010 0)
(0.24035865 -4.0101452e-010 0)
(0.24035865 9.5183788e-011 0)
(0.24035865 1.6736913e-009 0)
(0.24035864 4.5271101e-009 0)
(0.24035863 2.6253194e-008 0)
(0.2403585 2.5325962e-008 0)
(0.2126895 -0.017544196 0)
(0.22600955 -0.0080197779 0)
(0.23212625 -0.0017726969 0)
(0.23195488 0.00018068372 0)
(0.23166139 0.00033484777 0)
(0.23140165 0.00010656731 0)
(0.23138072 1.5691895e-005 0)
(0.23137269 5.4028894e-007 0)
(0.23137366 1.5316216e-006 0)
(0.23137149 1.0371622e-006 0)
(0.23137106 3.7661052e-007 0)
(0.2313709 7.0083386e-008 0)
(0.23137089 1.1528083e-008 0)
(0.23137089 3.8291123e-009 0)
(0.23137089 1.4557456e-009 0)
(0.23137088 -2.0784315e-010 0)
(0.23137088 1.0877201e-010 0)
(0.23137089 7.2552263e-010 0)
(0.23137089 -2.7806059e-010 0)
(0.23137089 -4.371423e-010 0)
(0.23137088 7.1054607e-010 0)
(0.23137088 2.0883912e-009 0)
(0.23137088 6.7955269e-009 0)
(0.23137088 4.3668283e-008 0)
(0.23137077 4.2701661e-008 0)
(0.2025811 -0.023123668 0)
(0.20975937 -0.010384789 0)
(0.21466671 -0.0023427055 0)
(0.21444339 0.00015504356 0)
(0.2145642 0.00039327619 0)
(0.21441353 0.00012789326 0)
(0.21441103 2.0891682e-005 0)
(0.21440161 6.794297e-007 0)
(0.21440389 1.8129598e-006 0)
(0.21440273 1.1748597e-006 0)
(0.21440276 4.5112441e-007 0)
(0.21440268 7.9553689e-008 0)
(0.21440269 1.2106606e-008 0)
(0.21440269 3.785732e-009 0)
(0.21440269 1.3000084e-009 0)
(0.21440269 1.3657928e-010 0)
(0.21440269 -3.2675612e-010 0)
(0.2144027 -2.5583492e-010 0)
(0.2144027 -5.0794681e-010 0)
(0.2144027 6.7456187e-010 0)
(0.21440269 1.3653021e-009 0)
(0.21440269 2.2090398e-009 0)
(0.21440269 7.4889536e-009 0)
(0.2144027 5.2313905e-008 0)
(0.21440269 5.173048e-008 0)
(0.18699417 -0.026853972 0)
(0.18566151 -0.011636189 0)
(0.18858414 -0.0026657845 0)
(0.18811016 7.3083429e-005 0)
(0.188617 0.00038839271 0)
(0.18859094 0.00012981105 0)
(0.18861423 2.3669545e-005 0)
(0.18860438 7.1844089e-007 0)
(0.18860808 1.8096371e-006 0)
(0.18860785 1.1118522e-006 0)
(0.18860836 4.547124e-007 0)
(0.18860837 7.3313753e-008 0)
(0.1886084 9.7450472e-009 0)
(0.18860841 2.8137965e-009 0)
(0.18860841 7.5628947e-010 0)
(0.18860842 3.7199589e-010 0)
(0.18860842 -1.1678437e-009 0)
(0.18860842 -1.4003815e-009 0)
(0.18860842 3.9941745e-011 0)
(0.18860841 1.6576983e-009 0)
(0.18860842 1.9399757e-009 0)
(0.18860842 2.2840922e-009 0)
(0.18860842 5.5298619e-009 0)
(0.18860843 4.3929783e-008 0)
(0.18860856 4.4928477e-008 0)
(0.16652795 -0.02811961 0)
(0.15576412 -0.011495281 0)
(0.15588379 -0.0025645656 0)
(0.15507021 -2.3609793e-005 0)
(0.15581141 0.00032524035 0)
(0.15588276 0.00011297757 0)
(0.15593767 2.286039e-005 0)
(0.15592775 5.1655772e-007 0)
(0.15593288 1.5598243e-006 0)
(0.15593318 8.7468769e-007 0)
(0.15593412 3.9063547e-007 0)
(0.1559342 5.235027e-008 0)
(0.15593424 5.0939189e-009 0)
(0.15593426 8.1911865e-010 0)
(0.15593426 -4.8801619e-012 0)
(0.15593426 -1.4897126e-010 0)
(0.15593426 -1.4936777e-009 0)
(0.15593426 -1.7663266e-009 0)
(0.15593426 4.6754311e-010 0)
(0.15593426 1.9017547e-009 0)
(0.15593426 1.9507795e-009 0)
(0.15593426 2.6522656e-009 0)
(0.15593426 2.0582481e-009 0)
(0.15593429 1.8149148e-008 0)
(0.1559345 2.1478045e-008 0)
(0.14304504 -0.026773014 0)
(0.12267434 -0.0097390191 0)
(0.12058245 -0.0020995612 0)
(0.11930295 -7.6193225e-005 0)
(0.12014402 0.00023345298 0)
(0.12025492 8.1939e-005 0)
(0.12033858 1.8281993e-005 0)
(0.12032736 3.1473008e-008 0)
(0.12033378 1.1518307e-006 0)
(0.12033403 5.390359e-007 0)
(0.12033524 2.8094732e-007 0)
(0.12033533 2.2471803e-008 0)
(0.12033537 1.6871004e-010 0)
(0.12033538 -1.0744489e-009 0)
(0.12033538 -6.7705302e-010 0)
(0.12033538 -7.550067e-010 0)
(0.12033538 -1.26789e-009 0)
(0.12033538 -9.2623238e-010 0)
(0.12033538 2.7227641e-010 0)
(0.12033538 7.8494711e-010 0)
(0.12033538 1.4767825e-009 0)
(0.12033538 2.5354272e-009 0)
(0.12033539 -1.5040239e-009 0)
(0.1203354 -1.3158393e-008 0)
(0.12033559 -8.0663866e-009 0)
(0.11597389 -0.022392872 0)
(0.088634411 -0.0068312925 0)
(0.086028277 -0.0013510169 0)
(0.084309698 -7.78194e-005 0)
(0.085149297 0.0001408855 0)
(0.085240284 4.6294358e-005 0)
(0.085338236 1.1673429e-005 0)
(0.085323654 -4.7102797e-007 0)
(0.085331056 7.1851852e-007 0)
(0.085330594 2.2163365e-007 0)
(0.085331912 1.6180935e-007 0)
(0.085331907 -3.1504358e-009 0)
(0.085331942 -2.7490187e-009 0)
(0.085331946 -2.4580793e-009 0)
(0.085331943 -9.9833406e-010 0)
(0.085331944 -7.4855976e-010 0)
(0.085331943 -4.1887693e-010 0)
(0.085331939 -1.4376852e-010 0)
(0.085331939 -3.2698756e-010 0)
(0.08533194 -4.1117148e-011 0)
(0.085331942 1.1301308e-009 0)
(0.085331943 2.1884043e-009 0)
(0.08533195 -3.1097921e-009 0)
(0.085331946 -2.9872716e-008 0)
(0.085332 -2.4635473e-008 0)
(0.082673666 -0.015088821 0)
(0.054365427 -0.0034780861 0)
(0.052631662 -0.00054767434 0)
(0.050882958 -5.1677952e-005 0)
(0.051632074 6.4441102e-005 0)
(0.051653034 1.5581872e-005 0)
(0.051745874 5.527055e-006 0)
(0.051726997 -5.9200095e-007 0)
(0.05173493 3.7417514e-007 0)
(0.051733349 2.6051665e-008 0)
(0.051734599 6.4664883e-008 0)
(0.051734443 -1.1423186e-008 0)
(0.051734474 -2.3669775e-009 0)
(0.051734466 -2.0402724e-009 0)
(0.051734461 -7.0969901e-010 0)
(0.051734461 -4.2464982e-010 0)
(0.051734459 -3.9721967e-011 0)
(0.051734458 1.538475e-010 0)
(0.051734459 -1.6096757e-010 0)
(0.051734458 -1.4887696e-010 0)
(0.051734459 5.2719361e-010 0)
(0.051734462 1.109154e-009 0)
(0.051734468 -2.0195842e-009 0)
(0.051734452 -2.2719962e-008 0)
(0.051734354 -1.9624478e-008 0)
(0.038439953 -0.0071723295 0)
(0.018731222 -0.00013287059 0)
(0.019267874 -4.7554837e-005 0)
(0.017962138 1.5808657e-005 0)
(0.018497272 -5.9274039e-006 0)
(0.018423799 1.7364753e-006 0)
(0.01849041 -6.6663906e-007 0)
(0.018472484 -2.8227194e-008 0)
(0.018478903 -8.56873e-008 0)
(0.018477014 -3.2198053e-008 0)
(0.018477815 -8.0838741e-009 0)
(0.018477624 -7.4106531e-009 0)
(0.018477647 -1.0690604e-009 0)
(0.018477637 -9.6041109e-010 0)
(0.018477633 -1.9127337e-010 0)
(0.018477632 -1.2425514e-010 0)
(0.018477631 2.559936e-011 0)
(0.018477632 6.3158343e-011 0)
(0.018477632 -2.6880617e-011 0)
(0.018477631 -1.8218804e-011 0)
(0.018477631 1.9523788e-010 0)
(0.018477634 3.6258849e-010 0)
(0.018477638 -2.8051104e-010 0)
(0.018477626 -9.3400605e-009 0)
(0.018477523 -8.7914497e-009 0)
(0.038854252 -0.0013710704 0)
(0.039649476 -0.001546462 0)
(0.040065249 -0.0013061497 0)
(0.040634255 -0.0010904043 0)
(0.040880613 -0.00088701228 0)
(0.041181856 -0.00077599637 0)
(0.041375393 -0.00065915883 0)
(0.041549933 -0.00061107657 0)
(0.041702303 -0.00060345132 0)
(0.041855223 -0.00065619749 0)
(0.042020503 -0.00077338106 0)
(0.04221674 -0.0009745437 0)
(0.042465026 -0.0012820245 0)
(0.042788421 -0.0017355976 0)
(0.043219683 -0.0023922248 0)
(0.043797142 -0.0033373739 0)
(0.044569806 -0.0046969126 0)
(0.045581823 -0.006678402 0)
(0.046910038 -0.0095102788 0)
(0.048440511 -0.013819241 0)
(0.050378982 -0.02045747 0)
(0.051197136 -0.032572808 0)
(0.052814802 -0.049892826 0)
(0.042091099 -0.071021717 0)
(0.037454315 -0.058511954 0)
(0.038841311 -0.0017483969 0)
(0.039747396 -0.0020359311 0)
(0.040204138 -0.001682116 0)
(0.040786829 -0.001381657 0)
(0.041017241 -0.0011075824 0)
(0.041282199 -0.00093439995 0)
(0.041444063 -0.00079014717 0)
(0.041573931 -0.00071685443 0)
(0.041683066 -0.00070185806 0)
(0.041784647 -0.00075572731 0)
(0.041889981 -0.00088517769 0)
(0.042008717 -0.0011093555 0)
(0.042155767 -0.0014540446 0)
(0.042340794 -0.0019594904 0)
(0.042578141 -0.0026855097 0)
(0.042880955 -0.0037198119 0)
(0.043259122 -0.0051867107 0)
(0.043698271 -0.0072768038 0)
(0.044188252 -0.010206567 0)
(0.044554033 -0.014423751 0)
(0.044646738 -0.020623567 0)
(0.043144892 -0.030819517 0)
(0.039578517 -0.044062439 0)
(0.025821205 -0.054977011 0)
(0.0097346834 -0.032496255 0)
(0.038872131 -0.0021874479 0)
(0.039901151 -0.0025729981 0)
(0.040410277 -0.0020895093 0)
(0.040987785 -0.0016615874 0)
(0.041188881 -0.0013039849 0)
(0.041400466 -0.0010636114 0)
(0.041517044 -0.00088612973 0)
(0.041594173 -0.0007878469 0)
(0.041651459 -0.00076105226 0)
(0.041695341 -0.00081012239 0)
(0.041733643 -0.00094234019 0)
(0.041769214 -0.0011736845 0)
(0.041807337 -0.0015309384 0)
(0.041846765 -0.0020534653 0)
(0.041883445 -0.0027980608 0)
(0.041908362 -0.0038475227 0)
(0.041899317 -0.0053154689 0)
(0.041799208 -0.0073627891 0)
(0.041527621 -0.01017864 0)
(0.040868864 -0.014064364 0)
(0.03955071 -0.019522981 0)
(0.036445815 -0.027655028 0)
(0.030455717 -0.037615872 0)
(0.017262 -0.043807539 0)
(0.0017959857 -0.026335568 0)
(0.038957742 -0.0027179193 0)
(0.040150043 -0.0031763519 0)
(0.040726239 -0.0025155704 0)
(0.041276312 -0.0019154987 0)
(0.041419043 -0.0014614653 0)
(0.041559501 -0.0011521431 0)
(0.041614696 -0.00093912658 0)
(0.041630505 -0.00081744347 0)
(0.041629544 -0.00077681138 0)
(0.041611969 -0.00081631475 0)
(0.041580134 -0.00094128974 0)
(0.041532186 -0.00116478 0)
(0.041461456 -0.0015116449 0)
(0.041356273 -0.0020173054 0)
(0.041200271 -0.0027332976 0)
(0.040962862 -0.0037319394 0)
(0.040598154 -0.0051103358 0)
(0.040022627 -0.0069955133 0)
(0.039110793 -0.0095341487 0)
(0.037642837 -0.012919038 0)
(0.035316068 -0.017469792 0)
(0.031289708 -0.023715604 0)
(0.024592826 -0.030707699 0)
(0.0135701 -0.033580104 0)
(0.00026488642 -0.020500386 0)
(0.039199664 -0.003413726 0)
(0.040700079 -0.0038905275 0)
(0.04136819 -0.0029434001 0)
(0.041839483 -0.0021252213 0)
(0.041879464 -0.0015585606 0)
(0.041923074 -0.0011850182 0)
(0.041899319 -0.00094052464 0)
(0.041845707 -0.00080005965 0)
(0.041781838 -0.00074624603 0)
(0.041701531 -0.0007730201 0)
(0.041600706 -0.00088269021 0)
(0.041471407 -0.0010849741 0)
(0.041296995 -0.0014003594 0)
(0.041057896 -0.0018591975 0)
(0.040725163 -0.0025053237 0)
(0.040253045 -0.0033987029 0)
(0.039577741 -0.004615794 0)
(0.038601189 -0.0062519041 0)
(0.037178056 -0.0084099762 0)
(0.035100763 -0.011206577 0)
(0.0320756 -0.014828069 0)
(0.027514357 -0.019504156 0)
(0.020746258 -0.024344149 0)
(0.011485159 -0.025424531 0)
(0.00050129583 -0.015892553 0)
(0.039887568 -0.0045390711 0)
(0.041944184 -0.0047939033 0)
(0.042660389 -0.0033412738 0)
(0.042942966 -0.0022421874 0)
(0.042809412 -0.0015627144 0)
(0.042720818 -0.0011435948 0)
(0.042600115 -0.00088122003 0)
(0.042470098 -0.00073112369 0)
(0.042340712 -0.00066793875 0)
(0.04219842 -0.00068089942 0)
(0.042032611 -0.00076899205 0)
(0.041826105 -0.00093790329 0)
(0.041556923 -0.0012034696 0)
(0.04119769 -0.0015898062 0)
(0.040707363 -0.0021316937 0)
(0.040030491 -0.002874924 0)
(0.039091068 -0.0038759879 0)
(0.037782455 -0.0052015203 0)
(0.03595602 -0.006917816 0)
(0.033419465 -0.0090883927 0)
(0.029917902 -0.011816547 0)
(0.025026543 -0.015200344 0)
(0.018320656 -0.018468055 0)
(0.010150503 -0.018621095 0)
(0.00077605259 -0.011530798 0)
(0.041170916 -0.0067637969 0)
(0.043696194 -0.0059863303 0)
(0.04408247 -0.0036201421 0)
(0.043984198 -0.0021850741 0)
(0.043597779 -0.0014301316 0)
(0.043342664 -0.001006962 0)
(0.043111839 -0.00075275153 0)
(0.042903316 -0.0006076111 0)
(0.042710945 -0.0005417969 0)
(0.042512855 -0.00054128697 0)
(0.042289606 -0.000602535 0)
(0.042017572 -0.00072782373 0)
(0.041670135 -0.00092796047 0)
(0.041211929 -0.0012198069 0)
(0.040594674 -0.0016266942 0)
(0.039755786 -0.0021828251 0)
(0.038612014 -0.002925091 0)
(0.037053586 -0.0038943802 0)
(0.034936944 -0.0051290224 0)
(0.032088716 -0.0066577743 0)
(0.028299905 -0.0085352951 0)
(0.023245754 -0.010801156 0)
(0.016642675 -0.01285766 0)
(0.0091045751 -0.012555659 0)
(0.00074586891 -0.0075245982 0)
(0.041927634 -0.010412208 0)
(0.043726972 -0.0070262124 0)
(0.042727501 -0.0035019605 0)
(0.042018083 -0.0018384864 0)
(0.041339327 -0.001120366 0)
(0.040910506 -0.00076270955 0)
(0.040574061 -0.00055514372 0)
(0.040299847 -0.00043463475 0)
(0.04006099 -0.00037561626 0)
(0.039827369 -0.00036547018 0)
(0.039572014 -0.00039719708 0)
(0.039269005 -0.00047280203 0)
(0.038886911 -0.00059719 0)
(0.038387282 -0.00078073136 0)
(0.037721423 -0.0010358902 0)
(0.03682617 -0.0013823696 0)
(0.035617794 -0.0018420971 0)
(0.033994324 -0.002436311 0)
(0.031827421 -0.0031814538 0)
(0.02897092 -0.004086502 0)
(0.025262405 -0.0051768222 0)
(0.02045027 -0.0064621695 0)
(0.014333967 -0.0075280161 0)
(0.0076522865 -0.0070364141 0)
(0.00048079936 -0.0039705567 0)
(0.038491283 -0.012181802 0)
(0.037696314 -0.0055966307 0)
(0.034029821 -0.0023618825 0)
(0.032727575 -0.0011006442 0)
(0.031840433 -0.00063992166 0)
(0.031309618 -0.00042941783 0)
(0.030921692 -0.00030790625 0)
(0.030627121 -0.00023455899 0)
(0.030386627 -0.00019688056 0)
(0.030164045 -0.00018683805 0)
(0.029931965 -0.00019885161 0)
(0.02966588 -0.0002333197 0)
(0.029336845 -0.00029205842 0)
(0.028911707 -0.00037935611 0)
(0.028349773 -0.00050126826 0)
(0.027599218 -0.00066474607 0)
(0.026595291 -0.00087945831 0)
(0.025258346 -0.0011542325 0)
(0.023492687 -0.0014923463 0)
(0.021197764 -0.0018934942 0)
(0.018268193 -0.002363719 0)
(0.014530005 -0.0028967737 0)
(0.0098569206 -0.0032603361 0)
(0.0050437212 -0.0028397176 0)
(4.8961341e-005 -0.0015067877 0)
(0.023780002 -0.011779672 0)
(0.020661267 -0.0028153857 0)
(0.015995572 -0.00043456996 0)
(0.015407098 -0.00019274225 0)
(0.014754326 -9.7101009e-005 0)
(0.014375814 -6.4395849e-005 0)
(0.014099524 -4.5030809e-005 0)
(0.01389719 -2.8645757e-005 0)
(0.013741433 -1.7762326e-005 0)
(0.013604746 -1.1168317e-005 0)
(0.0134696 -6.7949021e-006 0)
(0.013320683 -3.7424503e-006 0)
(0.013141318 -1.6392664e-006 0)
(0.012913223 9.7231141e-008 0)
(0.012614831 1.99687e-006 0)
(0.012220283 4.2990083e-006 0)
(0.011698131 7.6950557e-006 0)
(0.011010539 1.3616359e-005 0)
(0.010115811 2.4110738e-005 0)
(0.0089745966 4.1266729e-005 0)
(0.0075537705 6.7638222e-005 0)
(0.0057855893 0.0001085335 0)
(0.0036383407 0.00021038228 0)
(0.0017921895 0.00038872991 0)
(-3.9035247e-005 0.00018703683 0)
)
;

boundaryField
{
    inlet
    {
        type            fixedValue;
        value           uniform (0.03876 0 0);
    }
    walls
    {
        type            fixedValue;
        value           uniform (0 0 0);
    }
    outlet
    {
        type            zeroGradient;
    }
    centreline
    {
        type            symmetryPlane;
    }
    frontAndBack
    {
        type            empty;
    }
}


// ************************************************************************* //
