/*--------------------------------*- C++ -*----------------------------------*\
| =========                 |                                                 |
| \\      /  F ield         | OpenFOAM: The Open Source CFD Toolbox           |
|  \\    /   O peration     | Version:  5.x                                   |
|   \\  /    A nd           | Web:      www.OpenFOAM.org                      |
|    \\/     M anipulation  |                                                 |
\*---------------------------------------------------------------------------*/
/*   Windows 32 and 64 bit porting by blueCAPE: http://www.bluecape.com.pt   *\
|  Based on Windows porting (2.0.x v4) by Symscape: http://www.symscape.com   |
\*---------------------------------------------------------------------------*/
FoamFile
{
    version     2.0;
    format      ascii;
    class       volVectorField;
    location    "0.06";
    object      U_0;
}
// * * * * * * * * * * * * * * * * * * * * * * * * * * * * * * * * * * * * * //

dimensions      [0 1 -1 0 0 0 0];

internalField   nonuniform List<vector> 
750
(
(0.038926004 -6.0483735e-005 0)
(0.039548768 -6.0634898e-005 0)
(0.03992272 -5.5718745e-005 0)
(0.040410063 -4.5705552e-005 0)
(0.040677018 -3.9466716e-005 0)
(0.041022554 -3.5580589e-005 0)
(0.04125629 -3.0869703e-005 0)
(0.041509365 -2.9657127e-005 0)
(0.041733139 -2.9652207e-005 0)
(0.041981064 -3.2892195e-005 0)
(0.042258695 -3.9115161e-005 0)
(0.042604947 -4.9780276e-005 0)
(0.043053131 -6.5994579e-005 0)
(0.043657576 -9.0055477e-005 0)
(0.044488981 -0.00012544087 0)
(0.045658733 -0.00017712054 0)
(0.047311387 -0.00025380685 0)
(0.049703278 -0.00036922096 0)
(0.053203396 -0.00054327705 0)
(0.058323269 -0.0008259925 0)
(0.066427996 -0.0012442423 0)
(0.077918482 -0.0020483037 0)
(0.099591924 -0.0032316468 0)
(0.12850413 -0.0047801217 0)
(0.17732428 -0.0058911313 0)
(0.038926332 -0.00017897659 0)
(0.039551407 -0.00018686783 0)
(0.039924591 -0.00016320259 0)
(0.040412958 -0.00013865078 0)
(0.040679499 -0.00011756914 0)
(0.041024493 -0.00010654625 0)
(0.041257616 -9.252911e-005 0)
(0.04150946 -8.8614752e-005 0)
(0.041732124 -8.8746567e-005 0)
(0.041978432 -9.8300155e-005 0)
(0.042254243 -0.00011695749 0)
(0.042598074 -0.00014876869 0)
(0.043042846 -0.0001972068 0)
(0.043642469 -0.00026905782 0)
(0.044467031 -0.00037462088 0)
(0.0456265 -0.0005289083 0)
(0.047263038 -0.00075739669 0)
(0.04963157 -0.0011019526 0)
(0.053091284 -0.0016193492 0)
(0.058144622 -0.0024569225 0)
(0.066128337 -0.0037193912 0)
(0.077499977 -0.0060861419 0)
(0.098975542 -0.0097005169 0)
(0.1276086 -0.014203167 0)
(0.176098 -0.017705318 0)
(0.038925268 -0.00029687965 0)
(0.039555466 -0.00031532401 0)
(0.039928716 -0.00026939844 0)
(0.040418561 -0.00023223736 0)
(0.04068483 -0.00019541635 0)
(0.041028628 -0.00017722418 0)
(0.041260532 -0.00015395653 0)
(0.041509974 -0.00014708903 0)
(0.041730397 -0.00014740504 0)
(0.041973549 -0.00016308065 0)
(0.042245674 -0.00019408767 0)
(0.04258464 -0.00024673326 0)
(0.043022639 -0.0003269733 0)
(0.043612681 -0.00044603276 0)
(0.044423509 -0.0006207799 0)
(0.045562348 -0.00087617977 0)
(0.047167332 -0.0012539198 0)
(0.049487026 -0.0018236413 0)
(0.05286809 -0.0026770311 0)
(0.057786541 -0.004052325 0)
(0.065533726 -0.0061548491 0)
(0.076628931 -0.010051358 0)
(0.097701591 -0.016116858 0)
(0.12562655 -0.023449062 0)
(0.17326332 -0.029383281 0)
(0.038921301 -0.00041594238 0)
(0.039559687 -0.00044328112 0)
(0.039934785 -0.00037725145 0)
(0.04042686 -0.00032541728 0)
(0.040693091 -0.00027352397 0)
(0.041035052 -0.00024740106 0)
(0.041265067 -0.00021487915 0)
(0.041510957 -0.00020482572 0)
(0.041728001 -0.00020522809 0)
(0.041966512 -0.0002267933 0)
(0.042233092 -0.00026987538 0)
(0.042564713 -0.00034287444 0)
(0.042992695 -0.00045417742 0)
(0.04356852 -0.00061936319 0)
(0.044358871 -0.00086155717 0)
(0.045466927 -0.0012152982 0)
(0.047025756 -0.0017378584 0)
(0.049271169 -0.0025252658 0)
(0.052536778 -0.0037017373 0)
(0.057254177 -0.0055908725 0)
(0.064663059 -0.0085139394 0)
(0.075312653 -0.013907257 0)
(0.095738626 -0.022357732 0)
(0.12233076 -0.032401666 0)
(0.16816573 -0.040550468 0)
(0.038914042 -0.00053527174 0)
(0.039563581 -0.00057192196 0)
(0.039942367 -0.00048647237 0)
(0.040437927 -0.00041854734 0)
(0.040704255 -0.00035152042 0)
(0.041043702 -0.00031696751 0)
(0.041271144 -0.00027500622 0)
(0.04151233 -0.0002615677 0)
(0.041724858 -0.00026187091 0)
(0.041957256 -0.00028903616 0)
(0.042216483 -0.00034376064 0)
(0.042538333 -0.00043649059 0)
(0.042953142 -0.00057787616 0)
(0.043510254 -0.00078765994 0)
(0.044273681 -0.0010949006 0)
(0.045341298 -0.0015432282 0)
(0.046840073 -0.002204412 0)
(0.048987374 -0.0031990268 0)
(0.052100493 -0.0046809047 0)
(0.05655524 -0.0070514029 0)
(0.063525734 -0.01075389 0)
(0.073537406 -0.017598386 0)
(0.092979413 -0.028284434 0)
(0.1174693 -0.040816954 0)
(0.16037869 -0.050719197 0)
(0.038903957 -0.00065398339 0)
(0.039567589 -0.00070259766 0)
(0.039951408 -0.00059686399 0)
(0.040451986 -0.00051212975 0)
(0.040718448 -0.00042916851 0)
(0.041054556 -0.00038582151 0)
(0.041278823 -0.0003340716 0)
(0.041514124 -0.00031704569 0)
(0.041721014 -0.00031700363 0)
(0.041945857 -0.00034940129 0)
(0.042195967 -0.00041524786 0)
(0.042505726 -0.00052689961 0)
(0.042904309 -0.0006971305 0)
(0.043438395 -0.00094958745 0)
(0.044168773 -0.0013188853 0)
(0.045186904 -0.0018571495 0)
(0.046612289 -0.0026490532 0)
(0.048639299 -0.0038375935 0)
(0.051563724 -0.0056016281 0)
(0.055698639 -0.0084147693 0)
(0.062126279 -0.012834893 0)
(0.071269911 -0.021046893 0)
(0.089351811 -0.033735136 0)
(0.11083564 -0.048467976 0)
(0.15022523 -0.059264784 0)
(0.03889224 -0.00077177633 0)
(0.039572855 -0.00083592151 0)
(0.039962218 -0.00070874652 0)
(0.040469537 -0.00060638348 0)
(0.040735842 -0.00050637781 0)
(0.041067689 -0.00045378438 0)
(0.041288253 -0.00039185319 0)
(0.041516437 -0.000370974 0)
(0.041716586 -0.00037030873 0)
(0.041932475 -0.00040749358 0)
(0.042171797 -0.00048384038 0)
(0.042467196 -0.00061344805 0)
(0.042846623 -0.000811022 0)
(0.04335359 -0.0011038576 0)
(0.04404511 -0.0015316817 0)
(0.04500528 -0.0021543143 0)
(0.04634434 -0.0030674991 0)
(0.048232138 -0.0044342372 0)
(0.05093675 -0.0064533262 0)
(0.054699965 -0.0096623488 0)
(0.060505162 -0.014727803 0)
(0.068545976 -0.024200854 0)
(0.084904714 -0.038627866 0)
(0.10235857 -0.055275399 0)
(0.13882161 -0.066063157 0)
(0.038880656 -0.00088902369 0)
(0.039580828 -0.00097161966 0)
(0.039975378 -0.00082271687 0)
(0.04049129 -0.00070117516 0)
(0.040756608 -0.00058306598 0)
(0.041083292 -0.00052063722 0)
(0.041299632 -0.00044813995 0)
(0.041519409 -0.00042306359 0)
(0.041711743 -0.00042147365 0)
(0.041917303 -0.00046295002 0)
(0.042144303 -0.00054903796 0)
(0.042423154 -0.00069548101 0)
(0.042780616 -0.00091868669 0)
(0.04325662 -0.0012492603 0)
(0.043903858 -0.0017315041 0)
(0.044798231 -0.0024320775 0)
(0.046039426 -0.0034559457 0)
(0.047772292 -0.0049827458 0)
(0.050231835 -0.0072266912 0)
(0.053579499 -0.010775768 0)
(0.058681688 -0.016378151 0)
(0.065386642 -0.026926454 0)
(0.079473201 -0.042671769 0)
(0.092099506 -0.061021508 0)
(0.12690929 -0.070902592 0)
(0.038871276 -0.0010075435 0)
(0.03959268 -0.0011077974 0)
(0.03999139 -0.00094079829 0)
(0.040518149 -0.00079585503 0)
(0.04078078 -0.0006592824 0)
(0.041101671 -0.00058620478 0)
(0.041313125 -0.00050268932 0)
(0.041523159 -0.00047301018 0)
(0.041706653 -0.00047018657 0)
(0.041900548 -0.00051539483 0)
(0.042113785 -0.00061035982 0)
(0.042374102 -0.00077235871 0)
(0.042706961 -0.0010193103 0)
(0.043148501 -0.0013846292 0)
(0.043746622 -0.0019166507 0)
(0.044568356 -0.0026879423 0)
(0.045701911 -0.003811038 0)
(0.047267541 -0.0054791133 0)
(0.049460663 -0.0079139942 0)
(0.052354919 -0.011743336 0)
(0.056687504 -0.017743471 0)
(0.061840549 -0.029144842 0)
(0.073070101 -0.045707985 0)
(0.080535133 -0.065845413 0)
(0.11343323 -0.074080238 0)
(0.038865167 -0.0011274924 0)
(0.039608607 -0.0012468604 0)
(0.040010501 -0.0010611695 0)
(0.040551095 -0.00089157872 0)
(0.040808244 -0.00073435013 0)
(0.041123145 -0.00065032345 0)
(0.041328835 -0.00055530216 0)
(0.041527768 -0.00052046898 0)
(0.041701437 -0.00051619078 0)
(0.041882423 -0.00056447988 0)
(0.042080491 -0.00066747348 0)
(0.042320487 -0.00084363103 0)
(0.042626497 -0.0011122417 0)
(0.043030487 -0.0015091627 0)
(0.043575389 -0.0020861442 0)
(0.044318828 -0.0029207461 0)
(0.045336908 -0.004130931 0)
(0.046724023 -0.0059189681 0)
(0.048634184 -0.0085084043 0)
(0.051059745 -0.012551756 0)
(0.054599678 -0.01883635 0)
(0.05814452 -0.030770809 0)
(0.066126278 -0.047900855 0)
(0.06773028 -0.069694191 0)
(0.093803179 -0.074274861 0)
(0.22009738 -0.0037005185 0)
(0.23806002 -0.0016669001 0)
(0.24514835 -0.00038413684 0)
(0.24470243 6.4787322e-005 0)
(0.24397409 7.7787022e-005 0)
(0.24360706 2.4566467e-005 0)
(0.24357341 2.9403003e-006 0)
(0.24356793 2.2613667e-007 0)
(0.24356727 3.5101685e-007 0)
(0.24356374 2.714405e-007 0)
(0.24356284 8.4203569e-008 0)
(0.24356258 1.7647068e-008 0)
(0.24356254 3.0255141e-009 0)
(0.24356254 9.5496015e-010 0)
(0.24356253 5.1939512e-010 0)
(0.24356253 5.200502e-011 0)
(0.24356253 5.2329508e-011 0)
(0.24356253 1.1092924e-010 0)
(0.24356253 6.8968167e-011 0)
(0.24356253 -1.3054092e-010 0)
(0.24356253 -1.38128e-011 0)
(0.24356253 7.9771153e-010 0)
(0.24356252 1.3868648e-009 0)
(0.24356251 8.0487954e-009 0)
(0.24356238 7.8318099e-009 0)
(0.21799662 -0.010856749 0)
(0.23467657 -0.004953255 0)
(0.24145037 -0.0010985654 0)
(0.24113223 0.00015223256 0)
(0.24054342 0.00021964537 0)
(0.24021367 6.8859039e-005 0)
(0.24018348 9.1655912e-006 0)
(0.24017705 4.5777157e-007 0)
(0.24017692 1.0173455e-006 0)
(0.2401739 7.1882687e-007 0)
(0.24017315 2.4261672e-007 0)
(0.24017292 4.7525679e-008 0)
(0.2401729 8.1900861e-009 0)
(0.24017289 2.8100272e-009 0)
(0.24017289 1.2074505e-009 0)
(0.24017289 -3.09693e-010 0)
(0.24017289 7.7020555e-011 0)
(0.24017289 7.5004027e-010 0)
(0.24017289 2.0060045e-010 0)
(0.24017289 -3.8337239e-010 0)
(0.24017289 1.0644841e-010 0)
(0.24017289 1.6661893e-009 0)
(0.24017288 4.4685781e-009 0)
(0.24017287 2.5790942e-008 0)
(0.24017273 2.4900701e-008 0)
(0.21268311 -0.017519136 0)
(0.22601641 -0.0079908824 0)
(0.23211372 -0.001754106 0)
(0.23192685 0.00018439921 0)
(0.23163211 0.00033243788 0)
(0.23137378 0.00010489401 0)
(0.23135364 1.5357331e-005 0)
(0.23134562 5.8727424e-007 0)
(0.23134654 1.5627479e-006 0)
(0.23134436 1.0367556e-006 0)
(0.23134393 3.7352513e-007 0)
(0.23134377 6.9654119e-008 0)
(0.23134376 1.1755169e-008 0)
(0.23134376 3.9526497e-009 0)
(0.23134376 1.4747673e-009 0)
(0.23134375 -2.0145116e-010 0)
(0.23134375 1.2339793e-010 0)
(0.23134376 7.1939819e-010 0)
(0.23134376 -2.736817e-010 0)
(0.23134376 -4.1886898e-010 0)
(0.23134375 7.079098e-010 0)
(0.23134375 2.0753809e-009 0)
(0.23134375 6.7396978e-009 0)
(0.23134375 4.3139602e-008 0)
(0.23134364 4.2192445e-008 0)
(0.2026555 -0.02311104 0)
(0.20989841 -0.010360861 0)
(0.2148108 -0.0023210729 0)
(0.21457939 0.0001606637 0)
(0.21469583 0.00039134133 0)
(0.21454417 0.00012612676 0)
(0.21454195 2.048896e-005 0)
(0.21453257 7.1895534e-007 0)
(0.21453485 1.8504339e-006 0)
(0.21453368 1.1765164e-006 0)
(0.2145337 4.4809869e-007 0)
(0.21453362 7.9137526e-008 0)
(0.21453363 1.2364479e-008 0)
(0.21453364 3.9556249e-009 0)
(0.21453364 1.3303394e-009 0)
(0.21453364 1.3936887e-010 0)
(0.21453363 -3.0647684e-010 0)
(0.21453364 -2.4951454e-010 0)
(0.21453365 -4.9780369e-010 0)
(0.21453364 6.768723e-010 0)
(0.21453364 1.3440612e-009 0)
(0.21453363 2.1964564e-009 0)
(0.21453363 7.4726165e-009 0)
(0.21453364 5.1990104e-008 0)
(0.21453363 5.1405741e-008 0)
(0.18710966 -0.026864256 0)
(0.18585888 -0.011624932 0)
(0.18881317 -0.0026464766 0)
(0.18834117 7.9715096e-005 0)
(0.18884391 0.00038737308 0)
(0.18881523 0.0001282722 0)
(0.18883828 2.3272566e-005 0)
(0.18882846 7.4367267e-007 0)
(0.18883219 1.8484736e-006 0)
(0.18883195 1.1157415e-006 0)
(0.18883245 4.5237361e-007 0)
(0.18883247 7.3015286e-008 0)
(0.18883249 1.0003547e-008 0)
(0.18883251 3.0158052e-009 0)
(0.1888325 7.9402138e-010 0)
(0.18883251 3.6993061e-010 0)
(0.18883251 -1.1458523e-009 0)
(0.18883251 -1.3747515e-009 0)
(0.18883251 4.7617129e-011 0)
(0.18883251 1.637031e-009 0)
(0.18883251 1.9147721e-009 0)
(0.18883251 2.2763565e-009 0)
(0.18883251 5.5670644e-009 0)
(0.18883253 4.4017791e-008 0)
(0.18883265 4.4988115e-008 0)
(0.16662841 -0.028149908 0)
(0.15592649 -0.011500191 0)
(0.1560941 -0.0025516163 0)
(0.15529055 -1.737879e-005 0)
(0.15603064 0.00032510669 0)
(0.156099 0.00011185252 0)
(0.15615328 2.2537618e-005 0)
(0.15614333 5.2954486e-007 0)
(0.15614851 1.5953649e-006 0)
(0.15614882 8.7973987e-007 0)
(0.15614974 3.8921829e-007 0)
(0.15614983 5.2212835e-008 0)
(0.15614987 5.3242158e-009 0)
(0.15614989 9.8068445e-010 0)
(0.15614988 3.0397107e-011 0)
(0.15614989 -1.3812905e-010 0)
(0.15614989 -1.4762959e-009 0)
(0.15614989 -1.7388374e-009 0)
(0.15614988 4.6440712e-010 0)
(0.15614989 1.8762768e-009 0)
(0.15614989 1.9427112e-009 0)
(0.15614989 2.6571556e-009 0)
(0.15614989 2.1386487e-009 0)
(0.15614991 1.8666649e-008 0)
(0.15615012 2.1950852e-008 0)
(0.14309437 -0.026813605 0)
(0.12273754 -0.0097561841 0)
(0.12068719 -0.0020940943 0)
(0.11942224 -7.1965451e-005 0)
(0.12026514 0.00023370542 0)
(0.12037346 8.1245309e-005 0)
(0.1204564 1.8072411e-005 0)
(0.1204451 3.8001356e-008 0)
(0.12045158 1.1803852e-006 0)
(0.12045184 5.4353599e-007 0)
(0.12045305 2.8031628e-007 0)
(0.12045314 2.2475141e-008 0)
(0.12045318 3.3992349e-010 0)
(0.12045319 -9.5309763e-010 0)
(0.12045319 -6.5429343e-010 0)
(0.1204532 -7.4382706e-010 0)
(0.1204532 -1.2571403e-009 0)
(0.12045319 -9.0894339e-010 0)
(0.12045319 2.6723825e-010 0)
(0.12045319 7.6888472e-010 0)
(0.1204532 1.4823161e-009 0)
(0.1204532 2.5487406e-009 0)
(0.1204532 -1.3984542e-009 0)
(0.12045321 -1.2396923e-008 0)
(0.1204534 -7.3575711e-009 0)
(0.1159733 -0.022430939 0)
(0.088588629 -0.0068503197 0)
(0.086003564 -0.0013510486 0)
(0.084296486 -7.6128881e-005 0)
(0.085139478 0.00014112396 0)
(0.085228384 4.5935503e-005 0)
(0.085325835 1.1576054e-005 0)
(0.085311122 -4.6780731e-007 0)
(0.08531861 7.3779662e-007 0)
(0.085318162 2.2442079e-007 0)
(0.085319477 1.616545e-007 0)
(0.085319473 -3.0894346e-009 0)
(0.085319507 -2.6563242e-009 0)
(0.085319512 -2.3676393e-009 0)
(0.085319509 -9.8994344e-010 0)
(0.08531951 -7.3962501e-010 0)
(0.085319509 -4.1432918e-010 0)
(0.085319505 -1.3742242e-010 0)
(0.085319504 -3.2863353e-010 0)
(0.085319505 -4.6039027e-011 0)
(0.085319508 1.1372049e-009 0)
(0.085319509 2.204017e-009 0)
(0.085319516 -3.0034014e-009 0)
(0.085319512 -2.917566e-008 0)
(0.085319567 -2.399202e-008 0)
(0.082644904 -0.015110272 0)
(0.054260316 -0.0034894706 0)
(0.052526798 -0.00054935378 0)
(0.050781133 -5.1514666e-005 0)
(0.051533508 6.4526865e-005 0)
(0.05155283 1.5447617e-005 0)
(0.051645546 5.5027208e-006 0)
(0.051626523 -5.9023566e-007 0)
(0.051634543 3.8244105e-007 0)
(0.051632969 2.7076258e-008 0)
(0.051634218 6.4671096e-008 0)
(0.051634063 -1.1369544e-008 0)
(0.051634094 -2.3374923e-009 0)
(0.051634087 -2.0015225e-009 0)
(0.051634082 -7.1015532e-010 0)
(0.051634082 -4.1988942e-010 0)
(0.05163408 -3.9808119e-011 0)
(0.051634079 1.534751e-010 0)
(0.051634079 -1.5950301e-010 0)
(0.051634078 -1.4702889e-010 0)
(0.05163408 5.2932935e-010 0)
(0.051634083 1.1198182e-009 0)
(0.051634089 -1.9528812e-009 0)
(0.051634073 -2.2332035e-008 0)
(0.051633978 -1.9270417e-008 0)
(0.038419389 -0.007177662 0)
(0.018659519 -0.00013600488 0)
(0.019190232 -4.9093907e-005 0)
(0.017881556 1.5540053e-005 0)
(0.018418462 -5.9248285e-006 0)
(0.018344156 1.7448496e-006 0)
(0.018410871 -6.601384e-007 0)
(0.018392856 -2.8861475e-008 0)
(0.018399324 -8.5267353e-008 0)
(0.018397436 -3.2479325e-008 0)
(0.018398237 -7.9764604e-009 0)
(0.018398047 -7.443514e-009 0)
(0.01839807 -1.0699027e-009 0)
(0.01839806 -9.6094109e-010 0)
(0.018398055 -1.9479596e-010 0)
(0.018398055 -1.2382809e-010 0)
(0.018398054 2.4414044e-011 0)
(0.018398054 6.2622054e-011 0)
(0.018398055 -2.5977046e-011 0)
(0.018398054 -1.7231477e-011 0)
(0.018398054 1.9610504e-010 0)
(0.018398056 3.6971789e-010 0)
(0.01839806 -2.6494629e-010 0)
(0.018398049 -9.2580542e-009 0)
(0.018397947 -8.7137945e-009 0)
(0.038850676 -0.0013663224 0)
(0.039647628 -0.0015403212 0)
(0.040058752 -0.0012997808 0)
(0.040626923 -0.001086057 0)
(0.040871419 -0.00088331338 0)
(0.041171867 -0.00077336896 0)
(0.041364658 -0.00065709798 0)
(0.04153873 -0.00060960541 0)
(0.041690768 -0.00060239378 0)
(0.041843479 -0.00065547102 0)
(0.042008639 -0.00077290184 0)
(0.04220482 -0.00097422794 0)
(0.042453102 -0.001281806 0)
(0.042776539 -0.0017353976 0)
(0.043207872 -0.0023919301 0)
(0.043785419 -0.0033368361 0)
(0.044558203 -0.0046959105 0)
(0.045570352 -0.0066766407 0)
(0.046898699 -0.0095074502 0)
(0.048429744 -0.01381336 0)
(0.05036794 -0.020444043 0)
(0.051187645 -0.032550148 0)
(0.052805271 -0.049884613 0)
(0.042087176 -0.07106577 0)
(0.037458818 -0.0585654 0)
(0.038837116 -0.0017420065 0)
(0.039745206 -0.0020276323 0)
(0.040197038 -0.0016742674 0)
(0.040778687 -0.0013760177 0)
(0.041007454 -0.001103119 0)
(0.041271633 -0.00093112431 0)
(0.041432917 -0.00078770678 0)
(0.041562414 -0.00071510315 0)
(0.041671314 -0.00070062927 0)
(0.041772763 -0.00075489943 0)
(0.041878042 -0.00088465498 0)
(0.041996785 -0.0011090397 0)
(0.042143889 -0.001453862 0)
(0.042329027 -0.00195936 0)
(0.042566539 -0.0026853238 0)
(0.042869584 -0.0037194181 0)
(0.043248061 -0.0051859152 0)
(0.0436877 -0.0072753055 0)
(0.044178176 -0.010204181 0)
(0.044545113 -0.014418754 0)
(0.044639354 -0.020612121 0)
(0.043143137 -0.030799615 0)
(0.039582577 -0.044055745 0)
(0.025825022 -0.055015988 0)
(0.0097241611 -0.03254734 0)
(0.038867607 -0.0021792262 0)
(0.03989849 -0.0025623226 0)
(0.040402271 -0.0020800466 0)
(0.040978593 -0.0016546749 0)
(0.041178293 -0.0012987997 0)
(0.04138921 -0.0010598269 0)
(0.041505403 -0.00088339345 0)
(0.041582304 -0.00078591033 0)
(0.041639478 -0.0007597251 0)
(0.041683321 -0.00080925115 0)
(0.041721632 -0.0009418204 0)
(0.041757284 -0.0011734188 0)
(0.041795518 -0.001530842 0)
(0.041835117 -0.0020534657 0)
(0.04187205 -0.0027980659 0)
(0.041897321 -0.0038473997 0)
(0.041888753 -0.0053150511 0)
(0.041789391 -0.0073618252 0)
(0.041518681 -0.010176952 0)
(0.040861505 -0.014060794 0)
(0.039545658 -0.01951477 0)
(0.036447617 -0.027640517 0)
(0.030466541 -0.037611115 0)
(0.01727361 -0.04384011 0)
(0.0017936538 -0.02638849 0)
(0.038952481 -0.0027075226 0)
(0.040145809 -0.003162934 0)
(0.04071603 -0.0025042968 0)
(0.041264944 -0.0019074092 0)
(0.041406631 -0.001455689 0)
(0.041546683 -0.001148029 0)
(0.041601735 -0.00093622691 0)
(0.041617506 -0.00081543429 0)
(0.041616576 -0.00077546602 0)
(0.041599064 -0.00081547317 0)
(0.041567327 -0.00094082611 0)
(0.041519515 -0.0011646005 0)
(0.041448952 -0.0015116828 0)
(0.041344005 -0.002017489 0)
(0.041188331 -0.0027335593 0)
(0.040951379 -0.0037321822 0)
(0.040587297 -0.0051104287 0)
(0.040012707 -0.0069952878 0)
(0.0391021 -0.0095334604 0)
(0.037636031 -0.012917181 0)
(0.035311856 -0.017464964 0)
(0.031291677 -0.023707259 0)
(0.024603879 -0.030708163 0)
(0.013583961 -0.033610046 0)
(0.00027214738 -0.020546929 0)
(0.039192098 -0.0033997922 0)
(0.040691636 -0.0038735386 0)
(0.041353044 -0.0029301468 0)
(0.041823535 -0.0021162087 0)
(0.041863084 -0.0015524573 0)
(0.041906728 -0.001180815 0)
(0.041883146 -0.00093764098 0)
(0.041829734 -0.00079811503 0)
(0.041766057 -0.00074498779 0)
(0.041685934 -0.00077227403 0)
(0.041585304 -0.00088234006 0)
(0.041456196 -0.0010849372 0)
(0.04128202 -0.0014005708 0)
(0.04104323 -0.0018596163 0)
(0.040710896 -0.0025059079 0)
(0.040239334 -0.0033993993 0)
(0.039564809 -0.0046165299 0)
(0.038589375 -0.0062525963 0)
(0.037167789 -0.008410552 0)
(0.035092711 -0.011206589 0)
(0.032070619 -0.014826348 0)
(0.027514939 -0.019501115 0)
(0.020755168 -0.024349663 0)
(0.011497267 -0.02545326 0)
(0.00051061759 -0.015930197 0)
(0.03987614 -0.0045180859 0)
(0.041930437 -0.0047718774 0)
(0.042640194 -0.0033260589 0)
(0.042922918 -0.0022327689 0)
(0.042789866 -0.0015567594 0)
(0.042701937 -0.0011396424 0)
(0.042581799 -0.00087858428 0)
(0.042452249 -0.00072940433 0)
(0.042323231 -0.00066688025 0)
(0.042181248 -0.00068033739 0)
(0.04201571 -0.00076881689 0)
(0.041809468 -0.00093805907 0)
(0.041540577 -0.0012039125 0)
(0.041181702 -0.0015905236 0)
(0.040691824 -0.0021326789 0)
(0.040015586 -0.0028761782 0)
(0.039077042 -0.0038775089 0)
(0.037769665 -0.005203322 0)
(0.035944958 -0.0069199333 0)
(0.033410809 -0.00909059 0)
(0.029912594 -0.011818081 0)
(0.025026466 -0.015202017 0)
(0.018327964 -0.018478117 0)
(0.010159465 -0.018649413 0)
(0.0007833017 -0.011561628 0)
(0.041158724 -0.006732525 0)
(0.043685088 -0.0059597566 0)
(0.044068577 -0.0036039829 0)
(0.043972192 -0.0021761879 0)
(0.043587364 -0.0014250054 0)
(0.04333362 -0.0010036916 0)
(0.043103769 -0.00075062878 0)
(0.042895947 -0.00060628408 0)
(0.042704081 -0.00054104795 0)
(0.042506369 -0.00054097788 0)
(0.042283415 -0.00060258305 0)
(0.042011625 -0.00072819873 0)
(0.041664429 -0.00092865512 0)
(0.041206478 -0.0012208294 0)
(0.040589544 -0.0016280931 0)
(0.039751102 -0.0021846587 0)
(0.038607951 -0.0029274012 0)
(0.037050418 -0.0038972918 0)
(0.03493503 -0.0051326709 0)
(0.032088549 -0.006662119 0)
(0.028302205 -0.008539936 0)
(0.02325189 -0.010806973 0)
(0.016653928 -0.01287101 0)
(0.0091143157 -0.012582915 0)
(0.0007514386 -0.0075503119 0)
(0.041925114 -0.010374546 0)
(0.043734736 -0.0070010492 0)
(0.042740638 -0.0034874229 0)
(0.042035172 -0.0018312668 0)
(0.041358819 -0.0011166765 0)
(0.040931841 -0.00076048445 0)
(0.040596623 -0.00055373728 0)
(0.040323212 -0.00043381048 0)
(0.040084878 -0.00037522557 0)
(0.03985158 -0.00036541854 0)
(0.039596401 -0.00039744107 0)
(0.03929345 -0.00047333303 0)
(0.038911326 -0.00059803178 0)
(0.038411581 -0.00078191507 0)
(0.037745554 -0.0010374922 0)
(0.036850045 -0.0013844807 0)
(0.035641379 -0.0018448306 0)
(0.034017606 -0.0024398207 0)
(0.031850345 -0.0031859336 0)
(0.028993468 -0.0040920359 0)
(0.025284662 -0.0051832667 0)
(0.020472775 -0.0064702766 0)
(0.014356861 -0.0075421072 0)
(0.007667745 -0.0070599472 0)
(0.00048609757 -0.0039905268 0)
(0.038506581 -0.012155644 0)
(0.037725287 -0.0055819815 0)
(0.034073223 -0.0023522997 0)
(0.032776134 -0.0010963009 0)
(0.031891654 -0.00063798986 0)
(0.031362632 -0.00042834042 0)
(0.030975822 -0.00030723947 0)
(0.030681933 -0.0002341901 0)
(0.030441822 -0.00019673784 0)
(0.030219391 -0.00018687798 0)
(0.029987276 -0.00019905765 0)
(0.029720983 -0.00023369538 0)
(0.029391566 -0.00029262153 0)
(0.028965862 -0.00038013886 0)
(0.028403147 -0.00050231971 0)
(0.027651541 -0.00066612464 0)
(0.026646265 -0.00088127603 0)
(0.025307578 -0.0011565821 0)
(0.023539691 -0.0014953638 0)
(0.021241954 -0.0018972752 0)
(0.01830898 -0.0023682412 0)
(0.014567019 -0.0029024867 0)
(0.0098893539 -0.0032693361 0)
(0.0050634866 -0.0028532024 0)
(5.3642641e-005 -0.0015175071 0)
(0.023800054 -0.011771649 0)
(0.020686827 -0.0028151591 0)
(0.016034143 -0.00043281526 0)
(0.015449453 -0.00019213792 0)
(0.014798706 -9.7082022e-005 0)
(0.014421127 -6.4444189e-005 0)
(0.014145398 -4.5084593e-005 0)
(0.013943387 -2.8693824e-005 0)
(0.013787777 -1.7812067e-005 0)
(0.013651091 -1.1227892e-005 0)
(0.013515822 -6.8675538e-006 0)
(0.013366659 -3.8343007e-006 0)
(0.013186913 -1.7575491e-006 0)
(0.012958279 -5.7850128e-008 0)
(0.012659158 1.7938138e-006 0)
(0.012263643 4.028189e-006 0)
(0.011740217 7.3395587e-006 0)
(0.011050962 1.315597e-005 0)
(0.010154087 2.3517175e-005 0)
(0.0090101237 4.0521397e-005 0)
(0.0075859053 6.6725545e-005 0)
(0.0058136254 0.00010736862 0)
(0.0036616579 0.00020898698 0)
(0.0018057455 0.00038714458 0)
(-3.6534862e-005 0.00018574695 0)
)
;

boundaryField
{
    inlet
    {
        type            fixedValue;
        value           uniform (0.03876 0 0);
    }
    walls
    {
        type            fixedValue;
        value           uniform (0 0 0);
    }
    outlet
    {
        type            zeroGradient;
    }
    centreline
    {
        type            symmetryPlane;
    }
    frontAndBack
    {
        type            empty;
    }
}


// ************************************************************************* //
