# vtk DataFile Version 2.0
track0
ASCII
DATASET POLYDATA
POINTS 11980 float
-0.0205 0.001 1e-005
-0.0202034 0.00100022 1e-005
-0.0199069 0.00100067 1e-005
-0.0196103 0.00100132 1e-005
-0.0193137 0.00100219 1e-005
-0.0190172 0.00100326 1e-005
-0.0187132 0.00100466 1e-005
-0.0184093 0.00100588 1e-005
-0.0181054 0.0010071 1e-005
-0.0178015 0.00100832 1e-005
-0.0174976 0.00100953 1e-005
-0.0172058 0.00101083 1e-005
-0.016914 0.00101193 1e-005
-0.0166222 0.00101303 1e-005
-0.0163305 0.00101413 1e-005
-0.0160387 0.00101522 1e-005
-0.0157586 0.00101636 1e-005
-0.0154784 0.00101744 1e-005
-0.0151983 0.00101856 1e-005
-0.0149182 0.00101971 1e-005
-0.0146381 0.0010209 1e-005
-0.0143744 0.00102208 1e-005
-0.0141106 0.00102327 1e-005
-0.0138469 0.00102449 1e-005
-0.0135832 0.00102574 1e-005
-0.0133604 0.00102682 1e-005
-0.013347 0.00102688 1e-005
-0.0133336 0.00102695 1e-005
-0.0133202 0.00102702 1e-005
-0.0133068 0.00102708 1e-005
-0.0132934 0.00102715 1e-005
-0.0130353 0.00102844 1e-005
-0.0127771 0.00102974 1e-005
-0.0125189 0.00103106 1e-005
-0.0122607 0.00103239 1e-005
-0.0120025 0.00103374 1e-005
-0.0117547 0.00103505 1e-005
-0.0115068 0.00103636 1e-005
-0.0112589 0.00103768 1e-005
-0.0110111 0.00103901 1e-005
-0.0107632 0.00104034 1e-005
-0.0105252 0.00104161 1e-005
-0.0102873 0.00104289 1e-005
-0.0100493 0.00104417 1e-005
-0.00981133 0.00104544 1e-005
-0.00957337 0.00104672 1e-005
-0.00934491 0.00104794 1e-005
-0.00911645 0.00104916 1e-005
-0.00888799 0.00105038 1e-005
-0.00865954 0.00105159 1e-005
-0.00843108 0.00105281 1e-005
-0.00821175 0.00105396 1e-005
-0.00799242 0.00105512 1e-005
-0.00777309 0.00105627 1e-005
-0.00755376 0.00105742 1e-005
-0.00733443 0.00105856 1e-005
-0.00712387 0.00105965 1e-005
-0.0069133 0.00106074 1e-005
-0.00670273 0.00106182 1e-005
-0.00649216 0.0010629 1e-005
-0.0062816 0.00106398 1e-005
-0.00607944 0.001065 1e-005
-0.00587729 0.00106603 1e-005
-0.00567514 0.00106704 1e-005
-0.00547298 0.00106806 1e-005
-0.00527083 0.00106907 1e-005
-0.00507675 0.00107003 1e-005
-0.00488267 0.00107099 1e-005
-0.0046886 0.00107195 1e-005
-0.00449452 0.0010729 1e-005
-0.00430044 0.00107385 1e-005
-0.00411412 0.00107475 1e-005
-0.0039278 0.00107566 1e-005
-0.00374147 0.00107656 1e-005
-0.00355515 0.00107745 1e-005
-0.00336883 0.00107835 1e-005
-0.00318995 0.00107919 1e-005
-0.00301107 0.00108004 1e-005
-0.00283219 0.00108089 1e-005
-0.00265331 0.00108173 1e-005
-0.00247443 0.00108258 1e-005
-0.0023027 0.00108337 1e-005
-0.00213097 0.00108418 1e-005
-0.00195924 0.00108498 1e-005
-0.0017875 0.00108577 1e-005
-0.00161577 0.00108657 1e-005
-0.0014509 0.00108732 1e-005
-0.00128603 0.00108808 1e-005
-0.00112116 0.00108884 1e-005
-0.000956289 0.00108959 1e-005
-0.000791418 0.00109035 1e-005
-0.000633135 0.00109106 1e-005
-0.000474851 0.00109179 1e-005
-0.000316567 0.00109251 1e-005
-0.000158284 0.00109322 1e-005
0 0.00109394 1e-005
0.000105677 0.00109441 1e-005
0.000211355 0.00109488 1e-005
0.000317032 0.00109534 1e-005
0.00042271 0.00109581 1e-005
0.000528387 0.00109627 1e-005
0.000634886 0.00109672 1e-005
0.000741385 0.00109718 1e-005
0.000847885 0.00109763 1e-005
0.000954384 0.00109808 1e-005
0.00106088 0.00109853 1e-005
0.00116821 0.00109897 1e-005
0.00127554 0.00109941 1e-005
0.00138286 0.00109985 1e-005
0.00149019 0.00110028 1e-005
0.00159752 0.00110071 1e-005
0.00170568 0.00110113 1e-005
0.00181384 0.00110154 1e-005
0.001922 0.00110195 1e-005
0.00203016 0.00110235 1e-005
0.00213833 0.00110274 1e-005
0.00224733 0.00110312 1e-005
0.00235633 0.0011035 1e-005
0.00246533 0.00110387 1e-005
0.00257434 0.00110423 1e-005
0.00268334 0.00110458 1e-005
0.00279319 0.00110493 1e-005
0.00290304 0.00110527 1e-005
0.00301289 0.0011056 1e-005
0.00312274 0.00110592 1e-005
0.00323259 0.00110624 1e-005
0.00334329 0.00110655 1e-005
0.003454 0.00110685 1e-005
0.0035647 0.00110715 1e-005
0.0036754 0.00110743 1e-005
0.00378611 0.00110772 1e-005
0.00389767 0.00110799 1e-005
0.00400924 0.00110825 1e-005
0.0041208 0.00110851 1e-005
0.00423237 0.00110877 1e-005
0.00434393 0.00110901 1e-005
0.00445636 0.00110925 1e-005
0.00456879 0.00110948 1e-005
0.00468123 0.0011097 1e-005
0.00479366 0.00110992 1e-005
0.00490609 0.00111013 1e-005
0.0050194 0.00111032 1e-005
0.0051327 0.00111052 1e-005
0.00524601 0.00111071 1e-005
0.00535932 0.00111088 1e-005
0.00547262 0.00111106 1e-005
0.00558681 0.00111122 1e-005
0.005701 0.00111138 1e-005
0.00581518 0.00111153 1e-005
0.00592937 0.00111167 1e-005
0.00604356 0.0011118 1e-005
0.00615863 0.00111193 1e-005
0.00627371 0.00111205 1e-005
0.00638878 0.00111216 1e-005
0.00650386 0.00111227 1e-005
0.00661893 0.00111237 1e-005
0.0067349 0.00111246 1e-005
0.00685087 0.00111254 1e-005
0.00696684 0.00111262 1e-005
0.00708281 0.00111269 1e-005
0.00719878 0.00111275 1e-005
0.00726191 0.00111278 1e-005
0.00732505 0.00111281 1e-005
0.00738819 0.00111284 1e-005
0.00745132 0.00111286 1e-005
0.00751262 0.00111288 1e-005
0.00756673 0.00111289 1e-005
0.00762083 0.00111291 1e-005
0.00767493 0.00111292 1e-005
0.00772903 0.00111293 1e-005
0.00778313 0.00111294 1e-005
0.00790091 0.00111296 1e-005
0.00801869 0.00111297 1e-005
0.00813647 0.00111297 1e-005
0.00825425 0.00111296 1e-005
0.00837203 0.00111295 1e-005
0.00849073 0.00111292 1e-005
0.00860942 0.00111289 1e-005
0.00872812 0.00111286 1e-005
0.00884682 0.00111281 1e-005
0.00896551 0.00111276 1e-005
0.00908513 0.00111269 1e-005
0.00920475 0.00111262 1e-005
0.00932437 0.00111254 1e-005
0.00944398 0.00111246 1e-005
0.0095636 0.00111237 1e-005
0.00968415 0.00111226 1e-005
0.0098047 0.00111215 1e-005
0.00992525 0.00111203 1e-005
0.0100458 0.0011119 1e-005
0.0101663 0.00111177 1e-005
0.0102878 0.00111161 1e-005
0.0104093 0.00111146 1e-005
0.0105308 0.0011113 1e-005
0.0106523 0.00111114 1e-005
0.0107738 0.00111096 1e-005
0.0108962 0.00111076 1e-005
0.0110186 0.00111057 1e-005
0.0111411 0.00111037 1e-005
0.0112635 0.00111016 1e-005
0.0113859 0.00110994 1e-005
0.0115093 0.0011097 1e-005
0.0116327 0.00110946 1e-005
0.0117561 0.00110921 1e-005
0.0118795 0.00110896 1e-005
0.0120028 0.0011087 1e-005
0.0121272 0.00110841 1e-005
0.0122515 0.00110813 1e-005
0.0123759 0.00110784 1e-005
0.0125002 0.00110754 1e-005
0.0126245 0.00110723 1e-005
0.0127498 0.0011069 1e-005
0.0128752 0.00110657 1e-005
0.0130005 0.00110624 1e-005
0.0131258 0.00110589 1e-005
0.0132511 0.00110554 1e-005
0.0133774 0.00110516 1e-005
0.0135036 0.00110479 1e-005
0.0136299 0.00110441 1e-005
0.0137562 0.00110402 1e-005
0.0138825 0.00110362 1e-005
0.0140098 0.00110319 1e-005
0.014137 0.00110277 1e-005
0.0142643 0.00110234 1e-005
0.0143915 0.0011019 1e-005
0.0145188 0.00110146 1e-005
0.0146471 0.00110099 1e-005
0.0147753 0.00110052 1e-005
0.0149036 0.00110004 1e-005
0.0150318 0.00109955 1e-005
0.0151601 0.00109905 1e-005
0.0152893 0.00109854 1e-005
0.0154186 0.00109802 1e-005
0.0155478 0.00109749 1e-005
0.0156771 0.00109696 1e-005
0.0158063 0.00109641 1e-005
0.0159366 0.00109585 1e-005
0.0160668 0.00109528 1e-005
0.0161971 0.0010947 1e-005
0.0163274 0.00109412 1e-005
0.0164576 0.00109352 1e-005
0.0165889 0.00109291 1e-005
0.0167201 0.0010923 1e-005
0.0168514 0.00109167 1e-005
0.0169827 0.00109103 1e-005
0.0171139 0.00109039 1e-005
0.0172462 0.00108973 1e-005
0.0173785 0.00108907 1e-005
0.0175108 0.00108839 1e-005
0.0176431 0.0010877 1e-005
0.0177754 0.00108701 1e-005
0.0179087 0.00108631 1e-005
0.018042 0.00108559 1e-005
0.0181753 0.00108486 1e-005
0.0183087 0.00108413 1e-005
0.018442 0.00108339 1e-005
0.0185763 0.00108264 1e-005
0.0187107 0.00108187 1e-005
0.018845 0.00108109 1e-005
0.0189794 0.0010803 1e-005
0.0191137 0.00107951 1e-005
0.0192491 0.00107872 1e-005
0.0193845 0.00107791 1e-005
0.0195199 0.00107707 1e-005
0.0196553 0.00107623 1e-005
0.0197907 0.0010754 1e-005
0.0199272 0.00107455 1e-005
0.0200636 0.00107369 1e-005
0.0202001 0.00107281 1e-005
0.0203365 0.00107192 1e-005
0.020473 0.00107103 1e-005
0.0206105 0.00107014 1e-005
0.020748 0.00106923 1e-005
0.0208855 0.0010683 1e-005
0.021023 0.00106736 1e-005
0.0211606 0.00106642 1e-005
0.0212991 0.00106549 1e-005
0.0214377 0.00106453 1e-005
0.0215763 0.00106354 1e-005
0.0217149 0.00106255 1e-005
0.0218535 0.00106157 1e-005
0.0219931 0.00106058 1e-005
0.0221328 0.00105958 1e-005
0.0222724 0.00105854 1e-005
0.0224121 0.0010575 1e-005
0.0225517 0.00105647 1e-005
0.0226925 0.00105544 1e-005
0.0228332 0.00105438 1e-005
0.022974 0.00105329 1e-005
0.0231147 0.0010522 1e-005
0.0232555 0.00105112 1e-005
0.0233973 0.00105004 1e-005
0.0235391 0.00104893 1e-005
0.023681 0.0010478 1e-005
0.0238228 0.00104666 1e-005
0.0239647 0.00104552 1e-005
0.0241076 0.00104439 1e-005
0.0242505 0.00104324 1e-005
0.0243935 0.00104205 1e-005
0.0245364 0.00104086 1e-005
0.0246794 0.00103968 1e-005
0.0248234 0.0010385 1e-005
0.0249675 0.00103729 1e-005
0.0251115 0.00103605 1e-005
0.0252556 0.00103481 1e-005
0.0253996 0.00103358 1e-005
0.0255448 0.00103235 1e-005
0.02569 0.00103109 1e-005
0.0258351 0.0010298 1e-005
0.0259803 0.00102851 1e-005
0.0261255 0.00102723 1e-005
0.0262718 0.00102595 1e-005
0.0264181 0.00102464 1e-005
0.0265644 0.0010233 1e-005
0.0267107 0.00102196 1e-005
0.026857 0.00102063 1e-005
0.0270044 0.00101929 1e-005
0.0271519 0.00101793 1e-005
0.0272993 0.00101654 1e-005
0.0274468 0.00101515 1e-005
0.0275942 0.00101376 1e-005
0.0277428 0.00101237 1e-005
0.0278914 0.00101095 1e-005
0.0280399 0.00100952 1e-005
0.0281885 0.00100808 1e-005
0.0283371 0.00100663 1e-005
0.0284869 0.00100519 1e-005
0.0286366 0.00100371 1e-005
0.0287863 0.00100222 1e-005
0.0289361 0.00100073 1e-005
0.0290858 0.000999228 1e-005
0.0292367 0.000997725 1e-005
0.0293876 0.000996193 1e-005
0.0295385 0.00099465 1e-005
0.0296894 0.000993099 1e-005
0.0298403 0.000991541 1e-005
0.0299924 0.00098998 1e-005
0.0301445 0.000988389 1e-005
0.0302966 0.00098679 1e-005
0.0304486 0.000985182 1e-005
0.0306007 0.000983565 1e-005
0.030754 0.000981943 1e-005
0.0309072 0.000980294 1e-005
0.0310605 0.000978636 1e-005
0.0312138 0.000976969 1e-005
0.031367 0.000975293 1e-005
0.0315215 0.000973608 1e-005
[...]
POINT_DATA 11980
 FIELD attributes 1
U 3 11980 float
10.0004 	0.00731845 	0 10.0024 	0.015169 	0 10.0045 	0.0221881 	0 10.0065 	0.029163 	0 10.0085 	0.036094 	0 10.0135 	0.0463094 	0 10.0163 	0.0402081 	0 10.0207 	0.0401657 	0 10.0252 	0.0401234 	0 10.0296 	0.0400812 	0 10.0356 	0.0445406 	0 10.0385 	0.0378986 	0 10.0424 	0.037853 	0 10.0464 	0.0378075 	0 10.0504 	0.0377619 	0 10.0545 	0.040862 	0 10.0567 	0.0387827 	0 10.0592 	0.0400907 	0 10.0616 	0.0414004 	0 10.0641 	0.0427117 	0 10.0662 	0.0451692 	0 10.0677 	0.0452795 	0 10.0691 	0.0464815 	0 10.0704 	0.0476846 	0 10.0718 	0.0488888 	0 10.0729 	0.049907 	0 10.073 	0.0499686 	0 10.073 	0.0500303 	0 10.0731 	0.0500919 	0 10.0732 	0.0501536 	0 10.0732 	0.0502059 	0 10.0738 	0.0508313 	0 10.0743 	0.0514507 	0 10.0748 	0.0520707 	0 10.0753 	0.0526912 	0 10.0758 	0.0531478 	0 10.0757 	0.053442 	0 10.0754 	0.0536309 	0 10.075 	0.0538198 	0 10.0747 	0.0540089 	0 10.0742 	0.0539596 	0 10.0737 	0.0541028 	0 10.0727 	0.0540777 	0 10.0716 	0.0540525 	0 10.0705 	0.0540274 	0 10.069 	0.053733 	0 10.0686 	0.0538111 	0 10.067 	0.0536755 	0 10.0653 	0.0535398 	0 10.0637 	0.0534041 	0 10.0612 	0.0529818 	0 10.0612 	0.053033 	0 10.0592 	0.0528355 	0 10.0572 	0.052638 	0 10.0552 	0.0524404 	0 10.0516 	0.0519436 	0 10.0522 	0.0519925 	0 10.0499 	0.0517676 	0 10.0476 	0.0515427 	0 10.0453 	0.0513178 	0 10.0407 	0.0507854 	0 10.0422 	0.0508526 	0 10.0397 	0.0506211 	0 10.0372 	0.0503896 	0 10.0347 	0.0501581 	0 10.029 	0.0496055 	0 10.0314 	0.0496962 	0 10.0288 	0.0494735 	0 10.0262 	0.0492507 	0 10.0235 	0.0490279 	0 10.0167 	0.0484763 	0 10.0203 	0.048599 	0 10.0176 	0.0483854 	0 10.0149 	0.0481717 	0 10.0122 	0.0479579 	0 10.0041 	0.047397 	0 10.009 	0.0475476 	0 10.0063 	0.0473753 	0 10.0036 	0.0472029 	0 10.0008 	0.0470305 	0 9.99162 	0.046519 	0 9.99781 	0.0467242 	0 9.99514 	0.0465526 	0 9.99247 	0.046381 	0 9.98979 	0.0462094 	0 9.97939 	0.0456467 	0 9.98694 	0.0458475 	0 9.98435 	0.0457864 	0 9.98175 	0.0457253 	0 9.97916 	0.0456642 	0 9.96759 	0.0452641 	0 9.97658 	0.0455158 	9.22851e-022 9.97457 	0.045323 	5.95655e-021 9.97256 	0.0451302 	1.09904e-020 9.97054 	0.0449373 	1.60245e-020 9.95847 	0.0442935 	1.36194e-020 9.96867 	0.0443728 	9.34352e-020 9.96684 	0.0440389 	8.67075e-020 9.96501 	0.043705 	7.9976e-020 9.96317 	0.043371 	7.32407e-020 9.95089 	0.042677 	-1.48537e-020 9.96092 	0.0426355 	-4.02539e-020 9.95913 	0.042346 	-4.47886e-020 9.95735 	0.0420565 	-4.93218e-020 9.95556 	0.0417669 	-5.38535e-020 9.94348 	0.0412012 	-2.1276e-020 9.95305 	0.0410057 	-1.87125e-020 9.95113 	0.0404561 	-1.30309e-020 9.94921 	0.0399065 	-7.34971e-021 9.94728 	0.0393568 	-1.66897e-021 9.93545 	0.0385822 	6.95584e-021 9.94461 	0.0382673 	-5.72939e-021 9.9425 	0.0374653 	-2.41946e-020 9.94039 	0.036663 	-4.26618e-020 9.93827 	0.0358607 	-6.11309e-020 9.92655 	0.0347968 	-8.71269e-020 9.93513 	0.0345422 	-1.22709e-019 9.93268 	0.0337244 	-1.10434e-019 9.93022 	0.0329065 	-9.81513e-020 9.92775 	0.0320884 	-8.58611e-020 9.91604 	0.0308916 	-2.97134e-020 9.92388 	0.0307603 	3.36049e-020 9.92104 	0.0300204 	4.69745e-020 9.91818 	0.0292804 	6.03347e-020 9.91533 	0.0285401 	7.36856e-020 9.9037 	0.0273192 	3.65284e-020 9.91071 	0.0272326 	-4.51885e-020 9.90748 	0.0265309 	-5.11964e-020 9.90425 	0.0258289 	-5.71901e-020 9.90101 	0.0251267 	-6.31697e-020 9.88957 	0.0239159 	-3.39306e-022 9.89562 	0.0237922 	5.88234e-020 9.89199 	0.0230974 	4.94866e-020 9.88836 	0.0224023 	4.01356e-020 9.88472 	0.0217069 	3.07704e-020 9.87353 	0.0205423 	-2.85686e-020 9.87844 	0.0203534 	-8.22427e-020 9.87437 	0.0196652 	-1.04225e-019 9.87028 	0.0189768 	-1.26202e-019 9.86619 	0.0182881 	-1.48174e-019 9.85536 	0.0172031 	-1.3583e-019 9.8589 	0.0169439 	-1.5418e-019 9.85435 	0.016267 	-1.41853e-019 9.84979 	0.0155898 	-1.29522e-019 9.84523 	0.0149123 	-1.17186e-019 9.83491 	0.013924 	-8.31273e-020 9.83682 	0.0136016 	-6.97219e-020 9.83179 	0.0129417 	-5.14041e-020 9.82676 	0.0122816 	-3.3088e-020 9.82173 	0.0116212 	-1.47736e-020 9.81216 	0.010734 	1.94442e-021 9.81214 	0.0103436 	0 9.80665 	0.00969679 	0 9.80116 	0.00904971 	0 9.79566 	0.00840235 	0 9.78714 	0.00761185 	0 9.78483 	0.00713945 	-1.66155e-020 9.77889 	0.00649959 	-3.5391e-020 9.77294 	0.00585943 	-5.4168e-020 9.76698 	0.00521896 	-7.29468e-020 9.75986 	0.00452502 	-9.22236e-020 9.7578 	0.00424679 	-9.52279e-020 9.75435 	0.00390479 	-9.5626e-020 9.7509 	0.00356269 	-9.60226e-020 9.74744 	0.00322049 	-9.64176e-020 9.74409 	0.00288815 	-9.67998e-020 9.74109 	0.00259314 	-9.76554e-020 9.73809 	0.00229806 	-9.85113e-020 9.73509 	0.0020029 	-9.93675e-020 9.73208 	0.00170767 	-1.00224e-019 9.72613 	0.00128069 	-1.00213e-019 9.72195 	0.000772715 	-7.53912e-020 9.71504 	0.000143813 	-4.65819e-020 9.70812 	-0.00048547 	-1.77818e-020 9.7012 	-0.00111513 	1.1009e-020 9.68494 	-0.00215336 	4.92553e-020 9.6862 	-0.00240508 	5.01164e-020 9.67886 	-0.00302706 	5.12511e-020 9.67151 	-0.00364946 	5.23837e-020 9.66415 	-0.00427227 	5.35141e-020 9.64122 	-0.0055534 	5.6832e-020 9.64779 	-0.00557884 	4.47587e-020 9.64004 	-0.00619412 	3.26828e-020 9.63229 	-0.00680984 	2.06058e-020 9.62452 	-0.00742601 	8.52768e-021 9.59523 	-0.00890693 	-1.10124e-021 9.60682 	-0.00874858 	-8.02203e-021 9.59869 	-0.00935758 	-1.9547e-020 9.59055 	-0.00996705 	-3.10708e-020 9.58239 	-0.010577 	-4.25935e-020 9.54723 	-0.0122064 	-5.41319e-020 9.56344 	-0.0119141 	-5.38077e-020 9.55494 	-0.0125188 	-6.11195e-020 9.54644 	-0.013124 	-6.84283e-020 9.53792 	-0.0137298 	-7.57341e-020 9.49749 	-0.0154537 	-9.46808e-020 9.51782 	-0.015078 	-1.50842e-019 9.50899 	-0.0156788 	-1.41444e-019 9.50015 	-0.0162801 	-1.32059e-019 9.49129 	-0.016882 	-1.22687e-019 9.44626 	-0.0186409 	-4.13515e-020 9.47014 	-0.0182331 	-2.63244e-020 9.461 	-0.0188295 	-1.84324e-020 9.45185 	-0.0194265 	-1.05396e-020 9.44268 	-0.0200241 	-2.64607e-021 9.39378 	-0.0217601 	0 9.42061 	-0.0213682 	0 9.41118 	-0.0219611 	0 9.40174 	-0.0225547 	0 9.39229 	-0.0231488 	0 9.34027 	-0.0248121 	0 9.36946 	-0.0244823 	1.52173e-021 9.35977 	-0.0250738 	8.86696e-021 9.35007 	-0.0256659 	1.62114e-020 9.34035 	-0.0262586 	2.35552e-020 9.28596 	-0.027802 	4.1532e-020 9.31692 	-0.0275833 	1.60983e-019 9.307 	-0.0281739 	1.6389e-019 9.29706 	-0.0287652 	1.6681e-019 9.2871 	-0.0293572 	1.69744e-019 9.23106 	-0.0307296 	4.17225e-020 9.26302 	-0.0306684 	2.22639e-020 9.2531 	-0.0312537 	1.56344e-020 9.24295 	-0.0318431 	9.07139e-021 9.22975 	-0.0324697 	3.91127e-021 9.17575 	-0.033588 	1.7632e-020 9.20418 	-0.0337617 	1.04447e-019 9.19832 	-0.0343002 	1.15498e-019 9.18798 	-0.0348867 	1.16704e-019 9.1706 	-0.0355205 	1.00728e-019 9.1202 	-0.0363734 	4.02057e-021 9.14527 	-0.036764 	-9.87546e-020 9.14287 	-0.0373032 	-1.29992e-019 9.13237 	-0.0378865 	-1.40182e-019 9.11152 	-0.038477 	-1.2848e-019 9.06459 	-0.0390845 	-6.15758e-020 9.08649 	-0.0396725 	-1.77909e-019 9.08699 	-0.040255 	-2.19177e-019 9.07635 	-0.0408349 	-2.21415e-019 9.05269 	-0.0413377 	-1.7306e-019 9.00905 	-0.0417217 	-4.70478e-020 9.02799 	-0.0424868 	-2.49123e-020 9.03088 	-0.0431498 	-1.08257e-020 9.02012 	-0.0437263 	-3.57464e-021 8.99427 	-0.0441033 	0 8.95373 	-0.0442863 	0 8.96993 	-0.0452083 	0 8.97473 	-0.0459834 	0 8.96388 	-0.0465563 	0 8.93638 	-0.046776 	2.05113e-021 8.89875 	-0.0467806 	5.35129e-021 8.91243 	-0.0478397 	2.2044e-021 8.91873 	-0.0487527 	0 8.9078 	-0.0493221 	0 8.87916 	-0.0493594 	2.43843e-021 8.84422 	-0.0492078 	5.74269e-021 8.85559 	-0.0503851 	2.59527e-021 8.86302 	-0.0514562 	1.15416e-021 8.85204 	-0.0520222 	7.73804e-021 8.82268 	-0.051858 	2.44482e-020 8.79024 	-0.0515712 	4.28578e-020 8.79952 	-0.0528486 	1.67889e-019 8.80776 	-0.0540923 	2.86971e-019 8.79674 	-0.0546551 	2.90402e-019 8.76704 	-0.0542765 	1.68395e-019 8.73689 	-0.0538749 	4.33657e-020 8.74427 	-0.0552359 	2.52196e-020 8.75161 	-0.0565984 	7.07466e-021 8.74036 	-0.0571181 	3.13027e-022 8.71231 	-0.0566206 	3.49256e-021 8.68427 	-0.0561228 	6.67194e-021 8.68994 	-0.0575513 	3.65299e-021 8.69557 	-0.0589812 	6.34811e-022 8.68468 	-0.0594706 	2.01274e-021 8.65855 	-0.0588954 	-1.90727e-021 8.63243 	-0.0583198 	-5.82633e-021 8.63657 	-0.0598021 	-4.9095e-020 8.64067 	-0.0612859 	-9.23672e-020 8.63018 	-0.0617454 	-9.37329e-020 8.60581 	-0.0611083 	-5.41421e-020 8.58145 	-0.0604707 	-1.45495e-020 8.58422 	-0.0619961 	8.43826e-020 8.58695 	-0.0635232 	1.83309e-019 8.5769 	-0.0639539 	1.91857e-019 8.55413 	-0.0632675 	1.09467e-019 8.53137 	-0.0625805 	2.70779e-020 8.53293 	-0.0641411 	1.57352e-020 8.53444 	-0.0657032 	4.38902e-021 8.52487 	-0.0661067 	4.43649e-022 8.50354 	-0.0653819 	5.04635e-021 8.48224 	-0.0646565 	9.65084e-021 8.48273 	-0.0662433 	4.14044e-021 8.48318 	-0.0678316 	-1.37492e-021 8.4741 	-0.0682089 	-2.07696e-020 8.45408 	-0.0674566 	-7.07129e-020 8.43408 	-0.0667037 	-1.20658e-019 8.43365 	-0.0683021 	-2.51396e-019 8.43316 	-0.069902 	-3.82129e-019 8.42458 	-0.0702542 	-3.67006e-019 8.40574 	-0.0694905 	-2.17153e-019 8.38693 	-0.0687262 	-6.73022e-020 8.38567 	-0.0703237 	5.64318e-020 8.38434 	-0.071919 	1.79821e-019 8.37598 	-0.0722174 	1.77442e-019 8.35854 	-0.0714939 	9.03516e-020 8.34079 	-0.0707348 	3.50125e-022 8.33881 	-0.0723273 	-8.89811e-020 8.33592 	-0.073742 	-1.67203e-019 8.32772 	-0.0740463 	-1.76489e-019 8.31245 	-0.0734867 	-1.14286e-019 8.29568 	-0.0727412 	-3.67378e-020 8.29305 	-0.0743246 	-2.55089e-020 8.2889 	-0.0755574 	-1.43791e-020 8.28085 	-0.0758691 	-3.50269e-021 8.26748 	-0.0754778 	1.39371e-020 8.25159 	-0.0747524 	3.44967e-020 8.2484 	-0.0763239 	1.27305e-020 8.24323 	-0.0773764 	-2.40539e-021 8.23531 	-0.077697 	-8.19852e-021 8.22359 	-0.077476 	-3.00732e-021 8.20851 	-0.0767758 	1.18975e-020 8.20482 	-0.0783345 	-4.59557e-021 8.19884 	-0.0792112 	-1.54765e-020 8.19106 	-0.0795423 	-2.18681e-020 8.18077 	-0.0794911 	-3.40758e-020 8.16643 	-0.0788201 	-5.57054e-020 8.16229 	-0.0803654 	5.27022e-020 8.15569 	-0.081072 	8.71971e-020 8.14804 	-0.0814151 	8.96616e-020 8.13899 	-0.0815321 	7.01446e-020 8.12532 	-0.0808936 	-2.26752e-020 8.12078 	-0.0824258 	6.88746e-020 8.11373 	-0.0829689 	8.61651e-020 8.10619 	-0.0833256 	8.94366e-020 8.09821 	-0.083608 	8.65313e-020 8.08516 	-0.0830044 	1.03536e-020 8.08027 	-0.0845241 	-5.6652e-022 8.07289 	-0.084911 	-4.8481e-022 8.06547 	-0.0852826 	-2.51419e-022 8.05803 	-0.0856544 	-1.80491e-023 8.04592 	-0.0851603 	1.83579e-020 8.04045 	-0.0865191 	0 8.03314 	-0.0869065 	0 8.02582 	-0.0872943 	0 8.01848 	-0.0876822 	0 8.00759 	-0.0873688 	1.53562e-020 8.00164 	-0.0885588 	0 7.99443 	-0.0889637 	0 7.9872 	-0.0893689 	0 7.97995 	-0.0897744 	0 7.97012 	-0.0896379 	0 7.96381 	-0.0906669 	0 7.95669 	-0.0910906 	0 7.94955 	-0.0915145 	0 7.94239 	-0.0919387 	0 7.93348 	-0.091975 	-8.67085e-021 7.92692 	-0.0928511 	0 7.91988 	-0.0932947 	0 7.91282 	-0.0937385 	0 7.90574 	-0.0941827 	0 7.89764 	-0.0943878 	-1.097e-020 7.89091 	-0.0951185 	0 7.88394 	-0.0955831 	0 7.87695 	-0.0960479 	0 7.86995 	-0.0965131 	0 7.86255 	-0.0968828 	-4.46333e-021 7.85787 	-0.0973238 	-6.00438e-021 7.85312 	-0.0976587 	-1.31234e-020 7.84837 	-0.0979937 	-2.02431e-020 7.8436 	-0.0983289 	-2.73632e-020 7.83896 	-0.098655 	-3.42892e-020 7.8367 	-0.0988093 	-3.73413e-020 7.83445 	-0.0989637 	-4.03933e-020 7.83219 	-0.0991181 	-4.34451e-020 7.82993 	-0.0992725 	-4.64969e-020 7.82792 	-0.099378 	-4.95508e-020 7.8208 	-0.0999334 	-4.83957e-020 7.81375 	-0.100445 	-4.77768e-020 7.80669 	-0.100957 	-4.71552e-020 7.7996 	-0.101469 	-4.6531e-020 7.79354 	-0.101782 	-4.81813e-020 7.78616 	-0.102498 	-3.77462e-020 7.77916 	-0.103034 	-2.72996e-020 7.77215 	-0.10357 	-1.68516e-020 7.76511 	-0.104106 	-6.40223e-021 7.75986 	-0.104297 	0 7.75222 	-0.105171 	-2.81983e-021 7.74527 	-0.105732 	-7.63277e-021 7.73829 	-0.106294 	-1.2445e-020 7.73128 	-0.106856 	-1.72565e-020 7.72683 	-0.106933 	-2.20329e-020 7.71893 	-0.10796 	-5.07422e-020 7.712 	-0.108548 	-7.04926e-020 7.70505 	-0.109137 	-9.02446e-020 7.69808 	-0.109725 	-1.09998e-019 7.69439 	-0.109694 	-1.03307e-019 7.68621 	-0.110872 	-8.12296e-020 7.67931 	-0.111488 	-7.01293e-020 7.67239 	-0.112105 	-5.90229e-020 7.66544 	-0.112721 	-4.79103e-020 7.66249 	-0.112589 	-6.89229e-020 7.65404 	-0.113914 	-8.21531e-020 7.64715 	-0.11456 	-6.36794e-020 7.64024 	-0.115206 	-4.52105e-020 7.63368 	-0.115785 	-2.54853e-020 7.63108 	-0.115626 	7.82816e-021 7.62263 	-0.116981 	1.22236e-020 7.61548 	-0.117772 	8.75631e-021 7.60858 	-0.118449 	3.70807e-021 7.60279 	-0.118917 	0 7.60013 	-0.11881 	0 7.5917 	-0.120178 	0 7.58424 	-0.121127 	0 7.57734 	-0.121836 	0 7.5723 	-0.122201 	0 7.56957 	-0.122146 	0 7.56116 	-0.12353 	0 7.55339 	-0.124634 	-7.71708e-021 7.54648 	-0.125375 	-2.54421e-020 7.54217 	-0.125643 	-4.32163e-020 7.53936 	-0.125641 	-6.10197e-020 7.53096 	-0.127041 	-4.1844e-020 7.52288 	-0.128297 	-2.16903e-020 7.51595 	-0.129072 	1.70757e-021 7.51235 	-0.12925 	9.21189e-021 7.50945 	-0.1293 	1.33349e-020 7.50105 	-0.130719 	4.59211e-020 7.49264 	-0.132124 	7.82122e-020 7.48576 	-0.132922 	9.68295e-020 7.48277 	-0.133025 	8.18978e-020 7.47978 	-0.133129 	6.69648e-020 7.47138 	-0.134568 	4.2968e-020 7.46293 	-0.136007 	1.89628e-020 7.45649 	-0.136819 	2.00838e-021 7.4534 	-0.136976 	1.13782e-020 7.45031 	-0.137132 	2.07487e-020 7.4419 	-0.138593 	8.42059e-020 7.43343 	-0.140054 	1.47666e-019 7.42739 	-0.140896 	1.48312e-019 7.42419 	-0.141106 	8.54668e-020 7.42098 	-0.141316 	2.26196e-020 7.41255 	-0.142799 	1.40284e-020 7.40407 	-0.144284 	5.44076e-021 7.39839 	-0.145157 	5.62901e-021 7.39507 	-0.14542 	1.47794e-020 7.39174 	-0.145683 	2.39308e-020 7.38328 	-0.147191 	8.59421e-020 7.37477 	-0.1487 	1.47956e-019 7.36946 	-0.149605 	1.48636e-019 7.366 	-0.149921 	8.72652e-020 7.36254 	-0.150238 	2.58926e-020 7.35404 	-0.151772 	1.75459e-020 7.34563 	-0.153283 	9.19896e-021 7.34065 	-0.154197 	7.56482e-022 7.33693 	-0.154615 	0 7.33332 	-0.154984 	0 7.32478 	-0.156545 	0 7.31709 	-0.157952 	0 7.31199 	-0.158907 	0 7.3078 	-0.159503 	0 7.30404 	-0.159925 	0 7.29545 	-0.161514 	0 7.28845 	-0.162821 	0 7.28323 	-0.163816 	0 7.27857 	-0.164589 	6.83543e-021 7.27464 	-0.165064 	2.27753e-020 7.26598 	-0.166681 	5.23551e-021 7.25966 	-0.167891 	6.04465e-021 7.25432 	-0.168928 	1.46624e-020 7.24917 	-0.169874 	2.40464e-020 7.24507 	-0.170401 	3.69505e-020 7.23634 	-0.172048 	1.23547e-019 7.23067 	-0.173165 	1.33742e-019 7.22518 	-0.174243 	1.38364e-019 7.21966 	-0.175322 	1.42964e-019 7.21528 	-0.17594 	4.60265e-020 7.20702 	-0.177523 	1.34143e-019 7.20142 	-0.178643 	1.2231e-019 7.19578 	-0.179763 	1.10454e-019 7.19011 	-0.180883 	9.85758e-020 7.18522 	-0.181681 	3.81268e-020 7.17762 	-0.183165 	3.14805e-020 7.17187 	-0.184326 	3.19525e-020 7.16607 	-0.185487 	3.24295e-020 7.16024 	-0.186648 	3.29116e-020 7.15483 	-0.187625 	4.80491e-020 7.14788 	-0.189011 	5.40052e-020 7.14196 	-0.190214 	5.15226e-020 7.136 	-0.191416 	4.90244e-020 7.13 	-0.192618 	4.65107e-020 7.12408 	-0.193771 	3.9683e-020 7.12157 	-0.194275 	3.33021e-020 7.11935 	-0.194731 	3.11735e-020 7.11712 	-0.195186 	2.90467e-020 7.11489 	-0.195641 	2.69217e-020 7.1127 	-0.196085 	2.48495e-020 7.10869 	-0.196874 	2.06325e-020 7.10466 	-0.197663 	1.64188e-020 7.10062 	-0.198452 	1.22085e-020 7.09656 	-0.199241 	8.00141e-021 7.09321 	-0.199954 	3.77431e-022 7.08636 	-0.201312 	-2.41951e-022 7.0799 	-0.202594 	-1.73981e-022 7.0734 	-0.203876 	-1.05987e-022 7.06685 	-0.205157 	-3.79704e-023 7.06215 	-0.206243 	0 7.05442 	-0.207763 	-6.98441e-021 7.04776 	-0.209084 	-2.08093e-020 7.04105 	-0.210406 	-3.46284e-020 7.0343 	-0.211727 	-4.84418e-020 7.03058 	-0.212735 	-5.95138e-020 7.02194 	-0.214414 	-4.6823e-020 7.01507 	-0.215775 	-3.1561e-020 7.00816 	-0.217135 	-1.62931e-020 7.00121 	-0.218493 	-1.05625e-021 6.99845 	-0.219425 	6.30335e-021 6.98917 	-0.221212 	-1.33809e-022 6.98179 	-0.222662 	1.11271e-020 6.97465 	-0.22406 	2.5127e-020 6.96872 	-0.225334 	4.12643e-020 6.96573 	-0.22631 	6.25037e-020 6.95623 	-0.228128 	4.04044e-020 6.94787 	-0.229743 	2.18829e-020 6.9405 	-0.231179 	6.51902e-021 6.93559 	-0.232367 	-1.7145e-021 6.93235 	-0.233386 	-5.06174e-021 6.92263 	-0.235235 	-5.68995e-020 6.91326 	-0.237014 	-9.97854e-020 6.90565 	-0.238486 	-1.03381e-019 6.90177 	-0.239588 	-6.71321e-020 6.89828 	-0.240649 	-2.63596e-020 6.88832 	-0.242528 	-6.7709e-020 6.8783 	-0.244406 	-1.09066e-019 6.87094 	-0.245891 	-1.09404e-019 6.86723 	-0.246992 	-6.59678e-020 6.86348 	-0.248092 	-2.25306e-020 6.85327 	-0.25 	-6.6103e-020 6.843 	-0.251908 	-1.09681e-019 6.83589 	-0.253434 	-1.06881e-019 6.83191 	-0.254572 	-5.76177e-020 6.82789 	-0.255711 	-8.3506e-021 6.81743 	-0.257646 	-5.54305e-021 6.8069 	-0.259582 	-2.73765e-021 6.80004 	-0.261149 	0 6.79578 	-0.262323 	0 6.79149 	-0.263498 	0 6.78076 	-0.26546 	0 6.77077 	-0.267347 	0 6.76403 	-0.268919 	0 6.75881 	-0.270238 	0 6.75422 	-0.271448 	0 6.74322 	-0.273435 	0 6.73437 	-0.275214 	-1.69958e-021 6.72736 	-0.276814 	-4.85107e-021 6.72094 	-0.27831 	-4.66191e-021 6.71606 	-0.279552 	3.61588e-021 6.70478 	-0.281563 	-5.47193e-020 6.69709 	-0.283232 	-5.82118e-020 6.68979 	-0.284859 	-5.50493e-020 6.68243 	-0.286486 	-5.18651e-020 6.67698 	-0.287803 	-2.28688e-021 6.66644 	-0.28974 	-8.13555e-021 6.6589 	-0.291393 	6.48893e-022 6.6513 	-0.293045 	9.43466e-021 6.64364 	-0.294697 	1.82217e-020 6.63692 	-0.296192 	2.09771e-020 6.6276 	-0.298011 	4.11494e-020 6.61976 	-0.299687 	4.14099e-020 6.61185 	-0.301362 	4.16532e-020 6.6039 	-0.303037 	4.18792e-020 6.59588 	-0.304712 	4.20354e-020 6.59585 	-0.304716 	4.20376e-020 6.59584 	-0.304721 	4.20332e-020 6.59582 	-0.304725 	4.20288e-020 6.5958 	-0.304729 	4.20244e-020 6.59578 	-0.304733 	4.202e-020 6.5872 	-0.306423 	3.97897e-020 6.57856 	-0.308112 	3.75645e-020 6.56985 	-0.309801 	3.53443e-020 6.56109 	-0.31149 	3.31291e-020 6.55335 	-0.313051 	2.26386e-020 6.54384 	-0.314907 	2.92524e-020 6.53483 	-0.316619 	2.30445e-020 6.52576 	-0.318332 	1.68483e-020 6.51662 	-0.320043 	1.0664e-020 6.50965 	-0.321497 	-1.46528e-020 6.49918 	-0.323515 	-7.40534e-021 6.48981 	-0.325245 	-9.34806e-021 6.48038 	-0.326974 	-1.13297e-020 6.4716 	-0.328621 	-1.26277e-020 6.46474 	-0.330042 	-1.20511e-020 6.4539 	-0.332071 	-1.07153e-020 6.44354 	-0.333967 	-7.3579e-021 6.43374 	-0.33571 	-1.65347e-021 6.4258 	-0.337236 	3.78042e-021 6.4186 	-0.338673 	9.10635e-021 6.40738 	-0.340711 	4.7509e-021 6.39608 	-0.342748 	3.99407e-022 6.38625 	-0.344479 	0 6.37875 	-0.345929 	0 6.3712 	-0.34738 	0 6.35959 	-0.349424 	0 6.34789 	-0.351469 	0 6.33827 	-0.353228 	0 6.33042 	-0.354689 	0 6.3225 	-0.35615 	0 6.31049 	-0.358199 	0 6.29871 	-0.360214 	5.18887e-022 6.28932 	-0.361962 	5.14628e-021 6.28077 	-0.363503 	9.78663e-021 6.27249 	-0.364972 	1.44342e-020 6.26008 	-0.367023 	1.07191e-020 6.24927 	-0.368892 	9.74116e-021 6.23949 	-0.370643 	1.05615e-020 6.2298 	-0.372359 	1.16122e-020 6.22114 	-0.373832 	1.43003e-020 6.20861 	-0.375851 	-2.54624e-021 6.19852 	-0.377601 	-8.7045e-021 6.18836 	-0.379351 	-1.485e-020 6.17813 	-0.381101 	-2.09826e-020 6.16843 	-0.382719 	-1.91244e-020 6.15981 	-0.3841 	-1.57502e-020 6.15222 	-0.385367 	-1.33476e-020 6.14459 	-0.386635 	-1.09468e-020 6.13692 	-0.387901 	-8.54772e-021 6.12959 	-0.389107 	-6.26688e-021 6.1267 	-0.3896 	-6.06431e-021 6.12381 	-0.390093 	-5.86332e-021 6.1209 	-0.390586 	-5.66392e-021 6.118 	-0.391079 	-5.4661e-021 6.11513 	-0.391528 	-2.05217e-021 6.10486 	-0.393325 	5.12315e-021 6.09439 	-0.395071 	5.81843e-021 6.08385 	-0.396817 	6.53874e-021 6.07324 	-0.398561 	7.28421e-021 6.06277 	-0.400103 	-1.99238e-020 6.05255 	-0.402077 	-6.08907e-020 6.04168 	-0.403814 	-7.02994e-020 6.03075 	-0.405551 	-7.97439e-020 6.0198 	-0.407227 	-7.57736e-020 6.00904 	-0.408659 	-1.75927e-020 5.99852 	-0.410663 	-1.51828e-020 5.98761 	-0.412536 	-1.02023e-020 5.97627 	-0.414262 	-2.31572e-021 5.96509 	-0.415761 	7.88925e-021 5.95393 	-0.417183 	1.88989e-020 5.943 	-0.41917 	3.6279e-020 5.93198 	-0.421157 	5.36674e-020 5.92049 	-0.422845 	5.48053e-020 5.90899 	-0.424253 	3.92356e-020 5.89741 	-0.425661 	2.36682e-020 5.88606 	-0.4276