# vtk DataFile Version 2.0
track0
ASCII
DATASET POLYDATA
POINTS 11930 float
-0.0205 0.001 1e-005
-0.0203851 0.00100536 1.50239e-005
-0.0202701 0.00101047 1.96633e-005
-0.0201551 0.00101535 2.3971e-005
-0.0200401 0.00102 2.79422e-005
-0.0198624 0.00102682 3.35497e-005
-0.0196934 0.00103276 3.80971e-005
-0.0195243 0.00103809 4.16128e-005
-0.0193551 0.00104282 4.41057e-005
-0.019186 0.00104693 4.55851e-005
-0.0190172 0.00105043 4.60595e-005
-0.0187132 0.00105594 4.60595e-005
-0.0184093 0.0010608 4.60595e-005
-0.0181054 0.00106515 4.60595e-005
-0.0178014 0.00106896 4.60595e-005
-0.0174976 0.00107225 4.60595e-005
-0.0172058 0.00107512 4.60595e-005
-0.016914 0.00107791 4.60595e-005
-0.0166222 0.00108063 4.60595e-005
-0.0163305 0.00108328 4.60595e-005
-0.0160387 0.00108587 4.60595e-005
-0.0157586 0.00108826 4.60595e-005
-0.0154784 0.00109058 4.60595e-005
-0.0151983 0.00109281 4.60595e-005
-0.0149182 0.00109497 4.60595e-005
-0.0146381 0.00109704 4.60595e-005
-0.0143692 0.00109891 4.60595e-005
-0.0141002 0.00110068 4.60595e-005
-0.0138313 0.00110237 4.60595e-005
-0.0135624 0.00110399 4.60595e-005
-0.0132934 0.00110553 4.60595e-005
-0.0130353 0.00110694 4.60595e-005
-0.0127771 0.00110828 4.60595e-005
-0.0125189 0.00110959 4.60595e-005
-0.0122607 0.00111087 4.60595e-005
-0.0120025 0.0011121 4.60595e-005
-0.0117547 0.00111325 4.60595e-005
-0.0115068 0.00111438 4.60595e-005
-0.0112589 0.00111549 4.60595e-005
-0.0110111 0.00111658 4.60595e-005
-0.0107632 0.00111765 4.60595e-005
-0.0105252 0.00111866 4.60595e-005
-0.0102873 0.00111965 4.60595e-005
-0.0100493 0.00112064 4.60595e-005
-0.00981133 0.00112161 4.60595e-005
-0.00957337 0.00112257 4.60595e-005
-0.00934491 0.00112348 4.60595e-005
-0.00911645 0.00112437 4.60595e-005
-0.00888799 0.00112526 4.60595e-005
-0.00865954 0.00112614 4.60595e-005
-0.00843108 0.00112701 4.60595e-005
-0.00821175 0.00112783 4.60595e-005
-0.00799242 0.00112865 4.60595e-005
-0.00777309 0.00112947 4.60595e-005
-0.00755376 0.00113027 4.60595e-005
-0.00733443 0.00113108 4.60595e-005
-0.00712387 0.00113185 4.60595e-005
-0.0069133 0.00113261 4.60595e-005
-0.00670273 0.00113337 4.60595e-005
-0.00649216 0.00113413 4.60595e-005
-0.0062816 0.00113488 4.60595e-005
-0.00607944 0.00113561 4.60595e-005
-0.00587729 0.00113633 4.60595e-005
-0.00567514 0.00113704 4.60595e-005
-0.00547298 0.00113776 4.60595e-005
-0.00527083 0.00113848 4.60595e-005
-0.00507675 0.00113917 4.60595e-005
-0.00488267 0.00113985 4.60595e-005
-0.0046886 0.00114054 4.60595e-005
-0.00449452 0.00114122 4.60595e-005
-0.00430044 0.00114191 4.60595e-005
-0.00411412 0.00114257 4.60595e-005
-0.0039278 0.00114322 4.60595e-005
-0.00374147 0.00114388 4.60595e-005
-0.00355515 0.00114453 4.60595e-005
-0.00336883 0.00114519 4.60595e-005
-0.00318995 0.00114583 4.60595e-005
-0.00301107 0.00114646 4.60595e-005
-0.00283219 0.00114709 4.60595e-005
-0.00265331 0.00114772 4.60595e-005
-0.00247443 0.00114835 4.60595e-005
-0.0023027 0.00114897 4.60595e-005
-0.00213097 0.00114958 4.60595e-005
-0.00195924 0.00115019 4.60595e-005
-0.0017875 0.0011508 4.60595e-005
-0.00161577 0.00115142 4.60595e-005
-0.0014509 0.00115201 4.60595e-005
-0.00128603 0.00115261 4.60595e-005
-0.00112116 0.0011532 4.60595e-005
-0.000956289 0.00115379 4.60595e-005
-0.000791418 0.0011544 4.60595e-005
-0.000633135 0.00115499 4.60595e-005
-0.000474851 0.00115558 4.60595e-005
-0.000316567 0.00115616 4.60595e-005
-0.000158284 0.00115676 4.60595e-005
0 0.00115736 4.60595e-005
0.000105677 0.00115777 4.60595e-005
0.000211355 0.00115817 4.60595e-005
0.000317032 0.00115858 4.60595e-005
0.00042271 0.00115899 4.60595e-005
0.000528387 0.00115941 4.60595e-005
0.000634886 0.00115984 4.60595e-005
0.000741385 0.00116026 4.60595e-005
0.000847885 0.00116069 4.60595e-005
0.000954384 0.00116112 4.60595e-005
0.00106088 0.00116156 4.60595e-005
0.00116821 0.00116202 4.60595e-005
0.00127554 0.00116247 4.60595e-005
0.00138286 0.00116292 4.60595e-005
0.00149019 0.00116338 4.60595e-005
0.00159752 0.00116384 4.60595e-005
0.00170568 0.00116432 4.60595e-005
0.00181384 0.00116479 4.60595e-005
0.001922 0.00116527 4.60595e-005
0.00203016 0.00116574 4.60595e-005
0.00213833 0.00116622 4.60595e-005
0.00224733 0.00116671 4.60595e-005
0.00235633 0.0011672 4.60595e-005
0.00246533 0.00116769 4.60595e-005
0.00257434 0.00116818 4.60595e-005
0.00268334 0.00116868 4.60595e-005
0.00279319 0.00116917 4.60595e-005
0.00290304 0.00116968 4.60595e-005
0.00301289 0.00117018 4.60595e-005
0.00312274 0.00117069 4.60595e-005
0.00323259 0.00117119 4.60595e-005
0.00334329 0.00117169 4.60595e-005
0.003454 0.00117221 4.60595e-005
0.0035647 0.00117273 4.60595e-005
0.0036754 0.00117325 4.60595e-005
0.00378611 0.00117376 4.60595e-005
0.00389767 0.00117427 4.60595e-005
0.00400924 0.0011748 4.60595e-005
0.0041208 0.00117533 4.60595e-005
0.00423237 0.00117586 4.60595e-005
0.00434393 0.00117638 4.60595e-005
0.00445636 0.00117689 4.60595e-005
0.00456879 0.00117742 4.60595e-005
0.00468123 0.00117796 4.60595e-005
0.00479366 0.0011785 4.60595e-005
0.00490609 0.00117903 4.60595e-005
0.0050194 0.00117954 4.60595e-005
0.0051327 0.00118008 4.60595e-005
0.00524601 0.00118062 4.60595e-005
0.00535931 0.00118116 4.60595e-005
0.00547262 0.0011817 4.60595e-005
0.00558681 0.00118222 4.60595e-005
0.005701 0.00118276 4.60595e-005
0.00581518 0.0011833 4.60595e-005
0.00592937 0.00118384 4.60595e-005
0.00604356 0.00118438 4.60595e-005
0.00615863 0.0011849 4.60595e-005
0.00627371 0.00118544 4.60595e-005
0.00638878 0.00118598 4.60595e-005
0.00650386 0.00118653 4.60595e-005
0.00661893 0.00118707 4.60595e-005
0.0067349 0.00118759 4.60595e-005
0.00685087 0.00118813 4.60595e-005
0.00696684 0.00118867 4.60595e-005
0.00708281 0.00118921 4.60595e-005
0.00719878 0.00118975 4.60595e-005
0.00731565 0.00119027 4.60595e-005
0.00743252 0.00119081 4.60595e-005
0.00754939 0.00119134 4.60595e-005
0.00766626 0.00119188 4.60595e-005
0.00778313 0.00119241 4.60595e-005
0.00790091 0.00119293 4.60595e-005
0.00801869 0.00119347 4.60595e-005
0.00813647 0.001194 4.60595e-005
0.00825425 0.00119453 4.60595e-005
0.00837203 0.00119506 4.60595e-005
0.00849073 0.00119558 4.60595e-005
0.00860942 0.0011961 4.60595e-005
0.00872812 0.00119663 4.60595e-005
0.00884682 0.00119715 4.60595e-005
0.00896551 0.00119768 4.60595e-005
0.00908513 0.00119819 4.60595e-005
0.00920475 0.00119871 4.60595e-005
0.00932437 0.00119923 4.60595e-005
0.00944398 0.00119975 4.60595e-005
0.0095636 0.00120027 4.60595e-005
0.00968415 0.00120078 4.60595e-005
0.0098047 0.00120129 4.60595e-005
0.00992525 0.0012018 4.60595e-005
0.0100458 0.00120231 4.60595e-005
0.0101663 0.00120282 4.60595e-005
0.0102878 0.00120333 4.60595e-005
0.0104093 0.00120383 4.60595e-005
0.0105308 0.00120434 4.60595e-005
0.0106523 0.00120484 4.60595e-005
0.0107738 0.00120534 4.60595e-005
0.0108962 0.00120583 4.60595e-005
0.0110186 0.00120633 4.60595e-005
0.0111411 0.00120683 4.60595e-005
0.0112635 0.00120732 4.60595e-005
0.0113859 0.00120781 4.60595e-005
0.0115093 0.0012083 4.60595e-005
0.0116327 0.00120879 4.60595e-005
0.0117561 0.00120927 4.60595e-005
0.0118795 0.00120976 4.60595e-005
0.0120028 0.00121024 4.60595e-005
0.0121272 0.00121071 4.60595e-005
0.0122515 0.00121119 4.60595e-005
0.0123759 0.00121167 4.60595e-005
0.0125002 0.00121214 4.60595e-005
0.0126245 0.00121261 4.60595e-005
0.0127498 0.00121307 4.60595e-005
0.0128752 0.00121354 4.60595e-005
0.0130005 0.001214 4.60595e-005
0.0131258 0.00121446 4.60595e-005
0.0132511 0.00121492 4.60595e-005
0.0133774 0.00121536 4.60595e-005
0.0135036 0.00121582 4.60595e-005
0.0136299 0.00121627 4.60595e-005
0.0137562 0.00121671 4.60595e-005
0.0138825 0.00121715 4.60595e-005
0.0140098 0.00121759 4.60595e-005
0.014137 0.00121802 4.60595e-005
0.0142643 0.00121846 4.60595e-005
0.0143915 0.00121889 4.60595e-005
0.0145188 0.00121931 4.60595e-005
0.0146471 0.00121972 4.60595e-005
0.0147753 0.00122014 4.60595e-005
0.0149036 0.00122056 4.60595e-005
0.0150318 0.00122097 4.60595e-005
0.0151601 0.00122137 4.60595e-005
0.0152893 0.00122177 4.60595e-005
0.0154186 0.00122217 4.60595e-005
0.0155478 0.00122256 4.60595e-005
0.0156771 0.00122295 4.60595e-005
0.0158063 0.00122334 4.60595e-005
0.0159366 0.00122371 4.60595e-005
0.0160668 0.00122409 4.60595e-005
0.0161971 0.00122446 4.60595e-005
0.0163274 0.00122482 4.60595e-005
0.0164576 0.00122518 4.60595e-005
0.0165889 0.00122554 4.60595e-005
0.0167201 0.00122589 4.60595e-005
0.0168514 0.00122623 4.60595e-005
0.0169827 0.00122657 4.60595e-005
0.0171139 0.0012269 4.60595e-005
0.0172037 0.00122712 4.60595e-005
0.0172935 0.00122734 4.60595e-005
0.0173832 0.00122756 4.60595e-005
0.017473 0.00122777 4.60595e-005
0.01756 0.00122798 4.60595e-005
0.0176031 0.00122808 4.60595e-005
0.0176462 0.00122818 4.60595e-005
0.0176892 0.00122827 4.60595e-005
0.0177323 0.00122837 4.60595e-005
0.0177754 0.00122847 4.60595e-005
0.0179087 0.00122877 4.60595e-005
0.018042 0.00122906 4.60595e-005
0.0181753 0.00122934 4.60595e-005
0.0183087 0.00122961 4.60595e-005
0.018442 0.00122988 4.60595e-005
0.0185763 0.00123014 4.60595e-005
0.0187107 0.0012304 4.60595e-005
0.018845 0.00123065 4.60595e-005
0.0189794 0.00123089 4.60595e-005
0.0191137 0.00123112 4.60595e-005
0.0192491 0.00123134 4.60595e-005
0.0193845 0.00123156 4.60595e-005
0.0195199 0.00123176 4.60595e-005
0.0196553 0.00123197 4.60595e-005
0.0197907 0.00123216 4.60595e-005
0.0199272 0.00123234 4.60595e-005
0.0200636 0.00123251 4.60595e-005
0.0202001 0.00123268 4.60595e-005
0.0203365 0.00123284 4.60595e-005
0.020473 0.00123299 4.60595e-005
0.0206105 0.00123312 4.60595e-005
0.020748 0.00123326 4.60595e-005
0.0208855 0.00123338 4.60595e-005
0.021023 0.00123349 4.60595e-005
0.0211606 0.00123359 4.60595e-005
0.0212991 0.00123368 4.60595e-005
0.0214377 0.00123376 4.60595e-005
0.0215763 0.00123384 4.60595e-005
0.0217149 0.0012339 4.60595e-005
0.0218535 0.00123395 4.60595e-005
0.0219931 0.001234 4.60595e-005
0.0221328 0.00123403 4.60595e-005
0.0222724 0.00123405 4.60595e-005
0.0224121 0.00123406 4.60595e-005
0.0225517 0.00123406 4.60595e-005
0.0226925 0.00123405 4.60595e-005
[...]
POINT_DATA 11930
 FIELD attributes 2
p 1 11930 float
-1546.92 -1534.34 -1520.55 -1506.9 -1493.41 -1472.8 -1458.15 -1443.42 -1428.62 -1413.74 -1393 -1344.94 -1296.97 -1249.07 -1201.23 -1158.85 -1127.29 -1101.93 -1076.58 -1051.24 -1034.51 -1022.77 -1013.29 -1003.82 -994.354 -986.727 -979.898 -971.946 -963.993 -956.04 -946.998 -938.51 -929.829 -921.145 -912.479 -904.042 -896.036 -888.805 -881.663 -874.671 -868.591 -862.78 -857.539 -852.416 -847.446 -843.064 -838.868 -834.895 -830.989 -827.17 -823.596 -820.168 -816.868 -813.621 -810.446 -807.428 -804.521 -801.74 -799.024 -796.39 -793.898 -791.484 -789.183 -786.953 -784.806 -782.78 -780.802 -778.907 -777.075 -775.316 -773.644 -771.994 -770.405 -768.874 -767.407 -766.008 -764.601 -763.242 -761.933 -760.687 -759.494 -758.267 -757.084 -755.954 -754.893 -753.883 -752.809 -751.763 -750.759 -749.828 -748.942 -747.967 -747.043 -746.208 -745.492 -744.839 -744.106 -743.436 -742.882 -742.466 -742.135 -741.619 -741.148 -740.737 -740.423 -740.184 -739.748 -739.416 -739.202 -739.108 -739.131 -738.958 -738.871 -738.86 -738.918 -739.059 -739.148 -739.23 -739.307 -739.379 -739.443 -739.707 -739.875 -739.986 -740.04 -739.986 -740.374 -740.593 -740.734 -740.792 -740.647 -741.114 -741.357 -741.52 -741.597 -741.394 -741.887 -742.113 -742.268 -742.349 -742.102 -742.557 -742.731 -742.851 -742.921 -742.656 -743.039 -743.167 -743.264 -743.336 -743.104 -743.412 -743.514 -743.604 -743.688 -743.521 -743.755 -743.835 -743.913 -743.992 -743.895 -744.05 -744.111 -744.172 -744.233 -744.196 -744.291 -744.343 -744.395 -744.447 -744.462 -744.524 -744.579 -744.634 -744.688 -744.745 -744.794 -744.854 -744.914 -744.974 -745.056 -745.105 -745.17 -745.234 -745.299 -745.392 -745.453 -745.524 -745.595 -745.665 -745.761 -745.843 -745.924 -746.004 -746.085 -746.178 -746.287 -746.381 -746.475 -746.568 -746.66 -746.797 -746.905 -747.013 -747.121 -747.212 -747.373 -747.494 -747.615 -747.737 -747.829 -748.009 -748.142 -748.276 -748.409 -748.507 -748.7 -748.846 -748.992 -749.137 -749.246 -749.449 -749.608 -749.766 -749.925 -750.049 -750.258 -750.429 -750.6 -750.772 -750.915 -751.128 -751.313 -751.499 -751.684 -751.851 -752.069 -752.27 -752.471 -752.672 -752.866 -753.017 -753.163 -753.308 -753.453 -753.594 -753.664 -753.734 -753.804 -753.873 -753.954 -754.17 -754.395 -754.621 -754.847 -755.118 -755.315 -755.554 -755.792 -756.03 -756.345 -756.53 -756.781 -757.032 -757.283 -757.635 -757.813 -758.077 -758.34 -758.604 -758.986 -759.164 -759.44 -759.716 -759.992 -760.396 -760.582 -760.87 -761.158 -761.446 -761.863 -762.065 -762.364 -762.663 -762.963 -763.383 -763.608 -763.918 -764.228 -764.538 -764.952 -765.207 -765.527 -765.847 -766.167 -766.568 -766.857 -767.186 -767.516 -767.846 -768.227 -768.554 -768.892 -769.231 -769.57 -769.926 -770.292 -770.639 -770.986 -771.333 -771.662 -772.064 -772.421 -772.775 -773.124 -773.429 -773.86 -774.232 -774.593 -774.938 -775.226 -775.679 -776.069 -776.437 -776.775 -777.05 -777.52 -777.929 -778.302 -778.631 -778.901 -779.381 -779.81 -780.19 -780.511 -780.78 -781.27 -781.72 -782.106 -782.418 -782.688 -783.185 -783.653 -784.044 -784.344 -784.615 -785.114 -785.597 -785.991 -786.278 -786.55 -787.044 -787.535 -787.928 -788.206 -788.483 -788.967 -789.451 -789.839 -790.124 -790.41 -790.881 -791.352 -791.738 -792.034 -792.33 -792.786 -793.242 -793.625 -793.933 -794.24 -794.68 -795.119 -795.499 -795.818 -796.136 -796.559 -796.982 -797.358 -797.686 -798.015 -798.42 -798.826 -799.197 -799.534 -799.872 -800.26 -800.65 -801.015 -801.359 -801.702 -802.075 -802.448 -802.807 -803.155 -803.503 -803.86 -804.217 -804.57 -804.919 -805.268 -805.61 -805.954 -806.299 -806.645 -806.992 -807.32 -807.652 -807.989 -808.329 -808.672 -808.986 -809.308 -809.634 -809.965 -810.301 -810.601 -810.913 -811.229 -811.547 -811.875 -812.161 -812.462 -812.766 -813.07 -813.385 -813.657 -813.946 -814.235 -814.524 -814.824 -815.081 -815.353 -815.626 -815.898 -816.181 -816.422 -816.676 -816.931 -817.186 -817.449 -817.674 -817.909 -818.145 -818.381 -818.623 -818.83 -819.045 -819.26 -819.476 -819.694 -819.872 -820.053 -820.235 -820.417 -820.589 -820.602 -820.615 -820.628 -820.641 -820.654 -820.823 -820.992 -821.161 -821.33 -821.498 -821.641 -821.782 -821.922 -822.063 -822.2 -822.316 -822.425 -822.535 -822.646 -822.75 -822.837 -822.914 -822.991 -823.069 -823.137 -823.194 -823.236 -823.278 -823.32 -823.348 -823.372 -823.376 -823.38 -823.381 -823.368 -823.353 -823.32 -823.282 -823.238 -823.182 -823.125 -823.054 -822.972 -822.879 -822.777 -822.675 -822.565 -822.436 -822.291 -822.14 -821.99 -821.839 -821.661 -821.46 -821.258 -821.058 -820.858 -820.628 -820.372 -820.116 -819.863 -819.61 -819.327 -819.015 -818.702 -818.393 -818.084 -817.745 -817.374 -817.003 -816.635 -816.267 -815.87 -815.437 -815.004 -814.575 -814.142 -813.681 -813.19 -812.694 -812.201 -811.696 -811.169 -810.622 -810.059 -809.499 -808.918 -808.324 -807.719 -807.088 -806.459 -805.799 -805.134 -804.469 -803.768 -803.063 -802.325 -801.588 -800.85 -800.087 -799.298 -798.486 -797.674 -796.862 -796.036 -795.16 -794.27 -793.381 -792.492 -791.602 -791.445 -791.287 -791.128 -790.97 -790.813 -790.008 -789.203 -788.398 -787.593 -786.776 -785.747 -784.704 -783.662 -782.62 -781.548 -780.454 -779.329 -778.205 -777.081 -775.909 -774.75 -773.542 -772.334 -771.116 -769.851 -768.608 -767.332 -766.04 -764.718 -763.366 -762.037 -760.694 -759.315 -757.886 -756.446 -755.029 -753.612 -752.141 -750.612 -749.084 -747.578 -746.072 -744.51 -742.891 -741.273 -739.676 -738.08 -736.426 -734.716 -733.006 -731.318 -729.616 -727.864 -726.079 -724.277 -722.497 -720.677 -718.832 -716.977 -715.081 -713.208 -711.27 -709.33 -707.391 -705.414 -703.422 -701.387 -699.353 -697.319 -695.27 -693.945 -692.603 -691.26 -689.918 -688.631 -687.837 -687.044 -686.251 -685.457 -684.653 -682.45 -680.237 -678.026 -675.814 -673.564 -671.289 -668.981 -666.674 -664.363 -661.992 -659.632 -657.242 -654.839 -652.402 -649.934 -647.479 -645.019 -642.521 -639.957 -637.393 -634.842 -632.291 -629.686 -627.027 -624.367 -621.721 -619.075 -616.365 -613.615 -610.861 -608.12 -605.346 -602.54 -599.724 -596.875 -594.039 -591.138 -588.238 -585.338 -582.414 -579.875 -577.305 -574.736 -572.167 -569.732 -569.283 -568.833 -568.384 -567.934 -567.481 -564.406 -561.328 -558.251 -555.175 -552.07 -548.92 -545.754 -542.587 -539.414 -536.202 -532.969 -529.726 -526.472 -523.186 -519.887 -516.567 -513.247 -509.9 -506.516 -503.132 -499.727 -496.322 -492.88 -489.414 -485.948 -482.46 -478.953 -475.425 -471.893 -468.346 -464.775 -461.167 -457.56 -453.953 -450.339 -448.42 -446.489 -444.558 -442.628 -440.752 -438.991 -437.229 -435.468 -433.707 -431.933 -428.187 -424.435 -420.684 -416.933 -413.143 -409.335 -405.515 -401.693 -397.849 -393.987 -390.109 -386.232 -382.335 -378.408 -374.479 -370.534 -366.591 -362.617 -358.626 -354.635 -350.627 -346.603 -342.563 -338.522 -334.471 -330.397 -326.298 -322.2 -318.102 -314.002 -313.27 -312.534 -311.799 -311.063 -310.334 -306.917 -303.501 -300.085 -296.669 -293.234 -289.037 -284.835 -280.634 -276.425 -272.192 -267.948 -263.702 -259.453 -255.176 -250.897 -246.606 -242.315 -238.006 -233.686 -229.364 -225.03 -220.686 -216.329 -211.972 -207.611 -203.234 -198.839 -194.445 -190.051 -185.656 -185.162 -184.666 -184.171 -183.675 -183.182 -179.248 -175.315 -171.382 -167.449 -163.5 -159.041 -154.581 -150.122 -145.655 -141.175 -136.686 -132.198 -127.707 -123.203 -118.696 -114.181 -109.666 -105.136 -100.607 -96.0773 -91.5378 -86.9898 -82.4398 -77.8903 -73.342 -71.0455 -68.7457 -66.4461 -64.1466 -61.8968 -59.62 -57.3433 -55.0667 -52.7903 -50.5085 -45.9241 -41.3426 -36.7617 -32.1786 -27.584 -22.9841 -18.3858 -13.7924 -9.19059 -4.58678 0.023121 4.63246 9.24673 13.8545 18.4637 23.0797 27.6979 32.3167 36.9351 41.5501 43.677 45.8044 47.9318 50.059 52.1469 54.6512 57.1554 59.6594 62.1633 64.6697 69.3021 73.9275 78.5524 83.1776 87.8061 92.4381 97.0696 101.691 106.311 110.934 115.56 120.186 124.809 129.425 134.039 138.657 143.27 147.883 152.495 157.108 157.374 157.64 157.905 158.171 158.436 162.78 167.124 171.467 175.81 180.151 184.759 189.358 193.953 198.542 203.132 207.723 212.314 216.896 221.465 226.037 230.609 235.174 239.735 244.296 248.852 250.438 252.021 253.603 255.185 256.748 259.716 262.685 265.654 268.622 271.585 276.125 280.652 285.179 289.697 294.214 298.728 303.242 307.743 312.229 316.717 321.204 325.68 330.15 334.62 339.084 340.73 342.371 344.012 345.652 347.273 350.085 352.897 355.708 358.52 361.323 365.757 370.179 374.599 379.008 383.415 387.814 392.213 396.598 400.965 405.336 409.699 414.047 418.39 422.733 427.075 427.723 428.37 429.015 429.661 430.304 433.978 437.651 441.324 444.996 448.655 452.948 457.236 461.516 465.776 470.037 474.288 478.536 482.765 486.987 491.205 494.213 497.207 500.199 503.191 506.13 507.337 508.544 509.751 510.957 512.158 516.32 520.475 524.63 528.774 532.908 537.026 541.144 545.243 549.324 553.407 557.473 561.52 565.561 569.601 573.641 573.956 574.271 574.584 574.898 575.211 578.904 582.597 586.29 589.978 593.646 597.612 601.577 605.52 609.441 613.362 617.267 621.156 625.029 628.902 632.767 633.594 634.416 635.236 636.056 636.875 639.883 642.892 645.901 648.904 651.887 655.672 659.454 663.211 666.94 670.669 674.379 678.071 681.739 685.408 689.062 689.889 690.71 691.529 692.348 693.169 695.965 698.761 701.557 704.347 707.118 710.689 714.257 717.752 721.176 724.597 727.998 731.467 735.008 738.549 742.12 742.891 743.52 744.102 744.684 745.272 747.746 750.219 752.69 755.005 756.812 759.084 761.437 764.907 769.729 774.546 778.799 782.225 784.467 786.712 789.054 789.389 789.724 790.06 790.291 790.444 792.379 794.427 796.477 799.195 802.138 805.113 808.034 810.858 813.681 816.493 816.544 816.595 816.643 816.692 816.74 819.449 822.156 824.861 827.474 830.027 832.642 835.228 837.733 840.236 842.709 842.905 843.096 843.278 843.461 843.645 845.887 848.127 850.363 852.508 854.593 856.846 859.072 861.123 863.171 865.134 865.486 865.821 866.129 866.437 866.755 868.294 869.827 871.356 872.778 874.117 875.703 877.283 878.628 879.836 880.986 881.449 881.843 882.162 882.481 882.83 883.388 883.943 884.494 884.964 885.339 885.895 886.433 886.682 886.656 886.621 886.456 886.051 885.472 884.886 884.138 884.135 884.132 884.13 884.126 884.12 882.935 881.728 880.506 879.122 877.41 875.472 873.523 871.143 868.333 865.511 862.427 858.85 855.116 851.375 847.557 847.161 846.714 846.259 845.805 845.337 841.016 836.68 832.329 827.92 822.996 817.175 811.169 804.761 797.538 790.299 782.584 774.858 766.491 757.792 748.957 739.594 728.921 718.1 707.278 696.09 692.567 689.04 685.512 681.983 678.104 669.258 660.405 651.547 642.683 633.775 620.091 604.237 588.351 571.265 551.8 531.361 511.277 493.768 479.783 465.791 451.05 436.31 408.756 368.829 328.87 287.112 255.246 238.765 228.992 231.932 232.943 175.858 118.457 60.7532 0