# vtk DataFile Version 2.0
track0
ASCII
DATASET POLYDATA
POINTS 11930 float
-0.0205 0.001 1e-005
-0.020385 0.00100536 1.5026e-005
-0.02027 0.00101047 1.96673e-005
-0.020155 0.00101535 2.39765e-005
-0.0200399 0.00102 2.79489e-005
-0.019862 0.00102682 3.35617e-005
-0.0196931 0.00103275 3.81055e-005
-0.019524 0.00103808 4.16185e-005
-0.019355 0.00104279 4.41097e-005
-0.0191859 0.00104689 4.55884e-005
-0.0190172 0.00105038 4.6063e-005
-0.0187132 0.00105588 4.6063e-005
-0.0184093 0.00106073 4.6063e-005
-0.0181054 0.00106506 4.6063e-005
-0.0178014 0.00106887 4.6063e-005
-0.0174976 0.00107215 4.6063e-005
-0.0172058 0.00107502 4.6063e-005
-0.016914 0.00107781 4.6063e-005
-0.0166222 0.00108054 4.6063e-005
-0.0163305 0.00108321 4.6063e-005
-0.0160387 0.00108582 4.6063e-005
-0.0157586 0.00108823 4.6063e-005
-0.0154784 0.00109057 4.6063e-005
-0.0151983 0.00109282 4.6063e-005
-0.0149182 0.001095 4.6063e-005
-0.0146381 0.0010971 4.6063e-005
-0.0143692 0.00109899 4.6063e-005
-0.0141002 0.00110078 4.6063e-005
-0.0138313 0.00110251 4.6063e-005
-0.0135624 0.00110416 4.6063e-005
-0.0132934 0.00110573 4.6063e-005
-0.0130353 0.00110717 4.6063e-005
-0.0127771 0.00110856 4.6063e-005
-0.0125189 0.0011099 4.6063e-005
-0.0122607 0.00111121 4.6063e-005
-0.0120025 0.00111249 4.6063e-005
-0.0117547 0.00111368 4.6063e-005
-0.0115068 0.00111485 4.6063e-005
-0.0112589 0.00111599 4.6063e-005
-0.0110111 0.00111712 4.6063e-005
-0.0107632 0.00111824 4.6063e-005
-0.0105252 0.00111929 4.6063e-005
-0.0102873 0.00112032 4.6063e-005
-0.0100493 0.00112134 4.6063e-005
-0.00981133 0.00112234 4.6063e-005
-0.00957337 0.00112334 4.6063e-005
-0.00934491 0.00112428 4.6063e-005
-0.00911645 0.00112521 4.6063e-005
-0.00888799 0.00112613 4.6063e-005
-0.00865954 0.00112703 4.6063e-005
-0.00843108 0.00112793 4.6063e-005
-0.00821175 0.00112879 4.6063e-005
-0.00799242 0.00112963 4.6063e-005
-0.00777309 0.00113047 4.6063e-005
-0.00755376 0.00113131 4.6063e-005
-0.00733443 0.00113213 4.6063e-005
-0.00712387 0.00113292 4.6063e-005
-0.0069133 0.0011337 4.6063e-005
-0.00670273 0.00113448 4.6063e-005
-0.00649216 0.00113526 4.6063e-005
-0.0062816 0.00113603 4.6063e-005
-0.00607944 0.00113677 4.6063e-005
-0.00587729 0.0011375 4.6063e-005
-0.00567514 0.00113823 4.6063e-005
-0.00547298 0.00113896 4.6063e-005
-0.00527083 0.00113969 4.6063e-005
-0.00507675 0.00114039 4.6063e-005
-0.00488267 0.00114109 4.6063e-005
-0.0046886 0.00114178 4.6063e-005
-0.00449452 0.00114248 4.6063e-005
-0.00430044 0.00114317 4.6063e-005
-0.00411412 0.00114384 4.6063e-005
-0.0039278 0.0011445 4.6063e-005
-0.00374147 0.00114516 4.6063e-005
-0.00355515 0.00114583 4.6063e-005
-0.00336883 0.00114649 4.6063e-005
-0.00318995 0.00114714 4.6063e-005
-0.00301107 0.00114778 4.6063e-005
-0.00283219 0.00114841 4.6063e-005
-0.00265331 0.00114905 4.6063e-005
-0.00247443 0.00114969 4.6063e-005
-0.0023027 0.00115032 4.6063e-005
-0.00213097 0.00115094 4.6063e-005
-0.00195924 0.00115155 4.6063e-005
-0.0017875 0.00115217 4.6063e-005
-0.00161577 0.0011528 4.6063e-005
-0.0014509 0.0011534 4.6063e-005
-0.00128603 0.001154 4.6063e-005
-0.00112116 0.0011546 4.6063e-005
-0.000956289 0.00115521 4.6063e-005
-0.000791418 0.00115582 4.6063e-005
-0.000633135 0.00115642 4.6063e-005
-0.000474851 0.00115702 4.6063e-005
-0.000316567 0.00115761 4.6063e-005
-0.000158284 0.00115821 4.6063e-005
0 0.00115882 4.6063e-005
0.000105677 0.00115923 4.6063e-005
0.000211355 0.00115964 4.6063e-005
0.000317032 0.00116005 4.6063e-005
0.00042271 0.00116047 4.6063e-005
0.000528387 0.00116089 4.6063e-005
0.000634886 0.00116133 4.6063e-005
0.000741385 0.00116176 4.6063e-005
0.000847884 0.0011622 4.6063e-005
0.000954384 0.00116265 4.6063e-005
0.00106088 0.0011631 4.6063e-005
0.00116821 0.00116357 4.6063e-005
0.00127554 0.00116405 4.6063e-005
0.00138286 0.00116452 4.6063e-005
0.00149019 0.00116499 4.6063e-005
0.00159752 0.00116548 4.6063e-005
0.00170568 0.00116598 4.6063e-005
0.00181384 0.00116647 4.6063e-005
0.001922 0.00116696 4.6063e-005
0.00203016 0.00116746 4.6063e-005
0.00213833 0.00116795 4.6063e-005
0.00224733 0.00116845 4.6063e-005
0.00235633 0.00116895 4.6063e-005
0.00246533 0.00116945 4.6063e-005
0.00257434 0.00116994 4.6063e-005
0.00268334 0.00117043 4.6063e-005
0.00279319 0.00117093 4.6063e-005
0.00290304 0.00117143 4.6063e-005
0.00301289 0.00117194 4.6063e-005
0.00312274 0.00117244 4.6063e-005
0.00323259 0.00117294 4.6063e-005
0.00334329 0.00117344 4.6063e-005
0.003454 0.00117395 4.6063e-005
0.0035647 0.00117447 4.6063e-005
0.0036754 0.00117498 4.6063e-005
0.00378611 0.0011755 4.6063e-005
0.00389767 0.001176 4.6063e-005
0.00400924 0.00117652 4.6063e-005
0.0041208 0.00117705 4.6063e-005
0.00423237 0.00117758 4.6063e-005
0.00434393 0.0011781 4.6063e-005
0.00445636 0.00117861 4.6063e-005
0.00456879 0.00117914 4.6063e-005
0.00468123 0.00117967 4.6063e-005
0.00479366 0.00118021 4.6063e-005
0.00490609 0.00118074 4.6063e-005
0.0050194 0.00118125 4.6063e-005
0.0051327 0.00118178 4.6063e-005
0.00524601 0.00118232 4.6063e-005
0.00535931 0.00118286 4.6063e-005
0.00547262 0.00118339 4.6063e-005
0.00558681 0.00118391 4.6063e-005
0.005701 0.00118444 4.6063e-005
0.00581518 0.00118498 4.6063e-005
0.00592937 0.00118552 4.6063e-005
0.00604356 0.00118606 4.6063e-005
0.00615863 0.00118658 4.6063e-005
0.00627371 0.00118712 4.6063e-005
0.00638878 0.00118766 4.6063e-005
0.00650386 0.0011882 4.6063e-005
0.00661893 0.00118874 4.6063e-005
0.0067349 0.00118926 4.6063e-005
0.00685087 0.00118979 4.6063e-005
0.00696684 0.00119033 4.6063e-005
0.00708281 0.00119087 4.6063e-005
0.00719878 0.00119141 4.6063e-005
0.00731565 0.00119193 4.6063e-005
0.00743252 0.00119246 4.6063e-005
0.00754939 0.00119299 4.6063e-005
0.00766626 0.00119353 4.6063e-005
0.00778313 0.00119406 4.6063e-005
0.00790091 0.00119458 4.6063e-005
0.00801869 0.00119511 4.6063e-005
0.00813647 0.00119564 4.6063e-005
0.00825425 0.00119617 4.6063e-005
0.00837203 0.00119669 4.6063e-005
0.00849073 0.00119721 4.6063e-005
0.00860942 0.00119773 4.6063e-005
0.00872812 0.00119826 4.6063e-005
0.00884682 0.00119878 4.6063e-005
0.00896551 0.0011993 4.6063e-005
0.00908513 0.00119981 4.6063e-005
0.00920475 0.00120033 4.6063e-005
0.00932437 0.00120085 4.6063e-005
0.00944398 0.00120136 4.6063e-005
0.0095636 0.00120188 4.6063e-005
0.00968415 0.00120238 4.6063e-005
0.0098047 0.0012029 4.6063e-005
0.00992525 0.00120341 4.6063e-005
0.0100458 0.00120391 4.6063e-005
0.0101663 0.00120442 4.6063e-005
0.0102878 0.00120492 4.6063e-005
0.0104093 0.00120542 4.6063e-005
0.0105308 0.00120592 4.6063e-005
0.0106523 0.00120642 4.6063e-005
0.0107738 0.00120692 4.6063e-005
0.0108962 0.00120741 4.6063e-005
0.0110186 0.0012079 4.6063e-005
0.0111411 0.0012084 4.6063e-005
0.0112635 0.00120888 4.6063e-005
0.0113859 0.00120937 4.6063e-005
0.0115093 0.00120985 4.6063e-005
0.0116327 0.00121034 4.6063e-005
0.0117561 0.00121082 4.6063e-005
0.0118795 0.0012113 4.6063e-005
0.0120028 0.00121177 4.6063e-005
0.0121272 0.00121224 4.6063e-005
0.0122515 0.00121272 4.6063e-005
0.0123759 0.00121319 4.6063e-005
0.0125002 0.00121365 4.6063e-005
0.0126245 0.00121411 4.6063e-005
0.0127498 0.00121457 4.6063e-005
0.0128752 0.00121503 4.6063e-005
0.0130005 0.00121549 4.6063e-005
0.0131258 0.00121594 4.6063e-005
0.0132511 0.00121639 4.6063e-005
0.0133774 0.00121683 4.6063e-005
0.0135036 0.00121728 4.6063e-005
0.0136299 0.00121772 4.6063e-005
0.0137562 0.00121816 4.6063e-005
0.0138825 0.00121859 4.6063e-005
0.0140098 0.00121901 4.6063e-005
0.014137 0.00121944 4.6063e-005
0.0142643 0.00121987 4.6063e-005
0.0143915 0.00122029 4.6063e-005
0.0145188 0.0012207 4.6063e-005
0.0146471 0.00122111 4.6063e-005
0.0147753 0.00122152 4.6063e-005
0.0149036 0.00122192 4.6063e-005
0.0150318 0.00122233 4.6063e-005
0.0151601 0.00122272 4.6063e-005
0.0152893 0.00122311 4.6063e-005
0.0154186 0.0012235 4.6063e-005
0.0155478 0.00122388 4.6063e-005
0.0156771 0.00122426 4.6063e-005
0.0158063 0.00122463 4.6063e-005
0.0159366 0.001225 4.6063e-005
0.0160668 0.00122536 4.6063e-005
0.0161971 0.00122572 4.6063e-005
0.0163274 0.00122608 4.6063e-005
0.0164576 0.00122643 4.6063e-005
0.0165889 0.00122677 4.6063e-005
0.0167201 0.00122711 4.6063e-005
0.0168514 0.00122745 4.6063e-005
0.0169827 0.00122777 4.6063e-005
0.0171139 0.0012281 4.6063e-005
0.0172293 0.00122837 4.6063e-005
0.0173447 0.00122865 4.6063e-005
0.0174601 0.00122891 4.6063e-005
0.0175754 0.00122918 4.6063e-005
0.0176865 0.00122943 4.6063e-005
0.0177043 0.00122947 4.6063e-005
0.0177221 0.0012295 4.6063e-005
0.0177398 0.00122954 4.6063e-005
0.0177576 0.00122958 4.6063e-005
0.0177754 0.00122962 4.6063e-005
0.0179087 0.00122991 4.6063e-005
0.018042 0.00123019 4.6063e-005
0.0181753 0.00123047 4.6063e-005
0.0183087 0.00123073 4.6063e-005
0.018442 0.00123099 4.6063e-005
0.0185763 0.00123125 4.6063e-005
0.0187107 0.00123149 4.6063e-005
0.018845 0.00123173 4.6063e-005
0.0189794 0.00123197 4.6063e-005
0.0191137 0.00123219 4.6063e-005
0.0192491 0.00123241 4.6063e-005
0.0193845 0.00123262 4.6063e-005
0.0195199 0.00123282 4.6063e-005
0.0196553 0.00123302 4.6063e-005
0.0197907 0.0012332 4.6063e-005
0.0199272 0.00123338 4.6063e-005
0.0200636 0.00123355 4.6063e-005
0.0202001 0.00123371 4.6063e-005
0.0203365 0.00123387 4.6063e-005
0.020473 0.00123401 4.6063e-005
0.0206105 0.00123415 4.6063e-005
0.020748 0.00123428 4.6063e-005
0.0208855 0.00123439 4.6063e-005
0.021023 0.0012345 4.6063e-005
0.0211606 0.0012346 4.6063e-005
0.0212991 0.0012347 4.6063e-005
0.0214377 0.00123478 4.6063e-005
0.0215763 0.00123485 4.6063e-005
0.0217149 0.00123491 4.6063e-005
0.0218535 0.00123496 4.6063e-005
0.0219931 0.00123501 4.6063e-005
0.0221328 0.00123504 4.6063e-005
0.0222724 0.00123506 4.6063e-005
0.0224121 0.00123508 4.6063e-005
0.0225517 0.00123508 4.6063e-005
0.0226925 0.00123508 4.6063e-005
0.0228332 0.00123506 4.6063e-005
0.022974 0.00123503 4.6063e-005
0.0231147 0.00123499 4.6063e-005
0.0232555 0.00123494 4.6063e-005
0.0233973 0.00123489 4.6063e-005
0.0235391 0.00123481 4.6063e-005
0.023681 0.00123473 4.6063e-005
0.0238228 0.00123463 4.6063e-005
[...]
POINT_DATA 11930
 FIELD attributes 2
p 1 11930 float
-1546.83 -1534.13 -1520.21 -1506.45 -1492.83 -1472.02 -1457.25 -1442.4 -1427.47 -1412.46 -1391.51 -1343.16 -1295.03 -1246.97 -1198.97 -1156.67 -1125.33 -1100.2 -1075.09 -1049.98 -1033.49 -1021.93 -1012.54 -1003.14 -993.747 -986.085 -979.213 -971.201 -963.189 -955.176 -946.061 -937.501 -928.842 -920.18 -911.543 -903.206 -895.267 -888.154 -881.141 -874.292 -868.381 -862.691 -857.579 -852.593 -847.768 -843.529 -839.434 -835.557 -831.75 -828.033 -824.556 -821.197 -817.959 -814.774 -811.663 -808.702 -805.84 -803.095 -800.415 -797.817 -795.356 -792.971 -790.69 -788.478 -786.349 -784.333 -782.372 -780.485 -778.659 -776.905 -775.231 -773.589 -772.002 -770.468 -768.998 -767.59 -766.186 -764.824 -763.509 -762.254 -761.049 -759.823 -758.634 -757.496 -756.425 -755.399 -754.324 -753.272 -752.258 -751.312 -750.406 -749.423 -748.483 -747.625 -746.881 -746.194 -745.439 -744.735 -744.134 -743.67 -743.283 -742.734 -742.218 -741.753 -741.388 -741.096 -740.645 -740.297 -740.073 -739.977 -739.995 -739.854 -739.804 -739.841 -739.945 -740.123 -740.268 -740.405 -740.534 -740.648 -740.74 -741.041 -741.239 -741.372 -741.437 -741.386 -741.786 -742.017 -742.163 -742.217 -742.069 -742.542 -742.795 -742.962 -743.034 -742.832 -743.327 -743.562 -743.718 -743.792 -743.544 -743.996 -744.172 -744.288 -744.346 -744.076 -744.448 -744.573 -744.661 -744.717 -744.48 -744.774 -744.87 -744.95 -745.019 -744.848 -745.068 -745.142 -745.212 -745.282 -745.179 -745.324 -745.378 -745.432 -745.486 -745.447 -745.532 -745.58 -745.627 -745.674 -745.688 -745.743 -745.794 -745.845 -745.896 -745.953 -745.996 -746.052 -746.109 -746.166 -746.248 -746.292 -746.353 -746.414 -746.476 -746.569 -746.626 -746.694 -746.762 -746.83 -746.925 -747.004 -747.082 -747.159 -747.237 -747.329 -747.435 -747.526 -747.616 -747.707 -747.796 -747.929 -748.034 -748.138 -748.243 -748.33 -748.487 -748.604 -748.721 -748.838 -748.926 -749.101 -749.228 -749.356 -749.484 -749.575 -749.763 -749.902 -750.041 -750.18 -750.28 -750.477 -750.628 -750.779 -750.929 -751.044 -751.246 -751.408 -751.571 -751.733 -751.866 -752.072 -752.249 -752.425 -752.602 -752.758 -752.97 -753.162 -753.355 -753.547 -753.731 -753.918 -754.098 -754.277 -754.457 -754.63 -754.658 -754.685 -754.713 -754.74 -754.773 -754.986 -755.204 -755.422 -755.639 -755.897 -756.092 -756.323 -756.554 -756.785 -757.087 -757.271 -757.516 -757.761 -758.006 -758.348 -758.525 -758.784 -759.043 -759.302 -759.675 -759.855 -760.128 -760.401 -760.674 -761.071 -761.26 -761.547 -761.834 -762.121 -762.533 -762.739 -763.04 -763.341 -763.641 -764.06 -764.291 -764.605 -764.918 -765.232 -765.648 -765.909 -766.235 -766.56 -766.886 -767.29 -767.587 -767.924 -768.26 -768.597 -768.983 -769.319 -769.665 -770.012 -770.358 -770.721 -771.097 -771.452 -771.808 -772.163 -772.5 -772.913 -773.279 -773.642 -774.001 -774.314 -774.756 -775.137 -775.507 -775.863 -776.159 -776.623 -777.022 -777.398 -777.746 -778.03 -778.51 -778.927 -779.309 -779.647 -779.924 -780.413 -780.849 -781.237 -781.566 -781.841 -782.339 -782.794 -783.187 -783.505 -783.78 -784.283 -784.755 -785.152 -785.458 -785.732 -786.236 -786.721 -787.118 -787.41 -787.684 -788.181 -788.673 -789.068 -789.349 -789.628 -790.113 -790.599 -790.988 -791.274 -791.561 -792.033 -792.505 -792.892 -793.188 -793.485 -793.942 -794.399 -794.782 -795.09 -795.398 -795.839 -796.279 -796.66 -796.979 -797.298 -797.721 -798.145 -798.521 -798.851 -799.18 -799.587 -799.993 -800.365 -800.703 -801.041 -801.431 -801.821 -802.188 -802.533 -802.877 -803.251 -803.626 -803.987 -804.337 -804.686 -805.045 -805.405 -805.76 -806.112 -806.463 -806.809 -807.156 -807.505 -807.855 -808.206 -808.539 -808.875 -809.216 -809.561 -809.909 -810.228 -810.555 -810.887 -811.223 -811.564 -811.87 -812.188 -812.509 -812.833 -813.166 -813.459 -813.766 -814.075 -814.386 -814.707 -814.985 -815.281 -815.576 -815.871 -816.177 -816.441 -816.72 -816.999 -817.279 -817.568 -817.815 -818.077 -818.338 -818.6 -818.87 -819.101 -819.343 -819.585 -819.827 -820.076 -820.289 -820.51 -820.731 -820.953 -821.178 -821.371 -821.569 -821.767 -821.965 -822.164 -822.178 -822.193 -822.208 -822.222 -822.237 -822.395 -822.554 -822.713 -822.871 -823.029 -823.175 -823.319 -823.463 -823.607 -823.748 -823.866 -823.978 -824.09 -824.203 -824.309 -824.397 -824.475 -824.554 -824.633 -824.702 -824.759 -824.8 -824.842 -824.884 -824.913 -824.936 -824.938 -824.94 -824.941 -824.926 -824.909 -824.874 -824.834 -824.789 -824.73 -824.67 -824.596 -824.512 -824.417 -824.312 -824.206 -824.092 -823.96 -823.812 -823.658 -823.505 -823.348 -823.167 -822.963 -822.757 -822.553 -822.349 -822.115 -821.856 -821.597 -821.34 -821.083 -820.796 -820.48 -820.165 -819.852 -819.539 -819.197 -818.823 -818.45 -818.079 -817.708 -817.308 -816.873 -816.439 -816.007 -815.573 -815.111 -814.619 -814.122 -813.627 -813.122 -812.596 -812.049 -811.487 -810.928 -810.349 -809.756 -809.153 -808.525 -807.899 -807.243 -806.582 -805.921 -805.224 -804.526 -803.794 -803.063 -802.332 -801.575 -800.795 -799.991 -799.188 -798.385 -797.566 -796.702 -795.823 -794.945 -794.067 -793.186 -792.914 -792.638 -792.362 -792.086 -791.816 -791.139 -790.463 -789.787 -789.112 -788.425 -787.409 -786.381 -785.354 -784.327 -783.273 -782.193 -781.085 -779.978 -778.871 -777.719 -776.575 -775.386 -774.197 -773 -771.755 -770.531 -769.273 -768.001 -766.702 -765.372 -764.063 -762.738 -761.38 -759.976 -758.559 -757.163 -755.768 -754.32 -752.814 -751.309 -749.825 -748.342 -746.804 -745.209 -743.614 -742.041 -740.468 -738.838 -737.153 -735.467 -733.803 -732.128 -730.401 -728.638 -726.861 -725.105 -723.314 -721.494 -719.66 -717.789 -715.94 -714.031 -712.117 -710.203 -708.247 -706.284 -704.275 -702.265 -700.257 -698.229 -696.555 -694.861 -693.166 -691.472 -689.865 -689.44 -689.016 -688.591 -688.166 -687.736 -685.553 -683.366 -681.18 -678.994 -676.774 -674.52 -672.238 -669.956 -667.675 -665.33 -662.996 -660.627 -658.25 -655.844 -653.402 -650.972 -648.533 -646.061 -643.529 -640.991 -638.466 -635.941 -633.364 -630.731 -628.098 -625.477 -622.858 -620.18 -617.452 -614.725 -612.01 -609.27 -606.491 -603.696 -600.875 -598.067 -595.199 -592.326 -589.454 -586.552 -583.622 -580.656 -577.691 -574.727 -571.76 -571.604 -571.446 -571.289 -571.131 -570.974 -568.081 -565.189 -562.297 -559.406 -556.491 -553.367 -550.228 -547.09 -543.95 -540.766 -537.562 -534.343 -531.117 -527.865 -524.594 -521.302 -518.011 -514.694 -511.338 -507.982 -504.605 -501.228 -497.817 -494.378 -490.938 -487.478 -484.004 -480.503 -476.994 -473.474 -469.933 -466.354 -462.773 -459.192 -455.6 -452.867 -450.117 -447.366 -444.616 -441.979 -441.049 -440.12 -439.19 -438.261 -437.324 -433.599 -429.87 -426.142 -422.415 -418.653 -414.868 -411.068 -407.267 -403.45 -399.608 -395.751 -391.893 -388.021 -384.111 -380.2 -376.275 -372.35 -368.396 -364.421 -360.444 -356.453 -352.45 -348.424 -344.394 -340.355 -336.3 -332.212 -328.125 -324.038 -319.946 -318.228 -316.501 -314.774 -313.048 -311.357 -308.933 -306.51 -304.086 -301.663 -299.225 -295.032 -290.835 -286.638 -282.439 -278.209 -273.967 -269.722 -265.474 -261.201 -256.92 -252.629 -248.338 -244.029 -239.704 -235.377 -231.038 -226.694 -222.33 -217.965 -213.595 -209.213 -204.808 -200.403 -195.998 -191.591 -190.037 -188.477 -186.917 -185.357 -183.823 -180.935 -178.047 -175.16 -172.272 -169.372 -164.897 -160.42 -155.943 -151.461 -146.961 -142.454 -137.946 -133.438 -128.911 -124.381 -119.844 -115.307 -110.756 -106.201 -101.644 -97.0788 -92.5054 -87.9269 -83.3488 -78.771 -75.4224 -72.0685 -68.7149 -65.3615 -62.1159 -60.851 -59.5861 -58.3212 -57.0564 -55.7886 -51.1726 -46.5579 -41.9438 -37.3297 -32.7009 -28.0672 -23.4359 -18.8073 -14.1701 -9.52932 -4.88301 -0.237274 4.41184 9.05781 13.7059 18.3603 23.0164 27.674 32.3312 36.9838 40.0486 43.1141 46.1795 49.2446 52.227 53.8401 55.4533 57.0663 58.6794 60.2938 64.9632 69.6282 74.2928 78.9571 83.6245 88.2953 92.9638 97.6236 102.282 106.942 111.606 116.27 120.929 125.579 130.229 134.882 139.53 144.177 148.823 153.467 154.487 155.506 156.524 157.542 158.552 162.175 165.798 169.42 173.042 176.661 181.298 185.923 190.546 195.163 199.778 204.395 209.012 213.616 218.206 222.799 227.393 231.979 236.559 241.138 245.708 247.915 250.114 252.314 254.513 256.676 259.043 261.41 263.778 266.145 268.505 273.054 277.591 282.127 286.655 291.177 295.698 300.217 304.72 309.207 313.696 318.183 322.66 327.127 331.594 336.05 338.22 340.38 342.541 344.701 346.829 349.113 351.398 353.683 355.967 358.243 362.664 367.071 371.479 375.875 380.264 384.646 389.029 393.392 397.737 402.085 406.425 410.75 415.067 419.384 423.695 424.836 425.971 427.106 428.241 429.367 432.52 435.673 438.825 441.977 445.114 449.373 453.623 457.867 462.091 466.313 470.525 474.736 478.923 483.099 487.272 490.783 494.273 497.762 501.25 504.671 505.335 506 506.664 507.328 507.988 512.098 516.202 520.307 524.404 528.485 532.551 536.616 540.661 544.686 548.713 552.723 556.717 560.7 564.683 568.66 569.557 570.449 571.34 572.23 573.117 576.17 579.224 582.277 585.326 588.358 592.263 596.163 600.048 603.906 607.765 611.608 615.44 619.251 623.062 626.857 628.333 629.798 631.26 632.723 634.18 636.48 638.779 641.078 643.373 645.652 649.374 653.085 656.787 660.454 664.122 667.771 671.411 675.02 678.627 682.21 683.75 685.28 686.807 688.334 689.868 691.89 693.912 695.934 697.953 699.958 703.472 706.955 710.414 713.788 717.156 720.504 723.88 727.371 730.868 734.418 736.007 737.297 738.494 739.691 740.913 742.614 744.315 746.015 747.611 748.851 751.079 753.903 757.002 761.605 766.383 771.044 775.079 777.527 779.978 782.11 782.257 782.437 782.667 782.898 783.13 784.97 786.812 788.655 790.993 793.654 796.61 799.555 802.364 805.173 807.921 808.439 808.948 809.437 809.926 810.423 812.654 814.885 817.114 819.271 821.382 823.995 826.607 829.121 831.621 834.068 834.663 835.246 835.802 836.359 836.933 838.783 840.63 842.475 844.25 845.978 848.253 850.524 852.631 854.661 856.637 857.297 857.927 858.508 859.088 859.704 860.966 862.225 863.481 864.654 865.763 867.397 869.024 870.452 871.67 872.879 873.529 874.093 874.556 875.017 875.538 875.971 876.403 876.833 877.204 877.509 878.141 878.663 879.065 879.124 879.173 879.086 878.793 878.269 877.739 877.118 877 876.842 876.662 876.482 876.295 875.34 874.373 873.394 872.28 870.88 869.056 867.22 864.943 862.253 859.551 856.59 853.231 849.622 846.005 842.217 841.32 840.306 839.272 838.238 837.134 833.487 829.829 826.16 822.441 818.277 812.594 806.619 800.365 793.361 786.258 778.685 771.099 762.932 754.296 745.593 736.367 725.958 715.265 704.569 693.382 688.756 684.122 679.485 674.848 669.593 662.021 654.443 646.862 639.276 631.647 617.812 602.08 586.316 569.577 550.223 529.896 510.141 492.557 478.571 464.632 449.944 435.257 407.777 367.97 328.13 286.495 253.7 237.26 228.467 231.339 234.019 177.203 119.841 62.1835 0