# vtk DataFile Version 2.0
track0
ASCII
DATASET POLYDATA
POINTS 11930 float
-0.0205 0.001 1e-005
-0.0203851 0.00100536 1.50241e-005
-0.0202701 0.00101048 1.96635e-005
-0.0201551 0.00101536 2.39712e-005
-0.0200401 0.00102001 2.79425e-005
-0.0198627 0.00102682 3.35404e-005
-0.0196936 0.00103277 3.80908e-005
-0.0195244 0.00103812 4.16086e-005
-0.0193553 0.00104285 4.41027e-005
-0.019186 0.00104698 4.55823e-005
-0.0190172 0.00105049 4.6056e-005
-0.0187132 0.00105604 4.6056e-005
-0.0184093 0.00106094 4.6056e-005
-0.0181054 0.00106533 4.6056e-005
-0.0178014 0.00106922 4.6056e-005
-0.0174976 0.00107259 4.6056e-005
-0.0172058 0.00107555 4.6056e-005
-0.016914 0.00107844 4.6056e-005
-0.0166222 0.00108126 4.6056e-005
-0.0163305 0.00108403 4.6056e-005
-0.0160387 0.00108675 4.6056e-005
-0.0157586 0.00108927 4.6056e-005
-0.0154784 0.0010917 4.6056e-005
-0.0151983 0.00109404 4.6056e-005
-0.0149182 0.0010963 4.6056e-005
-0.0146381 0.00109846 4.6056e-005
-0.0143692 0.00110043 4.6056e-005
-0.0141002 0.00110228 4.6056e-005
-0.0138313 0.00110404 4.6056e-005
-0.0135624 0.00110572 4.6056e-005
-0.0132934 0.00110731 4.6056e-005
-0.0130353 0.00110878 4.6056e-005
-0.0127771 0.00111016 4.6056e-005
-0.0125189 0.0011115 4.6056e-005
-0.0122607 0.00111279 4.6056e-005
-0.0120025 0.00111404 4.6056e-005
-0.0117547 0.00111522 4.6056e-005
-0.0115068 0.00111636 4.6056e-005
-0.0112589 0.00111748 4.6056e-005
-0.0110111 0.00111858 4.6056e-005
-0.0107632 0.00111966 4.6056e-005
-0.0105252 0.0011207 4.6056e-005
-0.0102873 0.0011217 4.6056e-005
-0.0100493 0.00112269 4.6056e-005
-0.00981133 0.00112367 4.6056e-005
-0.00957337 0.00112463 4.6056e-005
-0.00934491 0.00112556 4.6056e-005
-0.00911645 0.00112646 4.6056e-005
-0.00888799 0.00112736 4.6056e-005
-0.00865954 0.00112824 4.6056e-005
-0.00843108 0.00112912 4.6056e-005
-0.00821175 0.00112996 4.6056e-005
-0.00799242 0.00113078 4.6056e-005
-0.00777309 0.0011316 4.6056e-005
-0.00755376 0.00113242 4.6056e-005
-0.00733443 0.00113322 4.6056e-005
-0.00712387 0.001134 4.6056e-005
-0.0069133 0.00113477 4.6056e-005
-0.00670273 0.00113553 4.6056e-005
-0.00649216 0.00113629 4.6056e-005
-0.0062816 0.00113705 4.6056e-005
-0.00607944 0.00113778 4.6056e-005
-0.00587729 0.0011385 4.6056e-005
-0.00567514 0.00113922 4.6056e-005
-0.00547298 0.00113994 4.6056e-005
-0.00527083 0.00114065 4.6056e-005
-0.00507675 0.00114134 4.6056e-005
-0.00488267 0.00114203 4.6056e-005
-0.0046886 0.00114271 4.6056e-005
-0.00449452 0.0011434 4.6056e-005
-0.00430044 0.00114408 4.6056e-005
-0.00411412 0.00114474 4.6056e-005
-0.0039278 0.00114539 4.6056e-005
-0.00374147 0.00114605 4.6056e-005
-0.00355515 0.00114671 4.6056e-005
-0.00336883 0.00114736 4.6056e-005
-0.00318995 0.001148 4.6056e-005
-0.00301107 0.00114863 4.6056e-005
-0.00283219 0.00114926 4.6056e-005
-0.00265331 0.00114989 4.6056e-005
-0.00247443 0.00115053 4.6056e-005
-0.0023027 0.00115114 4.6056e-005
-0.00213097 0.00115175 4.6056e-005
-0.00195924 0.00115237 4.6056e-005
-0.0017875 0.00115298 4.6056e-005
-0.00161577 0.0011536 4.6056e-005
-0.0014509 0.0011542 4.6056e-005
-0.00128603 0.0011548 4.6056e-005
-0.00112116 0.00115539 4.6056e-005
-0.000956289 0.00115599 4.6056e-005
-0.000791418 0.0011566 4.6056e-005
-0.000633135 0.00115719 4.6056e-005
-0.000474851 0.00115778 4.6056e-005
-0.000316567 0.00115836 4.6056e-005
-0.000158284 0.00115895 4.6056e-005
0 0.00115955 4.6056e-005
0.000105677 0.00115995 4.6056e-005
0.000211355 0.00116035 4.6056e-005
0.000317032 0.00116075 4.6056e-005
0.00042271 0.00116116 4.6056e-005
0.000528387 0.00116157 4.6056e-005
0.000634886 0.00116198 4.6056e-005
0.000741385 0.0011624 4.6056e-005
0.000847884 0.00116282 4.6056e-005
0.000954384 0.00116325 4.6056e-005
0.00106088 0.00116368 4.6056e-005
0.00116821 0.00116413 4.6056e-005
0.00127554 0.00116457 4.6056e-005
0.00138286 0.00116502 4.6056e-005
0.00149019 0.00116547 4.6056e-005
0.00159752 0.00116593 4.6056e-005
0.00170568 0.0011664 4.6056e-005
0.00181384 0.00116687 4.6056e-005
0.001922 0.00116734 4.6056e-005
0.00203016 0.00116781 4.6056e-005
0.00213833 0.00116828 4.6056e-005
0.00224733 0.00116877 4.6056e-005
0.00235633 0.00116925 4.6056e-005
0.00246533 0.00116974 4.6056e-005
0.00257434 0.00117022 4.6056e-005
0.00268334 0.0011707 4.6056e-005
0.00279319 0.00117119 4.6056e-005
0.00290304 0.00117168 4.6056e-005
0.00301289 0.00117218 4.6056e-005
0.00312274 0.00117267 4.6056e-005
0.00323259 0.00117317 4.6056e-005
0.00334329 0.00117366 4.6056e-005
0.003454 0.00117416 4.6056e-005
0.0035647 0.00117467 4.6056e-005
0.0036754 0.00117518 4.6056e-005
0.00378611 0.00117569 4.6056e-005
0.00389767 0.00117618 4.6056e-005
0.00400924 0.0011767 4.6056e-005
0.0041208 0.00117722 4.6056e-005
0.00423237 0.00117774 4.6056e-005
0.00434393 0.00117825 4.6056e-005
0.00445636 0.00117875 4.6056e-005
0.00456879 0.00117927 4.6056e-005
0.00468123 0.0011798 4.6056e-005
0.00479366 0.00118032 4.6056e-005
0.00490609 0.00118085 4.6056e-005
0.0050194 0.00118135 4.6056e-005
0.0051327 0.00118187 4.6056e-005
0.00524601 0.0011824 4.6056e-005
0.00535931 0.00118293 4.6056e-005
0.00547262 0.00118346 4.6056e-005
0.00558681 0.00118397 4.6056e-005
0.005701 0.0011845 4.6056e-005
0.00581518 0.00118503 4.6056e-005
0.00592937 0.00118556 4.6056e-005
0.00604356 0.00118609 4.6056e-005
0.00615863 0.0011866 4.6056e-005
0.00627371 0.00118714 4.6056e-005
0.00638878 0.00118767 4.6056e-005
0.00650386 0.00118821 4.6056e-005
0.00661893 0.00118874 4.6056e-005
0.0067349 0.00118925 4.6056e-005
0.00685087 0.00118979 4.6056e-005
0.00696684 0.00119032 4.6056e-005
0.00708281 0.00119086 4.6056e-005
0.00719878 0.00119139 4.6056e-005
0.00731565 0.00119191 4.6056e-005
0.00743252 0.00119244 4.6056e-005
0.00754939 0.00119298 4.6056e-005
0.00766626 0.00119351 4.6056e-005
0.00778313 0.00119404 4.6056e-005
0.00790091 0.00119456 4.6056e-005
0.00801869 0.00119509 4.6056e-005
0.00813647 0.00119563 4.6056e-005
0.00825425 0.00119616 4.6056e-005
0.00837203 0.00119669 4.6056e-005
0.00849073 0.00119721 4.6056e-005
0.00860942 0.00119774 4.6056e-005
0.00872812 0.00119827 4.6056e-005
0.00884682 0.0011988 4.6056e-005
0.00896551 0.00119933 4.6056e-005
0.00908513 0.00119985 4.6056e-005
0.00920475 0.00120038 4.6056e-005
0.00932437 0.00120091 4.6056e-005
0.00944398 0.00120143 4.6056e-005
0.0095636 0.00120196 4.6056e-005
0.00968415 0.00120248 4.6056e-005
0.0098047 0.001203 4.6056e-005
0.00992525 0.00120353 4.6056e-005
0.0100458 0.00120405 4.6056e-005
0.0101663 0.00120457 4.6056e-005
0.0102878 0.00120508 4.6056e-005
0.0104093 0.00120561 4.6056e-005
0.0105308 0.00120612 4.6056e-005
0.0106523 0.00120664 4.6056e-005
0.0107738 0.00120715 4.6056e-005
0.0108962 0.00120766 4.6056e-005
0.0110186 0.00120818 4.6056e-005
0.0111411 0.00120869 4.6056e-005
0.0112635 0.0012092 4.6056e-005
0.0113859 0.0012097 4.6056e-005
0.0115093 0.00121021 4.6056e-005
0.0116327 0.00121071 4.6056e-005
0.0117561 0.00121121 4.6056e-005
0.0118795 0.00121171 4.6056e-005
0.0120028 0.00121221 4.6056e-005
0.0121272 0.0012127 4.6056e-005
0.0122515 0.0012132 4.6056e-005
0.0123759 0.00121369 4.6056e-005
0.0125002 0.00121418 4.6056e-005
0.0126245 0.00121466 4.6056e-005
0.0127498 0.00121514 4.6056e-005
0.0128752 0.00121562 4.6056e-005
0.0130005 0.0012161 4.6056e-005
0.0131258 0.00121657 4.6056e-005
0.0132511 0.00121704 4.6056e-005
0.0133774 0.00121751 4.6056e-005
0.0135036 0.00121797 4.6056e-005
0.0136299 0.00121843 4.6056e-005
0.0137562 0.00121889 4.6056e-005
0.0138825 0.00121934 4.6056e-005
0.0140098 0.00121979 4.6056e-005
0.014137 0.00122024 4.6056e-005
0.0142643 0.00122068 4.6056e-005
0.0143915 0.00122112 4.6056e-005
0.0145188 0.00122155 4.6056e-005
0.0146471 0.00122197 4.6056e-005
0.0147753 0.0012224 4.6056e-005
0.0149036 0.00122282 4.6056e-005
0.0150318 0.00122323 4.6056e-005
0.0151601 0.00122364 4.6056e-005
0.0152893 0.00122404 4.6056e-005
0.0154186 0.00122445 4.6056e-005
0.0155478 0.00122484 4.6056e-005
0.0156771 0.00122523 4.6056e-005
0.0158063 0.00122562 4.6056e-005
0.0159366 0.00122599 4.6056e-005
0.0160668 0.00122637 4.6056e-005
0.0161971 0.00122673 4.6056e-005
0.0163274 0.0012271 4.6056e-005
0.0164576 0.00122745 4.6056e-005
0.0165889 0.0012278 4.6056e-005
0.0167201 0.00122814 4.6056e-005
0.0168514 0.00122848 4.6056e-005
0.0169827 0.00122881 4.6056e-005
0.0171139 0.00122913 4.6056e-005
0.0172462 0.00122945 4.6056e-005
0.0173785 0.00122976 4.6056e-005
0.0175108 0.00123007 4.6056e-005
0.0176431 0.00123036 4.6056e-005
0.0177754 0.00123065 4.6056e-005
0.0177798 0.00123066 4.6056e-005
0.0177842 0.00123067 4.6056e-005
0.0177887 0.00123068 4.6056e-005
0.0177931 0.00123069 4.6056e-005
0.0177975 0.0012307 4.6056e-005
0.0179264 0.00123097 4.6056e-005
0.0180553 0.00123124 4.6056e-005
0.0181842 0.00123149 4.6056e-005
0.0183131 0.00123174 4.6056e-005
0.018442 0.00123199 4.6056e-005
0.0185763 0.00123223 4.6056e-005
0.0187107 0.00123247 4.6056e-005
0.018845 0.00123269 4.6056e-005
0.0189794 0.00123291 4.6056e-005
0.0191137 0.00123312 4.6056e-005
0.0192491 0.00123333 4.6056e-005
0.0193845 0.00123352 4.6056e-005
0.0195199 0.0012337 4.6056e-005
0.0196553 0.00123388 4.6056e-005
0.0197907 0.00123405 4.6056e-005
0.0199272 0.0012342 4.6056e-005
0.0200636 0.00123435 4.6056e-005
0.0202001 0.00123449 4.6056e-005
0.0203365 0.00123462 4.6056e-005
0.020473 0.00123474 4.6056e-005
0.0206105 0.00123485 4.6056e-005
0.020748 0.00123495 4.6056e-005
0.0208855 0.00123504 4.6056e-005
0.021023 0.00123512 4.6056e-005
0.0211606 0.00123519 4.6056e-005
0.0212991 0.00123525 4.6056e-005
0.0214377 0.0012353 4.6056e-005
0.0215763 0.00123534 4.6056e-005
0.0217149 0.00123537 4.6056e-005
0.0218535 0.00123539 4.6056e-005
0.0219931 0.0012354 4.6056e-005
0.0221328 0.0012354 4.6056e-005
0.0222724 0.00123538 4.6056e-005
0.0224121 0.00123536 4.6056e-005
0.0225517 0.00123532 4.6056e-005
0.0226925 0.00123528 4.6056e-005
0.0228332 0.00123522 4.6056e-005
0.022974 0.00123515 4.6056e-005
0.0231147 0.00123507 4.6056e-005
0.0232555 0.00123498 4.6056e-005
0.0233973 0.00123489 4.6056e-005
0.0235391 0.00123478 4.6056e-005
0.023681 0.00123465 4.6056e-005
0.0238228 0.00123451 4.6056e-005
[...]
POINT_DATA 11930
 FIELD attributes 2
p 1 11930 float
-1546.08 -1533.47 -1519.66 -1505.99 -1492.47 -1471.86 -1457.18 -1442.42 -1427.59 -1412.68 -1391.86 -1343.78 -1295.8 -1247.89 -1200.04 -1157.69 -1126.21 -1101.01 -1075.83 -1050.65 -1034.21 -1022.62 -1013.41 -1004.2 -994.999 -987.705 -981.112 -973.451 -965.79 -958.124 -949.398 -941.084 -932.644 -924.198 -915.782 -907.642 -899.729 -892.615 -885.619 -878.812 -872.952 -867.155 -861.945 -856.88 -852.006 -847.769 -843.539 -839.542 -835.627 -831.83 -828.327 -824.833 -821.471 -818.168 -814.966 -811.955 -808.967 -806.1 -803.304 -800.613 -798.087 -795.595 -793.205 -790.888 -788.672 -786.585 -784.542 -782.569 -780.657 -778.827 -777.085 -775.39 -773.744 -772.146 -770.613 -769.139 -767.711 -766.314 -764.955 -763.649 -762.385 -761.157 -759.957 -758.794 -757.683 -756.605 -755.55 -754.508 -753.488 -752.515 -751.569 -750.628 -749.723 -748.889 -748.149 -747.453 -746.784 -746.152 -745.596 -745.137 -744.73 -744.266 -743.82 -743.402 -743.045 -742.729 -742.345 -742.043 -741.844 -741.739 -741.715 -741.609 -741.572 -741.603 -741.676 -741.794 -741.948 -742.069 -742.165 -742.225 -742.238 -742.526 -742.686 -742.766 -742.764 -742.624 -742.997 -743.182 -743.272 -743.262 -743.032 -743.477 -743.688 -743.806 -743.822 -743.55 -744.02 -744.217 -744.33 -744.357 -744.05 -744.478 -744.619 -744.697 -744.715 -744.394 -744.744 -744.837 -744.893 -744.915 -744.634 -744.907 -744.974 -745.025 -745.063 -744.855 -745.053 -745.099 -745.141 -745.183 -745.047 -745.171 -745.198 -745.226 -745.254 -745.187 -745.251 -745.275 -745.299 -745.323 -745.316 -745.351 -745.384 -745.417 -745.45 -745.492 -745.52 -745.565 -745.61 -745.655 -745.73 -745.765 -745.822 -745.879 -745.936 -746.03 -746.085 -746.155 -746.226 -746.296 -746.399 -746.482 -746.569 -746.656 -746.743 -746.848 -746.964 -747.069 -747.175 -747.28 -747.388 -747.537 -747.661 -747.785 -747.909 -748.02 -748.197 -748.337 -748.478 -748.619 -748.733 -748.931 -749.086 -749.241 -749.395 -749.515 -749.729 -749.897 -750.064 -750.231 -750.361 -750.585 -750.764 -750.943 -751.122 -751.265 -751.494 -751.683 -751.872 -752.061 -752.219 -752.451 -752.652 -752.853 -753.054 -753.234 -753.469 -753.684 -753.899 -754.114 -754.318 -754.553 -754.778 -755.004 -755.23 -755.455 -755.463 -755.471 -755.479 -755.486 -755.494 -755.72 -755.946 -756.173 -756.399 -756.659 -756.871 -757.114 -757.357 -757.6 -757.908 -758.103 -758.355 -758.606 -758.858 -759.2 -759.383 -759.643 -759.903 -760.163 -760.532 -760.711 -760.979 -761.247 -761.516 -761.904 -762.086 -762.363 -762.639 -762.916 -763.315 -763.508 -763.794 -764.079 -764.365 -764.765 -764.977 -765.271 -765.565 -765.859 -766.252 -766.491 -766.794 -767.096 -767.398 -767.777 -768.048 -768.358 -768.669 -768.979 -769.338 -769.645 -769.963 -770.282 -770.6 -770.934 -771.279 -771.606 -771.933 -772.26 -772.567 -772.95 -773.288 -773.623 -773.953 -774.239 -774.651 -775.006 -775.35 -775.679 -775.95 -776.386 -776.761 -777.114 -777.438 -777.7 -778.155 -778.551 -778.912 -779.23 -779.489 -779.957 -780.375 -780.746 -781.059 -781.321 -781.801 -782.242 -782.622 -782.929 -783.196 -783.686 -784.148 -784.536 -784.835 -785.105 -785.6 -786.08 -786.473 -786.762 -787.037 -787.529 -788.02 -788.414 -788.696 -788.979 -789.464 -789.95 -790.342 -790.634 -790.926 -791.401 -791.876 -792.267 -792.572 -792.876 -793.338 -793.8 -794.19 -794.506 -794.823 -795.27 -795.717 -796.105 -796.433 -796.761 -797.193 -797.624 -798.01 -798.348 -798.687 -799.102 -799.517 -799.898 -800.245 -800.592 -800.991 -801.391 -801.767 -802.12 -802.473 -802.856 -803.239 -803.609 -803.966 -804.322 -804.69 -805.057 -805.419 -805.777 -806.134 -806.486 -806.839 -807.193 -807.547 -807.902 -808.238 -808.578 -808.923 -809.269 -809.618 -809.94 -810.268 -810.601 -810.937 -811.277 -811.583 -811.9 -812.22 -812.542 -812.872 -813.162 -813.466 -813.772 -814.079 -814.395 -814.67 -814.96 -815.25 -815.539 -815.839 -816.097 -816.368 -816.64 -816.912 -817.193 -817.432 -817.685 -817.937 -818.19 -818.45 -818.672 -818.904 -819.136 -819.368 -819.606 -819.808 -820.019 -820.229 -820.439 -820.653 -820.831 -821.014 -821.196 -821.379 -821.552 -821.559 -821.565 -821.571 -821.577 -821.584 -821.746 -821.908 -822.07 -822.233 -822.393 -822.529 -822.661 -822.794 -822.927 -823.056 -823.163 -823.264 -823.366 -823.467 -823.562 -823.639 -823.707 -823.775 -823.843 -823.9 -823.947 -823.979 -824.01 -824.042 -824.06 -824.073 -824.066 -824.059 -824.049 -824.026 -823.999 -823.955 -823.906 -823.851 -823.784 -823.715 -823.632 -823.539 -823.434 -823.321 -823.206 -823.084 -822.943 -822.786 -822.624 -822.462 -822.297 -822.107 -821.894 -821.68 -821.467 -821.254 -821.012 -820.744 -820.476 -820.21 -819.944 -819.648 -819.324 -819 -818.677 -818.355 -818.003 -817.62 -817.237 -816.856 -816.475 -816.065 -815.62 -815.176 -814.733 -814.288 -813.814 -813.312 -812.805 -812.299 -811.781 -811.243 -810.686 -810.113 -809.542 -808.951 -808.346 -807.732 -807.093 -806.455 -805.787 -805.114 -804.442 -803.735 -803.023 -802.28 -801.537 -800.794 -800.028 -799.235 -798.419 -797.604 -796.789 -795.961 -795.084 -794.194 -793.305 -792.416 -791.525 -791.374 -791.221 -791.069 -790.916 -790.765 -789.956 -789.148 -788.34 -787.533 -786.713 -785.688 -784.651 -783.615 -782.579 -781.514 -780.427 -779.312 -778.197 -777.083 -775.923 -774.773 -773.578 -772.384 -771.18 -769.931 -768.702 -767.442 -766.167 -764.864 -763.533 -762.221 -760.897 -759.539 -758.134 -756.72 -755.325 -753.93 -752.484 -750.984 -749.485 -748.005 -746.525 -744.993 -743.407 -741.822 -740.255 -738.69 -737.069 -735.396 -733.723 -732.069 -730.403 -728.689 -726.943 -725.181 -723.439 -721.661 -719.857 -718.042 -716.19 -714.358 -712.466 -710.571 -708.676 -706.743 -704.798 -702.81 -700.823 -698.836 -696.833 -695.365 -693.88 -692.394 -690.909 -689.491 -688.886 -688.281 -687.677 -687.072 -686.459 -684.304 -682.142 -679.981 -677.82 -675.624 -673.398 -671.142 -668.887 -666.631 -664.312 -662.005 -659.665 -657.315 -654.934 -652.519 -650.117 -647.707 -645.261 -642.754 -640.243 -637.745 -635.248 -632.697 -630.089 -627.482 -624.888 -622.295 -619.641 -616.938 -614.235 -611.546 -608.828 -606.073 -603.302 -600.503 -597.719 -594.871 -592.02 -589.169 -586.288 -583.378 -580.431 -577.484 -574.539 -571.592 -571.542 -571.49 -571.439 -571.387 -571.336 -568.353 -565.372 -562.391 -559.41 -556.404 -553.295 -550.169 -547.045 -543.918 -540.745 -537.553 -534.346 -531.13 -527.886 -524.624 -521.341 -518.059 -514.748 -511.397 -508.046 -504.675 -501.304 -497.896 -494.459 -491.021 -487.564 -484.091 -480.59 -477.082 -473.56 -470.019 -466.437 -462.853 -459.27 -455.675 -452.99 -450.286 -447.583 -444.88 -442.288 -441.307 -440.326 -439.345 -438.364 -437.375 -433.643 -429.907 -426.172 -422.438 -418.668 -414.875 -411.065 -407.255 -403.429 -399.576 -395.709 -391.842 -387.958 -384.036 -380.113 -376.176 -372.24 -368.274 -364.285 -360.295 -356.291 -352.275 -348.235 -344.192 -340.139 -336.069 -331.967 -327.866 -323.765 -319.659 -318.016 -316.364 -314.712 -313.06 -311.442 -308.929 -306.416 -303.904 -301.392 -298.864 -294.657 -290.445 -286.234 -282.02 -277.774 -273.519 -269.259 -264.996 -260.709 -256.414 -252.108 -247.802 -243.479 -239.14 -234.799 -230.447 -226.088 -221.711 -217.332 -212.949 -208.553 -204.135 -199.717 -195.3 -190.88 -189.467 -188.049 -186.631 -185.213 -183.816 -180.775 -177.734 -174.694 -171.653 -168.6 -164.113 -159.624 -155.137 -150.643 -146.133 -141.614 -137.097 -132.578 -128.041 -123.502 -118.956 -114.41 -109.85 -105.287 -100.723 -96.1495 -91.5685 -86.9831 -82.3982 -77.8139 -74.663 -71.5077 -68.3527 -65.1979 -62.1378 -60.6715 -59.2052 -57.739 -56.2728 -54.8035 -50.1836 -45.5656 -40.948 -36.3301 -31.6993 -27.0634 -22.4301 -17.8003 -13.1624 -8.52146 -3.87491 0.771045 5.42008 10.0643 14.7106 19.3633 24.0173 28.6722 33.3267 37.9764 40.8121 43.6481 46.484 49.3196 52.0853 53.9216 55.7578 57.594 59.4301 61.2676 65.9326 70.5924 75.2517 79.9107 84.5724 89.2375 93.9007 98.5542 103.206 107.86 112.517 117.174 121.826 126.47 131.113 135.76 140.401 145.04 149.679 154.318 155.119 155.919 156.718 157.518 158.313 162.147 165.981 169.815 173.649 177.478 182.109 186.728 191.344 195.954 200.563 205.174 209.784 214.382 218.967 223.553 228.141 232.721 237.294 241.868 246.434 248.438 250.436 252.434 254.432 256.4 258.963 261.526 264.088 266.651 269.207 273.752 278.284 282.815 287.339 291.857 296.373 300.889 305.388 309.872 314.357 318.84 323.314 327.777 332.241 336.695 338.682 340.66 342.638 344.616 346.567 349.031 351.495 353.959 356.423 358.878 363.298 367.704 372.109 376.503 380.89 385.272 389.652 394.016 398.36 402.706 407.046 411.369 415.686 420.002 424.314 425.286 426.253 427.22 428.186 429.147 432.468 435.789 439.11 442.43 445.734 449.994 454.246 458.49 462.713 466.936 471.148 475.36 479.547 483.725 487.9 491.246 494.574 497.899 501.224 504.488 505.316 506.144 506.972 507.8 508.623 512.735 516.841 520.947 525.044 529.127 533.194 537.261 541.307 545.333 549.361 553.373 557.368 561.352 565.336 569.316 570.056 570.791 571.525 572.26 572.992 576.203 579.415 582.626 585.833 589.022 592.928 596.832 600.716 604.575 608.435 612.279 616.11 619.922 623.733 627.53 628.852 630.164 631.474 632.784 634.089 636.543 638.996 641.449 643.897 646.329 650.051 653.764 657.465 661.131 664.798 668.446 672.084 675.691 679.299 682.882 684.274 685.656 687.036 688.416 689.801 691.97 694.14 696.309 698.474 700.625 704.137 707.623 711.08 714.447 717.813 721.157 724.538 728.026 731.513 735.06 736.499 737.668 738.751 739.835 740.94 742.77 744.599 746.429 748.145 749.478 751.703 754.434 757.529 762.213 766.985 771.642 775.569 778.011 780.457 782.684 782.784 782.908 783.066 783.225 783.384 785.274 787.166 789.059 791.463 794.199 797.146 800.077 802.877 805.678 808.424 808.872 809.311 809.733 810.155 810.583 812.877 815.169 817.459 819.675 821.843 824.446 827.046 829.546 832.042 834.477 835.016 835.542 836.045 836.548 837.066 838.962 840.855 842.746 844.564 846.334 848.596 850.854 852.942 854.968 856.932 857.55 858.14 858.683 859.226 859.8 861.091 862.38 863.665 864.864 865.997 867.617 869.23 870.646 871.851 873.046 873.67 874.21 874.652 875.093 875.588 876.034 876.477 876.919 877.3 877.611 878.229 878.746 879.127 879.172 879.208 879.108 878.793 878.256 877.713 877.089 876.982 876.84 876.678 876.516 876.348 875.367 874.374 873.368 872.225 870.792 868.956 867.108 864.822 862.122 859.409 856.438 853.06 849.442 845.816 842.028 841.176 840.213 839.232 838.251 837.207 833.502 829.787 826.059 822.282 818.054 812.365 806.393 800.133 793.115 786.008 778.43 770.84 762.665 754.034 745.33 736.102 725.681 714.988 704.293 693.119 688.598 684.07 679.54 675.009 669.89 662.209 654.524 646.834 639.14 631.404 617.601 601.874 586.115 569.359 550.01 529.689 509.918 492.345 478.4 464.481 449.813 435.147 407.677 367.867 328.024 286.386 253.738 237.327 228.431 231.356 234.01 176.946 119.572 61.9018 0