# vtk DataFile Version 2.0
track0
ASCII
DATASET POLYDATA
POINTS 11930 float
-0.0205 0.001 1e-005
-0.0203851 0.00100536 1.50242e-005
-0.0202701 0.00101047 1.96637e-005
-0.0201551 0.00101535 2.39715e-005
-0.0200401 0.00102 2.79427e-005
-0.0198624 0.00102682 3.35494e-005
-0.0196934 0.00103276 3.80965e-005
-0.0195243 0.00103809 4.16119e-005
-0.0193551 0.00104282 4.41045e-005
-0.019186 0.00104693 4.55838e-005
-0.0190172 0.00105043 4.60581e-005
-0.0187132 0.00105595 4.60581e-005
-0.0184093 0.00106081 4.60581e-005
-0.0181054 0.00106516 4.60581e-005
-0.0178014 0.00106898 4.60581e-005
-0.0174976 0.00107227 4.60581e-005
-0.0172058 0.00107515 4.60581e-005
-0.016914 0.00107794 4.60581e-005
-0.0166222 0.00108066 4.60581e-005
-0.0163305 0.00108332 4.60581e-005
-0.0160387 0.00108591 4.60581e-005
-0.0157586 0.0010883 4.60581e-005
-0.0154784 0.00109062 4.60581e-005
-0.0151983 0.00109286 4.60581e-005
-0.0149182 0.00109502 4.60581e-005
-0.0146381 0.00109709 4.60581e-005
-0.0143692 0.00109896 4.60581e-005
-0.0141002 0.00110073 4.60581e-005
-0.0138313 0.00110243 4.60581e-005
-0.0135624 0.00110406 4.60581e-005
-0.0132934 0.00110561 4.60581e-005
-0.0130353 0.00110702 4.60581e-005
-0.0127771 0.00110837 4.60581e-005
-0.0125189 0.00110969 4.60581e-005
-0.0122607 0.00111096 4.60581e-005
-0.0120025 0.0011122 4.60581e-005
-0.0117547 0.00111336 4.60581e-005
-0.0115068 0.00111449 4.60581e-005
-0.0112589 0.0011156 4.60581e-005
-0.0110111 0.0011167 4.60581e-005
-0.0107632 0.00111778 4.60581e-005
-0.0105252 0.00111879 4.60581e-005
-0.0102873 0.0011198 4.60581e-005
-0.0100493 0.00112078 4.60581e-005
-0.00981133 0.00112176 4.60581e-005
-0.00957337 0.00112273 4.60581e-005
-0.00934491 0.00112364 4.60581e-005
-0.00911645 0.00112454 4.60581e-005
-0.00888799 0.00112543 4.60581e-005
-0.00865954 0.00112632 4.60581e-005
-0.00843108 0.00112719 4.60581e-005
-0.00821175 0.00112803 4.60581e-005
-0.00799242 0.00112885 4.60581e-005
-0.00777309 0.00112966 4.60581e-005
-0.00755376 0.00113048 4.60581e-005
-0.00733443 0.00113128 4.60581e-005
-0.00712387 0.00113205 4.60581e-005
-0.0069133 0.00113282 4.60581e-005
-0.00670273 0.00113358 4.60581e-005
-0.00649216 0.00113434 4.60581e-005
-0.0062816 0.00113509 4.60581e-005
-0.00607944 0.00113582 4.60581e-005
-0.00587729 0.00113653 4.60581e-005
-0.00567514 0.00113725 4.60581e-005
-0.00547298 0.00113797 4.60581e-005
-0.00527083 0.00113868 4.60581e-005
-0.00507675 0.00113937 4.60581e-005
-0.00488267 0.00114005 4.60581e-005
-0.0046886 0.00114073 4.60581e-005
-0.00449452 0.00114141 4.60581e-005
-0.00430044 0.00114209 4.60581e-005
-0.00411412 0.00114275 4.60581e-005
-0.0039278 0.0011434 4.60581e-005
-0.00374147 0.00114405 4.60581e-005
-0.00355515 0.00114471 4.60581e-005
-0.00336883 0.00114536 4.60581e-005
-0.00318995 0.00114599 4.60581e-005
-0.00301107 0.00114662 4.60581e-005
-0.00283219 0.00114724 4.60581e-005
-0.00265331 0.00114787 4.60581e-005
-0.00247443 0.0011485 4.60581e-005
-0.0023027 0.00114911 4.60581e-005
-0.00213097 0.00114971 4.60581e-005
-0.00195924 0.00115032 4.60581e-005
-0.0017875 0.00115092 4.60581e-005
-0.00161577 0.00115154 4.60581e-005
-0.0014509 0.00115213 4.60581e-005
-0.00128603 0.00115272 4.60581e-005
-0.00112116 0.00115331 4.60581e-005
-0.000956289 0.0011539 4.60581e-005
-0.000791418 0.00115449 4.60581e-005
-0.000633135 0.00115508 4.60581e-005
-0.000474851 0.00115566 4.60581e-005
-0.000316567 0.00115624 4.60581e-005
-0.000158284 0.00115682 4.60581e-005
0 0.00115741 4.60581e-005
0.000105677 0.00115781 4.60581e-005
0.000211355 0.00115821 4.60581e-005
0.000317032 0.00115861 4.60581e-005
0.00042271 0.00115901 4.60581e-005
0.000528387 0.00115942 4.60581e-005
0.000634886 0.00115984 4.60581e-005
0.000741385 0.00116026 4.60581e-005
0.000847885 0.00116068 4.60581e-005
0.000954384 0.00116111 4.60581e-005
0.00106088 0.00116155 4.60581e-005
0.00116821 0.001162 4.60581e-005
0.00127554 0.00116245 4.60581e-005
0.00138286 0.0011629 4.60581e-005
0.00149019 0.00116336 4.60581e-005
0.00159752 0.00116382 4.60581e-005
0.00170568 0.0011643 4.60581e-005
0.00181384 0.00116478 4.60581e-005
0.001922 0.00116526 4.60581e-005
0.00203016 0.00116573 4.60581e-005
0.00213833 0.00116621 4.60581e-005
0.00224733 0.00116671 4.60581e-005
0.00235633 0.0011672 4.60581e-005
0.00246533 0.00116769 4.60581e-005
0.00257434 0.00116818 4.60581e-005
0.00268334 0.00116868 4.60581e-005
0.00279319 0.00116917 4.60581e-005
0.00290304 0.00116968 4.60581e-005
0.00301289 0.00117019 4.60581e-005
0.00312274 0.00117069 4.60581e-005
0.00323259 0.0011712 4.60581e-005
0.00334329 0.0011717 4.60581e-005
0.003454 0.00117221 4.60581e-005
0.0035647 0.00117273 4.60581e-005
0.0036754 0.00117325 4.60581e-005
0.00378611 0.00117377 4.60581e-005
0.00389767 0.00117427 4.60581e-005
0.00400924 0.0011748 4.60581e-005
0.0041208 0.00117533 4.60581e-005
0.00423237 0.00117586 4.60581e-005
0.00434393 0.00117638 4.60581e-005
0.00445636 0.00117689 4.60581e-005
0.00456879 0.00117742 4.60581e-005
0.00468123 0.00117796 4.60581e-005
0.00479366 0.00117849 4.60581e-005
0.00490609 0.00117902 4.60581e-005
0.0050194 0.00117954 4.60581e-005
0.0051327 0.00118007 4.60581e-005
0.00524601 0.00118061 4.60581e-005
0.00535931 0.00118115 4.60581e-005
0.00547262 0.00118169 4.60581e-005
0.00558681 0.0011822 4.60581e-005
0.005701 0.00118274 4.60581e-005
0.00581518 0.00118328 4.60581e-005
0.00592937 0.00118382 4.60581e-005
0.00604356 0.00118436 4.60581e-005
0.00615863 0.00118488 4.60581e-005
0.00627371 0.00118542 4.60581e-005
0.00638878 0.00118596 4.60581e-005
0.00650386 0.0011865 4.60581e-005
0.00661893 0.00118704 4.60581e-005
0.0067349 0.00118756 4.60581e-005
0.00685087 0.0011881 4.60581e-005
0.00696684 0.00118864 4.60581e-005
0.00708281 0.00118918 4.60581e-005
0.00719878 0.00118972 4.60581e-005
0.00731565 0.00119024 4.60581e-005
0.00743252 0.00119077 4.60581e-005
0.00754939 0.00119131 4.60581e-005
0.00766626 0.00119184 4.60581e-005
0.00778313 0.00119238 4.60581e-005
0.00790091 0.0011929 4.60581e-005
0.00801869 0.00119343 4.60581e-005
0.00813647 0.00119396 4.60581e-005
0.00825425 0.00119449 4.60581e-005
0.00837203 0.00119502 4.60581e-005
0.00849073 0.00119554 4.60581e-005
0.00860942 0.00119606 4.60581e-005
0.00872812 0.00119659 4.60581e-005
0.00884682 0.00119711 4.60581e-005
0.00896551 0.00119763 4.60581e-005
0.00908513 0.00119815 4.60581e-005
0.00920475 0.00119867 4.60581e-005
0.00932437 0.00119918 4.60581e-005
0.00944398 0.0011997 4.60581e-005
0.0095636 0.00120022 4.60581e-005
0.00968415 0.00120073 4.60581e-005
0.0098047 0.00120124 4.60581e-005
0.00992525 0.00120175 4.60581e-005
0.0100458 0.00120226 4.60581e-005
0.0101663 0.00120277 4.60581e-005
0.0102878 0.00120327 4.60581e-005
0.0104093 0.00120377 4.60581e-005
0.0105308 0.00120428 4.60581e-005
0.0106523 0.00120478 4.60581e-005
0.0107738 0.00120528 4.60581e-005
0.0108962 0.00120577 4.60581e-005
0.0110186 0.00120627 4.60581e-005
0.0111411 0.00120676 4.60581e-005
0.0112635 0.00120726 4.60581e-005
0.0113859 0.00120774 4.60581e-005
0.0115093 0.00120823 4.60581e-005
0.0116327 0.00120872 4.60581e-005
0.0117561 0.0012092 4.60581e-005
0.0118795 0.00120968 4.60581e-005
0.0120028 0.00121016 4.60581e-005
0.0121272 0.00121064 4.60581e-005
0.0122515 0.00121112 4.60581e-005
0.0123759 0.00121159 4.60581e-005
0.0125002 0.00121206 4.60581e-005
0.0126245 0.00121253 4.60581e-005
0.0127498 0.00121299 4.60581e-005
0.0128752 0.00121346 4.60581e-005
0.0130005 0.00121392 4.60581e-005
0.0131258 0.00121438 4.60581e-005
0.0132511 0.00121484 4.60581e-005
0.0133774 0.00121528 4.60581e-005
0.0135036 0.00121574 4.60581e-005
0.0136299 0.00121619 4.60581e-005
0.0137562 0.00121663 4.60581e-005
0.0138825 0.00121707 4.60581e-005
0.0140098 0.00121751 4.60581e-005
0.014137 0.00121794 4.60581e-005
0.0142643 0.00121838 4.60581e-005
0.0143915 0.00121881 4.60581e-005
0.0145188 0.00121923 4.60581e-005
0.0146471 0.00121965 4.60581e-005
0.0147753 0.00122007 4.60581e-005
0.0149036 0.00122048 4.60581e-005
0.0150318 0.00122089 4.60581e-005
0.0151601 0.0012213 4.60581e-005
0.0152893 0.00122169 4.60581e-005
0.0154186 0.00122209 4.60581e-005
0.0155478 0.00122249 4.60581e-005
0.0156771 0.00122288 4.60581e-005
0.0158063 0.00122326 4.60581e-005
0.0159366 0.00122364 4.60581e-005
0.0160668 0.00122401 4.60581e-005
0.0161971 0.00122438 4.60581e-005
0.0163274 0.00122475 4.60581e-005
0.0164576 0.00122511 4.60581e-005
0.0165889 0.00122546 4.60581e-005
0.0167201 0.00122581 4.60581e-005
0.0168514 0.00122616 4.60581e-005
0.0169827 0.0012265 4.60581e-005
0.0171139 0.00122683 4.60581e-005
0.0172022 0.00122705 4.60581e-005
0.0172905 0.00122727 4.60581e-005
0.0173788 0.00122748 4.60581e-005
0.017467 0.00122769 4.60581e-005
0.0175527 0.00122789 4.60581e-005
0.0175972 0.001228 4.60581e-005
0.0176418 0.0012281 4.60581e-005
0.0176863 0.0012282 4.60581e-005
0.0177308 0.0012283 4.60581e-005
0.0177754 0.0012284 4.60581e-005
0.0179087 0.0012287 4.60581e-005
0.018042 0.00122899 4.60581e-005
0.0181753 0.00122928 4.60581e-005
0.0183087 0.00122955 4.60581e-005
0.018442 0.00122982 4.60581e-005
0.0185763 0.00123008 4.60581e-005
0.0187107 0.00123034 4.60581e-005
0.018845 0.00123059 4.60581e-005
0.0189794 0.00123083 4.60581e-005
0.0191137 0.00123106 4.60581e-005
0.0192491 0.00123128 4.60581e-005
0.0193845 0.0012315 4.60581e-005
0.0195199 0.00123171 4.60581e-005
0.0196553 0.00123191 4.60581e-005
0.0197907 0.0012321 4.60581e-005
0.0199272 0.00123228 4.60581e-005
0.0200636 0.00123246 4.60581e-005
0.0202001 0.00123263 4.60581e-005
0.0203365 0.00123278 4.60581e-005
0.020473 0.00123293 4.60581e-005
0.0206105 0.00123307 4.60581e-005
0.020748 0.0012332 4.60581e-005
0.0208855 0.00123332 4.60581e-005
0.021023 0.00123343 4.60581e-005
0.0211606 0.00123353 4.60581e-005
0.0212991 0.00123363 4.60581e-005
0.0214377 0.00123371 4.60581e-005
0.0215763 0.00123378 4.60581e-005
0.0217149 0.00123384 4.60581e-005
0.0218535 0.00123389 4.60581e-005
0.0219931 0.00123393 4.60581e-005
0.0221328 0.00123396 4.60581e-005
0.0222724 0.00123398 4.60581e-005
0.0224121 0.00123399 4.60581e-005
0.0225517 0.00123399 4.60581e-005
0.0226925 0.00123398 4.60581e-005
[...]
POINT_DATA 11930
 FIELD attributes 2
p 1 11930 float
-1549.76 -1537.18 -1523.39 -1509.75 -1496.26 -1475.66 -1461.02 -1446.3 -1431.5 -1416.63 -1395.88 -1347.78 -1299.74 -1251.77 -1203.86 -1161.38 -1129.71 -1104.23 -1078.75 -1053.29 -1036.44 -1024.66 -1015.17 -1005.69 -996.207 -988.585 -981.82 -973.911 -966.003 -958.094 -949.051 -940.589 -931.941 -923.288 -914.653 -906.248 -898.276 -891.087 -883.99 -877.045 -871.016 -865.244 -860.048 -854.974 -850.055 -845.727 -841.569 -837.636 -833.771 -829.995 -826.464 -823.063 -819.791 -816.573 -813.426 -810.436 -807.545 -804.778 -802.076 -799.456 -796.978 -794.568 -792.269 -790.042 -787.898 -785.875 -783.893 -781.992 -780.155 -778.393 -776.718 -775.059 -773.462 -771.922 -770.449 -769.044 -767.628 -766.26 -764.943 -763.691 -762.493 -761.26 -760.07 -758.933 -757.866 -756.85 -755.771 -754.721 -753.712 -752.776 -751.885 -750.907 -749.979 -749.138 -748.414 -747.751 -747.009 -746.326 -745.751 -745.31 -744.951 -744.416 -743.92 -743.481 -743.138 -742.871 -742.422 -742.079 -741.855 -741.752 -741.765 -741.598 -741.515 -741.509 -741.567 -741.705 -741.803 -741.89 -741.969 -742.039 -742.097 -742.368 -742.538 -742.65 -742.702 -742.641 -743.035 -743.255 -743.397 -743.453 -743.302 -743.775 -744.018 -744.18 -744.255 -744.046 -744.543 -744.767 -744.92 -744.998 -744.745 -745.203 -745.375 -745.493 -745.56 -745.289 -745.674 -745.801 -745.898 -745.968 -745.732 -746.043 -746.146 -746.237 -746.321 -746.152 -746.39 -746.472 -746.552 -746.633 -746.535 -746.694 -746.756 -746.819 -746.881 -746.842 -746.939 -746.99 -747.042 -747.093 -747.105 -747.166 -747.219 -747.272 -747.324 -747.377 -747.423 -747.48 -747.536 -747.592 -747.669 -747.715 -747.775 -747.835 -747.895 -747.984 -748.04 -748.107 -748.173 -748.239 -748.33 -748.408 -748.484 -748.559 -748.635 -748.725 -748.829 -748.918 -749.007 -749.097 -749.185 -749.317 -749.421 -749.526 -749.63 -749.718 -749.876 -749.994 -750.113 -750.231 -750.322 -750.499 -750.631 -750.762 -750.894 -750.99 -751.181 -751.326 -751.47 -751.614 -751.721 -751.923 -752.08 -752.237 -752.394 -752.517 -752.724 -752.893 -753.062 -753.231 -753.373 -753.584 -753.768 -753.952 -754.135 -754.301 -754.518 -754.718 -754.919 -755.119 -755.312 -755.461 -755.605 -755.748 -755.891 -756.03 -756.102 -756.174 -756.246 -756.318 -756.402 -756.618 -756.844 -757.071 -757.297 -757.57 -757.768 -758.007 -758.246 -758.485 -758.801 -758.986 -759.238 -759.49 -759.741 -760.095 -760.273 -760.537 -760.801 -761.065 -761.448 -761.626 -761.902 -762.177 -762.453 -762.857 -763.043 -763.33 -763.617 -763.904 -764.32 -764.521 -764.819 -765.117 -765.415 -765.834 -766.057 -766.365 -766.673 -766.982 -767.394 -767.646 -767.964 -768.282 -768.6 -768.998 -769.284 -769.611 -769.938 -770.265 -770.643 -770.966 -771.301 -771.637 -771.972 -772.325 -772.687 -773.03 -773.373 -773.716 -774.041 -774.44 -774.793 -775.144 -775.489 -775.79 -776.218 -776.587 -776.945 -777.287 -777.571 -778.022 -778.409 -778.774 -779.11 -779.383 -779.85 -780.258 -780.629 -780.957 -781.225 -781.704 -782.132 -782.511 -782.831 -783.101 -783.59 -784.039 -784.426 -784.738 -785.009 -785.506 -785.975 -786.368 -786.67 -786.943 -787.444 -787.928 -788.324 -788.615 -788.89 -789.387 -789.88 -790.276 -790.559 -790.841 -791.328 -791.816 -792.208 -792.5 -792.791 -793.267 -793.743 -794.134 -794.438 -794.741 -795.203 -795.666 -796.056 -796.372 -796.687 -797.134 -797.582 -797.97 -798.298 -798.626 -799.057 -799.488 -799.873 -800.212 -800.551 -800.966 -801.382 -801.763 -802.111 -802.459 -802.859 -803.258 -803.635 -803.99 -804.344 -804.728 -805.113 -805.484 -805.843 -806.202 -806.571 -806.94 -807.305 -807.666 -808.026 -808.381 -808.737 -809.095 -809.454 -809.813 -810.154 -810.498 -810.848 -811.2 -811.556 -811.883 -812.217 -812.557 -812.899 -813.248 -813.561 -813.885 -814.213 -814.543 -814.882 -815.18 -815.493 -815.808 -816.124 -816.45 -816.733 -817.033 -817.332 -817.632 -817.941 -818.209 -818.491 -818.773 -819.055 -819.346 -819.596 -819.859 -820.122 -820.386 -820.658 -820.889 -821.132 -821.375 -821.618 -821.867 -822.08 -822.301 -822.522 -822.743 -822.967 -823.16 -823.357 -823.554 -823.751 -823.949 -823.955 -823.962 -823.969 -823.976 -823.982 -824.147 -824.312 -824.477 -824.642 -824.806 -824.95 -825.091 -825.233 -825.375 -825.513 -825.628 -825.737 -825.847 -825.956 -826.059 -826.145 -826.22 -826.295 -826.37 -826.436 -826.489 -826.528 -826.566 -826.605 -826.629 -826.65 -826.648 -826.648 -826.645 -826.627 -826.607 -826.569 -826.526 -826.477 -826.415 -826.352 -826.275 -826.188 -826.09 -825.982 -825.874 -825.757 -825.623 -825.472 -825.315 -825.16 -825.001 -824.818 -824.612 -824.404 -824.198 -823.992 -823.757 -823.496 -823.236 -822.977 -822.719 -822.431 -822.114 -821.798 -821.484 -821.171 -820.828 -820.454 -820.08 -819.709 -819.337 -818.937 -818.503 -818.069 -817.638 -817.204 -816.741 -816.25 -815.754 -815.26 -814.755 -814.229 -813.683 -813.122 -812.564 -811.985 -811.393 -810.791 -810.163 -809.538 -808.883 -808.222 -807.562 -806.865 -806.167 -805.435 -804.704 -803.973 -803.217 -802.436 -801.632 -800.828 -800.024 -799.206 -798.34 -797.461 -796.582 -795.703 -794.821 -794.583 -794.342 -794.101 -793.861 -793.624 -792.912 -792.2 -791.488 -790.777 -790.054 -789.036 -788.007 -786.978 -785.949 -784.893 -783.811 -782.701 -781.592 -780.483 -779.329 -778.182 -776.991 -775.799 -774.6 -773.353 -772.126 -770.865 -769.59 -768.289 -766.956 -765.644 -764.317 -762.957 -761.55 -760.13 -758.732 -757.334 -755.883 -754.375 -752.868 -751.382 -749.896 -748.355 -746.759 -745.163 -743.587 -742.012 -740.381 -738.694 -737.008 -735.342 -733.666 -731.938 -730.175 -728.398 -726.641 -724.849 -723.029 -721.196 -719.326 -717.478 -715.569 -713.655 -711.742 -709.789 -707.827 -705.819 -703.812 -701.805 -699.781 -698.18 -696.559 -694.938 -693.318 -691.777 -691.284 -690.79 -690.297 -689.803 -689.303 -687.125 -684.942 -682.759 -680.577 -678.361 -676.112 -673.835 -671.557 -669.281 -666.941 -664.612 -662.249 -659.877 -657.476 -655.04 -652.616 -650.184 -647.717 -645.19 -642.659 -640.14 -637.621 -635.05 -632.423 -629.796 -627.182 -624.568 -621.896 -619.174 -616.453 -613.744 -611.009 -608.235 -605.446 -602.63 -599.827 -596.963 -594.095 -591.227 -588.329 -585.403 -582.44 -579.478 -576.517 -573.554 -573.46 -573.365 -573.269 -573.173 -573.078 -570.125 -567.173 -564.221 -561.269 -558.293 -555.17 -552.031 -548.893 -545.752 -542.567 -539.362 -536.142 -532.914 -529.658 -526.383 -523.089 -519.794 -516.472 -513.11 -509.748 -506.365 -502.983 -499.564 -496.117 -492.669 -489.2 -485.718 -482.207 -478.688 -475.157 -471.605 -468.014 -464.42 -460.827 -457.223 -454.547 -451.854 -449.16 -446.467 -443.884 -442.883 -441.883 -440.883 -439.883 -438.875 -435.133 -431.388 -427.644 -423.9 -420.121 -416.318 -412.499 -408.68 -404.844 -400.981 -397.105 -393.228 -389.335 -385.403 -381.471 -377.524 -373.578 -369.602 -365.603 -361.604 -357.589 -353.562 -349.512 -345.459 -341.396 -337.316 -333.204 -329.092 -324.98 -320.864 -319.28 -317.687 -316.095 -314.503 -312.941 -310.359 -307.777 -305.195 -302.613 -300.016 -295.799 -291.576 -287.354 -283.128 -278.872 -274.606 -270.336 -266.062 -261.763 -257.457 -253.141 -248.824 -244.491 -240.141 -235.789 -231.426 -227.057 -222.669 -218.28 -213.887 -209.481 -205.053 -200.626 -196.199 -191.77 -190.468 -189.161 -187.855 -186.549 -185.261 -182.1 -178.939 -175.778 -172.618 -169.444 -164.949 -160.453 -155.957 -151.455 -146.938 -142.412 -137.887 -133.361 -128.818 -124.274 -119.721 -115.169 -110.603 -106.036 -101.467 -96.8892 -92.3037 -87.7143 -83.1255 -78.5376 -75.542 -72.5429 -69.544 -66.5453 -63.6314 -62.0082 -60.3851 -58.762 -57.139 -55.5129 -50.8915 -46.2724 -41.6539 -37.0347 -32.4044 -27.7686 -23.1354 -18.5066 -13.8706 -9.23207 -4.58741 0.056668 4.70305 9.34282 13.9847 18.6334 23.2826 27.932 32.5809 37.2247 39.8859 42.5465 45.207 47.8673 50.4669 52.4693 54.4717 56.474 58.4763 60.4794 65.1358 69.7859 74.4355 79.0845 83.7347 88.3887 93.0414 97.6825 102.32 106.96 111.604 116.247 120.884 125.513 130.139 134.77 139.392 144.014 148.636 153.256 153.911 154.565 155.218 155.872 156.522 160.483 164.443 168.403 172.363 176.318 180.927 185.525 190.119 194.705 199.29 203.877 208.464 213.038 217.596 222.156 226.718 231.271 235.817 240.363 244.901 246.813 248.718 250.623 252.528 254.407 257.033 259.659 262.285 264.911 267.53 272.045 276.546 281.047 285.539 290.025 294.509 298.993 303.46 307.91 312.362 316.812 321.252 325.682 330.111 334.531 336.514 338.488 340.462 342.436 344.384 346.817 349.25 351.682 354.115 356.538 360.923 365.292 369.662 374.019 378.371 382.716 387.06 391.387 395.694 400.004 404.307 408.594 412.874 417.154 421.428 422.508 423.583 424.657 425.73 426.797 429.974 433.151 436.327 439.503 442.664 446.888 451.101 455.309 459.497 463.684 467.86 472.036 476.189 480.33 484.469 488.008 491.528 495.045 498.562 502.01 502.612 503.215 503.817 504.418 505.017 509.094 513.166 517.238 521.304 525.353 529.388 533.423 537.437 541.432 545.429 549.41 553.377 557.332 561.287 565.235 566.27 567.3 568.328 569.357 570.38 573.268 576.157 579.045 581.93 584.799 588.679 592.553 596.415 600.25 604.086 607.906 611.718 615.508 619.297 623.07 624.747 626.414 628.077 629.739 631.396 633.474 635.552 637.631 639.706 641.767 645.472 649.163 652.848 656.503 660.156 663.79 667.419 671.015 674.605 678.177 679.962 681.737 683.507 685.278 687.057 688.823 690.588 692.354 694.116 695.867 699.373 702.838 706.289 709.666 713.028 716.37 719.727 723.215 726.721 730.269 732.145 733.669 735.082 736.497 737.945 739.389 740.833 742.276 743.633 744.686 746.914 749.915 753.017 757.449 762.233 766.902 771.154 773.609 776.067 777.996 778.24 778.539 778.923 779.307 779.694 781.423 783.152 784.883 787.079 789.578 792.547 795.516 798.345 801.162 803.919 804.597 805.261 805.9 806.539 807.193 809.284 811.374 813.464 815.487 817.469 820.105 822.74 825.288 827.801 830.275 831.005 831.719 832.402 833.085 833.795 835.536 837.277 839.015 840.688 842.32 844.627 846.931 849.088 851.135 853.147 853.912 854.642 855.317 855.991 856.712 857.906 859.098 860.287 861.4 862.454 864.131 865.8 867.267 868.53 869.784 870.507 871.139 871.662 872.183 872.776 873.183 873.589 873.993 874.345 874.637 875.319 875.868 876.341 876.451 876.552 876.519 876.3 875.829 875.352 874.762 874.624 874.434 874.217 874 873.772 872.899 872.014 871.118 870.091 868.79 867.023 865.244 863.022 860.389 857.743 854.84 851.558 848.004 844.443 840.691 839.709 838.597 837.462 836.327 835.106 831.61 828.104 824.587 821.02 817.022 811.395 805.456 799.257 792.32 785.269 777.748 770.215 762.107 753.507 744.851 735.673 725.326 714.675 704.022 692.862 688.135 683.396 678.655 673.913 668.522 661.098 653.668 646.235 638.797 631.314 617.491 601.793 586.063 569.373 550.047 529.749 510.032 492.469 478.488 464.563 449.889 435.216 407.75 367.959 328.134 286.515 253.761 237.33 228.495 231.358 234.028 177.071 119.702 62.0391 0