/*--------------------------------*- C++ -*----------------------------------*\
| =========                 |                                                 |
| \\      /  F ield         | OpenFOAM: The Open Source CFD Toolbox           |
|  \\    /   O peration     | Version:  5.x                                   |
|   \\  /    A nd           | Web:      www.OpenFOAM.org                      |
|    \\/     M anipulation  |                                                 |
\*---------------------------------------------------------------------------*/
/*   Windows 32 and 64 bit porting by blueCAPE: http://www.bluecape.com.pt   *\
|  Based on Windows porting (2.0.x v4) by Symscape: http://www.symscape.com   |
\*---------------------------------------------------------------------------*/
FoamFile
{
    version     2.0;
    format      ascii;
    class       volScalarField;
    location    "31";
    object      nut;
}
// * * * * * * * * * * * * * * * * * * * * * * * * * * * * * * * * * * * * * //

dimensions      [0 2 -1 0 0 0 0];

internalField   nonuniform List<scalar> 
4000
(
5.02403e-005
4.70849e-005
4.46165e-005
4.28446e-005
4.16859e-005
4.09951e-005
4.06203e-005
4.04386e-005
4.03656e-005
4.03499e-005
4.03626e-005
4.03883e-005
4.04183e-005
4.04492e-005
4.04797e-005
4.05102e-005
4.05411e-005
4.05722e-005
4.06035e-005
4.06351e-005
4.06669e-005
4.06992e-005
4.0732e-005
4.07652e-005
4.07989e-005
4.0833e-005
4.08674e-005
4.09022e-005
4.09371e-005
4.09712e-005
4.10023e-005
4.10309e-005
4.10565e-005
4.10801e-005
4.11027e-005
4.11236e-005
4.11429e-005
4.11625e-005
4.11829e-005
4.12041e-005
4.12258e-005
4.12481e-005
4.12708e-005
4.1294e-005
4.13174e-005
4.13408e-005
4.1364e-005
4.1387e-005
4.14096e-005
4.14321e-005
4.14546e-005
4.14771e-005
4.14999e-005
4.15228e-005
4.15459e-005
4.15692e-005
4.15928e-005
4.16165e-005
4.16405e-005
4.16646e-005
4.16888e-005
4.17131e-005
4.17376e-005
4.17621e-005
4.17868e-005
4.18115e-005
4.18364e-005
4.18614e-005
4.18865e-005
4.19117e-005
4.1937e-005
4.19624e-005
4.1988e-005
4.20136e-005
4.20394e-005
4.20652e-005
4.20911e-005
4.21172e-005
4.21433e-005
4.21695e-005
4.21958e-005
4.22221e-005
4.22485e-005
4.2275e-005
4.23014e-005
4.2328e-005
4.23544e-005
4.23806e-005
4.24065e-005
4.24321e-005
4.24574e-005
4.24826e-005
4.25076e-005
4.25326e-005
4.25577e-005
4.25827e-005
4.26077e-005
4.26329e-005
4.2658e-005
4.26831e-005
4.27082e-005
4.27334e-005
4.27586e-005
4.27837e-005
4.2809e-005
4.28343e-005
4.28598e-005
4.28854e-005
4.29113e-005
4.29374e-005
4.29637e-005
4.29902e-005
4.30168e-005
4.30434e-005
4.307e-005
4.30966e-005
4.31232e-005
4.31499e-005
4.31764e-005
4.3203e-005
4.32296e-005
4.32561e-005
4.32827e-005
4.33091e-005
4.33356e-005
4.33621e-005
4.33885e-005
4.34149e-005
4.34413e-005
4.34677e-005
4.3494e-005
4.35204e-005
4.35466e-005
4.35729e-005
4.3599e-005
4.36251e-005
4.31838e-005
4.27289e-005
4.36206e-005
4.37285e-005
4.37542e-005
4.378e-005
4.38058e-005
4.38317e-005
4.38575e-005
4.38833e-005
4.39088e-005
4.35637e-005
4.319e-005
4.28252e-005
4.25023e-005
4.21692e-005
4.18853e-005
4.15922e-005
4.13942e-005
4.11216e-005
4.08065e-005
4.0462e-005
4.01346e-005
3.98015e-005
3.95751e-005
3.93267e-005
3.92114e-005
3.89896e-005
3.87572e-005
3.8463e-005
3.80152e-005
3.68767e-005
3.38123e-005
3.34944e-005
3.3709e-005
3.41238e-005
3.47649e-005
3.755e-005
4.03424e-005
4.08889e-005
4.00735e-005
4.08405e-005
3.77946e-005
3.71657e-005
3.76445e-005
3.81948e-005
4.15255e-005
4.42971e-005
4.49075e-005
4.49393e-005
4.49714e-005
4.50035e-005
4.50354e-005
3.94248e-005
3.37877e-005
2.87428e-005
2.82321e-005
2.90454e-005
3.01773e-005
3.13728e-005
3.21055e-005
3.25067e-005
3.20821e-005
3.25096e-005
0.00132349
0.000764601
0.000587639
0.000505491
0.000463757
0.000442643
0.000432512
0.000428103
0.000426511
0.000426201
0.00042641
0.000426563
0.000425986
0.000424415
0.0004217
0.000418702
0.000415266
0.000411738
0.000408455
0.000405464
0.000402769
0.000400369
0.000398238
0.00039634
0.000394653
0.000393156
0.000391825
0.000390637
0.000380657
0.000370981
0.000365597
0.000360572
0.000355824
0.000351208
0.000346521
0.000342143
0.000337423
0.000334407
0.00032976
0.000327194
0.000325099
0.000324141
0.000326819
0.000332195
0.000337314
0.000342457
0.000342723
0.000343977
0.000341688
0.000340725
0.000338212
0.000336289
0.000333896
0.000331393
0.00032854
0.000326043
0.000321882
0.000319654
0.000314518
0.000314493
0.000311516
0.000310078
0.000307731
0.00030383
0.00030118
0.000297298
0.000294767
0.000291496
0.00028885
0.000286817
0.000285655
0.000286062
0.000286136
0.000287889
0.000286597
0.000286403
0.000284296
0.000282936
0.000281018
0.000279184
0.00027749
0.000275505
0.000274052
0.000272272
0.000270753
0.000269497
0.000268149
0.000266878
0.000265971
0.000264057
0.000263463
0.000261618
0.000261113
0.000260111
0.000259798
0.000258549
0.000257601
0.000256321
0.000255752
0.00025409
0.000252971
0.000251766
0.000249921
0.000250244
0.000247534
0.000248099
0.000244798
0.000244964
0.000241206
0.000239309
0.000235389
0.000232211
0.000228855
0.000225949
0.00022332
0.000221264
0.000219002
0.000216768
0.000214408
0.000211456
0.000209601
0.000206917
0.000205337
0.000202508
0.000200916
0.000198053
0.000196796
0.000192889
0.000185861
0.000175135
0.000172719
0.000168531
0.000172835
0.000178918
0.000178713
0.000173344
0.000166933
0.000164901
0.000165367
0.000167442
0.000172076
0.000173659
0.000174693
0.000172522
0.000170904
0.000168123
0.000166587
0.000164915
0.00016351
0.00016229
0.00016077
0.000159921
0.000158243
0.000158371
0.000157571
0.00015707
0.000156109
0.000154814
0.000153652
0.000152315
0.000152042
0.000150844
0.00015197
0.000151187
0.000151248
0.000149126
0.000147173
0.000139871
0.000136138
0.00013804
0.000140888
0.000143277
0.000146661
0.000149955
0.00015669
0.000163061
0.000164091
0.000163544
0.000158279
0.000158392
0.000162243
0.00016927
0.000182952
0.000196848
0.000196216
0.000179082
0.00015984
0.000149258
0.000187013
0.000164699
0.0001492
0.000126872
0.000112744
0.000109857
0.000111329
0.000116135
0.000123195
0.00012857
0.000126598
0.00012683
0.005206
0.00343733
0.00270764
0.00235696
0.0021831
0.00209846
0.00205941
0.002043
0.00203724
0.00203616
0.00203721
0.00204137
0.00205181
0.00206449
0.00207756
0.00208682
0.00194964
0.00181732
0.00170489
0.00160671
0.0015196
0.0014425
0.00137225
0.0013117
0.00125879
0.00120831
0.00116368
0.00112456
0.0010886
0.00105352
0.0010192
0.000986097
0.000954579
0.00092801
0.000905634
0.000888352
0.000868097
0.00084448
0.000828755
0.000832306
0.000853118
0.000899442
0.000953799
0.000998226
0.00101055
0.00101569
0.00100818
0.00099349
0.000979732
0.000959231
0.000943144
0.000923671
0.000904471
0.000888184
0.000869204
0.000850777
0.000826621
0.000797507
0.000769416
0.000744806
0.000729555
0.000722075
0.000718311
0.000707362
0.000681416
0.000660905
0.000646201
0.000635321
0.00062618
0.000619408
0.000615667
0.000614386
0.000614835
0.00061627
0.000614623
0.000609379
0.00060369
0.000595623
0.000587444
0.000578966
0.000571407
0.000564274
0.000556656
0.000548128
0.000539948
0.000532419
0.000526673
0.000521859
0.000517589
0.000512911
0.000506789
0.000501128
0.000495601
0.000490882
0.00048901
0.000509803
0.000525529
0.000526277
0.000524636
0.000520426
0.000517247
0.000514482
0.000513352
0.000511416
0.000507342
0.000501733
0.000496935
0.000490308
0.000481557
0.000470946
0.000461299
0.000451428
0.000443132
0.000434397
0.000428081
0.000421922
0.000417033
0.000410379
0.000404405
0.000397927
0.000393317
0.000386083
0.000381258
0.000378177
0.000375963
0.000372491
0.000367869
0.000349564
0.00031725
0.000314609
0.000317406
0.000320787
0.00030305
0.000339927
0.00048859
0.000667237
0.000771989
0.000642759
0.000428882
0.000328095
0.000321921
0.000326106
0.00030217
0.000292328
0.000296127
0.000295236
0.00029326
0.000290407
0.000288406
0.000287366
0.000287012
0.000284657
0.0002823
0.00027928
0.000246557
0.000241496
0.000260888
0.000270864
0.000276025
0.00027646
0.000274773
0.000264938
0.000238953
0.000237969
0.000263843
0.000277108
0.000280134
0.000454105
0.00212909
0.00231777
0.00231693
0.00231631
0.00209805
0.000869908
0.000651692
0.00120109
0.00171942
0.000671268
0.00179253
0.00231955
0.00174753
0.00231923
0.00105887
0.00106014
0.000813853
0.000822199
0.000250057
0.000228325
0.000577469
0.0010736
0.00229329
0.00228224
0.000563631
0.000261404
0.00021859
0.000180522
0.000199654
0.000200449
0.000190937
0.000185751
0.00721446
0.00693107
0.00617821
0.00574585
0.00551774
0.00540621
0.00535621
0.00533639
0.00533034
0.00533026
0.00533379
0.00534474
0.00536947
0.0054097
0.00546713
0.00552682
0.00536727
0.00499457
0.00468558
0.00442479
0.00415628
0.00391537
0.00371857
0.00351793
0.00333556
0.00317891
0.00301306
0.00283678
0.00266736
0.00254115
0.00242975
0.00232445
0.00223377
0.0021645
0.00210899
0.00204918
0.0019752
0.0019121
0.00194693
0.0021487
0.00255332
0.00340703
0.00461344
0.00569901
0.00634339
0.00671433
0.00672571
0.00673585
0.00674605
0.0067565
0.00630824
0.00597822
0.00566119
0.00560171
0.0056275
0.00580479
0.00591574
0.00552425
0.00477518
0.00393074
0.00344312
0.00331992
0.00350189
0.00374235
0.00365939
0.00331515
0.00298052
0.00282918
0.0026713
0.00240699
0.00204754
0.00166951
0.00135519
0.0012255
0.00117475
0.00113541
0.00110276
0.00107298
0.00104572
0.00102313
0.00100197
0.000981189
0.000956968
0.000930774
0.000903496
0.000878297
0.000860092
0.00084815
0.000840144
0.000831531
0.000819105
0.000805587
0.000783011
0.000772221
0.000766378
0.000791105
0.000862502
0.000883707
0.000885461
0.000884326
0.000886135
0.000880987
0.000867269
0.000849661
0.000833569
0.000805115
0.000787903
0.000763323
0.000750364
0.000734679
0.000724372
0.000712597
0.000699608
0.000685667
0.000672135
0.000657277
0.000641529
0.000630861
0.000618675
0.000609222
0.00059549
0.00058383
0.000577397
0.000583595
0.000606007
0.000632627
0.000647976
0.00064336
0.00159099
0.00637223
0.00636385
0.00635541
0.000770846
0.000576916
0.00089669
0.00127831
0.00134925
0.00129049
0.00108071
0.000911275
0.00073165
0.000594668
0.000460069
0.000420597
0.000418674
0.000470998
0.000478307
0.000466058
0.000454841
0.000456971
0.000479303
0.000504683
0.000492236
0.000398464
0.000352062
0.000353836
0.000359007
0.000407221
0.00043637
0.000459097
0.000449204
0.000370385
0.00034462
0.000354948
0.000383927
0.000510412
0.000681195
0.00116745
0.00198185
0.00122119
0.00100386
0.000908935
0.000882594
0.00173497
0.00172609
0.000660212
0.000572489
0.000613408
0.000744291
0.000617957
0.000405467
0.000343703
0.000527363
0.000781826
0.00057147
0.000465631
0.000412162
0.000219221
0.000223213
0.000438834
0.000328648
0.000396835
0.000590672
0.000625941
0.000768214
0.000647676
0.000780215
0.000333378
0.000249287
0.000174476
0.00727501
0.00903274
0.00869722
0.00848113
0.00836107
0.00830192
0.00827604
0.00826646
0.00826416
0.00826495
0.00826774
0.00827425
0.00828771
0.00831283
0.00835036
0.00839146
0.00843262
0.00847696
0.00852129
0.00856433
0.00860648
0.00864682
0.00868431
0.00871901
0.00875207
0.00878268
0.00881107
0.00859632
0.00818369
0.00782284
0.00752288
0.00731753
0.00723087
0.0071461
0.00702535
0.00686548
0.00671
0.0067644
0.0066906
0.00647951
0.00619945
0.00625193
0.00679355
0.00685297
0.00684954
0.006956
0.00715989
0.00749286
0.00791834
0.00840434
0.0087605
0.00927189
0.00929479
0.00930225
0.00930946
0.00931634
0.00932271
0.00932831
0.00933304
0.00933726
0.00934069
0.00934231
0.00934201
0.00934066
0.00933879
0.00933631
0.00933331
0.00932954
0.00932585
0.00932215
0.00931856
0.00931479
0.00931059
0.0093064
0.00930264
0.00929931
0.00929626
0.00929319
0.00929023
0.00928708
0.00928384
0.00928043
0.00927668
0.00927293
0.00926902
0.00926493
0.00926059
0.00925609
0.00925108
0.00924507
0.00923795
0.00923034
0.00922266
0.009215
0.00881127
0.0029955
0.00180595
0.00161478
0.00160564
0.00161755
0.00160111
0.00151698
0.00140083
0.00132444
0.00127182
0.00120783
0.00115017
0.00110453
0.00108454
0.00107468
0.00107228
0.00106635
0.00105056
0.00102487
0.000994364
0.000967092
0.000943867
0.000934882
0.000930522
0.000913774
0.000881787
0.00088417
0.000882533
0.000880481
0.000906775
0.00099707
0.00120873
0.00179719
0.00446644
0.00418808
0.00283291
0.00290283
0.00213653
0.00114005
0.000882293
0.00222001
0.00198275
0.00180264
0.00215513
0.00192673
0.00127054
0.000627787
0.000808231
0.000957335
0.000650646
0.00067464
0.000717685
0.000706661
0.000680254
0.00067103
0.000678905
0.000707617
0.000700372
0.000626804
0.00613746
0.00858279
0.00102149
0.000624425
0.00062624
0.000666078
0.000642744
0.000898846
0.00850342
0.00849343
0.000605607
0.000601602
0.000733708
0.000759282
0.00071455
0.000701573
0.00117553
0.00125676
0.000987858
0.00070913
0.000796128
0.000527067
0.000752699
0.000825189
0.000629586
0.00103807
0.00107471
0.000824078
0.000807259
0.000741917
0.000468361
0.000435974
0.000783225
0.000295293
0.000150403
0.000305145
0.00061884
0.000395456
0.000428386
0.000734263
0.000567643
0.000442802
0.00032468
0.000514689
0.000288372
0.000209408
0.00698012
0.00976593
0.00967251
0.00960815
0.00957122
0.00955291
0.00954499
0.00954229
0.00954177
0.00954217
0.00954321
0.00954516
0.00954876
0.00955501
0.00956373
0.00957357
0.00958352
0.00959358
0.00960357
0.00961321
0.00962287
0.00963229
0.00964107
0.0096496
0.00965842
0.00966707
0.00967517
0.00968292
0.00969152
0.00968666
0.00929873
0.00898895
0.00876876
0.00856851
0.00839986
0.00821785
0.00808581
0.0081185
0.00800528
0.00754944
0.00698796
0.00674544
0.00666296
0.00651495
0.00626244
0.0060445
0.00594581
0.00593998
0.00598055
0.00608643
0.00614088
0.00610958
0.00599877
0.00576579
0.00553317
0.00527199
0.00481513
0.00438283
0.00448089
0.00540252
0.00593016
0.00629853
0.00597499
0.00485637
0.00377558
0.00326407
0.0031024
0.00308128
0.00306816
0.00309733
0.0031329
0.00319414
0.00327512
0.00342584
0.00363658
0.00400053
0.00540475
0.00968967
0.00986735
0.00986803
0.00986852
0.00986901
0.00986949
0.00968031
0.00895297
0.0097427
0.00987086
0.00987116
0.00987135
0.00919988
0.00815165
0.00696966
0.00582572
0.00513068
0.00578197
0.00551237
0.00434447
0.00625142
0.00590053
0.00528558
0.00498811
0.00480875
0.00497698
0.00572855
0.0062497
0.00840464
0.00986595
0.00986489
0.00986372
0.00986256
0.0098613
0.00985994
0.00985868
0.00985732
0.00985597
0.00985442
0.00985296
0.00985151
0.00984987
0.00984832
0.00972606
0.0087773
0.0088624
0.00807796
0.00579716
0.00310263
0.00174239
0.00160612
0.0019427
0.00253371
0.00232346
0.00210082
0.00234211
0.0098239
0.000946559
0.00134288
0.0078533
0.00981687
0.00320443
0.00215235
0.000808347
0.0008076
0.00150199
0.00978785
0.0097826
0.00157527
0.00134629
0.00365915
0.00541698
0.00491767
0.00228333
0.00190694
0.00141694
0.00345843
0.00476896
0.00434058
0.00295554
0.00542026
0.00474464
0.00302731
0.00284848
0.0029577
0.00785753
0.00347142
0.000785114
0.000981781
0.00123011
0.00111872
0.00131009
0.00057241
0.000440361
0.000693766
0.000813494
0.000586064
0.0003594
0.000336097
0.000768375
0.000696078
0.000691421
0.000479034
0.00128181
0.00128931
0.00053557
0.000460236
0.000455959
0.000504601
0.00112502
0.000295141
0.000167205
0.000283986
0.000326499
0.000333021
0.00140563
0.00043005
0.000228113
0.000218909
0.000232743
0.000131805
0.000163797
0.00298841
0.00698176
0.0099522
0.00993219
0.00991756
0.00990891
0.00990457
0.00990271
0.00990205
0.00990197
0.00990218
0.00990238
0.00990278
0.00990348
0.00990468
0.00990606
0.00990783
0.00990951
0.00991128
0.00991306
0.00991473
0.00991651
0.00991818
0.00991986
0.00992145
0.00992303
0.00992462
0.00992619
0.00992768
0.00992917
0.00993066
0.00993215
0.00993344
0.00993474
0.00993593
0.00993722
0.00993862
0.00994021
0.0099419
0.00994349
0.00994498
0.00969582
0.00962994
0.00933375
0.00878591
0.00818091
0.00780816
0.00759753
0.00749566
0.00741049
0.00741436
0.00734777
0.00726112
0.00713616
0.00688878
0.00652895
0.00603694
0.0056612
0.00542856
0.00536829
0.0055883
0.00642366
0.0074785
0.00780367
0.00692806
0.00556111
0.0047507
0.00449555
0.00450448
0.00489062
0.00534345
0.0058782
0.00635649
0.00650858
0.00651955
0.00615884
0.00643488
0.00854084
0.00820028
0.00790253
0.00788629
0.00779831
0.00780374
0.00771442
0.00767941
0.00755329
0.00735228
0.00701615
0.00694893
0.00630666
0.00673344
0.00611522
0.00605915
0.00546777
0.00599155
0.00705027
0.00772455
0.00318739
0.00231219
0.00230934
0.00238456
0.00240328
0.0022659
0.00190501
0.00178666
0.00178088
0.00184009
0.00195993
0.00223273
0.00350482
0.00623484
0.0091514
0.00997437
0.00990176
0.00997427
0.00997407
0.00997407
0.00832604
0.00515865
0.00291325
0.00195739
0.0017058
0.00179269
0.00177858
0.00169545
0.00890007
0.00828201
0.00234402
0.00293209
0.00435048
0.00482046
0.00388176
0.00230414
0.0026324
0.0019762
0.00997079
0.0012333
0.002323
0.00245969
0.00296394
0.00102275
0.00103537
0.00996891
0.00130885
0.000928011
0.0015136
0.00996652
0.00996593
0.00128683
0.00108275
0.000943082
0.00146499
0.00583606
0.00387548
0.00103322
0.0011887
0.0014687
0.00172182
0.00136164
0.00132416
0.0013322
0.0018888
0.00281011
0.00158849
0.00104148
0.001212
0.00172697
0.00202214
0.00224748
0.000795119
0.00846881
0.000553981
0.000446358
0.000518457
0.000433346
0.000305912
0.000388467
0.000379627
0.000284877
0.00150854
0.00105953
0.000696595
0.000949218
0.000606261
0.000785235
0.000741367
0.000533591
0.000712181
0.000367898
0.000267664
0.000295756
0.000288953
0.000485193
0.000388508
0.000234597
0.000176824
0.000198739
0.000241093
0.0002822
0.000121608
0.000157999
0.00707923
0.00999133
0.00998802
0.0099853
0.00998351
0.0099827
0.00998231
0.00998212
0.00998213
0.00998214
0.00998224
0.00998235
0.00998245
0.00998266
0.00998286
0.00998306
0.00998335
0.00998365
0.00998385
0.00998415
0.00998445
0.00998474
0.00998494
0.00998524
0.00998554
0.00998574
0.00998604
0.00998624
0.00998644
0.00998673
0.00998693
0.00998713
0.00998733
0.00998753
0.00998772
0.00998802
0.00998822
0.00998852
0.00998882
0.00998911
0.00998931
0.00998951
0.00998971
0.00998991
0.00999011
0.00999031
0.00999041
0.00999061
0.00999072
0.00999092
0.00999102
0.00999112
0.00999132
0.00999142
0.00999152
0.00972377
0.00797395
0.00734905
0.00702712
0.00697727
0.0070584
0.00754221
0.00734902
0.00699371
0.00609688
0.00529516
0.00483628
0.00463422
0.00463174
0.00485213
0.00522519
0.0057697
0.00679391
0.00757786
0.00805747
0.00911019
0.00999384
0.00999394
0.00999394
0.00999405
0.00999405
0.00999415
0.00999415
0.00999426
0.00999426
0.00999426
0.00999437
0.00999437
0.00919678
0.00875983
0.00865264
0.00809474
0.00756897
0.00851526
0.00934036
0.00999473
0.00999474
0.0097198
0.00977421
0.00999487
0.00999488
0.00999489
0.009995
0.00999501
0.00686042
0.00547737
0.00685668
0.00999504
0.00999515
0.00697681
0.00701557
0.0070338
0.00668968
0.00663206
0.00641204
0.00632304
0.00645838
0.00824387
0.0099952
0.00999521
0.00999521
0.00910445
0.0096271
0.00999513
0.00817244
0.00898264
0.00967113
0.00940958
0.00999506
0.00613644
0.00379167
0.0059692
0.00524153
0.00861327
0.00371247
0.00316631
0.00375423
0.00325347
0.00348804
0.00245417
0.00398238
0.00137186
0.0086533
0.0014841
0.00304121
0.000746896
0.00056926
0.00053292
0.000772971
0.000638572
0.000548951
0.000410076
0.000578682
0.00113161
0.00362226
0.00339555
0.00244783
0.0025561
0.00406183
0.00542388
0.00241955
0.002421
0.0040591
0.00323992
0.00209223
0.00153581
0.00190495
0.00218924
0.00682115
0.000941253
0.000409858
0.000677902
0.000828501
0.00057703
0.000488298
0.000563001
0.000436855
0.000360406
0.000402327
0.00123785
0.00144273
0.00153795
0.0012463
0.000911303
0.00105361
0.000848355
0.000708241
0.000299527
0.000231214
0.000301182
0.000392546
0.000389134
0.000240569
0.000207407
0.00030086
0.000368124
0.000298853
0.000300232
0.000229294
0.000265759
0.00718532
0.00999857
0.00999845
0.00999811
0.00999782
0.0099977
0.00999761
0.00999762
0.00999762
0.00999763
0.00999763
0.00999764
0.00999764
0.00999764
0.00999774
0.00999774
0.00999774
0.00999784
0.00999784
0.00999794
0.00999793
0.00999803
0.00999803
0.00999806
0.0099981
0.00999814
0.00999818
0.0099982
0.00999824
0.00999828
0.00999831
0.00999835
0.00999837
0.0099984
0.00999844
0.00999847
0.00999851
0.00999856
0.0099986
0.00999864
0.00999868
0.00999871
0.00999875
0.00999878
0.00999881
0.00999884
0.00999887
0.00999888
0.00999891
0.00999894
0.00999896
0.00999898
0.009999
0.00999902
0.00999904
0.00999907
0.00999909
0.00999912
0.00999914
0.00999916
0.00999918
0.0099992
0.00931504
0.00886488
0.00828092
0.00782339
0.00752203
0.00687121
0.00652923
0.00645904
0.00682195
0.00736825
0.00826742
0.00951511
0.00999942
0.00999944
0.00999945
0.00999945
0.00999947
0.00999948
0.00999949
0.0099995
0.0099995
0.00999951
0.00999952
0.00999954
0.00999954
0.00999955
0.00999956
0.00999956
0.00999957
0.00949844
0.00793327
0.00736843
0.00773899
0.00703833
0.00743007
0.00722355
0.00782225
0.00901541
0.00999966
0.00999966
0.00999967
0.00999968
0.00999968
0.00999969
0.00999969
0.0099997
0.00999971
0.00999972
0.00999972
0.00999972
0.00999973
0.00999973
0.00999974
0.00999974
0.00999975
0.00999974
0.00999974
0.00999975
0.00999975
0.00999975
0.00999976
0.00999976
0.00999976
0.00999977
0.00999977
0.00999976
0.00999976
0.00999976
0.00923608
0.00791678
0.00798543
0.00999976
0.00576338
0.00447208
0.00318213
0.00233634
0.00213771
0.00248908
0.00458962
0.00954965
0.00977493
0.00314115
0.00247793
0.000915427
0.00112208
0.0014669
0.00145653
0.00127878
0.00127502
0.00135209
0.000599713
0.000702517
0.00240022
0.00648404
0.00127654
0.00122337
0.00105658
0.00480377
0.00999975
0.00430848
0.00125069
0.00281279
0.00460729
0.00116079
0.000916208
0.00159261
0.000859842
0.00711601
0.000429362
0.000602868
0.000975824
0.000669764
0.000473474
0.000614233
0.000528238
0.000748846
0.000663104
0.000778913
0.00204694
0.00285833
0.000832227
0.000466908
0.00162261
0.0010814
0.000395989
0.000269018
0.000230046
0.000353556
0.000534483
0.000352712
0.000283538
0.000301348
0.000404196
0.000561389
0.000536849
0.000333893
0.000218257
0.000787445
0.00729317
0.00999973
0.0100002
0.0100003
0.0100003
0.0100002
0.0100002
0.0100002
0.0100002
0.0100002
0.0100002
0.0100002
0.0100002
0.0100002
0.0100003
0.0100003
0.0100003
0.0100003
0.0100003
0.0100003
0.0100003
0.0100003
0.0100003
0.0100003
0.0100003
0.0100003
0.0100003
0.0100003
0.0100003
0.0100003
0.0100004
0.0100004
0.0100004
0.0100004
0.0100004
0.0100004
0.0100004
0.0100004
0.0100004
0.0100004
0.0100004
0.0100004
0.0100004
0.0100004
0.0100004
0.0100004
0.0100004
0.0100004
0.0100005
0.0100005
0.0100005
0.0100005
0.0100005
0.0100005
0.0100005
0.0100005
0.0100005
0.0100005
0.0100005
0.0100005
0.0100005
0.0100005
0.0100005
0.0100005
0.0100005
0.0100005
0.0100005
0.0100005
0.0100005
0.0100005
0.0100005
0.0100005
0.0100005
0.0100005
0.0100005
0.0100006
0.0100005
0.0100006
0.0100006
0.0100006
0.0100006
0.0100006
0.0100006
0.0100006
0.0100006
0.0100006
0.0100006
0.0100006
0.0100006
0.0100006
0.0100006
0.0100006
0.0100006
0.0100006
0.0100006
0.0100006
0.0100006
0.0100006
0.0100006
0.0100006
0.0100006
0.0100006
0.0100006
0.0100006
0.0100006
0.00966028
0.0100006
0.0100006
0.0100006
0.0100006
0.0100006
0.0100006
0.0100006
0.0100006
0.0100006
0.0100006
0.0100006
0.0100006
0.00984618
0.00986054
0.00954253
0.0100006
0.0100006
0.0100006
0.0100006
0.0100006
0.0100006
0.0100006
0.0100006
0.0100006
0.00884514
0.00695915
0.0100006
0.00644521
0.00153435
0.00141784
0.00161752
0.00195436
0.00266745
0.00399567
0.00432858
0.0053022
0.00461195
0.00268207
0.0100006
0.000853764
0.000761217
0.00113396
0.00144368
0.0015614
0.00163355
0.000818398
0.000504543
0.00234892
0.00543913
0.000990405
0.000830433
0.00196518
0.00134544
0.000681268
0.000895818
0.0021557
0.000881661
0.001068
0.00132997
0.00115266
0.00223146
0.00181375
0.000896416
0.000867029
0.000541553
0.000748631
0.0013466
0.00168867
0.000834269
0.000793014
0.000679764
0.00437153
0.000581262
0.000585735
0.00146801
0.00258117
0.000331029
0.0100006
0.0012436
0.000530884
0.000388937
0.000325072
0.000299924
0.000347517
0.000443196
0.000415325
0.000408285
0.000412811
0.00047518
0.000576854
0.000535538
0.000400404
0.000208432
0.000228935
0.00746172
0.00999965
0.0100002
0.0100003
0.0100003
0.0100003
0.0100003
0.0100003
0.0100003
0.0100003
0.0100003
0.0100003
0.0100003
0.0100003
0.0100003
0.0100003
0.0100003
0.0100003
0.0100003
0.0100003
0.0100003
0.0100003
0.0100003
0.0100004
0.0100004
0.0100004
0.0100004
0.0100004
0.0100004
0.0100004
0.0100004
0.0100004
0.0100004
0.0100004
0.0100004
0.0100004
0.0100004
0.0100004
0.0100004
0.0100004
0.0100004
0.0100005
0.0100005
0.0100005
0.0100005
0.0100005
0.0100005
0.0100005
0.0100005
0.0100005
0.0100005
0.0100005
0.0100005
0.0100005
0.0100005
0.0100005
0.0100005
0.0100005
0.0100005
0.0100005
0.0100005
0.0100005
0.0100005
0.0100005
0.0100005
0.0100005
0.0100005
0.0100005
0.0100006
0.0100006
0.0100006
0.0100006
0.0100006
0.0100006
0.0100006
0.0100006
0.0100006
0.0100006
0.0100006
0.0100006
0.0100006
0.0100006
0.00953137
0.00831496
0.00737059
0.00620862
0.0057132
0.00521863
0.00488563
0.00481562
0.00491343
0.00514608
0.00544816
0.00652887
0.00716644
0.00781248
0.00749863
0.00796863
0.00820618
0.00860377
0.00767815
0.00539361
0.00484385
0.00435109
0.00392413
0.00344252
0.00334085
0.00635167
0.0070383
0.00551401
0.00397108
0.00421541
0.00450526
0.00522545
0.00586333
0.0066446
0.0077183
0.00777288
0.00798863
0.00824849
0.00553995
0.00420937
0.00500012
0.00644416
0.00816234
0.0100006
0.0100006
0.0100006
0.0097686
0.00825642
0.00623167
0.00300299
0.00158281
0.00126262
0.00153231
0.00241539
0.00306406
0.00391546
0.00478059
0.00637599
0.00695284
0.00727341
0.00500355
0.00337823
0.00100206
0.000772997
0.000877665
0.0012724
0.00212518
0.00221896
0.00211921
0.000689899
0.000536104
0.00332692
0.00131614
0.00125796
0.00238499
0.00409693
0.00356671
0.0042306
0.00132923
0.00241718
0.00182438
0.00191411
0.00450454
0.00273375
0.00153486
0.00156199
0.00148543
0.000795324
0.000748445
0.00114704
0.0012486
0.00148279
0.00293749
0.00155674
0.00133271
0.00633146
0.000651466
0.000739466
0.0012011
0.00156107
0.000996112
0.000479853
0.00086069
0.000542119
0.00100695
0.000567056
0.000379051
0.000310369
0.000316697
0.000319781
0.000331126
0.000383129
0.000535021
0.000596741
0.000420544
0.000299565
0.000167821
0.000138753
0.0075294
0.00999835
0.00999854
0.00999826
0.00999808
0.00999796
0.00999786
0.00999786
0.00999786
0.00999785
0.00999795
0.00999795
0.00999795
0.00999805
0.00999807
0.0099981
0.00999813
0.00999817
0.0099982
0.00999824
0.00999827
0.0099983
0.00999834
0.00999838
0.00999842
0.00999846
0.00999849
0.00999854
0.00999858
0.00999862
0.00999866
0.0099987
0.00999873
0.00999877
0.00999879
0.00999882
0.00999885
0.00999888
0.00999891
0.00999894
0.00999896
0.00999899
0.00999902
0.00999905
0.00999908
0.00999912
0.00999914
0.00999916
0.00999919
0.00999921
0.00999923
0.00999925
0.00999927
0.00999929
0.00999931
0.00999933
0.00999935
0.00999936
0.00999938
0.00999939
0.0099994
0.00999942
0.00999943
0.00999945
0.00999946
0.00999947
0.00999949
0.00999951
0.00999952
0.00999954
0.00999955
0.00999956
0.00999957
0.00999959
0.00688514
0.00564771
0.00496269
0.00502149
0.00506485
0.00501202
0.00473159
0.00444765
0.0041247
0.00390459
0.00362938
0.00353143
0.00339922
0.00329316
0.00325105
0.00322956
0.0032989
0.00340217
0.00360085
0.00367374
0.00380639
0.00366144
0.00353253
0.00359444
0.00372709
0.00445624
0.00479317
0.00633019
0.0061046
0.00525854
0.00521408
0.00461467
0.00440289
0.00401612
0.00412209
0.00407335
0.00468242
0.00507459
0.00581268
0.00570216
0.00582088
0.00610821
0.00999981
0.00932119
0.00821216
0.00536712
0.00362996
0.00393513
0.00418942
0.00521387
0.00471016
0.00504473
0.00552168
0.0052822
0.00537271
0.00999983
0.004818
0.00181671
0.00133179
0.00205654
0.00249251
0.00247321
0.0035105
0.00818535
0.00132631
0.0022531
0.00211346
0.00312727
0.00196459
0.000951156
0.000828642
0.000758453
0.000819854
0.00159319
0.00205595
0.00282419
0.000724038
0.000641372
0.0010083
0.00226513
0.000907431
0.00162823
0.00281578
0.00281965
0.002623
0.00125891
0.00177699
0.00326521
0.000983539
0.00147138
0.00165584
0.00605951
0.00153609
0.000991592
0.000858559
0.000820123
0.000977087
0.000790392
0.00144446
0.00191371
0.00264777
0.00190757
0.00310703
0.000989645
0.00137453
0.00163805
0.00104747
0.0007981
0.000636768
0.000526844
0.000448771
0.000418424
0.000434782
0.000540526
0.000727537
0.00037633
0.000353421
0.00032583
0.000308826
0.00036251
0.000332214
0.000320404
0.000278998
0.000136179
0.00011271
0.00206997
0.00752959
0.00999144
0.00998873
0.00998655
0.00998515
0.00998443
0.00998412
0.00998411
0.00998421
0.00998431
0.0099845
0.0099848
0.009985
0.00998531
0.00998551
0.00998571
0.00998591
0.00998622
0.00998642
0.00998662
0.00998681
0.00998712
0.00998732
0.00998762
0.00998782
0.00998813
0.00998843
0.00998874
0.00998894
0.00998925
0.00998946
0.00998966
0.00998987
0.00999008
0.00999028
0.00999049
0.00999069
0.0099909
0.009991
0.00999111
0.00999132
0.00999143
0.00999165
0.00999186
0.00999206
0.00999217
0.00999238
0.00999259
0.00999269
0.0099928
0.00999301
0.00999312
0.00999323
0.00999334
0.00999345
0.00967326
0.00873856
0.00856939
0.00818886
0.0082285
0.00811099
0.00823313
0.00815926
0.00861063
0.00876308
0.00934853
0.00968645
0.00999442
0.00997975
0.00914004
0.00849565
0.00786068
0.00706162
0.00629904
0.00579186
0.0063177
0.00602391
0.00539453
0.00454352
0.00418597
0.00393668
0.00375704
0.00382043
0.00390513
0.00406563
0.00415683
0.00432091
0.0042872
0.00408235
0.00436642
0.00500888
0.00564585
0.0059538
0.00579868
0.00566212
0.00541002
0.00570655
0.00696714
0.00447483
0.00141555
0.000944714
0.000850627
0.000840508
0.000828285
0.00083973
0.000848116
0.000877051
0.000903893
0.000836411
0.000783112
0.000763586
0.000770198
0.000775789
0.000788891
0.000804729
0.000817869
0.000838205
0.000864758
0.000924743
0.000914983
0.000854444
0.000814245
0.00074359
0.000699874
0.000894201
0.0023166
0.00223101
0.00290091
0.00114525
0.0011626
0.00120548
0.00134588
0.00132629
0.000725597
0.000638437
0.000707628
0.000610374
0.000825298
0.00999502
0.00873863
0.0099949
0.00252469
0.00152869
0.00137187
0.00106525
0.000720825
0.000693219
0.000957135
0.00188966
0.000843321
0.00271992
0.00393334
0.0014468
0.000958751
0.000887204
0.000722907
0.00169189
0.00203236
0.00227313
0.00999281
0.00382731
0.00163879
0.00999221