/*--------------------------------*- C++ -*----------------------------------*\
| =========                 |                                                 |
| \\      /  F ield         | OpenFOAM: The Open Source CFD Toolbox           |
|  \\    /   O peration     | Version:  5.x                                   |
|   \\  /    A nd           | Web:      www.OpenFOAM.org                      |
|    \\/     M anipulation  |                                                 |
\*---------------------------------------------------------------------------*/
/*   Windows 32 and 64 bit porting by blueCAPE: http://www.bluecape.com.pt   *\
|  Based on Windows porting (2.0.x v4) by Symscape: http://www.symscape.com   |
\*---------------------------------------------------------------------------*/
FoamFile
{
    version     2.0;
    format      ascii;
    class       volScalarField;
    location    "0.1";
    object      p;
}
// * * * * * * * * * * * * * * * * * * * * * * * * * * * * * * * * * * * * * //

dimensions      [0 2 -2 0 0 0 0];

internalField   nonuniform List<scalar> 
750
(
0.36971466
0.3698194
0.36954595
0.369324
0.36899852
0.36863177
0.36822963
0.36779675
0.36734515
0.36687914
0.36639999
0.36591113
0.36541604
0.36490602
0.36437905
0.36383535
0.36323291
0.36259112
0.36181849
0.36080387
0.35976768
0.35707169
0.35593747
0.34668223
0.34249261
0.36972094
0.36982322
0.36955194
0.3693277
0.36900147
0.36863427
0.36823123
0.36779808
0.36734604
0.36687974
0.36640052
0.36591179
0.36541657
0.36490675
0.36438057
0.36383677
0.36323687
0.36259611
0.36182583
0.36082848
0.35976826
0.35716748
0.35589067
0.34688192
0.34257168
0.36973159
0.3698341
0.36956161
0.36933536
0.36900754
0.36863901
0.36823465
0.36780067
0.36734792
0.36688114
0.36640175
0.3659131
0.36541794
0.36490873
0.36438377
0.36384132
0.36324519
0.36260877
0.36184726
0.36086785
0.35981797
0.35729448
0.35599544
0.34711896
0.34313071
0.36974783
0.3698503
0.3695763
0.36934656
0.36901691
0.36864594
0.36823987
0.36780451
0.36735077
0.36688329
0.36640359
0.36591492
0.36542005
0.36491181
0.36438838
0.36384862
0.36325729
0.362628
0.36188085
0.36091972
0.35990439
0.35744657
0.35621818
0.34741552
0.34395745
0.36976995
0.3698714
0.36959632
0.3693613
0.36902948
0.3686551
0.36824682
0.36780959
0.36735454
0.36688614
0.36640598
0.36591727
0.36542285
0.36491586
0.36439429
0.36385826
0.36327291
0.36265281
0.36192494
0.36098479
0.36002453
0.35762859
0.35652248
0.34781385
0.34498288
0.36979787
0.36989771
0.36962157
0.36937968
0.36904514
0.3686665
0.36825545
0.36781588
0.36735919
0.36688961
0.36640891
0.36592018
0.36542628
0.36492074
0.36440141
0.36386989
0.36329182
0.36268267
0.36197812
0.3610667
0.3601716
0.35786195
0.35690983
0.34828742
0.34651928
0.36983148
0.36992968
0.36965194
0.36940176
0.36906387
0.3686801
0.3682657
0.36782334
0.3673647
0.36689372
0.36641236
0.36592358
0.36543027
0.36492641
0.3644097
0.36388327
0.36331383
0.36271765
0.36203898
0.36116588
0.3603428
0.35814804
0.35745352
0.34884886
0.34893967
0.36987051
0.36996798
0.36968723
0.36942762
0.36908558
0.36869589
0.36827752
0.36783195
0.36737105
0.36689843
0.36641626
0.36592746
0.36543482
0.36493286
0.36441928
0.36389838
0.36333882
0.36275725
0.36210684
0.36128067
0.36055547
0.35847905
0.35822462
0.3497902
0.35276542
0.36991497
0.37001256
0.36972747
0.36945738
0.36911003
0.3687139
0.36829081
0.36784168
0.36737819
0.36690364
0.3664206
0.36593186
0.36543991
0.36493995
0.36443012
0.3639152
0.36336639
0.36280058
0.3621825
0.36140508
0.36080884
0.35888913
0.35915726
0.35116573
0.35750287
0.36996703
0.37006009
0.36977457
0.36949101
0.3691369
0.36873416
0.36830541
0.36785245
0.36738596
0.36690927
0.36642533
0.36593659
0.36544519
0.36494729
0.36444156
0.36393278
0.36339606
0.36284633
0.36226199
0.3615393
0.36103206
0.35941807
0.35995625
0.35301821
0.36237488
0.32022862
0.3096539
0.29430567
0.28169379
0.26813318
0.25509024
0.2419514
0.22888359
0.21579829
0.20272162
0.18964223
0.17656351
0.16348471
0.15040595
0.13732717
0.12424839
0.11116961
0.098090832
0.085012055
0.071933271
0.058854494
0.04577572
0.032696939
0.01961816
0.006539385
0.31996096
0.30946189
0.29413251
0.28162865
0.26809386
0.25507223
0.24195323
0.22888305
0.21579893
0.20272151
0.1896422
0.1765635
0.16348471
0.15040595
0.13732717
0.12424839
0.11116961
0.098090833
0.085012054
0.071933273
0.058854494
0.045775719
0.032696939
0.019618159
0.0065393851
0.31936885
0.30946236
0.29378149
0.28152511
0.2680629
0.25505685
0.24195135
0.22888234
0.21579941
0.20272145
0.18964218
0.1765635
0.16348472
0.15040595
0.13732717
0.12424839
0.11116961
0.098090831
0.085012051
0.071933275
0.058854497
0.045775718
0.032696939
0.019618158
0.0065393853
0.31861824
0.30947248
0.29348214
0.28136716
0.26802997
0.25504517
0.24194803
0.22888209
0.21579991
0.20272141
0.18964217
0.1765635
0.16348472
0.15040596
0.13732717
0.12424839
0.11116961
0.098090829
0.085012051
0.071933276
0.058854497
0.045775716
0.032696938
0.019618158
0.0065393855
0.31803442
0.30931909
0.29336314
0.28119593
0.26798231
0.25503489
0.24194523
0.2288817
0.21580033
0.20272138
0.18964216
0.1765635
0.16348473
0.15040596
0.13732717
0.12424839
0.11116961
0.09809083
0.085012053
0.071933276
0.058854495
0.045775715
0.032696937
0.019618158
0.0065393839
0.31740301
0.30925945
0.29319288
0.28105764
0.26792951
0.25502551
0.24194316
0.22888133
0.21580054
0.20272138
0.18964217
0.17656351
0.16348473
0.15040596
0.13732717
0.12424839
0.11116961
0.098090831
0.085012053
0.071933275
0.058854494
0.045775716
0.032696937
0.019618157
0.0065393826
0.31630072
0.30931814
0.29288205
0.28096578
0.2678866
0.25501946
0.24194176
0.22888169
0.21580054
0.20272141
0.18964219
0.17656352
0.16348473
0.15040596
0.13732717
0.12424839
0.11116961
0.098090832
0.085012053
0.071933274
0.058854495
0.045775716
0.032696936
0.019618156
0.0065393826
0.31511034
0.30913299
0.29257658
0.28091732
0.26785814
0.25501859
0.24194169
0.22888285
0.21580044
0.20272146
0.18964221
0.17656354
0.16348473
0.15040596
0.13732717
0.12424839
0.11116961
0.098090832
0.085012053
0.071933274
0.058854495
0.045775717
0.032696935
0.019618155
0.0065393828
0.31339562
0.308828
0.29238382
0.28089182
0.26784342
0.25502295
0.24194299
0.22888422
0.21580034
0.20272151
0.18964222
0.17656355
0.16348474
0.15040596
0.13732717
0.12424839
0.11116961
0.098090832
0.085012053
0.071933275
0.058854495
0.045775717
0.032696934
0.019618152
0.0065393819
0.30860321
0.30921207
0.29230866
0.28097684
0.2678181
0.25503068
0.2419409
0.22888514
0.21579992
0.20272159
0.18964221
0.17656357
0.16348474
0.15040596
0.13732717
0.12424839
0.11116961
0.098090832
0.085012053
0.071933275
0.058854495
0.045775716
0.032696935
0.019618156
0.0065393854
0.37009055
0.37015789
0.36988455
0.36956602
0.3691954
0.36877876
0.36833699
0.36787567
0.36740246
0.3669212
0.36643514
0.365946
0.3654556
0.36496186
0.36446434
0.36396752
0.36345776
0.36294159
0.36241881
0.3618318
0.36137239
0.3605697
0.36115204
0.35803068
0.37522912
0.37032265
0.37038904
0.37008134
0.36971423
0.36930851
0.36886196
0.36839661
0.36791834
0.36743257
0.36694332
0.36645324
0.3659621
0.36547342
0.36498746
0.36450231
0.36402509
0.3635533
0.36308641
0.36264627
0.36219438
0.36185159
0.36144214
0.36156323
0.35964574
0.36523362
0.37062381
0.37069702
0.37032384
0.36989438
0.36944227
0.3689576
0.36846378
0.36796526
0.36746505
0.3669669
0.36647135
0.36597772
0.36548967
0.36501014
0.36453808
0.36407815
0.36363864
0.36321827
0.36284862
0.36250921
0.36230572
0.36216204
0.36235502
0.36204696
0.36449722
0.37101235
0.37109325
0.37061548
0.37010227
0.36959006
0.36906051
0.36853402
0.36801285
0.3674975
0.36698908
0.36648689
0.36599052
0.36550269
0.36502666
0.36456519
0.36411989
0.36370479
0.3633232
0.36300489
0.36274749
0.36262569
0.36262018
0.36286808
0.36330495
0.36402892
0.37152705
0.3715809
0.37095042
0.37032879
0.36974278
0.36916325
0.36860194
0.36805695
0.36752655
0.3670072
0.36649817
0.36599849
0.36551028
0.36503593
0.36457925
0.3641448
0.36374523
0.36339037
0.36310584
0.36290435
0.36282953
0.36289757
0.3632038
0.36391037
0.36399391
0.37225933
0.37212905
0.37131109
0.37055924
0.3698883
0.36925618
0.36866094
0.36809335
0.36754865
0.36701927
0.36650338
0.3660004
0.36551016
0.36503535
0.3645792
0.36414952
0.36375688
0.36341427
0.36314412
0.36296682
0.36291243
0.36300941
0.36330646
0.36408026
0.36392987
0.37337316
0.37268183
0.37167524
0.37077223
0.3700102
0.36932832
0.36870435
0.36811847
0.36756088
0.36702322
0.3665012
0.36599388
0.36549971
0.36502113
0.36456206
0.36412955
0.36373397
0.36338877
0.36311398
0.36293115
0.36286735
0.36295258
0.36320516
0.36395304
0.36375124
0.375277
0.37309739
0.37196059
0.37091631
0.37008542
0.36936926
0.36872486
0.36812726
0.36756085
0.36701701
0.36648986
0.36597682
0.36547674
0.36499082
0.36452312
0.36407938
0.36366929
0.36330566
0.36300669
0.36279306
0.3626912
0.36273218
0.36292546
0.36361281
0.36344134
0.37912301
0.37314676
0.37219391
0.3709817
0.37010595
0.36937176
0.36871671
0.36811405
0.36754403
0.36699595
0.36646335
0.36594254
0.365432
0.36493201
0.36444553
0.36397757
0.36353599
0.36313222
0.36278283
0.3625083
0.36233442
0.36230008
0.36242449
0.36304181
0.3629404
0.38050364
0.37195502
0.37254501
0.37104113
0.37016119
0.36940124
0.36873435
0.36812449
0.36755036
0.367
0.3664662
0.36594487
0.36543433
0.3649346
0.36444844
0.36398046
0.36353869
0.36313437
0.36278265
0.36250285
0.36232014
0.36227564
0.36234653
0.36292407
0.36282192
)
;

boundaryField
{
    inlet
    {
        type            zeroGradient;
    }
    walls
    {
        type            zeroGradient;
    }
    outlet
    {
        type            fixedValue;
        value           uniform 0;
    }
    centreline
    {
        type            symmetryPlane;
    }
    frontAndBack
    {
        type            empty;
    }
}


// ************************************************************************* //
