/*--------------------------------*- C++ -*----------------------------------*\
| =========                 |                                                 |
| \\      /  F ield         | OpenFOAM: The Open Source CFD Toolbox           |
|  \\    /   O peration     | Version:  5.x                                   |
|   \\  /    A nd           | Web:      www.OpenFOAM.org                      |
|    \\/     M anipulation  |                                                 |
\*---------------------------------------------------------------------------*/
/*   Windows 32 and 64 bit porting by blueCAPE: http://www.bluecape.com.pt   *\
|  Based on Windows porting (2.0.x v4) by Symscape: http://www.symscape.com   |
\*---------------------------------------------------------------------------*/
FoamFile
{
    version     2.0;
    format      ascii;
    class       surfaceScalarField;
    location    "0.1";
    object      phi;
}
// * * * * * * * * * * * * * * * * * * * * * * * * * * * * * * * * * * * * * //

dimensions      [0 3 -1 0 0 0 0];

internalField   nonuniform List<scalar> 
1430
(
5.0944222e-006
-9.3141876e-008
5.2067024e-006
-1.1228024e-007
5.3116473e-006
-1.0494481e-007
5.3979323e-006
-8.6285025e-008
5.4699556e-006
-7.2023287e-008
5.5295401e-006
-5.9584478e-008
5.5795096e-006
-4.9969568e-008
5.6229624e-006
-4.3452773e-008
5.6630443e-006
-4.0081913e-008
5.7034621e-006
-4.0417801e-008
5.7482539e-006
-4.4791811e-008
5.802736e-006
-5.4482084e-008
5.8733501e-006
-7.0614053e-008
5.9689694e-006
-9.5619357e-008
6.1025488e-006
-1.3357942e-007
6.2923868e-006
-1.8983799e-007
6.5673639e-006
-2.7497703e-007
6.9705154e-006
-4.0315151e-007
7.5696653e-006
-5.9914988e-007
8.49694e-006
-9.2727468e-007
9.9521251e-006
-1.4551851e-006
1.2348674e-005
-2.3965486e-006
1.5958719e-005
-3.6100455e-006
2.0832835e-005
-4.8741161e-006
-5.5612563e-006
2.6394091e-005
5.0936372e-006
-1.8549874e-007
5.2078649e-006
-2.2650798e-007
5.3119899e-006
-2.0906974e-007
5.398793e-006
-1.7308812e-007
5.4706528e-006
-1.4388307e-007
5.53011e-006
-1.190417e-007
5.5799072e-006
-9.976679e-008
5.6231411e-006
-8.6686633e-008
5.6629834e-006
-7.9924197e-008
5.7031264e-006
-8.0560776e-008
5.7475884e-006
-8.925385e-008
5.8016322e-006
-1.0852592e-007
5.8716619e-006
-1.406437e-007
5.9664445e-006
-1.9040197e-007
6.0987199e-006
-2.6585488e-007
6.2867573e-006
-3.7787531e-007
6.5585533e-006
-5.4677306e-007
6.9567392e-006
-8.0133741e-007
7.5485572e-006
-1.1909679e-006
8.4608053e-006
-1.8395227e-006
9.9034912e-006
-2.897871e-006
1.2241225e-005
-4.7342824e-006
1.5805652e-005
-7.1744722e-006
2.0500954e-005
-9.5694185e-006
-1.1045273e-005
2.598497e-005
5.0939081e-006
-2.7812656e-007
5.2086314e-006
-3.4123124e-007
5.3133005e-006
-3.137388e-007
5.4003214e-006
-2.6010907e-007
5.4720678e-006
-2.1562946e-007
5.5312779e-006
-1.7825185e-007
5.5807075e-006
-1.4919633e-007
5.6235336e-006
-1.2951274e-007
5.6629121e-006
-1.1930277e-007
5.7025078e-006
-1.2015648e-007
5.7463105e-006
-1.3305654e-007
5.799513e-006
-1.6172835e-007
5.8683625e-006
-2.0949323e-007
5.9614648e-006
-2.8350431e-007
6.0912867e-006
-3.9567682e-007
6.2755222e-006
-5.621108e-007
6.5413341e-006
-8.1258498e-007
6.9297957e-006
-1.189799e-006
7.505846e-006
-1.7670182e-006
8.3933622e-006
-2.7270388e-006
9.7937674e-006
-4.2982762e-006
1.2056872e-005
-6.9973869e-006
1.5462433e-005
-1.0580033e-005
1.9932113e-005
-1.4039099e-005
-1.6217689e-005
2.5104529e-005
5.0944077e-006
-3.7125391e-007
5.2099062e-006
-4.5672978e-007
5.3153658e-006
-4.1919838e-007
5.4026542e-006
-3.4739754e-007
5.4742442e-006
-2.8721942e-007
5.5330625e-006
-2.3707011e-007
5.5819506e-006
-1.9808448e-007
5.6241577e-006
-1.7171983e-007
5.6628458e-006
-1.5799087e-007
5.7016354e-006
-1.5894603e-007
5.7444527e-006
-1.7587386e-007
5.7963864e-006
-2.1366208e-007
5.8634952e-006
-2.7660203e-007
5.9541032e-006
-3.7411237e-007
6.0802627e-006
-5.2183624e-007
6.2589068e-006
-7.4075497e-007
6.515849e-006
-1.0695271e-006
6.8901011e-006
-1.5640511e-006
7.4428483e-006
-2.3197654e-006
8.2931751e-006
-3.5773656e-006
9.6322684e-006
-5.6373695e-006
1.1782481e-005
-9.1475993e-006
1.4966237e-005
-1.3763789e-005
1.9116249e-005
-1.8189111e-005
-2.0954833e-005
2.3853392e-005
5.0952612e-006
-4.6523482e-007
5.2117713e-006
-5.7323983e-007
5.3182495e-006
-5.2567658e-007
5.4058215e-006
-4.3496952e-007
5.4771863e-006
-3.5858425e-007
5.5354658e-006
-2.9534966e-007
5.5836304e-006
-2.4624908e-007
5.6250084e-006
-2.1309776e-007
5.6627784e-006
-1.9576094e-007
5.7005065e-006
-1.966741e-007
5.7420247e-006
-2.1739209e-007
5.7922774e-006
-2.6391475e-007
5.8571044e-006
-3.41429e-007
5.9444416e-006
-4.6144955e-007
6.0657907e-006
-6.4318542e-007
6.2371563e-006
-9.121206e-007
6.4825805e-006
-1.3149513e-006
6.838438e-006
-1.9199086e-006
7.3609511e-006
-2.8422785e-006
8.1623565e-006
-4.378771e-006
9.4159973e-006
-6.8910103e-006
1.1415936e-005
-1.1147538e-005
1.4318878e-005
-1.6666731e-005
1.8076062e-005
-2.1946295e-005
-2.5162131e-005
2.228336e-005
5.0965668e-006
-5.6052128e-007
5.2143143e-006
-6.9098736e-007
5.3220061e-006
-6.3336842e-007
5.4098639e-006
-5.2282729e-007
5.4809083e-006
-4.2962868e-007
5.5384991e-006
-3.5294042e-007
5.5857505e-006
-2.9350043e-007
5.6260902e-006
-2.5343753e-007
5.6627181e-006
-2.3238877e-007
5.6991323e-006
-2.3308837e-007
5.7390476e-006
-2.5730733e-007
5.7872246e-006
-3.1209178e-007
5.8492452e-006
-4.0344961e-007
5.9325767e-006
-5.4478103e-007
6.0480359e-006
-7.5864473e-007
6.2105383e-006
-1.0746229e-006
6.4419851e-006
-1.5463982e-006
6.775609e-006
-2.2535324e-006
7.2612308e-006
-3.3279003e-006
8.0011734e-006
-5.1187135e-006
9.14419e-006
-8.0340269e-006
1.0954455e-005
-1.2957803e-005
1.351357e-005
-1.9225846e-005
1.6821814e-005
-2.5254539e-005
-2.8822283e-005
2.0481967e-005
5.0983757e-006
-6.5761663e-007
5.2175923e-006
-8.1020403e-007
5.3266725e-006
-7.4244856e-007
5.4148117e-006
-6.1096655e-007
5.4854163e-006
-5.002332e-007
5.5421579e-006
-4.0968206e-007
5.5882998e-006
-3.3964233e-007
5.6273921e-006
-2.9252981e-007
5.6626552e-006
-2.6765193e-007
5.6975117e-006
-2.6794486e-007
5.7355331e-006
-2.9532868e-007
5.7812559e-006
-3.5781459e-007
5.8399694e-006
-4.6216313e-007
5.9186011e-006
-6.2341277e-007
6.0271713e-006
-8.6721493e-007
6.179316e-006
-1.2267676e-006
6.3945822e-006
-1.7616643e-006
6.7024517e-006
-2.561402e-006
7.1453064e-006
-3.7707549e-006
7.8125827e-006
-5.7859898e-006
8.8231363e-006
-9.0445804e-006
1.0402872e-005
-1.4537539e-005
1.2549831e-005
-2.1372805e-005
1.539513e-005
-2.8099838e-005
-3.1844308e-005
1.8417155e-005
5.1007184e-006
-7.5705468e-007
5.2216319e-006
-9.3111753e-007
5.3322551e-006
-8.5307181e-007
5.4206784e-006
-6.9938987e-007
5.4906983e-006
-5.7025309e-007
5.5464179e-006
-4.6540167e-007
5.5912458e-006
-3.8447017e-007
5.6288807e-006
-3.3016472e-007
5.6625516e-006
-3.0132283e-007
5.6956146e-006
-3.010079e-007
5.7314812e-006
-3.3119522e-007
5.7743965e-006
-4.0072993e-007
5.8293218e-006
-5.1708843e-007
5.9026094e-006
-6.967004e-007
6.0033533e-006
-9.6795885e-007
6.1438237e-006
-1.367238e-006
6.3410868e-006
-1.9589274e-006
6.6201772e-006
-2.8404924e-006
7.0155794e-006
-4.1661571e-006
7.5999038e-006
-6.3703142e-006
8.458361e-006
-9.9030376e-006
9.7680576e-006
-1.5847236e-005
1.1457948e-005
-2.3062696e-005
1.3831173e-005
-3.0473063e-005
-3.3923677e-005
1.5910541e-005
5.1036439e-006
-8.5941826e-007
5.2264201e-006
-1.0538937e-006
5.3387406e-006
-9.6539224e-007
5.4274627e-006
-7.8811204e-007
5.4967142e-006
-6.3950457e-007
5.5512322e-006
-5.1991966e-007
5.5945298e-006
-4.277677e-007
5.6305009e-006
-3.6613589e-007
5.6623548e-006
-3.3317669e-007
5.6933946e-006
-3.3204767e-007
5.7268695e-006
-3.6467017e-007
5.766659e-006
-4.4051939e-007
5.8173478e-006
-5.677773e-007
5.8847192e-006
-7.6407176e-007
5.9768374e-006
-1.060077e-006
6.1045215e-006
-1.4949221e-006
6.2822359e-006
-2.1366418e-006
6.5300368e-006
-3.0882934e-006
6.8740887e-006
-4.5102089e-006
7.3689706e-006
-6.8651961e-006
8.0590145e-006
-1.0593081e-005
9.0689994e-006
-1.6857221e-005
1.0265378e-005
-2.4259074e-005
1.2126523e-005
-3.2334208e-005
-3.4671989e-005
1.2874835e-005
5.106679e-006
-9.6481689e-007
5.2323761e-006
-1.1795908e-006
5.3460698e-006
-1.0790859e-006
5.4351926e-006
-8.7723483e-007
5.5034614e-006
-7.0777336e-007
5.5565564e-006
-5.7301465e-007
5.5981118e-006
-4.6932316e-007
5.6322035e-006
-4.0022753e-007
5.6620448e-006
-3.6301804e-007
5.6908378e-006
-3.6084059e-007
5.7216657e-006
-3.9549808e-007
5.7580448e-006
-4.7689856e-007
5.8041307e-006
-6.1386318e-007
5.8650979e-006
-8.2503891e-007
5.9479198e-006
-1.1428989e-006
6.0618509e-006
-1.6088532e-006
6.2184561e-006
-2.293247e-006
6.4334385e-006
-3.3032758e-006
6.7237923e-006
-4.8005628e-006
7.1239228e-006
-7.2653266e-006
7.6449341e-006
-1.1114093e-005
8.325704e-006
-1.753799e-005
8.983635e-006
-2.4917005e-005
9.9672234e-006
-3.3317797e-005
8.7463682e-006
-3.3451134e-005
2.9610588e-005
-3.2164968e-006
3.0959049e-005
-1.3484613e-006
3.1447333e-005
-4.8828404e-007
3.1661948e-005
-2.1461505e-007
3.1730896e-005
-6.8947927e-008
3.1719301e-005
1.1594553e-008
3.1696582e-005
2.271885e-008
3.1686137e-005
1.0445308e-008
3.168446e-005
1.6764094e-009
3.1684835e-005
-3.7418308e-010
3.1685109e-005
-2.7476161e-010
3.1685132e-005
-2.2511438e-011
3.1685108e-005
2.4451119e-011
3.16851e-005
7.3033756e-012
3.1685102e-005
-2.0601152e-012
3.1685105e-005
-2.5605148e-012
3.1685106e-005
-1.4579482e-012
3.1685106e-005
1.9816366e-014
3.1685106e-005
7.0770417e-013
3.1685106e-005
-7.3744543e-013
3.1685107e-005
-5.8130013e-013
3.1685106e-005
9.5725373e-013
3.1685105e-005
7.6749746e-013
3.1685101e-005
4.3223268e-012
4.2170554e-012
2.883877e-005
-6.0702967e-006
3.004701e-005
-2.5567027e-006
3.0439836e-005
-8.8110996e-007
3.0603761e-005
-3.7854017e-007
3.0644572e-005
-1.0975938e-007
3.063373e-005
2.2436427e-008
3.0615268e-005
4.1181159e-008
3.0607345e-005
1.8368459e-008
3.060602e-005
3.0011709e-009
3.0606345e-005
-6.9866367e-010
3.0606551e-005
-4.8121739e-010
3.0606568e-005
-3.891738e-011
3.0606548e-005
4.4037364e-011
3.0606543e-005
1.2725523e-011
3.0606544e-005
-3.5221804e-012
3.0606546e-005
-4.4770706e-012
3.0606547e-005
-2.5226699e-012
3.0606547e-005
-3.8020081e-015
3.0606547e-005
9.17154e-013
3.0606547e-005
-1.0451936e-012
3.0606548e-005
-8.1281033e-013
3.0606547e-005
1.6250667e-012
3.0606546e-005
1.4499386e-012
3.0606545e-005
5.2961229e-012
5.0549548e-012
2.7452895e-005
-8.4186628e-006
2.835002e-005
-3.4538272e-006
2.8593065e-005
-1.1241552e-006
2.8655526e-005
-4.4100193e-007
2.8661214e-005
-1.1544734e-007
2.8651064e-005
3.2587151e-008
2.8640224e-005
5.2020735e-008
2.8636095e-005
2.2497241e-008
2.8635512e-005
3.5848256e-009
2.8635729e-005
-9.1612975e-010
2.8635835e-005
-5.8692407e-010
2.8635839e-005
-4.2848212e-011
2.8635828e-005
5.4957534e-011
2.8635826e-005
1.499002e-011
2.8635827e-005
-4.2913593e-012
2.8635827e-005
-5.076484e-012
2.8635827e-005
-2.8598092e-012
2.8635828e-005
-3.441749e-013
2.8635828e-005
3.4470079e-013
2.8635828e-005
-7.6382172e-013
2.8635828e-005
-3.3534284e-013
2.8635827e-005
1.7171124e-012
2.8635827e-005
1.7188344e-012
2.8635829e-005
3.0231337e-012
2.5098658e-012
2.5584422e-005
-1.0149692e-005
2.6087479e-005
-3.9568837e-006
2.6119426e-005
-1.1561026e-006
2.6087676e-005
-4.0925162e-007
2.6063892e-005
-9.1663958e-008
2.6055669e-005
4.0810601e-008
2.6053201e-005
5.448906e-008
2.6053152e-005
2.2545842e-008
2.6053347e-005
3.3901138e-009
2.6053439e-005
-1.0080702e-009
2.6053437e-005
-5.8476925e-010
2.6053429e-005
-3.538505e-011
2.6053428e-005
5.6043915e-011
2.6053429e-005
1.3822611e-011
2.6053429e-005
-4.5590674e-012
2.6053429e-005
-4.5329398e-012
2.6053429e-005
-2.5292644e-012
2.6053429e-005
-9.1283899e-013
2.605343e-005
-2.101475e-013
2.6053429e-005
-8.7443515e-014
2.6053429e-005
1.7170216e-013
2.6053429e-005
1.1260266e-012
2.6053429e-005
1.4877698e-012
2.6053433e-005
-2.6000159e-013
-1.1199049e-012
2.3337075e-005
-1.1203408e-005
2.3398516e-005
-4.0183239e-006
2.3225618e-005
-9.832054e-007
2.3139015e-005
-3.2264848e-007
2.309891e-005
-5.1559041e-008
2.3093945e-005
4.5776094e-008
2.3098891e-005
4.9542369e-008
2.3102226e-005
1.9211641e-008
2.3102971e-005
2.6444008e-009
2.3102937e-005
-9.7318941e-010
2.310285e-005
-4.9846083e-010
2.3102837e-005
-2.2354011e-011
2.3102845e-005
4.862626e-011
2.3102848e-005
1.0303982e-011
2.3102848e-005
-4.3017034e-012
2.3102847e-005
-3.4544142e-012
2.3102846e-005
-1.8622762e-012
2.3102846e-005
-1.167168e-012
2.3102847e-005
-3.3525037e-013
2.3102846e-005
3.688625e-013
2.3102846e-005
1.3404232e-013
2.3102847e-005
1.6109067e-013
2.3102847e-005
1.0045474e-012
2.310285e-005
-2.4080048e-012
-3.4943671e-012
2.0706765e-005
-1.1428206e-005
2.0297649e-005
-3.6092084e-006
2.0024454e-005
-7.1000975e-007
1.9919173e-005
-2.1736785e-007
1.9877955e-005
-1.0340916e-008
1.9878814e-005
4.4917138e-008
1.9889192e-005
3.9164287e-008
1.9894492e-005
1.3911137e-008
1.9895438e-005
1.6990104e-009
1.9895295e-005
-8.3038994e-010
1.9895164e-005
-3.6760015e-010
1.9895152e-005
-1.0285446e-011
1.9895165e-005
3.6045328e-011
1.9895169e-005
6.0538083e-012
1.9895168e-005
-3.5449781e-012
1.9895167e-005
-2.2164202e-012
1.9895166e-005
-1.1238748e-012
1.9895166e-005
-1.0765723e-012
1.9895166e-005
-3.3827102e-013
1.9895166e-005
4.2220746e-013
1.9895166e-005
-9.052915e-014
1.9895167e-005
-7.0374672e-013
1.9895168e-005
3.7890977e-013
1.9895167e-005
-2.0855814e-012
-3.096773e-012
1.7578189e-005
-1.058924e-005
1.6768047e-005
-2.7990662e-006
1.6497811e-005
-4.3977368e-007
1.6399973e-005
-1.1953036e-007
1.6371181e-005
1.8450864e-008
1.6379288e-005
3.6810765e-008
1.6392398e-005
2.60537e-008
1.6398067e-005
8.2421594e-009
1.6398915e-005
8.5118359e-010
1.6398696e-005
-6.1113334e-010
1.6398558e-005
-2.292906e-010
1.639855e-005
-2.7098376e-012
1.6398564e-005
2.2130923e-011
1.6398568e-005
2.460387e-012
1.6398567e-005
-2.471767e-012
1.6398566e-005
-1.1701698e-012
1.6398565e-005
-5.4626642e-013
1.6398565e-005
-8.2032845e-013
1.6398565e-005
-2.7397837e-013
1.6398565e-005
3.4496846e-013
1.6398565e-005
-2.6195112e-013
1.6398565e-005
-1.2368369e-012
1.6398566e-005
-2.5409084e-013
1.6398564e-005
-5.0709424e-014
-7.2425198e-013
1.3805399e-005
-8.4840975e-006
1.2780762e-005
-1.7744288e-006
1.2553832e-005
-2.1284391e-007
1.2478646e-005
-4.4343997e-008
1.2470797e-005
2.6299946e-008
1.2484704e-005
2.2903188e-008
1.2497461e-005
1.329653e-008
1.250214e-005
3.5631734e-009
1.2502717e-005
2.7437655e-010
1.2502465e-005
-3.5871103e-010
1.2502346e-005
-1.105621e-010
1.2502343e-005
-4.1694468e-014
1.2502355e-005
1.0155033e-011
1.2502358e-005
3.3151848e-013
1.2502356e-005
-1.3229907e-012
1.2502356e-005
-4.6112143e-013
1.2502355e-005
-2.1576205e-013
1.2502355e-005
-5.0029361e-013
1.2502355e-005
-1.3298258e-013
1.2502355e-005
2.3207975e-013
1.2502355e-005
-3.0145879e-013
1.2502355e-005
-1.2353693e-012
1.2502355e-005
-6.1225204e-013
1.2502354e-005
1.4316673e-012
1.1821317e-012
9.3114658e-006
-4.9207284e-006
8.2509423e-006
-7.1390539e-007
8.0890709e-006
-5.0972486e-008
8.0512075e-006
-6.4806324e-009
8.0619919e-006
1.5515506e-008
8.0771213e-006
7.7738159e-009
8.0864873e-006
3.9305578e-009
8.0893358e-006
7.1477715e-010
8.0895847e-006
2.5496476e-011
8.0893554e-006
-1.2942325e-010
8.0892741e-006
-2.9244138e-011
8.0892746e-006
-5.3132044e-013
8.0892823e-006
2.4785788e-012
8.0892829e-006
-2.9983526e-013
8.089282e-006
-4.0529526e-013
8.0892816e-006
-9.3118482e-014
8.0892815e-006
-5.1092922e-014
8.0892811e-006
-1.794463e-013
8.089281e-006
-2.6994225e-014
8.0892812e-006
9.1398707e-014
8.089281e-006
-1.6586246e-013
8.0892804e-006
-6.5540108e-013
8.0892803e-006
-5.5420521e-013
8.0892808e-006
9.6878478e-013
1.0505911e-012
3.8256397e-006
3.1117343e-006
3.0607618e-006
3.0542812e-006
3.0697967e-006
3.0775706e-006
3.0815011e-006
3.0822159e-006
3.0822414e-006
3.082112e-006
3.0820828e-006
3.0820822e-006
3.0820847e-006
3.0820844e-006
3.082084e-006
3.0820839e-006
3.0820839e-006
3.0820837e-006
3.0820837e-006
3.0820838e-006
3.0820836e-006
3.0820829e-006
3.0820823e-006
3.0820833e-006
1.5329738e-005
-1.2907136e-006
1.5747278e-005
-1.5971311e-006
1.6089487e-005
-1.4212947e-006
1.6357873e-005
-1.1456209e-006
1.6556787e-005
-9.0668775e-007
1.6705128e-005
-7.2135536e-007
1.6818141e-005
-5.8233623e-007
1.6907665e-005
-4.897514e-007
1.6983943e-005
-4.3929645e-007
1.7055565e-005
-4.3246248e-007
1.713075e-005
-4.7068307e-007
1.7217752e-005
-5.638998e-007
1.7326467e-005
-7.2257885e-007
1.7468453e-005
-9.6702471e-007
1.7657174e-005
-1.3316203e-006
1.791179e-005
-1.8634685e-006
1.8249073e-005
-2.63053e-006
1.8690504e-005
-3.7447075e-006
1.924639e-005
-5.356448e-006
1.9874167e-005
-7.8931044e-006
2.0534438e-005
-1.1774364e-005
2.0625798e-005
-1.7629349e-005
1.9424301e-005
-2.3715509e-005
1.4585398e-005
-2.8478894e-005
-1.8865736e-005
1.5375638e-005
-1.6625103e-006
1.5841352e-005
-2.0628452e-006
1.6206336e-005
-1.7862786e-006
1.6470851e-005
-1.4101364e-006
1.6652803e-005
-1.0886394e-006
1.6778216e-005
-8.4676903e-007
1.6866629e-005
-6.7074917e-007
1.6931662e-005
-5.5478393e-007
1.6982984e-005
-4.9061902e-007
1.7027836e-005
-4.7731412e-007
1.7072107e-005
-5.1495439e-007
1.7120499e-005
-6.1229185e-007
1.7178162e-005
-7.8024134e-007
1.72502e-005
-1.0390632e-006
1.7340705e-005
-1.4221248e-006
1.7453527e-005
-1.9762905e-006
1.7586609e-005
-2.7636122e-006
1.7728742e-005
-3.88684e-006
1.7843935e-005
-5.4716411e-006
1.7803343e-005
-7.8525123e-006
1.7381797e-005
-1.1352818e-005
1.5962555e-005
-1.6210107e-005
1.2948471e-005
-2.0701426e-005
6.7991891e-006
-2.2329612e-005
-1.2066547e-005
1.5463237e-005
-2.1219065e-006
1.6007356e-005
-2.6069644e-006
1.6399996e-005
-2.1789183e-006
1.6651152e-005
-1.6612922e-006
1.6803663e-005
-1.241151e-006
1.6895422e-005
-9.3852805e-007
1.6951502e-005
-7.2682828e-007
1.6986295e-005
-5.8957707e-007
1.7008408e-005
-5.127323e-007
1.7022973e-005
-4.9187959e-007
1.7033088e-005
-5.2506921e-007
1.7039789e-005
-6.1899236e-007
1.7043757e-005
-7.8420939e-007
1.7043539e-005
-1.0388456e-006
1.7034289e-005
-1.412875e-006
1.7007406e-005
-1.9494076e-006
1.694625e-005
-2.7024555e-006
1.6815145e-005
-3.7557349e-006
1.6552168e-005
-5.2086646e-006
1.5988744e-005
-7.2890885e-006
1.4849529e-005
-1.0213602e-005
1.2603126e-005
-1.3963704e-005
8.9399804e-006
-1.703828e-005
3.5243576e-006
-1.6913989e-005
-8.5421893e-006
1.5652095e-005
-2.7701606e-006
1.6320401e-005
-3.2752708e-006
1.6735401e-005
-2.5939174e-006
1.6952389e-005
-1.8782807e-006
1.7054949e-005
-1.3437111e-006
1.7098859e-005
-9.8243747e-007
1.7113591e-005
-7.4156052e-007
1.7112518e-005
-5.8850424e-007
1.7101965e-005
-5.0217936e-007
1.70841e-005
-4.7401477e-007
1.7058973e-005
-4.9994229e-007
1.7023669e-005
-5.8368773e-007
1.6974376e-005
-7.3491685e-007
1.690358e-005
-9.6804969e-007
1.6799295e-005
-1.3085893e-006
1.6642702e-005
-1.7928151e-006
1.640582e-005
-2.4655735e-006
1.6039096e-005
-3.3890105e-006
1.5468351e-005
-4.6379195e-006
1.4534556e-005
-6.3552943e-006
1.2987411e-005
-8.6664565e-006
1.0439344e-005
-1.1415637e-005
6.7794018e-006
-1.3378338e-005
2.3159347e-006
-1.2450522e-005
-6.2262547e-006
1.6007076e-005
-3.7733961e-006
1.6814414e-005
-4.0826081e-006
1.7212069e-005
-2.9915731e-006
1.7354767e-005
-2.0209785e-006
1.7378319e-005
-1.3672628e-006
1.7357348e-005
-9.61467e-007
1.7321607e-005
-7.0581948e-007
1.7280103e-005
-5.4699975e-007
1.7234951e-005
-4.570274e-007
1.718432e-005
-4.2338347e-007
1.7124771e-005
-4.4039381e-007
1.7049639e-005
-5.085559e-007
1.6950369e-005
-6.3564625e-007
1.6814555e-005
-8.3223603e-007
1.662504e-005
-1.119074e-006
1.6355525e-005
-1.5233007e-006
1.5969457e-005
-2.0795046e-006
1.5410871e-005
-2.8304245e-006
1.4600894e-005
-3.8279431e-006
1.3403494e-005
-5.1578941e-006
1.1617804e-005
-6.8807669e-006
8.9912247e-006
-8.789058e-006
5.5327667e-006
-9.9198799e-006
1.8524917e-006
-8.7702474e-006
-4.3737631e-006
1.647882e-005
-5.2483748e-006
1.7291665e-005
-4.8954531e-006
1.7552193e-005
-3.2521009e-006
1.7552685e-005
-2.0214712e-006
1.7464027e-005
-1.2786044e-006
1.7362689e-005
-8.601293e-007
1.7270228e-005
-6.1335782e-007
1.7186898e-005
-4.6367041e-007
1.710824e-005
-3.7836934e-007
1.7027724e-005
-3.4286755e-007
1.6937721e-005
-3.5039055e-007
1.6828485e-005
-3.9931961e-007
1.6687251e-005
-4.9441225e-007
1.6498799e-005
-6.4378404e-007
1.6241194e-005
-8.6146883e-007
1.5883825e-005
-1.1659321e-006
1.5385873e-005
-1.5815527e-006
1.4690685e-005
-2.1352367e-006
1.3721448e-005
-2.8587063e-006
1.2364354e-005
-3.8007998e-006
1.0466356e-005
-4.9827685e-006
7.8862763e-006
-6.2089786e-006
4.7277361e-006
-6.7613398e-006
1.6174235e-006
-5.6599349e-006
-2.7563396e-006
1.6749112e-005
-6.9936459e-006
1.7154221e-005
-5.3005621e-006
1.7049733e-005
-3.1476129e-006
1.6818603e-005
-1.7903415e-006
1.6593228e-005
-1.0532287e-006
1.6407849e-005
-6.7475047e-007
1.6261051e-005
-4.6655947e-007
1.6141096e-005
-3.4371538e-007
1.603591e-005
-2.7318403e-007
1.5934035e-005
-2.4099261e-007
1.5824028e-005
-2.4038281e-007
1.569402e-005
-2.6931231e-007
1.5529047e-005
-3.2943903e-007
1.53119e-005
-4.2663692e-007
1.5018555e-005
-5.6812366e-007
1.4617925e-005
-7.6530261e-007
1.406918e-005
-1.0328075e-006
1.3319092e-005
-1.3851485e-006
1.2299421e-005
-1.8390357e-006
1.0918322e-005
-2.4197e-006
9.0653756e-006
-3.1298224e-006
6.6761707e-006
-3.8197738e-006
3.9150884e-006
-4.0002576e-006
1.3563593e-006
-3.1012059e-006
-1.3999804e-006
1.6172932e-005
-8.1627366e-006
1.5488965e-005
-4.6165958e-006
1.4802157e-005
-2.4608042e-006
1.4289596e-005
-1.2777811e-006
1.3935354e-005
-6.9898589e-007
1.3685694e-005
-4.2509134e-007
1.3503359e-005
-2.8422354e-007
1.3363406e-005
-2.0376243e-007
1.3247432e-005
-1.5720997e-007
1.3140674e-005
-1.3423508e-007
1.3030026e-005
-1.2973474e-007
1.2902532e-005
-1.4181791e-007
1.2743835e-005
-1.7074273e-007
1.253661e-005
-2.1941191e-007
1.2259386e-005
-2.908999e-007
1.1885043e-005
-3.9095912e-007
1.1377307e-005
-5.2507104e-007
1.0691648e-005
-6.9948963e-007
9.7744859e-006
-9.2187394e-007
8.5569194e-006
-1.2021335e-006
6.9647527e-006
-1.5376557e-006
4.9843959e-006
-1.8394171e-006
2.8155983e-006
-1.8314601e-006
9.5317607e-007
-1.2387837e-006
-4.4680438e-007
1.3862371e-005
-7.0212668e-006
1.1710303e-005
-2.4645276e-006
1.0398279e-005
-1.1487803e-006
9.6689388e-006
-5.4844088e-007
9.2538539e-006
-2.8390096e-007
8.9935866e-006
-1.6482407e-007
8.8162554e-006
-1.0689236e-007
8.6872606e-006
-7.4767533e-008
8.5860771e-006
-5.6026457e-008
8.4979826e-006
-4.6140648e-008
8.4112283e-006
-4.2980351e-008
8.314956e-006
-4.5545616e-008
8.197968e-006
-5.3754707e-008
8.0469029e-006
-6.834685e-008
7.8460415e-006
-9.0038528e-008
7.5755966e-006
-1.2051415e-007
7.2109968e-006
-1.6047129e-007
6.7230418e-006
-2.1153459e-007
6.0765906e-006
-2.7542279e-007
5.2282733e-006
-3.538162e-007
4.1348392e-006
-4.4422165e-007
2.8084543e-006
-5.1303239e-007
1.4455303e-006
-4.6853613e-007
4.2800579e-007
-2.2125932e-007
-1.8798656e-008
7.9825742e-006
5.5180465e-006
4.3692663e-006
3.8208254e-006
3.5369244e-006
3.3721004e-006
3.265208e-006
3.1904405e-006
3.134414e-006
3.0882734e-006
3.045293e-006
2.9997474e-006
2.9459927e-006
2.8776459e-006
2.7876074e-006
2.6670932e-006
2.5066219e-006
2.2950873e-006
2.0196645e-006
1.6658483e-006
1.2216267e-006
7.0859423e-007
2.4005804e-007
1.8798657e-008
)
;

boundaryField
{
    inlet
    {
        type            calculated;
        value           nonuniform List<scalar> 
20
(
-5.0012803e-006
-5.0012803e-006
-5.0012803e-006
-5.0012803e-006
-5.0012803e-006
-5.0012803e-006
-5.0012803e-006
-5.0012803e-006
-5.0012803e-006
-5.0012803e-006
-1.5003841e-005
-1.5003841e-005
-1.5003841e-005
-1.5003841e-005
-1.5003841e-005
-1.5003841e-005
-1.5003841e-005
-1.5003841e-005
-1.5003841e-005
-1.5003841e-005
)
;
    }
    walls
    {
        type            calculated;
        value           uniform 0;
    }
    outlet
    {
        type            calculated;
        value           nonuniform List<scalar> 10(3.1685097e-005 3.0606544e-005 2.8635832e-005 2.6053436e-005 2.3102852e-005 1.9895167e-005 1.6398562e-005 1.2502352e-005 8.0892809e-006 3.0820843e-006);
    }
    centreline
    {
        type            symmetryPlane;
        value           uniform 0;
    }
    frontAndBack
    {
        type            empty;
        value           nonuniform 0();
    }
}


// ************************************************************************* //
