/*--------------------------------*- C++ -*----------------------------------*\
| =========                 |                                                 |
| \\      /  F ield         | OpenFOAM: The Open Source CFD Toolbox           |
|  \\    /   O peration     | Version:  5.x                                   |
|   \\  /    A nd           | Web:      www.OpenFOAM.org                      |
|    \\/     M anipulation  |                                                 |
\*---------------------------------------------------------------------------*/
/*   Windows 32 and 64 bit porting by blueCAPE: http://www.bluecape.com.pt   *\
|  Based on Windows porting (2.0.x v4) by Symscape: http://www.symscape.com   |
\*---------------------------------------------------------------------------*/
FoamFile
{
    version     2.0;
    format      ascii;
    class       surfaceScalarField;
    location    "0.1";
    object      phi_0;
}
// * * * * * * * * * * * * * * * * * * * * * * * * * * * * * * * * * * * * * //

dimensions      [0 3 -1 0 0 0 0];

internalField   nonuniform List<scalar> 
1430
(
5.0942922e-006
-9.3011922e-008
5.206373e-006
-1.1208075e-007
5.3111063e-006
-1.0473333e-007
5.3972084e-006
-8.6102032e-008
5.4690868e-006
-7.187842e-008
5.5285663e-006
-5.9479497e-008
5.5784568e-006
-4.9890506e-008
5.6218533e-006
-4.3396476e-008
5.6618948e-006
-4.0041497e-008
5.702285e-006
-4.0390235e-008
5.7470584e-006
-4.4773338e-008
5.8015273e-006
-5.4468912e-008
5.8721302e-006
-7.060296e-008
5.9677367e-006
-9.5606504e-008
6.1012962e-006
-1.3355947e-007
6.2910996e-006
-1.8980335e-007
6.5660184e-006
-2.749189e-007
6.9690737e-006
-4.0305524e-007
7.568033e-006
-5.9895933e-007
8.4948771e-006
-9.2684404e-007
9.9492167e-006
-1.4543396e-006
1.2344788e-005
-2.3955716e-006
1.5954574e-005
-3.6097857e-006
2.0830657e-005
-4.8760825e-006
-5.5660828e-006
2.6396739e-005
5.0935075e-006
-1.8523906e-007
5.2075318e-006
-2.2610511e-007
5.3114477e-006
-2.086492e-007
5.3980664e-006
-1.7272068e-007
5.4697824e-006
-1.4359444e-007
5.5291343e-006
-1.1883135e-007
5.5788531e-006
-9.9609335e-008
5.6220307e-006
-8.6574076e-008
5.6618329e-006
-7.9843754e-008
5.7019485e-006
-8.0505832e-008
5.7463924e-006
-8.9217207e-008
5.8004233e-006
-1.0849983e-007
5.8704419e-006
-1.4062156e-007
5.9652122e-006
-1.9037676e-007
6.0974681e-006
-2.6581543e-007
6.2854718e-006
-3.7780702e-007
6.5572111e-006
-5.4665821e-007
6.9553021e-006
-8.0114627e-007
7.546931e-006
-1.1905882e-006
8.4587562e-006
-1.8386693e-006
9.9006493e-006
-2.8962326e-006
1.2237512e-005
-4.732434e-006
1.5801831e-005
-7.1741045e-006
2.0498844e-005
-9.5730961e-006
-1.1053958e-005
2.5986719e-005
5.0937749e-006
-2.7773367e-007
5.2082945e-006
-3.406247e-007
5.3127536e-006
-3.1310831e-007
5.3995907e-006
-2.595577e-007
5.4711933e-006
-2.1519705e-007
5.5302987e-006
-1.7793677e-007
5.5796503e-006
-1.4896098e-007
5.6224208e-006
-1.2934454e-007
5.6617598e-006
-1.1918278e-007
5.7013286e-006
-1.2007466e-007
5.7451137e-006
-1.3300227e-007
5.7983036e-006
-1.6168976e-007
5.8671425e-006
-2.0946049e-007
5.9602332e-006
-2.8346741e-007
6.0900367e-006
-3.9561899e-007
6.2742404e-006
-5.6201072e-007
6.5399983e-006
-8.1241612e-007
6.9283687e-006
-1.1895166e-006
7.5042337e-006
-1.7664531e-006
8.391344e-006
-2.7257796e-006
9.7910365e-006
-4.295925e-006
1.2053445e-005
-6.9948419e-006
1.5459092e-005
-1.0579752e-005
1.9930127e-005
-1.4044131e-005
-1.6228704e-005
2.5104873e-005
5.0942697e-006
-3.7072307e-007
5.2095633e-006
-4.5591825e-007
5.3148123e-006
-4.1835735e-007
5.4019171e-006
-3.4666247e-007
5.4733636e-006
-2.8664362e-007
5.5320779e-006
-2.3665108e-007
5.5808891e-006
-1.9777213e-007
5.6230414e-006
-1.7149687e-007
5.6616908e-006
-1.5783212e-007
5.7004541e-006
-1.5883805e-007
5.7432546e-006
-1.7580269e-007
5.7951764e-006
-2.1361164e-007
5.8622754e-006
-2.7655942e-007
5.9528728e-006
-3.7406484e-007
6.0790153e-006
-5.2176156e-007
6.2576305e-006
-7.4062585e-007
6.5145227e-006
-1.0693083e-006
6.8886892e-006
-1.5636831e-006
7.4412591e-006
-2.319023e-006
8.291208e-006
-3.5757286e-006
9.6296734e-006
-5.6343904e-006
1.1779388e-005
-9.1445569e-006
1.4963427e-005
-1.376379e-005
1.911444e-005
-1.8195145e-005
-2.096673e-005
2.3852467e-005
5.0951174e-006
-4.6456016e-007
5.2114203e-006
-5.722211e-007
5.3176872e-006
-5.2462431e-007
5.4050757e-006
-4.3405093e-007
5.4762978e-006
-3.5786571e-007
5.5344744e-006
-2.9482772e-007
5.5825632e-006
-2.4586097e-007
5.6238876e-006
-2.1282123e-007
5.66162e-006
-1.9556451e-007
5.6993228e-006
-1.9654089e-007
5.740825e-006
-2.1730486e-007
5.7910667e-006
-2.6385336e-007
5.8558848e-006
-3.4137752e-007
5.9432127e-006
-4.6139276e-007
6.064547e-006
-6.4309584e-007
6.2358871e-006
-9.1196597e-007
6.4812667e-006
-1.3146879e-006
6.8370461e-006
-1.9194626e-006
7.3593938e-006
-2.8413707e-006
8.1604482e-006
-4.376783e-006
9.4135664e-006
-6.8875086e-006
1.1413203e-005
-1.1144193e-005
1.4316571e-005
-1.6667158e-005
1.8074524e-005
-2.1953098e-005
-2.5173721e-005
2.2281515e-005
5.0964162e-006
-5.5969608e-007
5.2139535e-006
-6.8975834e-007
5.321433e-006
-6.3210379e-007
5.4091075e-006
-5.2172547e-007
5.4800101e-006
-4.287683e-007
5.5374993e-006
-3.5231696e-007
5.5846765e-006
-2.9303814e-007
5.6249642e-006
-2.5310892e-007
5.6615557e-006
-2.3215603e-007
5.6979459e-006
-2.3293109e-007
5.7378461e-006
-2.5720507e-007
5.7860133e-006
-3.1202053e-007
5.8480262e-006
-4.0339047e-007
5.9313502e-006
-5.4471668e-007
6.046797e-006
-7.5854269e-007
6.2092781e-006
-1.074447e-006
6.4406867e-006
-1.5460966e-006
6.774241e-006
-2.2530168e-006
7.2597118e-006
-3.3268416e-006
7.9993294e-006
-5.1164005e-006
9.1419256e-006
-8.0301048e-006
1.0952066e-005
-1.2954334e-005
1.3511708e-005
-1.92268e-005
1.6820638e-005
-2.5262028e-005
-2.8832991e-005
2.0479908e-005
5.0982181e-006
-6.5663382e-007
5.2172205e-006
-8.0876082e-007
5.3260867e-006
-7.4096995e-007
5.4140431e-006
-6.0968183e-007
5.4845069e-006
-4.9923211e-007
5.5411488e-006
-4.0895888e-007
5.5872184e-006
-3.3910779e-007
5.6262604e-006
-2.921509e-007
5.6614889e-006
-2.6738454e-007
5.6963227e-006
-2.677649e-007
5.7343302e-006
-2.9521256e-007
5.7800445e-006
-3.5773478e-007
5.8387518e-006
-4.6209782e-007
5.917378e-006
-6.2334291e-007
6.0259386e-006
-8.6710327e-007
6.1780665e-006
-1.226575e-006
6.3933015e-006
-1.7613316e-006
6.7011123e-006
-2.5608276e-006
7.1438335e-006
-3.7695628e-006
7.8108267e-006
-5.7833937e-006
8.8210554e-006
-9.0403335e-006
1.0400805e-005
-1.4534084e-005
1.2548357e-005
-2.1374352e-005
1.5394443e-005
-2.8108114e-005
-3.1854479e-005
1.8415931e-005
5.1005535e-006
-7.5590704e-007
5.2212484e-006
-9.2945567e-007
5.3316553e-006
-8.5137682e-007
5.4198961e-006
-6.9792269e-007
5.4897766e-006
-5.6911264e-007
5.5453988e-006
-4.6458103e-007
5.5901567e-006
-3.8386566e-007
5.6277434e-006
-3.2973762e-007
5.6613816e-006
-3.0102279e-007
5.6944236e-006
-3.0080687e-007
5.7302775e-006
-3.3106646e-007
5.7731857e-006
-4.0064295e-007
5.8281065e-006
-5.1701865e-007
5.9013908e-006
-6.9662719e-007
6.0021283e-006
-9.678408e-007
6.1425867e-006
-1.3670333e-006
6.3398261e-006
-1.958571e-006
6.6188709e-006
-2.8398724e-006
7.014162e-006
-4.1648539e-006
7.5982612e-006
-6.3674929e-006
8.4564827e-006
-9.8985551e-006
9.7662403e-006
-1.5843841e-005
1.1456738e-005
-2.306485e-005
1.3830963e-005
-3.0482338e-005
-3.3933981e-005
1.5910464e-005
5.1034716e-006
-8.5809834e-007
5.2260248e-006
-1.0520089e-006
5.3381251e-006
-9.6347702e-007
5.4266656e-006
-7.8646319e-007
5.4957792e-006
-6.3822623e-007
5.5502025e-006
-5.1900435e-007
5.5934327e-006
-4.2709582e-007
5.6293581e-006
-3.6566303e-007
5.6611816e-006
-3.3284633e-007
5.6922022e-006
-3.3182743e-007
5.7256657e-006
-3.6453004e-007
5.7654495e-006
-4.4042671e-007
5.8161358e-006
-5.6770496e-007
5.8835061e-006
-7.639975e-007
5.9756214e-006
-1.0599561e-006
6.1032985e-006
-1.4947104e-006
6.2809974e-006
-2.1362699e-006
6.5287668e-006
-3.0876418e-006
6.8727328e-006
-4.5088199e-006
7.3674455e-006
-6.8622055e-006
8.0573148e-006
-1.0588424e-005
9.0673531e-006
-1.685388e-005
1.0264345e-005
-2.4261842e-005
1.2126674e-005
-3.2344667e-005
-3.4682802e-005
1.2875496e-005
5.1065002e-006
-9.6331825e-007
5.2319674e-006
-1.177476e-006
5.345437e-006
-1.0769467e-006
5.4343785e-006
-8.7540464e-007
5.5025116e-006
-7.0635928e-007
5.555515e-006
-5.7200776e-007
5.5970062e-006
-4.6858702e-007
5.6310548e-006
-3.9971161e-007
5.6608683e-006
-3.6265989e-007
5.6896441e-006
-3.6060316e-007
5.7204622e-006
-3.9534816e-007
5.7568373e-006
-4.768018e-007
5.8029226e-006
-6.1379024e-007
5.8638911e-006
-8.2496601e-007
5.9467136e-006
-1.1427786e-006
6.0606434e-006
-1.6086402e-006
6.217242e-006
-2.2928685e-006
6.432205e-006
-3.3026048e-006
6.7225019e-006
-4.7991168e-006
7.1225162e-006
-7.2622198e-006
7.6434045e-006
-1.1109313e-005
8.3242482e-006
-1.7534723e-005
8.9828041e-006
-2.4920398e-005
9.9675058e-006
-3.3329369e-005
8.7470992e-006
-3.3462396e-005
2.9620132e-005
-3.2233933e-006
3.0976158e-005
-1.3560261e-006
3.1469464e-005
-4.933064e-007
3.1685519e-005
-2.1605495e-007
3.1753882e-005
-6.8362781e-008
3.1741615e-005
1.2266756e-008
3.17187e-005
2.2915056e-008
3.1708288e-005
1.0412197e-008
3.1706652e-005
1.636216e-009
3.1707035e-005
-3.8315213e-010
3.1707306e-005
-2.716271e-010
3.1707327e-005
-2.0457561e-011
3.1707302e-005
2.4647836e-011
3.1707295e-005
7.1496182e-012
3.1707297e-005
-2.1040032e-012
3.17073e-005
-2.5511773e-012
3.1707301e-005
-1.4508846e-012
3.1707301e-005
2.702508e-014
3.17073e-005
7.1267644e-013
3.1707301e-005
-7.4828999e-013
3.1707302e-005
-5.8853199e-013
3.1707301e-005
9.5538256e-013
3.17073e-005
7.7860735e-013
3.1707296e-005
4.5281195e-012
4.4180635e-012
2.8845592e-005
-6.0822669e-006
3.0059234e-005
-2.5696685e-006
3.0455749e-005
-8.8982196e-007
3.0620893e-005
-3.8119977e-007
3.066137e-005
-1.0883985e-007
3.0650058e-005
2.3578876e-008
3.0631461e-005
4.1512669e-008
3.0623565e-005
1.8308158e-008
3.062227e-005
2.9314659e-009
3.06226e-005
-7.1315004e-010
3.0622803e-005
-4.7543313e-010
3.0622818e-005
-3.5347655e-011
3.0622799e-005
4.4357284e-011
3.0622793e-005
1.245187e-011
3.0622795e-005
-3.5979896e-012
3.0622797e-005
-4.4608358e-012
3.0622798e-005
-2.5092427e-012
3.0622798e-005
9.2222038e-015
3.0622798e-005
9.2153045e-013
3.0622798e-005
-1.0596243e-012
3.0622798e-005
-8.2104888e-013
3.0622797e-005
1.6226258e-012
3.0622797e-005
1.4662673e-012
3.0622796e-005
5.6096826e-012
5.3678595e-012
2.7455315e-005
-8.4327092e-006
2.8354351e-005
-3.4687049e-006
2.8599074e-005
-1.1345451e-006
2.8662287e-005
-4.4441224e-007
2.8667924e-005
-1.1447689e-007
2.865761e-005
3.3893013e-008
2.8646736e-005
5.2386147e-008
2.8642628e-005
2.2416457e-008
2.8642057e-005
3.5026898e-009
2.8642275e-005
-9.3135026e-010
2.8642379e-005
-5.7936426e-010
2.8642382e-005
-3.8598235e-011
2.8642371e-005
5.5281714e-011
2.8642369e-005
1.4652131e-011
2.864237e-005
-4.3777662e-012
2.8642371e-005
-5.0542365e-012
2.8642371e-005
-2.8422412e-012
2.8642371e-005
-3.3367606e-013
2.8642372e-005
3.4307918e-013
2.8642371e-005
-7.7188041e-013
2.8642371e-005
-3.3477583e-013
2.8642371e-005
1.7149621e-012
2.8642371e-005
1.7247726e-012
2.8642373e-005
3.3021121e-012
2.7997532e-012
2.5582293e-005
-1.0162535e-005
2.6083951e-005
-3.9703635e-006
2.6115611e-005
-1.1662051e-006
2.608385e-005
-4.1265123e-007
2.6060202e-005
-9.0828607e-008
2.6052116e-005
4.1979117e-008
2.6049707e-005
5.4794784e-008
2.6049669e-005
2.2454337e-008
2.604986e-005
3.3118241e-009
2.6049949e-005
-1.0200106e-009
2.6049946e-005
-5.7658913e-010
2.6049939e-005
-3.1302798e-011
2.6049938e-005
5.627339e-011
2.6049939e-005
1.3483135e-011
2.6049939e-005
-4.6357769e-012
2.6049939e-005
-4.5057361e-012
2.6049938e-005
-2.5117341e-012
2.6049939e-005
-9.1085436e-013
2.604994e-005
-2.1569144e-013
2.6049939e-005
-8.4317948e-014
2.6049938e-005
1.8084738e-013
2.6049939e-005
1.1224291e-012
2.6049939e-005
1.4694597e-012
2.6049943e-005
-1.3526368e-013
-9.6826237e-013
2.3332009e-005
-1.1213029e-005
2.3390088e-005
-4.0284423e-006
2.321513e-005
-9.9124748e-007
2.312781e-005
-3.2533129e-007
2.3087924e-005
-5.0942869e-008
2.3083276e-005
4.6627643e-008
2.3088331e-005
4.9739214e-008
2.3091664e-005
1.912222e-008
2.3092394e-005
2.581299e-009
2.3092354e-005
-9.7995919e-010
2.3092268e-005
-4.9083232e-010
2.3092256e-005
-1.9049538e-011
2.3092264e-005
4.8727058e-011
2.3092267e-005
1.0015365e-011
2.3092267e-005
-4.3560266e-012
2.3092266e-005
-3.4266699e-012
2.3092265e-005
-1.8475986e-012
2.3092265e-005
-1.172257e-012
2.3092266e-005
-3.393761e-013
2.3092265e-005
3.7866298e-013
2.3092265e-005
1.4333687e-013
2.3092266e-005
1.5520295e-013
2.3092267e-005
9.5950575e-013
2.3092269e-005
-2.4848151e-012
-3.5275892e-012
2.0701223e-005
-1.1434344e-005
2.0288154e-005
-3.6153735e-006
2.0011898e-005
-7.1499189e-007
1.99056e-005
-2.1903293e-007
1.9864612e-005
-9.9544814e-009
1.9865819e-005
4.5420652e-008
1.9876303e-005
3.9254541e-008
1.9881589e-005
1.3836539e-008
1.9882514e-005
1.6558746e-009
1.9882367e-005
-8.3241485e-010
1.9882238e-005
-3.6145831e-010
1.9882227e-005
-8.0149371e-012
1.9882239e-005
3.6046096e-011
1.9882243e-005
5.8451656e-012
1.9882243e-005
-3.5745075e-012
1.9882241e-005
-2.1926552e-012
1.9882241e-005
-1.1133431e-012
1.9882241e-005
-1.0837494e-012
1.9882241e-005
-3.4023856e-013
1.9882241e-005
4.316682e-013
1.9882241e-005
-8.4298559e-014
1.9882242e-005
-7.1175114e-013
1.9882242e-005
3.1558511e-013
1.9882242e-005
-2.3180509e-012
-3.2770682e-012
1.7574065e-005
-1.0592478e-005
1.6760435e-005
-2.8017443e-006
1.648748e-005
-4.4203693e-007
1.6388713e-005
-1.2026519e-007
1.6360104e-005
1.8654543e-008
1.6368485e-005
3.7039231e-008
1.6381668e-005
2.6072125e-008
1.6387313e-005
8.1909594e-009
1.6388142e-005
8.2725555e-010
1.638792e-005
-6.1030689e-010
1.6387783e-005
-2.2515584e-010
1.6387777e-005
-1.4182149e-012
1.6387791e-005
2.2088076e-011
1.6387794e-005
2.3351573e-012
1.6387793e-005
-2.4823089e-012
1.6387792e-005
-1.1534575e-012
1.6387792e-005
-5.3980304e-013
1.6387791e-005
-8.2636853e-013
1.6387791e-005
-2.7470448e-013
1.6387791e-005
3.5165391e-013
1.6387792e-005
-2.5881826e-013
1.6387792e-005
-1.245592e-012
1.6387793e-005
-3.1913572e-013
1.6387791e-005
-3.3032358e-013
-9.5361877e-013
1.3803463e-005
-8.4854767e-006
1.2776654e-005
-1.7749357e-006
1.2548032e-005
-2.1341504e-007
1.2472275e-005
-4.4507924e-008
1.246455e-005
2.6378972e-008
1.2478621e-005
2.2969055e-008
1.2491407e-005
1.3285994e-008
1.2496061e-005
3.5370133e-009
1.2496623e-005
2.6494697e-010
1.249637e-005
-3.5717183e-010
1.2496253e-005
-1.0843653e-010
1.2496251e-005
5.1806871e-013
1.2496263e-005
1.0112314e-011
1.2496265e-005
2.7512646e-013
1.2496264e-005
-1.3234739e-012
1.2496263e-005
-4.5233236e-013
1.2496263e-005
-2.1280374e-013
1.2496263e-005
-5.0397918e-013
1.2496263e-005
-1.3294903e-013
1.2496263e-005
2.3587423e-013
1.2496263e-005
-3.0018481e-013
1.2496263e-005
-1.2424407e-012
1.2496263e-005
-6.5981711e-013
1.2496262e-005
1.2190707e-012
1.0049772e-012
9.3112026e-006
-4.9211837e-006
8.2500089e-006
-7.1374212e-007
8.0875426e-006
-5.0948803e-008
8.0494939e-006
-6.459213e-009
8.0603474e-006
1.5525429e-008
8.0755407e-006
7.7758286e-009
8.0849047e-006
3.9219706e-009
8.087734e-006
7.0777049e-010
8.0879751e-006
2.3873552e-011
8.0877466e-006
-1.2858178e-010
8.0876668e-006
-2.8633903e-011
8.0876677e-006
-3.9834688e-013
8.0876753e-006
2.4600726e-012
8.0876759e-006
-3.1317005e-013
8.087675e-006
-4.039018e-013
8.0876746e-006
-9.0522473e-014
8.0876745e-006
-5.0302485e-014
8.0876742e-006
-1.8074539e-013
8.0876741e-006
-2.6906247e-014
8.0876742e-006
9.2661961e-014
8.087674e-006
-1.6543386e-013
8.0876734e-006
-6.5831336e-013
8.0876733e-006
-5.7425197e-013
8.0876736e-006
8.8455327e-013
9.7954986e-013
3.8259155e-006
3.1121734e-006
3.0612245e-006
3.0547653e-006
3.0702908e-006
3.0780666e-006
3.0819886e-006
3.0826964e-006
3.0827203e-006
3.0825917e-006
3.0825631e-006
3.0825627e-006
3.0825651e-006
3.0825648e-006
3.0825644e-006
3.0825643e-006
3.0825643e-006
3.0825641e-006
3.0825641e-006
3.0825642e-006
3.082564e-006
3.0825633e-006
3.0825627e-006
3.0825636e-006
1.5329178e-005
-1.2886552e-006
1.5745941e-005
-1.5942395e-006
1.6087462e-005
-1.4184669e-006
1.6355303e-005
-1.143246e-006
1.6553836e-005
-9.04892e-007
1.6701916e-005
-7.2008829e-007
1.6814761e-005
-5.8143186e-007
1.6904173e-005
-4.8912378e-007
1.6980385e-005
-4.3887113e-007
1.7051968e-005
-4.3218637e-007
1.7127135e-005
-4.7051543e-007
1.7214135e-005
-5.6380168e-007
1.7322861e-005
-7.2251581e-007
1.7464866e-005
-9.6697104e-007
1.7653613e-005
-1.3315263e-006
1.7908256e-005
-1.863283e-006
1.8245576e-005
-2.6301882e-006
1.8687024e-005
-3.7440532e-006
1.9242929e-005
-5.3550216e-006
1.9870672e-005
-7.8899623e-006
2.0530926e-005
-1.1769567e-005
2.0622659e-005
-1.7626457e-005
1.9422731e-005
-2.372047e-005
1.4585955e-005
-2.8492593e-005
-1.8876441e-005
1.5374907e-005
-1.6597208e-006
1.583971e-005
-2.0590434e-006
1.6203923e-005
-1.7826792e-006
1.6467912e-005
-1.4072355e-006
1.6649524e-005
-1.086504e-006
1.6774729e-005
-8.4529258e-007
1.686302e-005
-6.6972314e-007
1.6927981e-005
-5.5408462e-007
1.6979267e-005
-4.901577e-007
1.7024105e-005
-4.7702399e-007
1.7068379e-005
-5.1478934e-007
1.7116788e-005
-6.1221091e-007
1.7174482e-005
-7.8020964e-007
1.7246565e-005
-1.0390541e-006
1.7337132e-005
-1.4220938e-006
1.7450034e-005
-1.9761848e-006
1.7583231e-005
-2.7633846e-006
1.7725523e-005
-3.886345e-006
1.7841003e-005
-5.4705023e-006
1.7800907e-005
-7.8498665e-006
1.738005e-005
-1.134871e-005
1.5961475e-005
-1.6207882e-005
1.2947932e-005
-2.0706926e-005
6.7987733e-006
-2.2343434e-005
-1.2077668e-005
1.5462123e-005
-2.1180032e-006
1.6005046e-005
-2.6019664e-006
1.6396827e-005
-2.1744599e-006
1.6647485e-005
-1.6578933e-006
1.6799737e-005
-1.2387562e-006
1.6891366e-005
-9.3692138e-007
1.694739e-005
-7.2574724e-007
1.6982163e-005
-5.8885784e-007
1.7004279e-005
-5.1227376e-007
1.7018861e-005
-4.9160565e-007
1.7029003e-005
-5.2493103e-007
1.7035742e-005
-6.1894995e-007
1.7039763e-005
-7.8423082e-007
1.7039616e-005
-1.0389072e-006
1.7030465e-005
-1.4129431e-006
1.7003716e-005
-1.9494356e-006
1.6942744e-005
-2.7024127e-006
1.6811908e-005
-3.7555095e-006
1.6549386e-005
-5.2079802e-006
1.5986814e-005
-7.2872937e-006
1.4848848e-005
-1.0210744e-005
1.2603589e-005
-1.3962623e-005
8.9406694e-006
-1.7044007e-005
3.524157e-006
-1.6926922e-005
-8.5535112e-006
1.5650321e-005
-2.7644832e-006
1.6317136e-005
-3.2687812e-006
1.6731244e-005
-2.5885676e-006
1.694782e-005
-1.8744692e-006
1.7050252e-005
-1.3411883e-006
1.7094148e-005
-9.8081734e-007
1.7108913e-005
-7.4051223e-007
1.7107884e-005
-5.878293e-007
1.7097379e-005
-5.017689e-007
1.7079564e-005
-4.7379056e-007
1.7054489e-005
-4.9985587e-007
1.7019246e-005
-5.8370691e-007
1.6970028e-005
-7.3501282e-007
1.6899327e-005
-9.6820606e-007
1.6795172e-005
-1.3087881e-006
1.6638764e-005
-1.7930283e-006
1.6402136e-005
-2.4657841e-006
1.6035777e-005
-3.3891512e-006
1.5465601e-005
-4.637804e-006
1.4532807e-005
-6.3544997e-006
1.2987169e-005
-8.6651059e-006
1.0440575e-005
-1.1416029e-005
6.7808866e-006
-1.3384318e-005
2.3162737e-006
-1.2462309e-005
-6.2372376e-006
1.6004804e-005
-3.7654463e-006
1.6810827e-005
-4.074804e-006
1.7207833e-005
-2.9855739e-006
1.7350318e-005
-2.016954e-006
1.7373925e-005
-1.3647951e-006
1.735309e-005
-9.5998231e-007
1.7317484e-005
-7.0490638e-007
1.7276093e-005
-5.4643845e-007
1.7231033e-005
-4.5670903e-007
1.718048e-005
-4.232379e-007
1.7121005e-005
-4.4038005e-007
1.7045949e-005
-5.0865108e-007
1.6946764e-005
-6.3582796e-007
1.6811059e-005
-8.3250073e-007
1.6621689e-005
-1.1194186e-006
1.6352379e-005
-1.5237183e-006
1.5966595e-005
-2.0799995e-006
1.5408413e-005
-2.8309698e-006
1.4599036e-005
-3.8284263e-006
1.340262e-005
-5.1580845e-006
1.1618399e-005
-6.8808842e-006
8.9933065e-006
-8.7909364e-006
5.5352502e-006
-9.9262621e-006
1.853805e-006
-8.7808642e-006
-4.3834327e-006
1.6477212e-005
-5.2388176e-006
1.728994e-005
-4.8875315e-006
1.7550537e-005
-3.2461708e-006
1.7551194e-005
-2.0176116e-006
1.7462807e-005
-1.276408e-006
1.7361754e-005
-8.58929e-007
1.7269523e-005
-6.1267506e-007
1.7186363e-005
-4.6327873e-007
1.7107827e-005
-3.7817261e-007
1.7027402e-005
-3.4281329e-007
1.6937472e-005
-3.5044995e-007
1.6828298e-005
-3.9947763e-007
1.6687131e-005
-4.9466098e-007
1.6498761e-005
-6.4412987e-007
1.6241261e-005
-8.6191868e-007
1.5884038e-005
-1.1664953e-006
1.5386298e-005
-1.5822594e-006
1.4691413e-005
-2.1360856e-006
1.3722621e-005
-2.8596338e-006
1.2366239e-005
-3.8017025e-006
1.0469282e-005
-4.983927e-006
7.8901537e-006
-6.2118084e-006
4.7315225e-006
-6.767631e-006
1.6196224e-006
-5.6689642e-006
-2.7638103e-006
1.6749737e-005
-6.9847135e-006
1.7156658e-005
-5.2944526e-006
1.7053321e-005
-3.142834e-006
1.6822906e-005
-1.7871969e-006
1.6598031e-005
-1.0515322e-006
1.6413036e-005
-6.7393478e-007
1.6266519e-005
-4.6615777e-007
1.6146754e-005
-3.4351358e-007
1.6041689e-005
-2.7310811e-007
1.5939889e-005
-2.4101286e-007
1.5829922e-005
-2.4048293e-007
1.5699932e-005
-2.694873e-007
1.5534963e-005
-3.2969232e-007
1.5317811e-005
-4.2697829e-007
1.5024457e-005
-5.6856409e-007
1.4623822e-005
-7.6586013e-007
1.4075081e-005
-1.0335188e-006
1.3325021e-005
-1.3860254e-006
1.2305434e-005
-1.840047e-006
1.0924538e-005
-2.420806e-006
9.0718798e-006
-3.1312693e-006
6.6826035e-006
-3.8225322e-006
3.920309e-006
-4.0053366e-006
1.3590635e-006
-3.1077188e-006
-1.4047469e-006
1.6176058e-005
-8.1569305e-006
1.5495155e-005
-4.61355e-006
1.4810217e-005
-2.4578957e-006
1.4298818e-005
-1.2757977e-006
1.3945238e-005
-6.9795243e-007
1.3695975e-005
-4.2467096e-007
1.3513888e-005
-2.8407093e-007
1.3374088e-005
-2.0371385e-007
1.3258197e-005
-1.5721687e-007
1.3151471e-005
-1.3428737e-007
1.3040815e-005
-1.2982671e-007
1.2913279e-005
-1.4195162e-007
1.2754512e-005
-1.7092522e-007
1.2547185e-005
-2.1965105e-007
1.2269828e-005
-2.9120676e-007
1.1895319e-005
-3.9135094e-007
1.138736e-005
-5.2556024e-007
1.0701431e-005
-7.0009629e-007
9.7839754e-006
-9.225915e-007
8.5661099e-006
-1.2029405e-006
6.9735376e-006
-1.5386971e-006
4.9922035e-006
-1.8411981e-006
2.8212462e-006
-1.8343794e-006
9.5569409e-007
-1.2421668e-006
-4.4905288e-007
1.3866056e-005
-7.0191456e-006
1.1716333e-005
-2.4638266e-006
1.0406074e-005
-1.1476376e-006
9.6779289e-006
-5.4765212e-007
9.263483e-006
-2.8350649e-007
9.0035074e-006
-1.6469544e-007
8.8263124e-006
-1.0687587e-007
8.69738e-006
-7.4781459e-008
8.5962152e-006
-5.6052019e-008
8.5081052e-006
-4.6177385e-008
8.4213065e-006
-4.3028027e-008
8.3249617e-006
-4.5606774e-008
8.2078709e-006
-5.383445e-008
8.0566679e-006
-6.844808e-008
7.8556292e-006
-9.0167985e-008
7.5849579e-006
-1.2067966e-007
7.2200707e-006
-1.6067299e-007
6.7317609e-006
-2.1178657e-007
6.0848944e-006
-2.7572493e-007
5.2361089e-006
-3.5415507e-007
4.1420589e-006
-4.4464715e-007
2.8145531e-006
-5.1369235e-007
1.4496239e-006
-4.6945034e-007
4.2957982e-007
-2.2212277e-007
-1.9473125e-008
7.9846954e-006
5.5208688e-006
4.3732312e-006
3.8255791e-006
3.5420726e-006
3.3773772e-006
3.2705013e-006
3.1957199e-006
3.1396679e-006
3.0934905e-006
3.0504624e-006
3.0048557e-006
2.9510212e-006
2.8825732e-006
2.7924052e-006
2.6717255e-006
2.5110525e-006
2.299266e-006
2.023541e-006
1.6693859e-006
1.2247388e-006
7.1104636e-007
2.4159596e-007
1.9473125e-008
)
;

boundaryField
{
    inlet
    {
        type            calculated;
        value           nonuniform List<scalar> 
20
(
-5.0012803e-006
-5.0012803e-006
-5.0012803e-006
-5.0012803e-006
-5.0012803e-006
-5.0012803e-006
-5.0012803e-006
-5.0012803e-006
-5.0012803e-006
-5.0012803e-006
-1.5003841e-005
-1.5003841e-005
-1.5003841e-005
-1.5003841e-005
-1.5003841e-005
-1.5003841e-005
-1.5003841e-005
-1.5003841e-005
-1.5003841e-005
-1.5003841e-005
)
;
    }
    walls
    {
        type            calculated;
        value           uniform 0;
    }
    outlet
    {
        type            calculated;
        value           nonuniform List<scalar> 10(3.1707291e-005 3.0622795e-005 2.8642375e-005 2.6049946e-005 2.3092271e-005 1.9882242e-005 1.6387788e-005 1.249626e-005 8.0876737e-006 3.0825646e-006);
    }
    centreline
    {
        type            symmetryPlane;
        value           uniform 0;
    }
    frontAndBack
    {
        type            empty;
        value           nonuniform 0();
    }
}


// ************************************************************************* //
