/*--------------------------------*- C++ -*----------------------------------*\
| =========                 |                                                 |
| \\      /  F ield         | OpenFOAM: The Open Source CFD Toolbox           |
|  \\    /   O peration     | Version:  5.x                                   |
|   \\  /    A nd           | Web:      www.OpenFOAM.org                      |
|    \\/     M anipulation  |                                                 |
\*---------------------------------------------------------------------------*/
/*   Windows 32 and 64 bit porting by blueCAPE: http://www.bluecape.com.pt   *\
|  Based on Windows porting (2.0.x v4) by Symscape: http://www.symscape.com   |
\*---------------------------------------------------------------------------*/
FoamFile
{
    version     2.0;
    format      ascii;
    class       volSymmTensorField;
    location    "0.1";
    object      sigma_0;
}
// * * * * * * * * * * * * * * * * * * * * * * * * * * * * * * * * * * * * * //

dimensions      [0 2 -2 0 0 0 0];

internalField   nonuniform List<symmTensor> 
750
(
(-0.00018966118 1.3630752e-005 0 0.00019366695 0 0)
(-0.00024900664 6.7264865e-007 0 0.00024061629 0 0)
(-0.00021057286 -2.7928194e-006 0 0.0002140175 0 0)
(-0.00018925376 -3.3500695e-006 0 0.00018457664 0 0)
(-0.00015071928 -3.2152881e-006 0 0.00015261592 0 0)
(-0.00013439317 -2.5143369e-006 0 0.00013252848 0 0)
(-0.00011281746 -1.9456955e-006 0 0.0001132827 0 0)
(-0.0001036808 -9.695097e-007 0 0.00010304768 0 0)
(-9.9199274e-005 2.366545e-009 0 9.9107683e-005 0 0)
(-0.00010452617 1.2246195e-006 0 0.00010421692 0 0)
(-0.00012186541 2.8245737e-006 0 0.00012151353 0 0)
(-0.00014837527 4.5523124e-006 0 0.00014775281 0 0)
(-0.00019719804 7.2529541e-006 0 0.00019622796 0 0)
(-0.00026726986 1.0929397e-005 0 0.0002655129 0 0)
(-0.0003701785 1.601786e-005 0 0.00036638375 0 0)
(-0.00052753539 2.4099154e-005 0 0.00052081693 0 0)
(-0.00075706936 3.6111049e-005 0 0.00074212551 0 0)
(-0.0010996654 5.4299207e-005 0 0.0010686521 0 0)
(-0.0016457776 8.7645506e-005 0 0.0015828846 0 0)
(-0.002471606 0.00013411275 0 0.0023102217 0 0)
(-0.0039188315 0.00023256889 0 0.0036037025 0 0)
(-0.0063848767 0.00035018778 0 0.0054304024 0 0)
(-0.010297628 0.00052239658 0 0.008348811 0 0)
(-0.015200627 0.00078015389 0 0.010804133 0 0)
(-0.01994601 0.00051999874 0 0.013416417 0 0)
(-0.00018972628 4.0827658e-005 0 0.00019355919 0 0)
(-0.00024961726 2.0576003e-006 0 0.00024167053 0 0)
(-0.00021112037 -8.3780632e-006 0 0.00021452479 0 0)
(-0.00018944488 -9.9449033e-006 0 0.00018442388 0 0)
(-0.00015066235 -9.4751492e-006 0 0.00015292719 0 0)
(-0.00013410805 -7.4085212e-006 0 0.00013194025 0 0)
(-0.00011242224 -5.6049778e-006 0 0.00011300137 0 0)
(-0.00010319177 -2.7036838e-006 0 0.00010242481 0 0)
(-9.8635231e-005 2.5850682e-007 0 9.8521303e-005 0 0)
(-0.00010390921 3.9038681e-006 0 0.00010351869 0 0)
(-0.00012100453 8.6887716e-006 0 0.00012059578 0 0)
(-0.0001471124 1.3852973e-005 0 0.00014640589 0 0)
(-0.00019562442 2.1944997e-005 0 0.00019453581 0 0)
(-0.00026511999 3.2869702e-005 0 0.00026318079 0 0)
(-0.00036668508 4.8057384e-005 0 0.00036259272 0 0)
(-0.00052295572 7.2155749e-005 0 0.00051588965 0 0)
(-0.00074881973 0.00010745314 0 0.00073309882 0 0)
(-0.0010870964 0.00016187148 0 0.0010552444 0 0)
(-0.0016266277 0.00025970635 0 0.0015623624 0 0)
(-0.002432188 0.00039258719 0 0.0022661078 0 0)
(-0.003881637 0.00070678254 0 0.0035658064 0 0)
(-0.0062765933 0.0010285476 0 0.0052969648 0 0)
(-0.010193314 0.0015559468 0 0.0082608494 0 0)
(-0.014949792 0.0023320307 0 0.010467666 0 0)
(-0.019447666 0.0015666365 0 0.013165704 0 0)
(-0.00018987512 6.7986355e-005 0 0.0001939061 0 0)
(-0.00025094814 3.413736e-006 0 0.00024259076 0 0)
(-0.0002120785 -1.4113891e-005 0 0.00021572441 0 0)
(-0.00018991655 -1.6626891e-005 0 0.00018454641 0 0)
(-0.00015048902 -1.57646e-005 0 0.00015296615 0 0)
(-0.00013352342 -1.234188e-005 0 0.00013123493 0 0)
(-0.00011163592 -9.2351322e-006 0 0.00011230227 0 0)
(-0.00010220816 -4.4384724e-006 0 0.00010143546 0 0)
(-9.7504193e-005 5.3327104e-007 0 9.7436052e-005 0 0)
(-0.00010261459 6.5851187e-006 0 0.00010225341 0 0)
(-0.00011924478 1.4479884e-005 0 0.00011889864 0 0)
(-0.00014478058 2.3074805e-005 0 0.00014413659 0 0)
(-0.00019257437 3.6522571e-005 0 0.00019156291 0 0)
(-0.00026078157 5.4500727e-005 0 0.00025895773 0 0)
(-0.00036004532 7.9632379e-005 0 0.00035611118 0 0)
(-0.00051329754 0.00011941952 0 0.00050653007 0 0)
(-0.00073329767 0.00017739249 0 0.00071798316 0 0)
(-0.0010622447 0.00026714798 0 0.0010311568 0 0)
(-0.0015866055 0.00042673487 0 0.0015238659 0 0)
(-0.0023644985 0.0006549969 0 0.0021999973 0 0)
(-0.0037882811 0.001134351 0 0.0034771102 0 0)
(-0.0061046999 0.0017242079 0 0.0051211872 0 0)
(-0.0098995823 0.0025661896 0 0.0080027409 0 0)
(-0.014585818 0.003921863 0 0.010002094 0 0)
(-0.018303781 0.0026189982 0 0.012567776 0 0)
(-0.00019013576 9.502663e-005 0 0.00019446001 0 0)
(-0.00025301394 4.6315187e-006 0 0.00024401497 0 0)
(-0.00021350307 -2.0097215e-005 0 0.00021752972 0 0)
(-0.00019062951 -2.3631993e-005 0 0.00018503908 0 0)
(-0.0001502111 -2.231718e-005 0 0.00015276568 0 0)
(-0.00013264668 -1.7520303e-005 0 0.00013034725 0 0)
(-0.0001104473 -1.3086957e-005 0 0.00011111486 0 0)
(-0.00010073196 -6.3957897e-006 0 9.9974732e-005 0 0)
(-9.5820934e-005 5.8065967e-007 0 9.5755551e-005 0 0)
(-0.0001005429 8.9594774e-006 0 0.00010019961 0 0)
(-0.00011668996 1.9959365e-005 0 0.00011634282 0 0)
(-0.00014150572 3.1954162e-005 0 0.00014085874 0 0)
(-0.00018792572 5.0607941e-005 0 0.0001869197 0 0)
(-0.00025414976 7.545921e-005 0 0.00025234885 0 0)
(-0.00035039873 0.00011035457 0 0.00034647717 0 0)
(-0.00049847003 0.0001651751 0 0.0004917271 0 0)
(-0.00071048621 0.00024527586 0 0.00069529625 0 0)
(-0.0010253936 0.00036937386 0 0.00099444672 0 0)
(-0.0015256243 0.00058781863 0 0.001463613 0 0)
(-0.0022713289 0.00090286079 0 0.0021075747 0 0)
(-0.0036187266 0.0015934346 0 0.0033055007 0 0)
(-0.0058431535 0.0024479402 0 0.0048516575 0 0)
(-0.0093903677 0.0036459942 0 0.0075265282 0 0)
(-0.014147667 0.0054681263 0 0.0093840914 0 0)
(-0.016704675 0.0036538542 0 0.011661533 0 0)
(-0.00019063119 0.00012208786 0 0.00019494722 0 0)
(-0.00025576138 5.6442497e-006 0 0.00024648947 0 0)
(-0.00021539075 -2.6352759e-005 0 0.0002195496 0 0)
(-0.00019153906 -3.0963427e-005 0 0.00018588513 0 0)
(-0.00014981434 -2.9088898e-005 0 0.00015234502 0 0)
(-0.00013145885 -2.2806147e-005 0 0.00012919767 0 0)
(-0.00010885633 -1.7004374e-005 0 0.00010949438 0 0)
(-9.8764378e-005 -8.3942642e-006 0 9.8037627e-005 0 0)
(-9.3589653e-005 5.6848665e-007 0 9.3523544e-005 0 0)
(-9.7827775e-005 1.1233461e-005 0 9.7504039e-005 0 0)
(-0.00011328895 2.5274851e-005 0 0.00011294401 0 0)
(-0.00013720146 4.0591911e-005 0 0.00013656615 0 0)
(-0.00018177456 6.4227167e-005 0 0.00018078563 0 0)
(-0.00024541305 9.570865e-005 0 0.00024365124 0 0)
(-0.00033777892 0.00013993404 0 0.00033390656 0 0)
(-0.00047895136 0.00020907219 0 0.00047225591 0 0)
(-0.00068072265 0.00030999107 0 0.00066577827 0 0)
(-0.00097746942 0.00046586295 0 0.00094667519 0 0)
(-0.0014455893 0.00073988152 0 0.0013844399 0 0)
(-0.0021454315 0.0011443827 0 0.0019821823 0 0)
(-0.003400847 0.001992444 0 0.0030864552 0 0)
(-0.0055444759 0.0030314865 0 0.0045434673 0 0)
(-0.0086793448 0.0046945179 0 0.0068567384 0 0)
(-0.013540906 0.0069160007 0 0.0085980017 0 0)
(-0.015281336 0.0045787766 0 0.010890142 0 0)
(-0.00019152656 0.0001491536 0 0.00019562937 0 0)
(-0.00025920162 6.3877938e-006 0 0.00024987484 0 0)
(-0.00021770391 -3.3029375e-005 0 0.00022185734 0 0)
(-0.00019261459 -3.8684447e-005 0 0.00018696323 0 0)
(-0.00014926453 -3.6150573e-005 0 0.00015172648 0 0)
(-0.0001299392 -2.8249379e-005 0 0.00012773737 0 0)
(-0.00010685716 -2.1038854e-005 0 0.00010745345 0 0)
(-9.6302635e-005 -1.047668e-005 0 9.5614521e-005 0 0)
(-9.0816956e-005 4.5421203e-007 0 9.0752164e-005 0 0)
(-9.4523357e-005 1.3393887e-005 0 9.4210022e-005 0 0)
(-0.00010906733 3.0340983e-005 0 0.00010874688 0 0)
(-0.00013180506 4.8833307e-005 0 0.00013120355 0 0)
(-0.00017421712 7.7215888e-005 0 0.00017325495 0 0)
(-0.00023472185 0.00011498785 0 0.00023299444 0 0)
(-0.00032241091 0.00016812054 0 0.00031861132 0 0)
(-0.00045518712 0.00025035749 0 0.00044855841 0 0)
(-0.00064427617 0.00037113922 0 0.00062964279 0 0)
(-0.00092004391 0.00055468284 0 0.00088947463 0 0)
(-0.0013468892 0.00088140294 0 0.0012869911 0 0)
(-0.0019943671 0.0013555513 0 0.0018338918 0 0)
(-0.0031093399 0.0023814299 0 0.0028003813 0 0)
(-0.0050816732 0.0036791273 0 0.0040827276 0 0)
(-0.0077942018 0.0056802408 0 0.0060254134 0 0)
(-0.012687266 0.0083611889 0 0.0075896811 0 0)
(-0.013107158 0.0051625613 0 0.0097520826 0 0)
(-0.0001929989 0.00017606804 0 0.00019692332 0 0)
(-0.00026333981 6.8209468e-006 0 0.00025376828 0 0)
(-0.00022040702 -4.0186325e-005 0 0.00022462689 0 0)
(-0.00019381831 -4.6840587e-005 0 0.00018813395 0 0)
(-0.00014851257 -4.3536631e-005 0 0.00015090354 0 0)
(-0.00012806113 -3.3861293e-005 0 0.00012592544 0 0)
(-0.00010443429 -2.5182098e-005 0 0.00010498457 0 0)
(-9.3344391e-005 -1.2625522e-005 0 9.2701865e-005 0 0)
(-8.7501513e-005 2.4566092e-007 0 8.7435772e-005 0 0)
(-9.0577196e-005 1.5413109e-005 0 9.0284512e-005 0 0)
(-0.00010408275 3.5133369e-005 0 0.00010378605 0 0)
(-0.00012547848 5.6636513e-005 0 0.00012489958 0 0)
(-0.0001653079 8.95082e-005 0 0.00016435528 0 0)
(-0.00022216472 0.00013333084 0 0.00022044842 0 0)
(-0.0003044325 0.00019446874 0 0.00030065393 0 0)
(-0.00042748728 0.00028918518 0 0.00042090866 0 0)
(-0.00060254282 0.00042692238 0 0.00058816305 0 0)
(-0.00085275081 0.00063582613 0 0.00082252858 0 0)
(-0.0012357852 0.0010065736 0 0.0011775406 0 0)
(-0.0018067866 0.001553314 0 0.0016485857 0 0)
(-0.002778727 0.0027065214 0 0.0024709668 0 0)
(-0.0045518999 0.0041992145 0 0.003558261 0 0)
(-0.006665759 0.0066477635 0 0.0049329333 0 0)
(-0.011833838 0.009331222 0 0.0066078821 0 0)
(-0.0092665109 0.0063575016 0 0.0068743011 0 0)
(-0.00019523164 0.00020317413 0 0.00019943363 0 0)
(-0.0002681831 6.9630241e-006 0 0.00025755528 0 0)
(-0.0002234569 -4.7770644e-005 0 0.00022823059 0 0)
(-0.00019513977 -5.5509939e-005 0 0.00018919991 0 0)
(-0.00014749535 -5.1189221e-005 0 0.00014987116 0 0)
(-0.00012580654 -3.9563389e-005 0 0.00012372058 0 0)
(-0.00010158034 -2.9354768e-005 0 0.00010208118 0 0)
(-8.9889302e-005 -1.4776534e-005 0 8.9283062e-005 0 0)
(-8.366649e-005 -2.1652264e-009 0 8.3589254e-005 0 0)
(-8.5991973e-005 1.7257154e-005 0 8.5726375e-005 0 0)
(-9.8394179e-005 3.9687432e-005 0 9.8087489e-005 0 0)
(-0.00011827366 6.4096071e-005 0 0.00011767514 0 0)
(-0.00015519925 0.00010109895 0 0.00015422497 0 0)
(-0.00020792572 0.00015042024 0 0.00020619736 0 0)
(-0.00028393797 0.00021911682 0 0.0002801296 0 0)
(-0.00039669036 0.00032388173 0 0.00038995564 0 0)
(-0.00055494198 0.00047879545 0 0.00054075093 0 0)
(-0.0007775335 0.00070816886 0 0.00074780078 0 0)
(-0.0011076815 0.0011181803 0 0.001050345 0 0)
(-0.001604338 0.0017172304 0 0.0014501489 0 0)
(-0.0023685408 0.0029918036 0 0.0020609619 0 0)
(-0.0038753553 0.0046502255 0 0.0028847751 0 0)
(-0.0053314314 0.0074633398 0 0.0036398941 0 0)
(-0.01037746 0.010351989 0 0.0051534575 0 0)
(-0.0066706164 0.0071767241 0 0.0047207682 0 0)
(-0.00019842966 0.00023006091 0 0.00020305796 0 0)
(-0.00027361921 6.8872951e-006 0 0.0002619948 0 0)
(-0.00022681592 -5.5628623e-005 0 0.00023209081 0 0)
(-0.00019650395 -6.4787453e-005 0 0.00019011277 0 0)
(-0.00014616855 -5.9147451e-005 0 0.00014865423 0 0)
(-0.00012313078 -4.5389725e-005 0 0.00012103971 0 0)
(-9.8264047e-005 -3.3558157e-005 0 9.8753125e-005 0 0)
(-8.595346e-005 -1.6909508e-005 0 8.5369909e-005 0 0)
(-7.9300075e-005 -2.5136574e-007 0 7.9235944e-005 0 0)
(-8.0900008e-005 1.9050453e-005 0 8.0637391e-005 0 0)
(-9.1994799e-005 4.4027091e-005 0 9.1695809e-005 0 0)
(-0.00011007967 7.1089013e-005 0 0.00010952139 0 0)
(-0.00014381369 0.00011191358 0 0.00014290602 0 0)
(-0.00019184329 0.00016624723 0 0.00019018938 0 0)
(-0.00026092722 0.00024181806 0 0.00025727258 0 0)
(-0.00036189322 0.00035631685 0 0.00035535603 0 0)
(-0.00050224026 0.00052456176 0 0.00048834164 0 0)
(-0.00069605113 0.0007701048 0 0.00066686702 0 0)
(-0.00097260892 0.0012095735 0 0.00091750076 0 0)
(-0.001375378 0.0018357001 0 0.0012234705 0 0)
(-0.001885902 0.0032257 0 0.0016118105 0 0)
(-0.0031628396 0.0048723127 0 0.0021868135 0 0)
(-0.003411735 0.0081304322 0 0.0019499541 0 0)
(-0.0074200575 0.011057267 0 0.0027097088 0 0)
(-0.00031075276 0.0099789841 0 -0.0018051985 0 0)
(-0.00020278435 0.00025825991 0 0.00020696822 0 0)
(-0.00027959098 6.7465784e-006 0 0.00026869419 0 0)
(-0.00023067668 -6.4324062e-005 0 0.00023606018 0 0)
(-0.00019784586 -7.4612578e-005 0 0.00019030342 0 0)
(-0.00014447303 -6.7521113e-005 0 0.00014778708 0 0)
(-0.00011999779 -5.1387293e-005 0 0.00011762079 0 0)
(-9.4468266e-005 -3.7755705e-005 0 9.5154984e-005 0 0)
(-8.1473966e-005 -1.9042651e-005 0 8.0926617e-005 0 0)
(-7.4391377e-005 -5.2622582e-007 0 7.441023e-005 0 0)
(-7.5407552e-005 2.1216127e-005 0 7.5229663e-005 0 0)
(-8.4810431e-005 4.7862129e-005 0 8.4702906e-005 0 0)
(-0.00010084627 7.7353155e-005 0 0.00010048041 0 0)
(-0.0001312795 0.00012187953 0 0.00013056881 0 0)
(-0.00017453175 0.00018102798 0 0.00017315793 0 0)
(-0.00023548679 0.00026212009 0 0.00023216857 0 0)
(-0.00032398901 0.00038517666 0 0.00031802426 0 0)
(-0.00044630791 0.00056402724 0 0.000432867 0 0)
(-0.00061080002 0.00081816147 0 0.00058080397 0 0)
(-0.00082061906 0.0012886228 0 0.00076910127 0 0)
(-0.0011497545 0.0018975006 0 0.00099036283 0 0)
(-0.0013544212 0.0033504004 0 0.0011263623 0 0)
(-0.0021916081 0.0049427406 0 0.0012349059 0 0)
(-0.0012987929 0.0079320581 0 0.00022446363 0 0)
(-0.0033100189 0.00999304 0 -0.00050691126 0 0)
(0.0038441391 0.010218014 0 -0.0073487888 0 0)
(-0.015887156 0.00061218827 0 0.010836929 0 0)
(-0.009455574 0.0013049223 0 0.0073644161 0 0)
(-0.0038621851 0.0020536696 0 0.0031881004 0 0)
(-0.0011792601 0.0024836779 0 0.00099962553 0 0)
(-0.00031252718 0.0026211428 0 0.00015473276 0 0)
(-7.3059542e-005 0.0026438042 0 -7.1254509e-005 0 0)
(-8.8843246e-005 0.0026342076 0 -5.6023888e-005 0 0)
(-0.00011749471 0.0026279929 0 -2.5088548e-005 0 0)
(-0.00013948528 0.002624762 0 -2.7954048e-006 0 0)
(-0.00014237663 0.0026242828 0 3.7135609e-007 0 0)
(-0.00014210604 0.0026242649 0 6.6397649e-008 0 0)
(-0.00014189897 0.0026242564 0 -1.2590186e-007 0 0)
(-0.00014196308 0.002624237 0 -6.2481304e-008 0 0)
(-0.00014200415 0.0026242283 0 -1.8970997e-008 0 0)
(-0.00014202417 0.002624227 0 9.0318417e-010 0 0)
(-0.00014202511 0.0026242266 0 2.1591923e-009 0 0)
(-0.00014202497 0.0026242261 0 1.8491369e-009 0 0)
(-0.00014202307 0.0026242278 0 -2.4028992e-010 0 0)
(-0.00014202193 0.0026242278 0 -1.368882e-009 0 0)
(-0.0001420242 0.002624224 0 1.1780585e-009 0 0)
(-0.00014202453 0.002624225 0 1.5021526e-009 0 0)
(-0.00014202087 0.0026242262 0 -1.7301933e-009 0 0)
(-0.00014201953 0.0026242241 0 -5.526364e-009 0 0)
(-0.00014198835 0.0026242217 0 -2.8247188e-008 0 0)
(-0.00014198068 0.0026242116 0 -2.7559934e-008 0 0)
(-0.015097564 0.0018467626 0 0.010216421 0 0)
(-0.0088492441 0.0039037717 0 0.0067068432 0 0)
(-0.0041916606 0.0060269473 0 0.002825345 0 0)
(-0.0020091628 0.0072623824 0 0.00084518238 0 0)
(-0.0014047489 0.0076145769 0 0.00016306293 0 0)
(-0.0011861588 0.007682877 0 -4.5641636e-005 0 0)
(-0.0011842663 0.007661491 0 -4.4940069e-005 0 0)
(-0.0012046107 0.0076460063 0 -1.933509e-005 0 0)
(-0.0012201778 0.0076387383 0 -2.495287e-006 0 0)
(-0.0012223561 0.0076375246 0 2.4530538e-007 0 0)
(-0.0012221556 0.007637463 0 3.2860045e-008 0 0)
(-0.0012219887 0.0076374413 0 -9.9125523e-008 0 0)
(-0.001222025 0.0076373942 0 -5.2112311e-008 0 0)
(-0.0012220588 0.0076373715 0 -1.0560128e-008 0 0)
(-0.0012220699 0.0076373689 0 8.7192407e-010 0 0)
(-0.0012220686 0.0076373634 0 1.6058624e-009 0 0)
(-0.0012220691 0.0076373654 0 1.1142222e-009 0 0)
(-0.0012220652 0.0076373588 0 1.5216683e-012 0 0)
(-0.0012220665 0.0076373637 0 -4.8911459e-011 0 0)
(-0.0012220689 0.0076373675 0 4.7855393e-010 0 0)
(-0.0012220663 0.007637361 0 -4.4642828e-011 0 0)
(-0.0012220658 0.0076373659 0 -1.3296065e-009 0 0)
(-0.0012220652 0.0076373625 0 -3.842782e-009 0 0)
(-0.0012220389 0.007637352 0 -1.8541449e-008 0 0)
(-0.0012220247 0.0076373231 0 -1.9012273e-008 0 0)
(-0.0137616 0.0030353058 0 0.0093055961 0 0)
(-0.0076561106 0.0065322341 0 0.0054330829 0 0)
(-0.0048356688 0.0095945859 0 0.0022779157 0 0)
(-0.0035520693 0.01141739 0 0.00067696011 0 0)
(-0.0032656318 0.011966009 0 0.00013381214 0 0)
(-0.0031259208 0.01206608 0 -1.9813913e-005 0 0)
(-0.0031134108 0.012047365 0 -2.7580347e-005 0 0)
(-0.0031179264 0.012025963 0 -1.2398023e-005 0 0)
(-0.0031244788 0.012016095 0 -2.0460478e-006 0 0)
(-0.0031254295 0.012014239 0 1.6599225e-008 0 0)
(-0.0031253804 0.012014079 0 7.3660518e-009 0 0)
(-0.0031252622 0.012014048 0 -5.9266422e-008 0 0)
(-0.0031252617 0.012013989 0 -3.1919665e-008 0 0)
(-0.0031252731 0.012013964 0 -6.2678839e-009 0 0)
(-0.0031252768 0.012013956 0 5.0401002e-010 0 0)
(-0.0031252769 0.012013957 0 6.3113008e-010 0 0)
(-0.0031252715 0.012013948 0 4.8644098e-010 0 0)
(-0.0031252741 0.012013952 0 7.7675353e-010 0 0)
(-0.0031252775 0.012013956 0 1.3823878e-009 0 0)
(-0.0031252754 0.012013958 0 -9.9703838e-010 0 0)
(-0.0031252696 0.012013949 0 -1.4141963e-009 0 0)
(-0.0031252722 0.012013952 0 -8.4197504e-010 0 0)
(-0.0031252735 0.012013949 0 -6.713374e-010 0 0)
(-0.0031252621 0.012013938 0 -4.3943882e-009 0 0)
(-0.0031252355 0.012013884 0 -6.3359766e-009 0 0)
(-0.011831171 0.0042166969 0 0.0078608016 0 0)
(-0.0062983422 0.00948121 0 0.0035522241 0 0)
(-0.0056790469 0.012467023 0 0.001634979 0 0)
(-0.0054325975 0.01484932 0 0.00040284183 0 0)
(-0.0055661692 0.015480791 0 8.1251089e-005 0 0)
(-0.005535609 0.015586778 0 6.5745859e-006 0 0)
(-0.0055173628 0.015572213 0 -7.1806774e-006 0 0)
(-0.0055064746 0.015553722 0 -5.2796574e-006 0 0)
(-0.0055044925 0.015543265 0 -1.5328996e-006 0 0)
(-0.0055041988 0.015541 0 -1.9513256e-007 0 0)
(-0.0055042524 0.015540726 0 -9.0761137e-009 0 0)
(-0.0055041844 0.015540689 0 -8.2424345e-009 0 0)
(-0.0055041528 0.015540645 0 -8.493725e-009 0 0)
(-0.0055041396 0.015540622 0 -2.8328964e-009 0 0)
(-0.005504138 0.015540615 0 -3.1332034e-010 0 0)
(-0.0055041368 0.015540615 0 -5.4417116e-010 0 0)
(-0.0055041362 0.015540613 0 -2.5757494e-010 0 0)
(-0.0055041383 0.015540613 0 1.5587069e-009 0 0)
(-0.0055041386 0.015540615 0 1.1298341e-009 0 0)
(-0.0055041297 0.015540607 0 -1.3453705e-009 0 0)
(-0.0055041323 0.015540611 0 -1.6552301e-009 0 0)
(-0.0055041377 0.015540614 0 3.1318085e-010 0 0)
(-0.0055041369 0.015540609 0 2.1605163e-009 0 0)
(-0.0055041448 0.015540598 0 1.1125247e-008 0 0)
(-0.0055041183 0.015540556 0 8.5824027e-009 0 0)
(-0.0090815882 0.0055654375 0 0.0057372981 0 0)
(-0.0058567902 0.01205203 0 0.0019121423 0 0)
(-0.0065812645 0.015368543 0 0.00061077585 0 0)
(-0.0075934867 0.017600929 0 0.00011985951 0 0)
(-0.0081120039 0.018178865 0 4.9816698e-005 0 0)
(-0.0081655818 0.018284904 0 3.0149726e-005 0 0)
(-0.0081448378 0.01827794 0 9.2813935e-006 0 0)
(-0.0081245089 0.018265609 0 1.0083484e-006 0 0)
(-0.0081156413 0.01825626 0 -9.4034903e-007 0 0)
(-0.0081142781 0.018253951 0 -2.9980837e-007 0 0)
(-0.0081143721 0.018253606 0 -4.8253819e-009 0 0)
(-0.0081143492 0.01825359 0 3.4105347e-008 0 0)
(-0.0081143003 0.018253568 0 9.7777434e-009 0 0)
(-0.0081142716 0.018253554 0 -1.1943909e-010 0 0)
(-0.008114265 0.018253547 0 -9.6979837e-010 0 0)
(-0.0081142645 0.018253547 0 -1.1271753e-009 0 0)
(-0.0081142617 0.018253544 0 -6.6663849e-010 0 0)
(-0.0081142652 0.018253545 0 1.0853963e-009 0 0)
(-0.0081142614 0.018253543 0 5.5738339e-010 0 0)
(-0.0081142622 0.018253546 0 -1.1531562e-009 0 0)
(-0.0081142644 0.018253546 0 -4.1567721e-010 0 0)
(-0.0081142672 0.018253546 0 1.4869607e-009 0 0)
(-0.0081142639 0.018253539 0 4.6133328e-009 0 0)
(-0.0081142879 0.018253535 0 2.0648688e-008 0 0)
(-0.008114279 0.018253514 0 1.8807343e-008 0 0)
(-0.0059070734 0.0085692688 0 0.0025436133 0 0)
(-0.0055602142 0.014329126 0 0.00026063591 0 0)
(-0.0083944079 0.018197406 0 -0.00026909604 0 0)
(-0.01018055 0.019953136 0 -9.1142793e-005 0 0)
(-0.010878672 0.020343891 0 3.2978709e-005 0 0)
(-0.010971107 0.020435088 0 4.5672387e-005 0 0)
(-0.010952196 0.02043857 0 1.9701364e-005 0 0)
(-0.010928228 0.020433206 0 5.4841823e-006 0 0)
(-0.010915295 0.02042634 0 -3.6969971e-007 0 0)
(-0.010913271 0.020424386 0 -2.9935859e-007 0 0)
(-0.010913383 0.02042405 0 1.4390836e-008 0 0)
(-0.010913395 0.020424069 0 5.8657085e-008 0 0)
(-0.010913346 0.020424073 0 1.9493092e-008 0 0)
(-0.010913313 0.020424069 0 1.1937598e-009 0 0)
(-0.010913306 0.020424065 0 -1.4488753e-009 0 0)
(-0.010913306 0.020424064 0 -9.5918788e-010 0 0)
(-0.010913304 0.020424063 0 -8.2312022e-010 0 0)
(-0.010913305 0.020424062 0 -7.6818208e-012 0 0)
(-0.010913305 0.020424064 0 -2.2535666e-010 0 0)
(-0.010913307 0.020424064 0 4.1838792e-011 0 0)
(-0.010913306 0.020424063 0 8.235248e-010 0 0)
(-0.010913308 0.020424062 0 1.7567271e-009 0 0)
(-0.010913308 0.02042406 0 4.5719407e-009 0 0)
(-0.01091334 0.020424062 0 2.2228165e-008 0 0)
(-0.010913354 0.020424065 0 2.1550132e-008 0 0)
(-0.0047272591 0.010714342 0 0.00036924919 0 0)
(-0.0068149065 0.01845201 0 -0.0015602784 0 0)
(-0.011585926 0.021254799 0 -0.00079187938 0 0)
(-0.013338551 0.022218091 0 -0.00019022647 0 0)
(-0.014034257 0.022397575 0 3.1360467e-005 0 0)
(-0.01411838 0.02246528 0 5.2006556e-005 0 0)
(-0.014105216 0.022478719 0 2.416863e-005 0 0)
(-0.014080269 0.022479924 0 6.8319922e-006 0 0)
(-0.014067804 0.022476213 0 6.2141862e-009 0 0)
(-0.014065753 0.022474935 0 -2.4835825e-007 0 0)
(-0.014065917 0.022474684 0 2.7306598e-008 0 0)
(-0.01406597 0.022474738 0 6.6185756e-008 0 0)
(-0.014065934 0.022474764 0 2.1759671e-008 0 0)
(-0.014065905 0.022474768 0 1.6201035e-009 0 0)
(-0.014065898 0.022474765 0 -1.6356173e-009 0 0)
(-0.014065899 0.022474765 0 -7.3208732e-010 0 0)
(-0.014065897 0.022474764 0 -7.6971576e-010 0 0)
(-0.014065898 0.022474765 0 -8.7482731e-010 0 0)
(-0.014065899 0.022474764 0 -1.7872163e-010 0 0)
(-0.014065899 0.022474763 0 7.8113471e-010 0 0)
(-0.014065899 0.022474763 0 8.9114121e-010 0 0)
(-0.014065901 0.022474764 0 1.1822986e-009 0 0)
(-0.014065904 0.022474766 0 2.9226861e-009 0 0)
(-0.014065929 0.02247477 0 1.5071945e-008 0 0)
(-0.014065967 0.022474798 0 1.5173674e-008 0 0)
(-0.0045224931 0.014997606 0 -0.0026974676 0 0)
(-0.010446558 0.023085569 0 -0.0027949079 0 0)
(-0.016162788 0.024488734 0 -0.00087398288 0 0)
(-0.017252216 0.024731134 0 -0.00017846733 0 0)
(-0.017823083 0.024754916 0 4.0480669e-005 0 0)
(-0.017873769 0.024807156 0 5.0648522e-005 0 0)
(-0.017872924 0.024831528 0 2.2817486e-005 0 0)
(-0.017851095 0.02483873 0 5.685223e-006 0 0)
(-0.017842543 0.024837602 0 1.1262521e-007 0 0)
(-0.017840908 0.024836992 0 -2.0581429e-007 0 0)
(-0.017841191 0.024836843 0 3.2577188e-008 0 0)
(-0.017841261 0.024836932 0 5.160463e-008 0 0)
(-0.017841255 0.024836966 0 1.6359123e-008 0 0)
(-0.017841235 0.024836974 0 1.9093131e-010 0 0)
(-0.017841232 0.024836972 0 -1.5211994e-009 0 0)
(-0.017841233 0.024836972 0 -5.0606444e-010 0 0)
(-0.017841232 0.024836972 0 -6.7258937e-010 0 0)
(-0.017841231 0.024836972 0 -1.04301e-009 0 0)
(-0.017841232 0.024836971 0 -5.941006e-012 0 0)
(-0.017841233 0.024836971 0 7.1642594e-010 0 0)
(-0.017841234 0.024836972 0 4.6409601e-010 0 0)
(-0.017841235 0.024836972 0 5.1749937e-010 0 0)
(-0.017841236 0.024836976 0 4.5536379e-010 0 0)
(-0.017841246 0.024836982 0 2.932555e-009 0 0)
(-0.017841288 0.024837015 0 3.4764188e-009 0 0)
(-0.0093723353 0.023579734 0 -0.0057458885 0 0)
(-0.017088781 0.028351816 0 -0.0035056787 0 0)
(-0.021793763 0.027899795 0 -0.0006665192 0 0)
(-0.021870729 0.027588587 0 -0.00013275448 0 0)
(-0.022252089 0.027545526 0 5.3793066e-005 0 0)
(-0.022292427 0.027610563 0 3.8189902e-005 0 0)
(-0.02231692 0.027644568 0 1.8373889e-005 0 0)
(-0.022302246 0.027655877 0 3.2247849e-006 0 0)
(-0.022299482 0.027656322 0 2.1438656e-007 0 0)
(-0.022298254 0.02765608 0 -1.7536586e-007 0 0)
(-0.022298624 0.027656002 0 3.3308583e-008 0 0)
(-0.022298693 0.027656095 0 2.7532319e-008 0 0)
(-0.022298727 0.027656131 0 1.0327539e-008 0 0)
(-0.022298712 0.027656138 0 -1.4173986e-009 0 0)
(-0.022298712 0.027656136 0 -1.2207722e-009 0 0)
(-0.022298712 0.027656135 0 -3.7113504e-010 0 0)
(-0.022298712 0.027656135 0 -3.3880229e-010 0 0)
(-0.022298711 0.027656134 0 -7.0849818e-010 0 0)
(-0.022298711 0.027656133 0 -1.0072163e-010 0 0)
(-0.022298712 0.027656134 0 4.1608323e-010 0 0)
(-0.022298713 0.027656134 0 1.8370418e-010 0 0)
(-0.022298713 0.027656135 0 -7.5033493e-011 0 0)
(-0.022298712 0.027656138 0 -1.7041831e-009 0 0)
(-0.022298704 0.027656142 0 -6.9660033e-009 0 0)
(-0.022298724 0.027656161 0 -5.6581621e-009 0 0)
(-0.030547395 0.040056666 0 -0.0098323468 0 0)
(-0.026627184 0.032685259 0 -0.0020934326 0 0)
(-0.032438193 0.033306977 0 -0.000299493 0 0)
(-0.030364004 0.032108299 0 -3.1522566e-005 0 0)
(-0.031241 0.032419912 0 3.6046642e-005 0 0)
(-0.031125922 0.032420961 0 1.7571523e-005 0 0)
(-0.031242956 0.032493503 0 7.1380712e-006 0 0)
(-0.031224579 0.032495317 0 8.3419068e-007 0 0)
(-0.031232087 0.032499357 0 8.6493052e-008 0 0)
(-0.031229353 0.032498084 0 -1.1005679e-007 0 0)
(-0.031230251 0.032498324 0 6.9600808e-009 0 0)
(-0.031230158 0.032498295 0 4.5462048e-009 0 0)
(-0.031230248 0.032498347 0 2.3344522e-009 0 0)
(-0.031230226 0.032498339 0 -1.3535728e-009 0 0)
(-0.031230228 0.032498338 0 -5.6875087e-010 0 0)
(-0.031230226 0.032498336 0 -1.6057762e-010 0 0)
(-0.031230226 0.032498336 0 -6.8586473e-011 0 0)
(-0.031230225 0.032498336 0 -3.18545e-010 0 0)
(-0.031230224 0.032498335 0 -3.7193345e-011 0 0)
(-0.031230225 0.032498335 0 1.8957557e-010 0 0)
(-0.031230226 0.032498336 0 -2.1280619e-013 0 0)
(-0.031230225 0.032498336 0 -3.7556337e-010 0 0)
(-0.031230219 0.032498336 0 -1.3369395e-009 0 0)
(-0.03123019 0.032498327 0 -8.7120738e-009 0 0)
(-0.031230147 0.032498312 0 -7.7712693e-009 0 0)
(-0.00021301689 0.00031456207 0 0.00021693423 0 0)
(-0.00029336886 4.9667212e-006 0 0.00028570477 0 0)
(-0.00023886212 -8.5350942e-005 0 0.00024530657 0 0)
(-0.00020045911 -9.596929e-005 0 0.00018929617 0 0)
(-0.00014023881 -8.5120649e-005 0 0.00014486725 0 0)
(-0.00011281825 -6.4124853e-005 0 0.00010905376 0 0)
(-8.5990094e-005 -4.6079625e-005 0 8.6211508e-005 0 0)
(-7.1632221e-005 -2.3406857e-005 0 7.0554217e-005 0 0)
(-6.3803633e-005 -1.1023859e-006 0 6.3304165e-005 0 0)
(-6.3061435e-005 2.4036985e-005 0 6.2378615e-005 0 0)
(-6.9654633e-005 5.4967918e-005 0 6.9023883e-005 0 0)
(-8.1706236e-005 8.8442391e-005 0 8.0653181e-005 0 0)
(-0.00010528757 0.00013926728 0 0.0001038268 0 0)
(-0.00013788801 0.00020470586 0 0.00013556652 0 0)
(-0.00018375534 0.00029472363 0 0.00017899795 0 0)
(-0.0002477796 0.00042851681 0 0.00024023756 0 0)
(-0.00033058574 0.00062361979 0 0.00031651026 0 0)
(-0.00043211816 0.00088690977 0 0.00040146288 0 0)
(-0.00055119306 0.0013703564 0 0.00050715125 0 0)
(-0.0006848199 0.0019803588 0 0.00054523482 0 0)
(-0.00064218146 0.0033244748 0 0.00045909473 0 0)
(-0.00069526511 0.0047838705 0 -9.714015e-005 0 0)
(0.00091337613 0.0071247639 0 -0.0015374751 0 0)
(0.00158885 0.0075267336 0 -0.0038632644 0 0)
(0.0098960897 0.0054537087 0 -0.012145925 0 0)
(-0.00023913226 0.00040255374 0 0.00024128352 0 0)
(-0.00032456445 -3.5939417e-006 0 0.00031728265 0 0)
(-0.00025506574 -0.00012917756 0 0.00026071915 0 0)
(-0.00020074132 -0.00013764148 0 0.0001869861 0 0)
(-0.00012918351 -0.00011778436 0 0.00013452085 0 0)
(-9.6499718e-005 -8.8237905e-005 0 9.2785104e-005 0 0)
(-6.8272096e-005 -6.1697027e-005 0 6.8621923e-005 0 0)
(-5.2509414e-005 -3.3063293e-005 0 5.2006104e-005 0 0)
(-4.3751444e-005 -5.2968739e-006 0 4.3587262e-005 0 0)
(-4.0771094e-005 2.521548e-005 0 4.0448053e-005 0 0)
(-4.2279834e-005 5.8829365e-005 0 4.2279314e-005 0 0)
(-4.7851603e-005 9.7615491e-005 0 4.7381729e-005 0 0)
(-5.9356322e-005 0.00015349044 0 5.8584147e-005 0 0)
(-7.5514172e-005 0.00022749979 0 7.4418062e-005 0 0)
(-9.572753e-005 0.00032321701 0 9.2567501e-005 0 0)
(-0.00012153133 0.00046240578 0 0.00011541731 0 0)
(-0.00014738887 0.00066545028 0 0.00013672605 0 0)
(-0.00017021285 0.0009270552 0 0.00014375151 0 0)
(-0.00015280477 0.0013677835 0 0.00011155998 0 0)
(-9.0722649e-005 0.0019194949 0 -2.6618823e-005 0 0)
(0.00025353655 0.0029265617 0 -0.00044455189 0 0)
(0.00080091544 0.0037912108 0 -0.0014368543 0 0)
(0.0027812247 0.0045975178 0 -0.0034563807 0 0)
(0.0050627334 0.0019969266 0 -0.007091465 0 0)
(0.0063316045 -0.0025680426 0 -0.0094806581 0 0)
(-0.00028930592 0.00049336097 0 0.00028930361 0 0)
(-0.00037118424 -3.4704282e-005 0 0.00036471834 0 0)
(-0.00027434004 -0.00020167231 0 0.00027774144 0 0)
(-0.00019428764 -0.00020350771 0 0.00017951329 0 0)
(-0.00011016916 -0.00016815678 0 0.00011433971 0 0)
(-7.3087902e-005 -0.00012575286 0 6.9703614e-005 0 0)
(-4.515079e-005 -8.9638043e-005 0 4.494867e-005 0 0)
(-2.9176325e-005 -5.4312849e-005 0 2.8950547e-005 0 0)
(-2.0284553e-005 -2.149043e-005 0 2.0075461e-005 0 0)
(-1.5316069e-005 1.0864621e-005 0 1.507436e-005 0 0)
(-1.2513249e-005 4.7144559e-005 0 1.2611901e-005 0 0)
(-1.1263644e-005 9.066011e-005 0 1.1128798e-005 0 0)
(-1.0958868e-005 0.00014424268 0 1.0162369e-005 0 0)
(-9.5288908e-006 0.00022157322 0 8.4118861e-006 0 0)
(-5.1857914e-006 0.00031896467 0 2.9532327e-006 0 0)
(4.0650009e-006 0.00045097731 0 -9.6614435e-006 0 0)
(3.0049437e-005 0.0006460409 0 -3.9217749e-005 0 0)
(7.450076e-005 0.00088766272 0 -9.6885601e-005 0 0)
(0.0001839678 0.0012665346 0 -0.0002184928 0 0)
(0.00036812793 0.0017298302 0 -0.00045627056 0 0)
(0.00084911906 0.0024590805 0 -0.00098748293 0 0)
(0.00161635 0.0030174269 0 -0.0019885592 0 0)
(0.0032008221 0.0031213221 0 -0.0035479086 0 0)
(0.0046911536 0.00081512147 0 -0.0053976853 0 0)
(0.0036766707 -0.0044686474 0 -0.0042528079 0 0)
(-0.00039680281 0.00058609876 0 0.00039256753 0 0)
(-0.00044469004 -0.00011419752 0 0.0004416525 0 0)