/*--------------------------------*- C++ -*----------------------------------*\
| =========                 |                                                 |
| \\      /  F ield         | OpenFOAM: The Open Source CFD Toolbox           |
|  \\    /   O peration     | Version:  5.x                                   |
|   \\  /    A nd           | Web:      www.OpenFOAM.org                      |
|    \\/     M anipulation  |                                                 |
\*---------------------------------------------------------------------------*/
/*   Windows 32 and 64 bit porting by blueCAPE: http://www.bluecape.com.pt   *\
|  Based on Windows porting (2.0.x v4) by Symscape: http://www.symscape.com   |
\*---------------------------------------------------------------------------*/
FoamFile
{
    version     2.0;
    format      ascii;
    class       volSymmTensorField;
    location    "0.1";
    object      sigma;
}
// * * * * * * * * * * * * * * * * * * * * * * * * * * * * * * * * * * * * * //

dimensions      [0 2 -2 0 0 0 0];

internalField   nonuniform List<symmTensor> 
750
(
(-0.00019017808 1.3657892e-005 0 0.00019411522 0 0)
(-0.00024953623 6.824242e-007 0 0.00024124784 0 0)
(-0.00021136856 -2.7979847e-006 0 0.00021473492 0 0)
(-0.00018975402 -3.3646618e-006 0 0.00018511573 0 0)
(-0.00015121435 -3.2264396e-006 0 0.00015308479 0 0)
(-0.00013472343 -2.5262705e-006 0 0.00013286832 0 0)
(-0.00011309849 -1.9542623e-006 0 0.0001135566 0 0)
(-0.00010388083 -9.7695304e-007 0 0.0001032494 0 0)
(-9.9355469e-005 -3.0100163e-009 0 9.9261806e-005 0 0)
(-0.00010463985 1.2205141e-006 0 0.00010433061 0 0)
(-0.00012195675 2.8227261e-006 0 0.00012160415 0 0)
(-0.00014845719 4.5519886e-006 0 0.00014783367 0 0)
(-0.00019728188 7.2544878e-006 0 0.00019631087 0 0)
(-0.00026737233 1.0933616e-005 0 0.00026561326 0 0)
(-0.00037031427 1.6025029e-005 0 0.0003665152 0 0)
(-0.00052777055 2.4113582e-005 0 0.00052104483 0 0)
(-0.00075740468 3.6131837e-005 0 0.00074244024 0 0)
(-0.0011002538 5.4339454e-005 0 0.0010692038 0 0)
(-0.0016466791 8.7714545e-005 0 0.0015836863 0 0)
(-0.0024733102 0.00013424062 0 0.0023116975 0 0)
(-0.0039220411 0.00023276221 0 0.0036062585 0 0)
(-0.0063904592 0.00035054407 0 0.0054343956 0 0)
(-0.010304783 0.00052271825 0 0.0083526175 0 0)
(-0.015206411 0.00078094475 0 0.01080599 0 0)
(-0.019951004 0.00052160488 0 0.013414869 0 0)
(-0.0001902456 4.0911387e-005 0 0.0001939971 0 0)
(-0.00025014664 2.0853743e-006 0 0.00024232331 0 0)
(-0.00021191828 -8.3959948e-006 0 0.00021522864 0 0)
(-0.00018994665 -9.9876341e-006 0 0.00018497355 0 0)
(-0.00015115729 -9.5098031e-006 0 0.00015339013 0 0)
(-0.00013443821 -7.443933e-006 0 0.00013228266 0 0)
(-0.00011270226 -5.6311738e-006 0 0.00011327266 0 0)
(-0.00010339112 -2.7260551e-006 0 0.00010262653 0 0)
(-9.8790559e-005 2.4216275e-007 0 9.867412e-005 0 0)
(-0.00010402213 3.8914425e-006 0 0.00010363172 0 0)
(-0.00012109568 8.6829448e-006 0 0.00012068599 0 0)
(-0.00014719333 1.3851717e-005 0 0.00014648579 0 0)
(-0.00019570664 2.1949338e-005 0 0.00019461729 0 0)
(-0.0002652202 3.2881812e-005 0 0.00026327871 0 0)
(-0.000366819 4.8078771e-005 0 0.00036272227 0 0)
(-0.00052318728 7.2198049e-005 0 0.00051611358 0 0)
(-0.00074914685 0.00010751444 0 0.00073340529 0 0)
(-0.0010876776 0.00016199045 0 0.0010557873 0 0)
(-0.0016275087 0.00025990057 0 0.0015631425 0 0)
(-0.0024338817 0.00039296286 0 0.0022675785 0 0)
(-0.0038847446 0.00070735113 0 0.0035682518 0 0)
(-0.0062819802 0.0010293491 0 0.0053008037 0 0)
(-0.010199791 0.0015571683 0 0.008264127 0 0)
(-0.014954738 0.0023342351 0 0.01046898 0 0)
(-0.019450971 0.0015710449 0 0.013163628 0 0)
(-0.00019039907 6.812951e-005 0 0.00019434133 0 0)
(-0.00025147758 3.4564421e-006 0 0.0002432555 0 0)
(-0.00021288154 -1.4147707e-005 0 0.00021642533 0 0)
(-0.00019042014 -1.6697702e-005 0 0.0001851023 0 0)
(-0.00015098351 -1.5824093e-005 0 0.00015342644 0 0)
(-0.00013385266 -1.2400698e-005 0 0.00013157759 0 0)
(-0.000111914 -9.2795126e-006 0 0.00011257117 0 0)
(-0.00010240584 -4.4758952e-006 0 0.00010163581 0 0)
(-9.7657726e-005 5.0567072e-007 0 9.7587018e-005 0 0)
(-0.00010272616 6.564372e-006 0 0.00010236519 0 0)
(-0.00011933485 1.4469657e-005 0 0.00011898779 0 0)
(-0.00014485884 2.3071902e-005 0 0.00014421399 0 0)
(-0.00019265401 3.6529322e-005 0 0.0001916419 0 0)
(-0.00026087858 5.45201e-005 0 0.00025905251 0 0)
(-0.00036017438 7.9667347e-005 0 0.00035623608 0 0)
(-0.00051352228 0.00011948749 0 0.0005067474 0 0)
(-0.00073361088 0.00017749314 0 0.00071827619 0 0)
(-0.0010628053 0.00026734156 0 0.0010316802 0 0)
(-0.0015874531 0.00042704878 0 0.001524613 0 0)
(-0.0023661452 0.0006556107 0 0.0022014224 0 0)
(-0.0037912344 0.0011352837 0 0.0034794044 0 0)
(-0.0061096227 0.0017256193 0 0.0051246401 0 0)
(-0.0099049353 0.0025680225 0 0.0080052052 0 0)
(-0.01458967 0.0039250383 0 0.010002489 0 0)
(-0.018303914 0.0026251946 0 0.012564896 0 0)
(-0.0001906681 9.5225643e-005 0 0.00019490075 0 0)
(-0.00025354393 4.6857338e-006 0 0.00024468412 0 0)
(-0.00021431315 -2.0149031e-005 0 0.00021823563 0 0)
(-0.00019113519 -2.373225e-005 0 0.00018559764 0 0)
(-0.00015070465 -2.2401867e-005 0 0.00015322514 0 0)
(-0.00013297442 -1.7602794e-005 0 0.0001306882 0 0)
(-0.00011072246 -1.3149749e-005 0 0.00011138104 0 0)
(-0.00010092707 -6.4483095e-006 0 0.00010017239 0 0)
(-9.5971779e-005 5.4172801e-007 0 9.5903921e-005 0 0)
(-0.00010065184 8.9302212e-006 0 0.00010030881 0 0)
(-0.00011677699 1.9944325e-005 0 0.00011642905 0 0)
(-0.00014158141 3.1949545e-005 0 0.00014093352 0 0)
(-0.00018800237 5.0617074e-005 0 0.00018699566 0 0)
(-0.00025424233 7.5485422e-005 0 0.00025243928 0 0)
(-0.00035052036 0.0001104023 0 0.00034659466 0 0)
(-0.00049868327 0.00016526944 0 0.00049193325 0 0)
(-0.00071078049 0.00024541432 0 0.00069557035 0 0)
(-0.0010259211 0.00036963484 0 0.00099493818 0 0)
(-0.001526423 0.00058824794 0 0.0014643114 0 0)
(-0.0022729101 0.00090368668 0 0.0021089332 0 0)
(-0.0036215575 0.0015945213 0 0.0033076647 0 0)
(-0.0058474125 0.0024498396 0 0.0048545306 0 0)
(-0.0093944843 0.0036479266 0 0.0075281785 0 0)
(-0.014150617 0.0054710583 0 0.0093837143 0 0)
(-0.016702744 0.0036603571 0 0.011658308 0 0)
(-0.00019117727 0.00012234159 0 0.0001954006 0 0)
(-0.0002562922 5.7077703e-006 0 0.00024715978 0 0)
(-0.00021620881 -2.6423803e-005 0 0.00022026364 0 0)
(-0.00019204655 -3.1094113e-005 0 0.00018644443 0 0)
(-0.00015030639 -2.9199425e-005 0 0.00015280383 0 0)
(-0.00013178446 -2.2912661e-005 0 0.00012953583 0 0)
(-0.0001091276 -1.7085579e-005 0 0.00010975708 0 0)
(-9.8955996e-005 -8.4617374e-006 0 9.8231595e-005 0 0)
(-9.3736854e-005 5.183365e-007 0 9.3668435e-005 0 0)
(-9.793343e-005 1.1195766e-005 0 9.760997e-005 0 0)
(-0.00011337214 2.5255078e-005 0 0.00011302648 0 0)
(-0.00013727386 4.0585815e-005 0 0.0001366376 0 0)
(-0.0001818467 6.4238376e-005 0 0.00018085709 0 0)
(-0.00024549991 9.5741341e-005 0 0.00024373611 0 0)
(-0.00033789118 0.0001399937 0 0.00033401464 0 0)
(-0.00047914976 0.00020918936 0 0.00047244761 0 0)
(-0.00068099519 0.000310163 0 0.00066603057 0 0)
(-0.00097795534 0.00046618109 0 0.00094712595 0 0)
(-0.00144633 0.0007404132 0 0.0013850831 0 0)
(-0.0021469105 0.0011454058 0 0.001983429 0 0)
(-0.0034032985 0.0019940413 0 0.0030882797 0 0)
(-0.0055484333 0.0030331744 0 0.004546087 0 0)
(-0.0086820256 0.0046968146 0 0.0068574293 0 0)
(-0.013541884 0.0069185427 0 0.008596613 0 0)
(-0.015281147 0.0045842775 0 0.010888866 0 0)
(-0.0001920926 0.00014946082 0 0.00019610202 0 0)
(-0.00025973352 6.4599703e-006 0 0.00025054529 0 0)
(-0.000218531 -3.3120329e-005 0 0.00022258148 0 0)
(-0.00019312349 -3.8847134e-005 0 0.00018752218 0 0)
(-0.00014975433 -3.6286925e-005 0 0.00015218417 0 0)
(-0.00013026202 -2.8379912e-005 0 0.00012807194 0 0)
(-0.00010712348 -2.1138088e-005 0 0.0001077117 0 0)
(-9.6489833e-005 -1.0558627e-005 0 9.5803846e-005 0 0)
(-9.095973e-005 3.9339866e-007 0 9.0892819e-005 0 0)
(-9.4625286e-005 1.3348555e-005 0 9.4312131e-005 0 0)
(-0.00010914645 3.0317142e-005 0 0.00010882527 0 0)
(-0.00013187287 4.8825689e-005 0 0.00013127056 0 0)
(-0.00017428337 7.722866e-005 0 0.0001733206 0 0)
(-0.00023480127 0.00011502715 0 0.000233072 0 0)
(-0.00032251322 0.00016819011 0 0.00031870933 0 0)
(-0.0004553674 0.00025049631 0 0.00044873232 0 0)
(-0.00064452488 0.00037134042 0 0.00062987109 0 0)
(-0.00092047676 0.00055505592 0 0.00088987134 0 0)
(-0.0013475548 0.00088204228 0 0.0012875623 0 0)
(-0.0019957193 0.0013567456 0 0.0018350026 0 0)
(-0.0031115556 0.0023831701 0 0.0028019814 0 0)
(-0.0050845633 0.0036816406 0 0.004084322 0 0)
(-0.0077962284 0.0056820255 0 0.0060256225 0 0)
(-0.012686001 0.0083634849 0 0.0075870491 0 0)
(-0.01310397 0.0051673912 0 0.0097486501 0 0)
(-0.00019359081 0.00017642819 0 0.00019742115 0 0)
(-0.00026387269 6.9023299e-006 0 0.00025443869 0 0)
(-0.0002212443 -4.0296078e-005 0 0.00022536234 0 0)
(-0.0001943282 -4.7035879e-005 0 0.0001886921 0 0)
(-0.00014899919 -4.3697873e-005 0 0.00015135925 0 0)
(-0.00012838039 -3.4015371e-005 0 0.00012625557 0 0)
(-0.0001046945 -2.5298482e-005 0 0.00010523724 0 0)
(-9.3526259e-005 -1.2720871e-005 0 9.2885591e-005 0 0)
(-8.7638762e-005 1.7522335e-007 0 8.7571066e-005 0 0)
(-9.0674525e-005 1.5361484e-005 0 9.0381956e-005 0 0)
(-0.00010415704 3.510627e-005 0 0.00010385971 0 0)
(-0.00012554092 5.662801e-005 0 0.00012496134 0 0)
(-0.00016536756 8.9523283e-005 0 0.00016441435 0 0)
(-0.00022223634 0.00013337597 0 0.00022051826 0 0)
(-0.00030452241 0.00019454838 0 0.00030073923 0 0)
(-0.00042764721 0.00028934519 0 0.00042106227 0 0)
(-0.00060275986 0.00042715401 0 0.00058835957 0 0)
(-0.00085312896 0.00063624353 0 0.00082287188 0 0)
(-0.0012363875 0.001007287 0 0.0011780476 0 0)
(-0.0018079541 0.0015546714 0 0.0016495155 0 0)
(-0.0027806825 0.0027084118 0 0.0024722984 0 0)
(-0.0045546295 0.0042013314 0 0.0035598111 0 0)
(-0.0066662727 0.0066495956 0 0.0049319642 0 0)
(-0.011832606 0.0093314066 0 0.00660612 0 0)
(-0.009266183 0.0063618682 0 0.0068722828 0 0)
(-0.00019585522 0.00020359177 0 0.00019996044 0 0)
(-0.00026871689 7.0546026e-006 0 0.0002582296 0 0)
(-0.00022430604 -4.7897334e-005 0 0.00022897644 0 0)
(-0.00019565043 -5.5737734e-005 0 0.00018975824 0 0)
(-0.00014797757 -5.1375194e-005 0 0.00015032356 0 0)
(-0.00012612152 -3.9739611e-005 0 0.00012404539 0 0)
(-0.00010183329 -2.9486714e-005 0 0.00010232719 0 0)
(-9.0064973e-005 -1.4883725e-005 0 8.9460274e-005 0 0)
(-8.3797325e-005 -8.0863032e-008 0 8.3718291e-005 0 0)
(-8.6083716e-005 1.7200525e-005 0 8.5818345e-005 0 0)
(-9.8462628e-005 3.9658386e-005 0 9.8155509e-005 0 0)
(-0.00011833031 6.4088302e-005 0 0.00011773105 0 0)
(-0.00015525191 0.00010111744 0 0.00015427693 0 0)
(-0.00020798748 0.00015047411 0 0.00020625757 0 0)
(-0.00028401396 0.0002192071 0 0.00028020107 0 0)
(-0.00039682683 0.00032405921 0 0.00039008612 0 0)
(-0.00055513024 0.00047905013 0 0.00054091967 0 0)
(-0.0007778447 0.00070863393 0 0.00074807843 0 0)
(-0.0011081835 0.0011189737 0 0.0010507497 0 0)
(-0.0016053462 0.0017186726 0 0.0014509247 0 0)
(-0.0023699688 0.0029939425 0 0.0020618231 0 0)
(-0.0038773639 0.0046524747 0 0.0028856822 0 0)
(-0.0053304905 0.007464891 0 0.0036380631 0 0)
(-0.010373014 0.010353465 0 0.0051493114 0 0)
(-0.0066707161 0.0071804371 0 0.0047189178 0 0)
(-0.00019908935 0.00023053385 0 0.00020361074 0 0)
(-0.00027415197 6.988809e-006 0 0.00026268292 0 0)
(-0.00022767792 -5.5769721e-005 0 0.00023284218 0 0)
(-0.00019701534 -6.5047781e-005 0 0.00019067365 0 0)
(-0.00014664543 -5.9357654e-005 0 0.0001491017 0 0)
(-0.00012344038 -4.5587465e-005 0 0.00012135853 0 0)
(-9.8508259e-005 -3.3704601e-005 0 9.8990819e-005 0 0)
(-8.6121771e-005 -1.7027131e-005 0 8.5539616e-005 0 0)
(-7.9423278e-005 -3.3651164e-007 0 7.9357667e-005 0 0)
(-8.0985523e-005 1.8990082e-005 0 8.0723158e-005 0 0)
(-9.2057345e-005 4.3997567e-005 0 9.1757839e-005 0 0)
(-0.00011012976 7.1083261e-005 0 0.00010957084 0 0)
(-0.00014385842 0.00011193668 0 0.0001429503 0 0)
(-0.00019189364 0.00016630813 0 0.00019023852 0 0)
(-0.00026098857 0.00024191831 0 0.00025732984 0 0)
(-0.00036200284 0.00035651287 0 0.00035546033 0 0)
(-0.00050238737 0.00052484229 0 0.00048846967 0 0)
(-0.00069631708 0.00077059236 0 0.00066710089 0 0)
(-0.00097299771 0.0012104325 0 0.00091779953 0 0)
(-0.0013761651 0.0018371961 0 0.0012240249 0 0)
(-0.0018869375 0.0032279377 0 0.0016123637 0 0)
(-0.0031640908 0.004874378 0 0.0021870159 0 0)
(-0.0034108214 0.0081308085 0 0.0019485516 0 0)
(-0.0074178816 0.011057005 0 0.0027077462 0 0)
(-0.00030978753 0.0099828208 0 -0.0018083474 0 0)
(-0.00020348529 0.00025878701 0 0.00020753121 0 0)
(-0.0002801235 6.8565224e-006 0 0.00026942762 0 0)
(-0.00023155319 -6.4483738e-005 0 0.00023679978 0 0)
(-0.0001983588 -7.4908e-005 0 0.00019087528 0 0)
(-0.00014494405 -6.7757481e-005 0 0.00014822432 0 0)
(-0.00012030101 -5.1607899e-005 0 0.00011793518 0 0)
(-9.470232e-005 -3.791737e-005 0 9.5382211e-005 0 0)
(-8.1634056e-005 -1.9171081e-005 0 8.1088737e-005 0 0)
(-7.4506163e-005 -6.1819461e-007 0 7.4524e-005 0 0)
(-7.5487044e-005 2.1154985e-005 0 7.5309714e-005 0 0)
(-8.4867297e-005 4.7831462e-005 0 8.4759527e-005 0 0)
(-0.00010088809 7.7346419e-005 0 0.00010052227 0 0)
(-0.00013131445 0.00012190428 0 0.00013060392 0 0)
(-0.00017457161 0.00018109554 0 0.00017319706 0 0)
(-0.0002355315 0.00026222647 0 0.0002322095 0 0)
(-0.00032407625 0.00038538869 0 0.00031810791 0 0)
(-0.00044642908 0.00056431629 0 0.00043296824 0 0)
(-0.00061097734 0.00081867731 0 0.00058095183 0 0)
(-0.00082089001 0.001289539 0 0.00076929532 0 0)
(-0.001150371 0.0018989786 0 0.00099075712 0 0)
(-0.0013551901 0.0033527014 0 0.0011266678 0 0)
(-0.0021924166 0.0049447529 0 0.0012348501 0 0)
(-0.0012981344 0.0079321 0 0.00022313148 0 0)
(-0.0033087723 0.0099926956 0 -0.00050916675 0 0)
(0.0038444286 0.010222116 0 -0.0073522715 0 0)
(-0.015888831 0.00061369709 0 0.010833445 0 0)
(-0.0094593954 0.001306327 0 0.0073630172 0 0)
(-0.0038671196 0.0020552807 0 0.0031905526 0 0)
(-0.001184476 0.0024866762 0 0.0010036304 0 0)
(-0.00031637548 0.0026251943 0 0.00015773685 0 0)
(-7.4491367e-005 0.0026483277 0 -7.0584345e-005 0 0)
(-8.9517069e-005 0.0026388021 0 -5.6145615e-005 0 0)
(-0.00011801851 0.0026325702 0 -2.535591e-005 0 0)
(-0.0001401998 0.0026292975 0 -2.8675623e-006 0 0)
(-0.00014315865 0.0026288076 0 3.6988361e-007 0 0)
(-0.00014289598 0.0026287894 0 7.259543e-008 0 0)
(-0.00014268456 0.0026287815 0 -1.2403832e-007 0 0)
(-0.0001427466 0.0026287621 0 -6.2710949e-008 0 0)
(-0.00014278759 0.0026287534 0 -1.9263241e-008 0 0)
(-0.00014280789 0.0026287521 0 8.883819e-010 0 0)
(-0.00014280887 0.0026287517 0 2.1911773e-009 0 0)
(-0.00014280872 0.0026287512 0 1.8727616e-009 0 0)
(-0.00014280681 0.002628753 0 -2.3156845e-010 0 0)
(-0.00014280566 0.0026287529 0 -1.3726155e-009 0 0)
(-0.00014280792 0.0026287492 0 1.1713185e-009 0 0)
(-0.00014280826 0.0026287502 0 1.5010449e-009 0 0)
(-0.00014280459 0.0026287513 0 -1.7375326e-009 0 0)
(-0.00014280325 0.0026287492 0 -5.5571372e-009 0 0)
(-0.00014277204 0.0026287469 0 -2.8345343e-008 0 0)
(-0.00014276423 0.0026287366 0 -2.773373e-008 0 0)
(-0.01509898 0.0018508546 0 0.010213263 0 0)
(-0.008853105 0.0039070905 0 0.0067053004 0 0)
(-0.0041981459 0.0060308465 0 0.0028274769 0 0)
(-0.0020167972 0.0072701466 0 0.00084757937 0 0)
(-0.0014131934 0.0076244376 0 0.00016558386 0 0)
(-0.0011929709 0.0076941218 0 -4.4978295e-005 0 0)
(-0.0011903064 0.0076729435 0 -4.5045033e-005 0 0)
(-0.0012105492 0.0076573879 0 -1.950498e-005 0 0)
(-0.0012262116 0.0076500447 0 -2.549141e-006 0 0)
(-0.0012284368 0.0076488079 0 2.4466717e-007 0 0)
(-0.0012282415 0.0076487458 0 3.7348115e-008 0 0)
(-0.0012280719 0.0076487255 0 -9.7483453e-008 0 0)
(-0.0012281063 0.0076486787 0 -5.2337429e-008 0 0)
(-0.0012281401 0.007648656 0 -1.0726247e-008 0 0)
(-0.0012281514 0.0076486533 0 8.6466218e-010 0 0)
(-0.0012281501 0.0076486478 0 1.6279317e-009 0 0)
(-0.0012281505 0.0076486499 0 1.1287584e-009 0 0)
(-0.0012281466 0.0076486434 0 9.3045305e-012 0 0)
(-0.0012281479 0.0076486482 0 -5.0168082e-011 0 0)
(-0.0012281503 0.0076486519 0 4.7787006e-010 0 0)
(-0.0012281477 0.0076486455 0 -4.1517338e-011 0 0)
(-0.0012281472 0.0076486503 0 -1.337086e-009 0 0)
(-0.0012281466 0.0076486469 0 -3.8686423e-009 0 0)
(-0.0012281203 0.0076486366 0 -1.860537e-008 0 0)
(-0.0012281058 0.0076486071 0 -1.9108449e-008 0 0)
(-0.013762952 0.0030404903 0 0.0093031632 0 0)
(-0.0076589756 0.0065362464 0 0.0054309329 0 0)
(-0.0048446846 0.0095979356 0 0.0022798518 0 0)
(-0.0035637262 0.011424962 0 0.00067889141 0 0)
(-0.0032785613 0.011977463 0 0.00013466697 0 0)
(-0.003138893 0.012078748 0 -1.9489858e-005 0 0)
(-0.0031260702 0.012060273 0 -2.7614477e-005 0 0)
(-0.0031304642 0.012038809 0 -1.249699e-005 0 0)
(-0.0031370314 0.01202884 0 -2.0780824e-006 0 0)
(-0.0031379985 0.012026955 0 1.5454688e-008 0 0)
(-0.0031379523 0.012026793 0 9.9542411e-009 0 0)
(-0.0031378327 0.012026763 0 -5.8418095e-008 0 0)
(-0.0031378313 0.012026705 0 -3.2016216e-008 0 0)
(-0.0031378426 0.01202668 0 -6.36139e-009 0 0)
(-0.0031378463 0.012026673 0 4.9597324e-010 0 0)
(-0.0031378465 0.012026673 0 6.4045999e-010 0 0)
(-0.0031378411 0.012026664 0 4.934781e-010 0 0)
(-0.0031378437 0.012026669 0 7.7881187e-010 0 0)
(-0.0031378471 0.012026672 0 1.3844828e-009 0 0)
(-0.003137845 0.012026674 0 -9.933707e-010 0 0)
(-0.0031378392 0.012026665 0 -1.4119174e-009 0 0)
(-0.0031378418 0.012026668 0 -8.4484677e-010 0 0)
(-0.003137843 0.012026665 0 -6.8616232e-010 0 0)
(-0.0031378316 0.012026654 0 -4.3853739e-009 0 0)
(-0.0031378048 0.0120266 0 -6.3110768e-009 0 0)
(-0.011832824 0.0042208949 0 0.0078596901 0 0)
(-0.0063021004 0.009486875 0 0.0035496255 0 0)
(-0.0056867394 0.012467175 0 0.0016361542 0 0)
(-0.0054448595 0.014854056 0 0.00040306901 0 0)
(-0.0055811896 0.015488874 0 8.1215745e-005 0 0)
(-0.0055515127 0.015595854 0 6.6227794e-006 0 0)
(-0.005533316 0.015581469 0 -7.1648768e-006 0 0)
(-0.0055223503 0.015562948 0 -5.290024e-006 0 0)
(-0.0055203071 0.015552411 0 -1.5424014e-006 0 0)
(-0.0055200019 0.015550118 0 -1.9703503e-007 0 0)
(-0.0055200558 0.015549841 0 -8.8381431e-009 0 0)
(-0.0055199881 0.015549806 0 -7.9465676e-009 0 0)
(-0.0055199565 0.015549762 0 -8.4405156e-009 0 0)
(-0.0055199432 0.015549739 0 -2.8403589e-009 0 0)
(-0.0055199415 0.015549732 0 -3.2171173e-010 0 0)
(-0.0055199403 0.015549733 0 -5.4817661e-010 0 0)
(-0.0055199397 0.01554973 0 -2.6179152e-010 0 0)
(-0.0055199418 0.01554973 0 1.5545394e-009 0 0)
(-0.0055199422 0.015549732 0 1.1342e-009 0 0)
(-0.0055199332 0.015549724 0 -1.3377421e-009 0 0)
(-0.0055199358 0.015549728 0 -1.6549989e-009 0 0)
(-0.0055199412 0.015549732 0 3.1866189e-010 0 0)
(-0.0055199403 0.015549726 0 2.1365547e-009 0 0)
(-0.0055199484 0.015549715 0 1.1189064e-008 0 0)
(-0.0055199216 0.015549673 0 8.6805389e-009 0 0)
(-0.0090799318 0.0055748507 0 0.0057339208 0 0)
(-0.0058651795 0.012047553 0 0.0019160404 0 0)
(-0.0065879013 0.015369161 0 0.00061021854 0 0)
(-0.0076037364 0.017602443 0 0.00011883352 0 0)
(-0.0081250392 0.01818196 0 4.9111578e-005 0 0)
(-0.0081799327 0.018288509 0 3.0013179e-005 0 0)
(-0.0081594983 0.018281674 0 9.3407596e-006 0 0)
(-0.0081391575 0.018269354 0 1.0680131e-006 0 0)
(-0.0081301783 0.01825996 0 -9.3311224e-007 0 0)
(-0.0081287851 0.018257629 0 -3.025765e-007 0 0)
(-0.0081288772 0.018257281 0 -6.4045552e-009 0 0)
(-0.0081288561 0.018257266 0 3.4039373e-008 0 0)
(-0.0081288078 0.018257244 0 9.944515e-009 0 0)
(-0.008128779 0.01825723 0 -6.9726199e-011 0 0)
(-0.0081287723 0.018257223 0 -9.7862586e-010 0 0)
(-0.0081287717 0.018257223 0 -1.140271e-009 0 0)
(-0.008128769 0.018257221 0 -6.7657032e-010 0 0)
(-0.0081287725 0.018257222 0 1.0801364e-009 0 0)
(-0.0081287687 0.018257219 0 5.6207491e-010 0 0)
(-0.0081287695 0.018257222 0 -1.1496879e-009 0 0)
(-0.0081287717 0.018257222 0 -4.180508e-010 0 0)
(-0.0081287745 0.018257222 0 1.4993686e-009 0 0)
(-0.0081287712 0.018257215 0 4.616968e-009 0 0)
(-0.0081287952 0.018257211 0 2.0686934e-008 0 0)
(-0.0081287863 0.01825719 0 1.8899338e-008 0 0)
(-0.0059129607 0.0085741288 0 0.0025467441 0 0)
(-0.0055659236 0.014331473 0 0.00026255719 0 0)
(-0.0083995718 0.018197225 0 -0.00026940335 0 0)
(-0.010188286 0.019953429 0 -9.2528367e-005 0 0)
(-0.010887937 0.020344111 0 3.1988885e-005 0 0)
(-0.010981591 0.020435218 0 4.5473021e-005 0 0)
(-0.010963093 0.020438763 0 1.9792419e-005 0 0)
(-0.010939147 0.020433438 0 5.5765435e-006 0 0)
(-0.010926099 0.020426571 0 -3.5427557e-007 0 0)
(-0.010924039 0.020424604 0 -3.0295318e-007 0 0)
(-0.010924148 0.020424263 0 1.184627e-008 0 0)
(-0.010924163 0.020424283 0 5.8416711e-008 0 0)
(-0.010924114 0.020424287 0 1.9707038e-008 0 0)
(-0.010924081 0.020424283 0 1.2734498e-009 0 0)
(-0.010924075 0.020424279 0 -1.4603449e-009 0 0)
(-0.010924075 0.020424279 0 -9.7653589e-010 0 0)
(-0.010924073 0.020424277 0 -8.328477e-010 0 0)
(-0.010924074 0.020424276 0 -8.5204847e-012 0 0)
(-0.010924074 0.020424278 0 -2.2271338e-010 0 0)
(-0.010924076 0.020424278 0 3.9416165e-011 0 0)
(-0.010924074 0.020424277 0 8.2170782e-010 0 0)
(-0.010924076 0.020424276 0 1.7710637e-009 0 0)
(-0.010924076 0.020424274 0 4.5867483e-009 0 0)
(-0.010924108 0.020424277 0 2.2230683e-008 0 0)
(-0.010924122 0.02042428 0 2.1582181e-008 0 0)
(-0.0047341059 0.010717803 0 0.00037342351 0 0)
(-0.0068230389 0.018455331 0 -0.0015566452 0 0)
(-0.011592644 0.021257501 0 -0.00079164605 0 0)
(-0.013344853 0.02222004 0 -0.00019143623 0 0)
(-0.014040674 0.022398395 0 3.0491515e-005 0 0)
(-0.014125622 0.022465629 0 5.1863667e-005 0 0)
(-0.014112853 0.022479099 0 2.4283252e-005 0 0)
(-0.014087921 0.022480373 0 6.9179004e-006 0 0)
(-0.014075374 0.022476687 0 2.1020145e-008 0 0)
(-0.014073291 0.022475403 0 -2.5254941e-007 0 0)
(-0.014073453 0.022475148 0 2.4596902e-008 0 0)
(-0.014073508 0.022475201 0 6.5885966e-008 0 0)
(-0.014073472 0.022475228 0 2.1945456e-008 0 0)
(-0.014073444 0.022475232 0 1.7099643e-009 0 0)
(-0.014073437 0.022475229 0 -1.6493185e-009 0 0)
(-0.014073438 0.022475229 0 -7.4766381e-010 0 0)
(-0.014073436 0.022475228 0 -7.7519263e-010 0 0)
(-0.014073437 0.022475229 0 -8.7415255e-010 0 0)
(-0.014073438 0.022475228 0 -1.7851942e-010 0 0)
(-0.014073438 0.022475227 0 7.7612228e-010 0 0)
(-0.014073438 0.022475227 0 8.9032358e-010 0 0)
(-0.01407344 0.022475228 0 1.1924486e-009 0 0)
(-0.014073442 0.02247523 0 2.9469246e-009 0 0)
(-0.014073468 0.022475235 0 1.5063729e-008 0 0)
(-0.014073506 0.022475263 0 1.5161707e-008 0 0)
(-0.0045300673 0.015002683 0 -0.0026941556 0 0)
(-0.010457089 0.023090695 0 -0.0027913668 0 0)
(-0.016172013 0.024494559 0 -0.00087314699 0 0)
(-0.017259284 0.024736231 0 -0.00017921004 0 0)
(-0.017829251 0.024758608 0 3.992159e-005 0 0)
(-0.01788038 0.024810306 0 5.0605837e-005 0 0)
(-0.017879854 0.024834725 0 2.2930085e-005 0 0)
(-0.017858051 0.024842025 0 5.7500018e-006 0 0)
(-0.017849449 0.02484093 0 1.2207889e-007 0 0)
(-0.017847792 0.024840318 0 -2.1008322e-007 0 0)
(-0.017848074 0.024840165 0 3.0166954e-008 0 0)
(-0.017848146 0.024840253 0 5.140776e-008 0 0)
(-0.017848141 0.024840288 0 1.6531344e-008 0 0)
(-0.017848121 0.024840296 0 2.3558556e-010 0 0)
(-0.017848118 0.024840294 0 -1.5355205e-009 0 0)
(-0.017848119 0.024840294 0 -5.1637121e-010 0 0)
(-0.017848118 0.024840293 0 -6.7423146e-010 0 0)
(-0.017848117 0.024840293 0 -1.0428563e-009 0 0)
(-0.017848118 0.024840292 0 -8.1005834e-012 0 0)
(-0.017848119 0.024840293 0 7.1424717e-010 0 0)
(-0.01784812 0.024840293 0 4.6362642e-010 0 0)
(-0.017848121 0.024840294 0 5.234534e-010 0 0)
(-0.017848122 0.024840297 0 4.8699249e-010 0 0)
(-0.017848132 0.024840303 0 2.9564943e-009 0 0)
(-0.017848174 0.024840337 0 3.472777e-009 0 0)
(-0.0093796376 0.023585411 0 -0.0057450176 0 0)
(-0.017103995 0.028359342 0 -0.0035029843 0 0)
(-0.021807155 0.027908712 0 -0.00066576871 0 0)
(-0.021881637 0.027597013 0 -0.00013310459 0 0)
(-0.022261823 0.027552802 0 5.35821e-005 0 0)
(-0.022302362 0.027617474 0 3.8238346e-005 0 0)
(-0.022327095 0.027651578 0 1.8458283e-005 0 0)
(-0.022312489 0.027662998 0 3.2644527e-006 0 0)
(-0.022309701 0.027663472 0 2.1796057e-007 0 0)
(-0.022308461 0.027663229 0 -1.7872288e-007 0 0)
(-0.022308829 0.027663146 0 3.1611167e-008 0 0)
(-0.0223089 0.027663238 0 2.7435651e-008 0 0)
(-0.022308934 0.027663275 0 1.0436745e-008 0 0)
(-0.022308919 0.027663281 0 -1.3956163e-009 0 0)
(-0.022308919 0.02766328 0 -1.2313974e-009 0 0)
(-0.022308919 0.027663279 0 -3.7668572e-010 0 0)
(-0.022308919 0.027663279 0 -3.4010347e-010 0 0)
(-0.022308918 0.027663278 0 -7.1044763e-010 0 0)
(-0.022308918 0.027663277 0 -1.0178404e-010 0 0)
(-0.022308919 0.027663277 0 4.1679665e-010 0 0)
(-0.02230892 0.027663278 0 1.8320451e-010 0 0)
(-0.02230892 0.027663279 0 -7.5235784e-011 0 0)
(-0.022308919 0.027663282 0 -1.6776698e-009 0 0)
(-0.022308911 0.027663286 0 -6.9218332e-009 0 0)
(-0.022308931 0.027663305 0 -5.6472823e-009 0 0)
(-0.030557229 0.040063162 0 -0.0098337029 0 0)
(-0.02664445 0.032695126 0 -0.0020924676 0 0)
(-0.032452038 0.033317187 0 -0.0002990395 0 0)
(-0.030377518 0.032119259 0 -3.151689e-005 0 0)
(-0.031253376 0.03243006 0 3.6061492e-005 0 0)
(-0.031138841 0.032431256 0 1.7623127e-005 0 0)
(-0.031256088 0.032503915 0 7.1702414e-006 0 0)
(-0.031237839 0.032505841 0 8.4572558e-007 0 0)
(-0.031245348 0.032509897 0 8.6759197e-008 0 0)
(-0.031242604 0.03250862 0 -1.1170795e-007 0 0)
(-0.031243498 0.032508856 0 6.2741083e-009 0 0)
(-0.031243406 0.032508825 0 4.5166906e-009 0 0)
(-0.031243496 0.032508878 0 2.3677665e-009 0 0)
(-0.031243473 0.03250887 0 -1.3487117e-009 0 0)
(-0.031243476 0.032508869 0 -5.7345595e-010 0 0)
(-0.031243474 0.032508867 0 -1.6182227e-010 0 0)
(-0.031243474 0.032508867 0 -6.9656048e-011 0 0)
(-0.031243472 0.032508866 0 -3.2059127e-010 0 0)
(-0.031243472 0.032508865 0 -3.7575821e-011 0 0)
(-0.031243473 0.032508866 0 1.9080286e-010 0 0)
(-0.031243473 0.032508867 0 -7.3908244e-013 0 0)
(-0.031243473 0.032508867 0 -3.773941e-010 0 0)
(-0.031243467 0.032508867 0 -1.321327e-009 0 0)
(-0.031243438 0.032508858 0 -8.6776092e-009 0 0)
(-0.031243395 0.032508843 0 -7.7534638e-009 0 0)
(-0.00021381287 0.00031526478 0 0.000217516 0 0)
(-0.0002938923 5.0816539e-006 0 0.00028654221 0 0)
(-0.00023976939 -8.5567657e-005 0 0.00024602406 0 0)
(-0.00020097813 -9.6341126e-005 0 0.00018989009 0 0)
(-0.00014069368 -8.5428903e-005 0 0.00014527906 0 0)
(-0.00011310721 -6.4399457e-005 0 0.00010935425 0 0)
(-8.6201849e-005 -4.628432e-005 0 8.6415009e-005 0 0)
(-7.1773854e-005 -2.3565811e-005 0 7.069665e-005 0 0)
(-6.3900517e-005 -1.2186734e-006 0 6.3400029e-005 0 0)
(-6.312587e-005 2.3958044e-005 0 6.2443175e-005 0 0)
(-6.9696656e-005 5.4923839e-005 0 6.9065446e-005 0 0)
(-8.1732596e-005 8.8424838e-005 0 8.0679535e-005 0 0)
(-0.0001053057 0.00013928869 0 0.00010384514 0 0)
(-0.00013790351 0.00020477239 0 0.0001355815 0 0)
(-0.00018376862 0.00029482868 0 0.0001790056 0 0)
(-0.00024781438 0.00042873965 0 0.0002402701 0 0)
(-0.0003306214 0.0006239319 0 0.00031652755 0 0)
(-0.00043219505 0.00088741274 0 0.00040150379 0 0)
(-0.00055128716 0.0013713201 0 0.0005071728 0 0)
(-0.00068500028 0.0019818008 0 0.00054519143 0 0)
(-0.00064246507 0.0033268302 0 0.00045888361 0 0)
(-0.00069535258 0.0047854768 0 -9.7760465e-005 0 0)
(0.00091417461 0.0071248024 0 -0.001538821 0 0)
(0.0015897026 0.0075263368 0 -0.003864826 0 0)
(0.009895897 0.0054597402 0 -0.012149178 0 0)
(-0.00024007862 0.00040353549 0 0.00024195427 0 0)
(-0.00032514797 -3.5148032e-006 0 0.00031825528 0 0)
(-0.00025604726 -0.00012957123 0 0.00026147665 0 0)
(-0.00020126482 -0.00013818529 0 0.000187585 0 0)
(-0.00012960341 -0.00011825925 0 0.00013489984 0 0)
(-9.6747567e-005 -8.8637263e-005 0 9.3042264e-005 0 0)
(-6.8438478e-005 -6.2009522e-005 0 6.8782286e-005 0 0)
(-5.2611241e-005 -3.3306625e-005 0 5.210888e-005 0 0)
(-4.3813878e-005 -5.4857299e-006 0 4.3649642e-005 0 0)
(-4.0806907e-005 2.5073584e-005 0 4.0483887e-005 0 0)
(-4.2294848e-005 5.8722567e-005 0 4.2295319e-005 0 0)
(-4.7851216e-005 9.753757e-005 0 4.7381075e-005 0 0)
(-5.9343578e-005 0.00015345818 0 5.8571728e-005 0 0)
(-7.5490499e-005 0.00022752493 0 7.4396735e-005 0 0)
(-9.5688461e-005 0.00032327294 0 9.2523644e-005 0 0)
(-0.00012148129 0.00046256595 0 0.00011536328 0 0)
(-0.00014731002 0.0006657285 0 0.00013663721 0 0)
(-0.00017011624 0.00092747999 0 0.00014361897 0 0)
(-0.00015257161 0.0013686473 0 0.00011127063 0 0)
(-9.0360006e-005 0.0019208288 0 -2.7172302e-005 0 0)
(0.00025445958 0.0029283791 0 -0.00044581985 0 0)
(0.00080217811 0.0037923382 0 -0.0014386134 0 0)
(0.002782723 0.0045963124 0 -0.0034581701 0 0)
(0.0050631896 0.00199541 0 -0.0070925098 0 0)
(0.0063322434 -0.0025639907 0 -0.0094811254 0 0)
(-0.00029049856 0.00049462862 0 0.00029019232 0 0)
(-0.00037194356 -3.4820601e-005 0 0.00036588427 0 0)
(-0.00027543273 -0.00020237447 0 0.00027859234 0 0)
(-0.0001948029 -0.00020434668 0 0.0001800887 0 0)
(-0.00011052699 -0.00016888995 0 0.00011466571 0 0)
(-7.3269625e-005 -0.00012635121 0 6.9887377e-005 0 0)
(-4.52548e-005 -9.0124248e-005 0 4.5048269e-005 0 0)
(-2.9225099e-005 -5.4700115e-005 0 2.8998933e-005 0 0)
(-2.0307074e-005 -2.1817259e-005 0 2.0096813e-005 0 0)
(-1.5317361e-005 1.0587971e-005 0 1.5076418e-005 0 0)
(-1.2498574e-005 4.6911151e-005 0 1.2598797e-005 0 0)
(-1.1234288e-005 9.0464782e-005 0 1.1099864e-005 0 0)
(-1.0914838e-005 0.00014407814 0 1.0118335e-005 0 0)
(-9.4635833e-006 0.00022147236 0 8.3485449e-006 0 0)
(-5.0906477e-006 0.00031890552 0 2.8581522e-006 0 0)
(4.1933247e-006 0.00045097703 0 -9.7952062e-006 0 0)
(3.0251667e-005 0.00064618462 0 -3.9425431e-005 0 0)
(7.4753519e-005 0.00088790294 0 -9.7171735e-005 0 0)
(0.00018442007 0.0012671613 0 -0.00021898937 0 0)
(0.00036883813 0.0017307835 0 -0.00045713316 0 0)
(0.00085050882 0.0024603577 0 -0.00098915136 0 0)
(0.0016182952 0.0030178176 0 -0.0019908628 0 0)
(0.0032023643 0.0031198634 0 -0.0035497264 0 0)
(0.0046911877 0.00081306546 0 -0.0053981495 0 0)
(0.003676532 -0.0044633781 0 -0.0042518111 0 0)
(-0.0003985319 0.00058789737 0 0.00039394346 0 0)
(-0.00044583061 -0.00011470861 0 0.00044322342 0 0)