/*--------------------------------*- C++ -*----------------------------------*\
| =========                 |                                                 |
| \\      /  F ield         | OpenFOAM: The Open Source CFD Toolbox           |
|  \\    /   O peration     | Version:  5.x                                   |
|   \\  /    A nd           | Web:      www.OpenFOAM.org                      |
|    \\/     M anipulation  |                                                 |
\*---------------------------------------------------------------------------*/
/*   Windows 32 and 64 bit porting by blueCAPE: http://www.bluecape.com.pt   *\
|  Based on Windows porting (2.0.x v4) by Symscape: http://www.symscape.com   |
\*---------------------------------------------------------------------------*/
FoamFile
{
    version     2.0;
    format      ascii;
    class       volVectorField;
    location    "0.1";
    object      U;
}
// * * * * * * * * * * * * * * * * * * * * * * * * * * * * * * * * * * * * * //

dimensions      [0 1 -1 0 0 0 0];

internalField   nonuniform List<vector> 
750
(
(0.039106138 -9.0528858e-005 0)
(0.03987724 -0.00010813911 0)
(0.040809182 -0.00010196829 0)
(0.04152783 -8.3372295e-005 0)
(0.042137776 -6.99046e-005 0)
(0.042646414 -5.7749106e-005 0)
(0.043061462 -4.850581e-005 0)
(0.043420593 -4.2173771e-005 0)
(0.043735328 -3.8932023e-005 0)
(0.044041975 -3.9270735e-005 0)
(0.044361724 -4.3528651e-005 0)
(0.044736247 -5.2935688e-005 0)
(0.045206696 -6.8635952e-005 0)
(0.045830504 -9.2972353e-005 0)
(0.046688689 -0.00012988875 0)
(0.047902756 -0.00018469865 0)
(0.049628629 -0.00026756073 0)
(0.052169507 -0.00039260064 0)
(0.055878313 -0.00058372004 0)
(0.061442576 -0.00090257199 0)
(0.070327954 -0.0014177036 0)
(0.083797467 -0.0023390589 0)
(0.10800266 -0.0035272141 0)
(0.13882134 -0.00477975 0)
(0.18502209 -0.0054499179 0)
(0.039106741 -0.00027009028 0)
(0.039878748 -0.00032767254 0)
(0.040812905 -0.00030429451 0)
(0.041533777 -0.00025107382 0)
(0.042143373 -0.00020927087 0)
(0.042651404 -0.00017311127 0)
(0.043065123 -0.00014520078 0)
(0.043422731 -0.00012621099 0)
(0.043735812 -0.00011642173 0)
(0.044040486 -0.00011739754 0)
(0.044357899 -0.0001300818 0)
(0.044729678 -0.0001581864 0)
(0.045196383 -0.0002050673 0)
(0.045814711 -0.00027767586 0)
(0.04666543 -0.00038778541 0)
(0.047867773 -0.00055132019 0)
(0.049576027 -0.00079812109 0)
(0.052088287 -0.0011702597 0)
(0.055748573 -0.0017395711 0)
(0.061242193 -0.0026887541 0)
(0.070008235 -0.0042317259 0)
(0.083288796 -0.006934658 0)
(0.10708886 -0.010503606 0)
(0.13702996 -0.014075442 0)
(0.18230807 -0.016186375 0)
(0.039107488 -0.00044906246 0)
(0.039882338 -0.0005495326 0)
(0.040821118 -0.00050624621 0)
(0.041545817 -0.00041951912 0)
(0.042155017 -0.00034832986 0)
(0.042661722 -0.00028816344 0)
(0.043072866 -0.0002413908 0)
(0.043427425 -0.00020969173 0)
(0.043737191 -0.00019327513 0)
(0.044037998 -0.00019476617 0)
(0.044350806 -0.00021575177 0)
(0.044716981 -0.00026231627 0)
(0.04517619 -0.00033990036 0)
(0.045783756 -0.00046009413 0)
(0.046619237 -0.000642329 0)
(0.04779858 -0.00091283843 0)
(0.049471214 -0.0013204571 0)
(0.051925919 -0.0019346037 0)
(0.055492952 -0.00287487 0)
(0.060837056 -0.0044387084 0)
(0.06936246 -0.0069938915 0)
(0.082246172 -0.011409129 0)
(0.1052545 -0.017287882 0)
(0.13354666 -0.023012266 0)
(0.17707107 -0.02655516 0)
(0.039108807 -0.0006287601 0)
(0.039888848 -0.00077263127 0)
(0.040834416 -0.00070957364 0)
(0.041564264 -0.00058841008 0)
(0.042172894 -0.00048720205 0)
(0.042677482 -0.00040257599 0)
(0.043084795 -0.0003367229 0)
(0.043434761 -0.00029216936 0)
(0.043739534 -0.00026901275 0)
(0.044034623 -0.0002708198 0)
(0.044340662 -0.00029982912 0)
(0.044698329 -0.00036438693 0)
(0.045146353 -0.00047187213 0)
(0.045738158 -0.00063844482 0)
(0.046550687 -0.00089088798 0)
(0.047696184 -0.0012652219 0)
(0.049316061 -0.0018282387 0)
(0.051685682 -0.0026755885 0)
(0.055118171 -0.0039718577 0)
(0.060234449 -0.0061288609 0)
(0.068410975 -0.0096609224 0)
(0.080696746 -0.015707093 0)
(0.1025487 -0.023699545 0)
(0.12853564 -0.031400886 0)
(0.16958836 -0.036268922 0)
(0.039111614 -0.00080982249 0)
(0.039899167 -0.00099729727 0)
(0.040853338 -0.00091479144 0)
(0.041589487 -0.0007577931 0)
(0.042197089 -0.00062574406 0)
(0.042698708 -0.000516077 0)
(0.043100886 -0.00043083773 0)
(0.04344469 -0.00037324035 0)
(0.043742804 -0.00034319169 0)
(0.044030302 -0.00034508185 0)
(0.044327491 -0.00038167831 0)
(0.044673861 -0.00046356025 0)
(0.045107108 -0.0005999447 0)
(0.045678359 -0.0008112057 0)
(0.046460639 -0.0011312039 0)
(0.047561883 -0.0016051042 0)
(0.049113168 -0.002316117 0)
(0.051372389 -0.0033849688 0)
(0.054631316 -0.0050168459 0)
(0.059449546 -0.007734535 0)
(0.067169936 -0.012182234 0)
(0.078582234 -0.019746135 0)
(0.09898573 -0.029635167 0)
(0.1220313 -0.039075081 0)
(0.16013105 -0.04501685 0)
(0.039116788 -0.00099293407 0)
(0.03991403 -0.0012241507 0)
(0.040878399 -0.0011221721 0)
(0.041621903 -0.00092773729 0)
(0.042227759 -0.00076376189 0)
(0.042725503 -0.00062839595 0)
(0.043121184 -0.00052336613 0)
(0.043457234 -0.0004525044 0)
(0.043747046 -0.00041537363 0)
(0.044025111 -0.00041703187 0)
(0.04431139 -0.00046070879 0)
(0.044643812 -0.0005590949 0)
(0.045058809 -0.00072307672 0)
(0.045604851 -0.00097689784 0)
(0.046350133 -0.0013611334 0)
(0.047397145 -0.0019293052 0)
(0.048865272 -0.002779273 0)
(0.050990392 -0.004054714 0)
(0.054039995 -0.00599658 0)
(0.058492921 -0.0092333018 0)
(0.065629218 -0.014519555 0)
(0.075906997 -0.02345143 0)
(0.094514931 -0.034968792 0)
(0.11395629 -0.04597004 0)
(0.1490049 -0.052591042 0)
(0.039124821 -0.001179011 0)
(0.039933864 -0.001453633 0)
(0.04090991 -0.0013320702 0)
(0.041661848 -0.0010982451 0)
(0.042265005 -0.0009010318 0)
(0.042757869 -0.00073924256 0)
(0.043145616 -0.00061393399 0)
(0.043472299 -0.00052955741 0)
(0.043752177 -0.00048512903 0)
(0.044018994 -0.00048617736 0)
(0.044292396 -0.00053634448 0)
(0.044608331 -0.00065025907 0)
(0.045001743 -0.00084029128 0)
(0.045518152 -0.0011341311 0)
(0.046220102 -0.0015786576 0)
(0.047203687 -0.0022348567 0)
(0.048574736 -0.0032129955 0)
(0.050545525 -0.004677602 0)
(0.053350997 -0.0068988279 0)
(0.057383482 -0.010601284 0)
(0.063814725 -0.016617125 0)
(0.072738883 -0.026757469 0)
(0.089155959 -0.039553286 0)
(0.10425012 -0.05197387 0)
(0.13699722 -0.059240299 0)
(0.03913625 -0.0013692424 0)
(0.039958812 -0.0016859284 0)
(0.040947914 -0.0015449224 0)
(0.041709503 -0.0012693007 0)
(0.042308808 -0.0010372993 0)
(0.04279566 -0.00084829227 0)
(0.043173943 -0.00070215176 0)
(0.043489623 -0.00060399077 0)
(0.043757948 -0.00055201237 0)
(0.044011604 -0.00055208143 0)
(0.044270385 -0.00060805054 0)
(0.044567544 -0.00073628744 0)
(0.044936171 -0.00095058772 0)
(0.045418683 -0.0012815599 0)
(0.046071619 -0.0017817939 0)
(0.046982837 -0.0025188776 0)
(0.048245438 -0.0036133521 0)
(0.050044975 -0.0052475813 0)
(0.052575942 -0.007713112 0)
(0.056145426 -0.011817778 0)
(0.061758186 -0.01843083 0)
(0.069121012 -0.029585212 0)
(0.082970314 -0.043248536 0)
(0.093333464 -0.056930482 0)
(0.12422458 -0.06401868 0)
(0.039151849 -0.0015649535 0)
(0.039988876 -0.0019212071 0)
(0.040992184 -0.0017612765 0)
(0.041764944 -0.0014408351 0)
(0.042358977 -0.0011723384 0)
(0.042838531 -0.00095515717 0)
(0.043205732 -0.00078762648 0)
(0.043508752 -0.00067537875 0)
(0.043763953 -0.00061557075 0)
(0.044002521 -0.0006143063 0)
(0.044245067 -0.0006753178 0)
(0.044521403 -0.00081648524 0)
(0.044862328 -0.001053037 0)
(0.045306897 -0.0014180423 0)
(0.045906074 -0.0019688609 0)
(0.046737191 -0.002778899 0)
(0.047881888 -0.0039773614 0)
(0.049495477 -0.0057589688 0)
(0.051728266 -0.0084296419 0)
(0.054795379 -0.012867304 0)
(0.059532406 -0.019923153 0)
(0.065133462 -0.031834958 0)
(0.076149019 -0.046034383 0)
(0.081501359 -0.061163653 0)
(0.11022765 -0.06722331 0)
(0.039172713 -0.0017660392 0)
(0.040024128 -0.0021620812 0)
(0.041042346 -0.0019800532 0)
(0.041828461 -0.0016131153 0)
(0.042415331 -0.0013057526 0)
(0.042886132 -0.0010594753 0)
(0.043240575 -0.00086994666 0)
(0.043529249 -0.00074334012 0)
(0.043769771 -0.00067544164 0)
(0.043991799 -0.00067234904 0)
(0.044216127 -0.00073771174 0)
(0.044469655 -0.00089041722 0)
(0.044780567 -0.0011470088 0)
(0.045183788 -0.0015426422 0)
(0.045724945 -0.0021387356 0)
(0.046470347 -0.003013612 0)
(0.047487188 -0.0043018344 0)
(0.048901007 -0.0062080397 0)
(0.050827562 -0.0090458215 0)
(0.053357748 -0.013736154 0)
(0.057186618 -0.021116997 0)
(0.061013733 -0.033464018 0)
(0.068858675 -0.047946329 0)
(0.068543859 -0.064189731 0)
(0.090950279 -0.067571936 0)
(0.22288952 -0.0032481513 0)
(0.23674339 -0.0013942972 0)
(0.24281597 -0.0004998588 0)
(0.24476924 -0.0002248924 0)
(0.24593253 -8.3818485e-005 0)
(0.24592238 9.9609946e-006 0)
(0.24572108 2.4242172e-005 0)
(0.24558045 1.1165888e-005 0)
(0.24555461 1.8268537e-006 0)
(0.24555596 -3.9761154e-007 0)
(0.24555983 -2.9724739e-007 0)
(0.24556038 -2.4826713e-008 0)
(0.24556014 2.6635558e-008 0)
(0.24556001 7.143165e-009 0)
(0.24556002 -2.4255855e-009 0)
(0.24556005 -2.8803973e-009 0)
(0.24556006 -1.730291e-009 0)
(0.24556007 -1.2984736e-010 0)
(0.24556006 1.2752454e-009 0)
(0.24556006 -8.285412e-010 0)
(0.24556007 -8.5845253e-010 0)
(0.24556007 1.0698927e-009 0)
(0.24556006 8.1938391e-010 0)
(0.24556005 5.6345886e-009 0)
(0.24555999 5.7882043e-009 0)
(0.2183915 -0.0092017958 0)
(0.22979327 -0.0039052417 0)
(0.23539165 -0.0013895872 0)
(0.23670201 -0.00061243188 0)
(0.23754822 -0.00019112245 0)
(0.23748769 3.2225513e-005 0)
(0.23732549 6.491209e-005 0)
(0.23721651 2.9294819e-005 0)
(0.23719682 4.8037042e-006 0)
(0.23719804 -1.0816047e-006 0)
(0.23720108 -7.7440463e-007 0)
(0.23720147 -6.4547431e-008 0)
(0.23720127 7.001007e-008 0)
(0.23720117 2.0361871e-008 0)
(0.23720119 -5.626415e-009 0)
(0.2372012 -7.3027608e-009 0)
(0.23720121 -4.0290968e-009 0)
(0.23720122 2.8214123e-010 0)
(0.23720121 1.6494497e-009 0)
(0.23720121 -1.9814772e-009 0)
(0.23720122 -1.5819546e-009 0)
(0.23720122 2.6577562e-009 0)
(0.23720121 2.3286309e-009 0)
(0.23720121 1.0789345e-008 0)
(0.23720119 1.0637485e-008 0)
(0.20978761 -0.014364617 0)
(0.21709286 -0.0059540679 0)
(0.22168295 -0.0020791099 0)
(0.2218405 -0.00084875673 0)
(0.22220243 -0.00023224154 0)
(0.22208812 5.4082665e-005 0)
(0.22199424 9.4026386e-005 0)
(0.22193367 4.1690819e-005 0)
(0.22192534 6.7808509e-006 0)
(0.22192643 -1.6182716e-006 0)
(0.22192813 -1.0894634e-006 0)
(0.22192825 -8.5886842e-008 0)
(0.22192814 1.0041132e-007 0)
(0.22192809 2.9042349e-008 0)
(0.2219281 -7.8304027e-009 0)
(0.2219281 -9.6036626e-009 0)
(0.22192811 -5.4734462e-009 0)
(0.22192811 -3.5554641e-010 0)
(0.22192811 1.323711e-009 0)
(0.22192812 -1.8533477e-009 0)
(0.22192811 -1.0844932e-009 0)
(0.22192811 3.4940654e-009 0)
(0.22192811 3.1988009e-009 0)
(0.2219281 9.5032215e-009 0)
(0.22192814 8.9589235e-009 0)
(0.19761012 -0.018348715 0)
(0.20053452 -0.0073796447 0)
(0.20306372 -0.0023130561 0)
(0.20215418 -0.00087003246 0)
(0.20209161 -0.00021152151 0)
(0.20193405 7.2572236e-005 0)
(0.20191917 0.00010700265 0)
(0.20190958 4.5631236e-005 0)
(0.20191364 7.1324551e-006 0)
(0.20191437 -1.9286701e-006 0)
(0.20191464 -1.1854052e-006 0)
(0.20191448 -8.0733518e-008 0)
(0.20191447 1.1211604e-007 0)
(0.20191447 2.9636001e-008 0)
(0.20191448 -8.8337935e-009 0)
(0.20191448 -9.8005896e-009 0)
(0.20191447 -5.4955241e-009 0)
(0.20191448 -1.191372e-009 0)
(0.20191448 2.0658434e-010 0)
(0.20191449 -7.8952638e-010 0)
(0.20191447 -1.7706418e-010 0)
(0.20191448 2.9063855e-009 0)
(0.20191448 3.3307038e-009 0)
(0.20191448 2.7033809e-009 0)
(0.20191453 1.2479646e-009 0)
(0.18248298 -0.02092596 0)
(0.18098614 -0.0080203723 0)
(0.18090864 -0.002109032 0)
(0.17943886 -0.00072857911 0)
(0.1791208 -0.0001457057 0)
(0.17894327 8.5818179e-005 0)
(0.17900141 0.00010406891 0)
(0.17903526 4.1704447e-005 0)
(0.17904846 6.0373029e-006 0)
(0.17904853 -1.9812711e-006 0)
(0.17904764 -1.0817968e-006 0)
(0.1790473 -5.6542667e-008 0)
(0.17904738 1.0497792e-007 0)
(0.17904743 2.4157063e-008 0)
(0.17904743 -8.8043613e-009 0)
(0.17904743 -7.9589588e-009 0)
(0.17904742 -4.3823391e-009 0)
(0.17904742 -2.043984e-009 0)
(0.17904742 -7.7292887e-010 0)
(0.17904742 3.3392071e-010 0)
(0.17904741 5.6493111e-010 0)
(0.17904742 1.3677844e-009 0)
(0.17904743 2.5281786e-009 0)
(0.17904742 -3.7566591e-009 0)
(0.17904746 -5.8821439e-009 0)
(0.16535339 -0.022366463 0)
(0.15755641 -0.0075612132 0)
(0.15622015 -0.0016748916 0)
(0.15451533 -0.00052601569 0)
(0.15414356 -5.7721333e-005 0)
(0.1539951 9.0970161e-005 0)
(0.15411268 8.7931585e-005 0)
(0.15417327 3.2552274e-005 0)
(0.15419046 4.2104566e-006 0)
(0.15418959 -1.7927782e-006 0)
(0.15418805 -8.4968003e-007 0)
(0.15418766 -2.9886714e-008 0)
(0.15418781 8.3507966e-008 0)
(0.15418787 1.5688282e-008 0)
(0.15418787 -7.8313891e-009 0)
(0.15418786 -5.5072091e-009 0)
(0.15418785 -2.8232238e-009 0)
(0.15418785 -2.2898363e-009 0)
(0.15418785 -7.4534721e-010 0)
(0.15418785 9.0327122e-010 0)
(0.15418784 1.0504142e-010 0)
(0.15418785 -6.0771344e-010 0)
(0.15418786 1.3255864e-009 0)
(0.15418786 -5.6455301e-009 0)
(0.15418785 -7.8430639e-009 0)
(0.14481528 -0.022019275 0)
(0.12996899 -0.0063276251 0)
(0.12895847 -0.001113666 0)
(0.12716759 -0.00031514804 0)
(0.12693183 1.6632436e-005 0)
(0.12685327 8.2555862e-005 0)
(0.12700955 6.3640859e-005 0)
(0.12707596 2.131133e-005 0)
(0.1270929 2.3470971e-006 0)
(0.12709097 -1.4202648e-006 0)
(0.12708928 -5.7260615e-007 0)
(0.12708892 -9.7941264e-009 0)
(0.1270891 5.6019827e-008 0)
(0.12708915 7.596445e-009 0)
(0.12708915 -5.9397833e-009 0)
(0.12708914 -3.1489338e-009 0)
(0.12708913 -1.5360533e-009 0)
(0.12708913 -1.90715e-009 0)
(0.12708913 -5.9396482e-010 0)
(0.12708913 8.3336243e-010 0)
(0.12708913 -4.1494887e-010 0)
(0.12708913 -2.136126e-009 0)
(0.12708914 1.0667733e-010 0)
(0.12708914 -2.2413957e-009 0)
(0.12708911 -3.8899975e-009 0)
(0.11805282 -0.018894459 0)
(0.098628969 -0.0045515589 0)
(0.098403269 -0.00061735622 0)
(0.096633491 -0.00014275395 0)
(0.096667236 5.5087346e-005 0)
(0.096664317 6.004903e-005 0)
(0.096830293 3.7307941e-005 0)
(0.096883804 1.0779494e-005 0)
(0.0968978 9.2429379e-007 0)
(0.096894989 -9.446033e-007 0)
(0.09689354 -3.1314019e-007 0)
(0.096893264 -2.2300441e-010 0)
(0.096893434 2.9882975e-008 0)
(0.096893467 1.9551585e-009 0)
(0.096893461 -3.6477895e-009 0)
(0.096893452 -1.4057886e-009 0)
(0.096893449 -6.4258694e-010 0)
(0.096893447 -1.3269709e-009 0)
(0.096893445 -4.1172385e-010 0)
(0.096893445 5.9255623e-010 0)
(0.096893446 -5.9925943e-010 0)
(0.096893446 -2.6974576e-009 0)
(0.096893445 -1.0122851e-009 0)
(0.096893451 2.2809363e-009 0)
(0.096893422 1.4059765e-009 0)
(0.08427636 -0.013369466 0)
(0.063100926 -0.0025083442 0)
(0.063659643 -0.00020972702 0)
(0.062183495 -4.2860986e-005 0)
(0.062479815 5.1549111e-005 0)
(0.062517382 2.9178359e-005 0)
(0.062657633 1.5336333e-005 0)
(0.062686595 3.1895654e-006 0)
(0.06269617 1.9505774e-007 0)
(0.062693055 -4.531453e-007 0)
(0.062692124 -1.0954126e-007 0)
(0.062691931 -5.8968413e-010 0)
(0.062692061 1.0188602e-008 0)
(0.062692069 -7.1830669e-010 0)
(0.062692065 -1.5199278e-009 0)
(0.062692058 -4.0048298e-010 0)
(0.062692058 -2.1479918e-010 0)
(0.062692056 -6.6763746e-010 0)
(0.062692053 -1.1662592e-010 0)
(0.062692054 3.264214e-010 0)
(0.062692055 -4.9950197e-010 0)
(0.062692052 -2.0181992e-009 0)
(0.062692045 -1.5945143e-009 0)
(0.06269205 2.4513691e-009 0)
(0.062692053 2.6011274e-009 0)
(0.03913375 -0.0068912658 0)
(0.022850313 -9.1006237e-005 0)
(0.024376921 2.0488907e-005 0)
(0.023418849 2.78113e-005 0)
(0.023813153 3.6733885e-006 0)
(0.023802779 2.6830826e-006 0)
(0.023882746 -9.7857795e-007 0)
(0.023883837 -3.3355994e-007 0)
(0.023888783 -1.3395371e-007 0)
(0.02388646 -2.7758694e-008 0)
(0.02388628 -1.0263778e-008 0)
(0.023886146 -6.6155538e-010 0)
(0.023886211 -1.1909605e-009 0)
(0.023886202 -2.862292e-010 0)
(0.023886201 -8.4090745e-011 0)
(0.023886198 7.757784e-011 0)
(0.023886199 1.2920208e-011 0)
(0.023886197 -5.2656659e-011 0)
(0.023886196 1.1587049e-011 0)
(0.023886197 1.2315178e-011 0)
(0.023886197 -2.0813976e-010 0)
(0.023886194 -6.1154892e-010 0)
(0.023886186 -2.9610857e-010 0)
(0.023886186 2.1212235e-009 0)
(0.023886202 2.1726953e-009 0)
(0.039221579 -0.0021739761 0)
(0.040105489 -0.0026669278 0)
(0.04115718 -0.0024171773 0)
(0.041973213 -0.0019595861 0)
(0.042542134 -0.0015688767 0)
(0.042991582 -0.0012621966 0)
(0.043317059 -0.0010277646 0)
(0.04357348 -0.00087183118 0)
(0.043781473 -0.00078726938 0)
(0.043967708 -0.00077969386 0)
(0.044152201 -0.00085228771 0)
(0.044356027 -0.0010250748 0)
(0.044603094 -0.0013169008 0)
(0.044917443 -0.0017668163 0)
(0.045334889 -0.002441939 0)
(0.045898472 -0.0034289691 0)
(0.046644376 -0.0048660894 0)
(0.047641854 -0.0069738187 0)
(0.048947446 -0.010067177 0)
(0.050423572 -0.015068563 0)
(0.05241953 -0.022850437 0)
(0.053172866 -0.035329318 0)
(0.054553219 -0.049326624 0)
(0.042641402 -0.064023243 0)
(0.03635419 -0.051549366 0)
(0.039295935 -0.0028362984 0)
(0.040290862 -0.0035198606 0)
(0.041438406 -0.0030960948 0)
(0.042285769 -0.0024785045 0)
(0.042816445 -0.0019418669 0)
(0.043210981 -0.0015313781 0)
(0.043474872 -0.001226381 0)
(0.043666777 -0.0010242263 0)
(0.043811792 -0.00091345096 0)
(0.043932448 -0.00089469332 0)
(0.044044776 -0.00096993426 0)
(0.044159789 -0.0011586761 0)
(0.044295988 -0.0014811146 0)
(0.044458576 -0.0019771194 0)
(0.044665112 -0.0027148918 0)
(0.04492906 -0.0037869354 0)
(0.04524806 -0.0053206491 0)
(0.045607247 -0.0075296114 0)
(0.046006271 -0.010680752 0)
(0.046138735 -0.015533798 0)
(0.045915236 -0.02278496 0)
(0.04367006 -0.033277319 0)
(0.039508527 -0.043215609 0)
(0.025802614 -0.048104374 0)
(0.010794697 -0.025876246 0)
(0.039428484 -0.0036137328 0)
(0.040631965 -0.0044809977 0)
(0.041931164 -0.0038275573 0)
(0.042787719 -0.0029837709 0)
(0.043249388 -0.0022730606 0)
(0.043556549 -0.001747123 0)
(0.043735426 -0.001370314 0)
(0.043845888 -0.0011235924 0)
(0.043915098 -0.00098626306 0)
(0.043961249 -0.00095337235 0)
(0.043991064 -0.0010240929 0)
(0.044011948 -0.001212532 0)
(0.044025788 -0.0015412399 0)
(0.044033826 -0.002047466 0)
(0.044022878 -0.0027923647 0)
(0.043984062 -0.0038672095 0)
(0.04388773 -0.0053831485 0)
(0.043655334 -0.0075239324 0)
(0.043230123 -0.010509387 0)
(0.042246436 -0.014878428 0)
(0.040393989 -0.021150061 0)
(0.036216193 -0.029481988 0)
(0.02918377 -0.036704991 0)
(0.016307516 -0.037708373 0)
(0.0025539104 -0.01932569 0)
(0.039749477 -0.0046247781 0)
(0.041319785 -0.0056247543 0)
(0.042818204 -0.0046134083 0)
(0.043631598 -0.0034490814 0)
(0.043965525 -0.0025315687 0)
(0.044139615 -0.001885661 0)
(0.0442043 -0.0014431563 0)
(0.044215759 -0.0011586897 0)
(0.044198341 -0.00099872591 0)
(0.044162 -0.00095115457 0)
(0.044106102 -0.0010095127 0)
(0.044030902 -0.0011849816 0)
(0.043923512 -0.0014962888 0)
(0.04377633 -0.0019770476 0)
(0.043557875 -0.0026800791 0)
(0.043232916 -0.0036835108 0)
(0.042752442 -0.0050849499 0)
(0.041999058 -0.007023343 0)
(0.040869055 -0.0096688516 0)
(0.03901921 -0.013363521 0)
(0.036085877 -0.018435153 0)
(0.030955415 -0.024666908 0)
(0.023009092 -0.029366406 0)
(0.012007666 -0.028059347 0)
(0.00015417329 -0.013843033 0)
(0.040429177 -0.0061453444 0)
(0.042502839 -0.0070535186 0)
(0.04413278 -0.0054294128 0)
(0.044782825 -0.0038216677 0)
(0.044897951 -0.0026687975 0)
(0.044881274 -0.0019160992 0)
(0.044799818 -0.001426775 0)
(0.04469625 -0.0011193448 0)
(0.044585451 -0.00094521681 0)
(0.044462244 -0.00088439481 0)
(0.044323899 -0.00092673541 0)
(0.044153235 -0.0010762072 0)
(0.043935821 -0.0013503181 0)
(0.043639579 -0.001772788 0)
(0.043233328 -0.0023901708 0)
(0.042657603 -0.0032620057 0)
(0.041841468 -0.0044675285 0)
(0.040656866 -0.0061062637 0)
(0.038959366 -0.0082993536 0)
(0.036458944 -0.011256854 0)
(0.032787278 -0.015145932 0)
(0.027196438 -0.019577374 0)
(0.019189233 -0.022447785 0)
(0.0096778634 -0.020301646 0)
(-0.00023517965 -0.010116658 0)
(0.041458139 -0.0085396779 0)
(0.043862805 -0.0087378394 0)
(0.045213959 -0.0061492201 0)
(0.045463884 -0.0039978907 0)
(0.045245061 -0.0026204268 0)
(0.044982829 -0.001803612 0)
(0.044728837 -0.0013044983 0)
(0.044503337 -0.00099805528 0)
(0.044298426 -0.00082406922 0)
(0.044095167 -0.00075504392 0)
(0.043881851 -0.00077899668 0)
(0.0436299 -0.00089308507 0)
(0.043316333 -0.0011115124 0)
(0.042899711 -0.0014505123 0)
(0.04234072 -0.0019449066 0)
(0.041567598 -0.0026388437 0)
(0.040493174 -0.0035879535 0)
(0.038990961 -0.0048589138 0)
(0.036901489 -0.0065312804 0)
(0.03397844 -0.0087286306 0)
(0.029893339 -0.011514779 0)
(0.024160102 -0.014480914 0)
(0.016478548 -0.016008385 0)
(0.0082796477 -0.013758084 0)
(-0.00011125435 -0.0067950408 0)
(0.042237397 -0.011940622 0)
(0.044172772 -0.01016532 0)
(0.044287568 -0.0064146637 0)
(0.04378888 -0.0038114379 0)
(0.043134253 -0.0023224297 0)
(0.042603798 -0.0015233525 0)
(0.042178751 -0.001068144 0)
(0.041841525 -0.00079581817 0)
(0.041557564 -0.00064055499 0)
(0.041296667 -0.00057227257 0)
(0.041029895 -0.0005775764 0)
(0.040728409 -0.00065291425 0)
(0.040356397 -0.00080295441 0)
(0.039875407 -0.0010424523 0)
(0.039233035 -0.0013903657 0)
(0.038358398 -0.0018756281 0)
(0.037161604 -0.0025361329 0)
(0.035520458 -0.0034099944 0)
(0.033285031 -0.0045406102 0)
(0.03024904 -0.0059957819 0)
(0.026150997 -0.0077894831 0)
(0.020675951 -0.0095790266 0)
(0.01369686 -0.010201453 0)
(0.0068501067 -0.0082153361 0)
(-2.6398926e-005 -0.0038762789 0)
(0.041387247 -0.015496974 0)
(0.041378073 -0.010285659 0)
(0.038950213 -0.0057963645 0)
(0.037484266 -0.0031197389 0)
(0.036384765 -0.0017545542 0)
(0.035631104 -0.0010875799 0)
(0.03508968 -0.00073680557 0)
(0.034684739 -0.00053338687 0)
(0.034363493 -0.00041571647 0)
(0.034084288 -0.00035914144 0)
(0.033810593 -0.0003509052 0)
(0.033511878 -0.0003872262 0)
(0.033150763 -0.00046885694 0)
(0.032690769 -0.00060436576 0)
(0.032079127 -0.00080251186 0)
(0.031256931 -0.0010788198 0)
(0.030143361 -0.0014518767 0)
(0.028631341 -0.001939832 0)
(0.026599424 -0.0025638536 0)
(0.023889745 -0.0033550092 0)
(0.020309113 -0.0043091155 0)
(0.015668255 -0.0051920655 0)
(0.0099639712 -0.0052689448 0)
(0.0048572442 -0.0037803256 0)
(-8.3008949e-005 -0.0015208741 0)
(0.0361344 -0.015273433 0)
(0.033731835 -0.0073333779 0)
(0.027829207 -0.0037890134 0)
(0.025701638 -0.0018536359 0)
(0.024328518 -0.00098157731 0)
(0.023508894 -0.00057941104 0)
(0.022971052 -0.00038014089 0)
(0.022588466 -0.0002687379 0)
(0.022300643 -0.0002041247 0)
(0.022063824 -0.00017120145 0)
(0.021844355 -0.00016265988 0)
(0.021614455 -0.00017500445 0)
(0.021346145 -0.0002086646 0)
(0.021008793 -0.00026650579 0)
(0.020564644 -0.00035210574 0)
(0.019969812 -0.00047239756 0)
(0.019165747 -0.000630698 0)
(0.018083599 -0.00083357141 0)
(0.016642808 -0.0010898071 0)
(0.014741111 -0.001406815 0)
(0.012256605 -0.0017786571 0)
(0.0090971698 -0.0020899484 0)
(0.005306524 -0.0019872127 0)
(0.0023614992 -0.0011620704 0)
(-0.00024498344 -0.00029208802 0)
(0.021391278 -0.012253487 0)
(0.018051602 -0.0025953344 0)
(0.011658603 -0.00056402074 0)
(0.010463307 -0.00025824388 0)
(0.0094017493 -9.8114336e-005 0)
(0.008882643 -4.6586529e-005 0)
(0.0085518622 -2.479646e-005 0)
(0.0083257002 -1.3938109e-005 0)
(0.0081623885 -7.1442579e-006 0)
(0.0080346406 -2.1639324e-006 0)
(0.0079229486 1.7488632e-006 0)
(0.0078117284 5.0038737e-006 0)
(0.0076869658 8.3722518e-006 0)
(0.0075330974 1.1962084e-005 0)
(0.0073331455 1.6698015e-005 0)
(0.0070666195 2.3076055e-005 0)
(0.0067097076 3.1964673e-005 0)
(0.0062359764 4.38305e-005 0)
(0.0056151661 6.0756533e-005 0)
(0.0048112776 8.353662e-005 0)
(0.0037832895 0.00011571811 0)
(0.0025352348 0.00017004445 0)
(0.0010558492 0.000233933 0)
(0.00027299722 0.00034944035 0)
(-0.0001978651 0.00023203208 0)
)
;

boundaryField
{
    inlet
    {
        type            fixedValue;
        value           uniform (0.03876 0 0);
    }
    walls
    {
        type            fixedValue;
        value           uniform (0 0 0);
    }
    outlet
    {
        type            zeroGradient;
    }
    centreline
    {
        type            symmetryPlane;
    }
    frontAndBack
    {
        type            empty;
    }
}


// ************************************************************************* //
