/*--------------------------------*- C++ -*----------------------------------*\
| =========                 |                                                 |
| \\      /  F ield         | OpenFOAM: The Open Source CFD Toolbox           |
|  \\    /   O peration     | Version:  5.x                                   |
|   \\  /    A nd           | Web:      www.OpenFOAM.org                      |
|    \\/     M anipulation  |                                                 |
\*---------------------------------------------------------------------------*/
/*   Windows 32 and 64 bit porting by blueCAPE: http://www.bluecape.com.pt   *\
|  Based on Windows porting (2.0.x v4) by Symscape: http://www.symscape.com   |
\*---------------------------------------------------------------------------*/
FoamFile
{
    version     2.0;
    format      ascii;
    class       volVectorField;
    location    "0.1";
    object      U_0;
}
// * * * * * * * * * * * * * * * * * * * * * * * * * * * * * * * * * * * * * //

dimensions      [0 1 -1 0 0 0 0];

internalField   nonuniform List<vector> 
750
(
(0.039105621 -9.0404736e-005 0)
(0.039875695 -0.00010794428 0)
(0.040805666 -0.00010176508 0)
(0.041522934 -8.3194157e-005 0)
(0.042131468 -6.9764792e-005 0)
(0.042639245 -5.7647103e-005 0)
(0.043053544 -4.8429229e-005 0)
(0.043412188 -4.2119094e-005 0)
(0.043726544 -3.8892793e-005 0)
(0.044032939 -3.9243936e-005 0)
(0.044352514 -4.3510573e-005 0)
(0.044726925 -5.2922797e-005 0)
(0.045197281 -6.8625243e-005 0)
(0.045821013 -9.2959836e-005 0)
(0.046679071 -0.00012986911 0)
(0.04789296 -0.00018466474 0)
(0.049618471 -0.00026750405 0)
(0.05215881 -0.00039250615 0)
(0.055866666 -0.0005835359 0)
(0.061428917 -0.00090214908 0)
(0.070309657 -0.0014168641 0)
(0.083770612 -0.0023380528 0)
(0.10796948 -0.0035269087 0)
(0.13879003 -0.0047817808 0)
(0.18501995 -0.0054550601 0)
(0.039106213 -0.0002697148 0)
(0.03987719 -0.00032708786 0)
(0.040809371 -0.00030368351 0)
(0.041528864 -0.00025053987 0)
(0.042137049 -0.00020885125 0)
(0.04264422 -0.00017280546 0)
(0.043057193 -0.00014497155 0)
(0.043414315 -0.00012604719 0)
(0.04372702 -0.00011630449 0)
(0.044031444 -0.00011731739 0)
(0.044348685 -0.00013002808 0)
(0.044720354 -0.00015814831 0)
(0.045186966 -0.00020503506 0)
(0.045805221 -0.00027763878 0)
(0.046655816 -0.00038772741 0)
(0.047857986 -0.00055121973 0)
(0.049565888 -0.00079795271 0)
(0.052077623 -0.0011699797 0)
(0.055736964 -0.0017390179 0)
(0.061228591 -0.0026875016 0)
(0.069990096 -0.0042292965 0)
(0.083262787 -0.006931851 0)
(0.1070576 -0.010502921 0)
(0.13700165 -0.014081086 0)
(0.18230408 -0.016200172 0)
(0.039106937 -0.00044843168 0)
(0.039880751 -0.00054855607 0)
(0.04081755 -0.00050522747 0)
(0.04154087 -0.00041862931 0)
(0.042148659 -0.00034763091 0)
(0.042654508 -0.00028765427 0)
(0.043064911 -0.00024100983 0)
(0.043418988 -0.00020941944 0)
(0.043728383 -0.00019308063 0)
(0.044028942 -0.00019463339 0)
(0.044341584 -0.00021566341 0)
(0.044707653 -0.00026225341 0)
(0.045166772 -0.00033984686 0)
(0.045774268 -0.00046003348 0)
(0.046609631 -0.00064223424 0)
(0.047788813 -0.00091267415 0)
(0.049461113 -0.0013201806 0)
(0.051915316 -0.0019341428 0)
(0.055481435 -0.0028739518 0)
(0.06082358 -0.0044366499 0)
(0.069344671 -0.0069899687 0)
(0.082221547 -0.011404799 0)
(0.10522626 -0.017287153 0)
(0.13352286 -0.023020842 0)
(0.17706433 -0.026575147 0)
(0.039108222 -0.00062786742 0)
(0.03988722 -0.00077125913 0)
(0.040830796 -0.00070814782 0)
(0.041559267 -0.00058716407 0)
(0.042166488 -0.00048622489 0)
(0.042670223 -0.0004018645 0)
(0.043076802 -0.00033619174 0)
(0.043426293 -0.00029178994 0)
(0.043730702 -0.00026874225 0)
(0.044025549 -0.0002706356 0)
(0.044331427 -0.00029970734 0)
(0.044688993 -0.00036430019 0)
(0.045136933 -0.00047179864 0)
(0.045728674 -0.00063836239 0)
(0.046541095 -0.00089075884 0)
(0.047686444 -0.0012649984 0)
(0.049306017 -0.0018278608 0)
(0.051675168 -0.0026749554 0)
(0.055106801 -0.0039705866 0)
(0.060221183 -0.0061260482 0)
(0.068393769 -0.0096557132 0)
(0.080673654 -0.015701547 0)
(0.10252409 -0.023699216 0)
(0.1285165 -0.031411732 0)
(0.16957972 -0.036291622 0)
(0.039110986 -0.00080865765 0)
(0.039897487 -0.00099552568 0)
(0.040849648 -0.00091295767 0)
(0.041584422 -0.00075619112 0)
(0.042190618 -0.00062448977 0)
(0.04269139 -0.00051516486 0)
(0.043092845 -0.00043015846 0)
(0.043436183 -0.00037275583 0)
(0.043733941 -0.00034284702 0)
(0.044021206 -0.00034484767 0)
(0.044318239 -0.00038152438 0)
(0.044664517 -0.00046345138 0)
(0.045097685 -0.00059985307 0)
(0.045668882 -0.00081110389 0)
(0.046451067 -0.0011310437 0)
(0.047552178 -0.0016048274 0)
(0.0491032 -0.0023156467 0)
(0.05136199 -0.0033841769 0)
(0.054620143 -0.0050152418 0)
(0.05943658 -0.0077310062 0)
(0.067153328 -0.012175937 0)
(0.078561099 -0.019739892 0)
(0.098964742 -0.029635432 0)
(0.12201625 -0.039087696 0)
(0.16012271 -0.045039981 0)
(0.03911611 -0.00099148447 0)
(0.03991229 -0.001221975 0)
(0.040874622 -0.0011199282 0)
(0.041616754 -0.00092577995 0)
(0.042221209 -0.00076223185 0)
(0.042718114 -0.00062728555 0)
(0.043113085 -0.00052254146 0)
(0.043448681 -0.00045191737 0)
(0.043738148 -0.00041495714 0)
(0.044015991 -0.00041674979 0)
(0.044302122 -0.00046052461 0)
(0.044634459 -0.00055896587 0)
(0.045049386 -0.00072296894 0)
(0.045595384 -0.00097677954 0)
(0.046340588 -0.0013609465 0)
(0.047387487 -0.0019289829 0)
(0.0488554 -0.0027787225 0)
(0.050980133 -0.0040537776 0)
(0.054029057 -0.0059946654 0)
(0.058480311 -0.0092291184 0)
(0.065613251 -0.014512267 0)
(0.075887801 -0.023444763 0)
(0.094497345 -0.034970079 0)
(0.11394473 -0.04598371 0)
(0.14899868 -0.052612848 0)
(0.039124093 -0.0011772626 0)
(0.03993206 -0.0014510473 0)
(0.040906032 -0.001329413 0)
(0.041656602 -0.0010959332 0)
(0.042258362 -0.00089922784 0)
(0.042750399 -0.00073793707 0)
(0.043137453 -0.00061296724 0)
(0.043463695 -0.00052887105 0)
(0.043743243 -0.00048464361 0)
(0.044009849 -0.00048584995 0)
(0.044283112 -0.00053613241 0)
(0.04459897 -0.00065011206 0)
(0.044992324 -0.0008401699 0)
(0.0455087 -0.001134 0)
(0.046210594 -0.0015784491 0)
(0.047194088 -0.0022344974 0)
(0.048564973 -0.0032123775 0)
(0.050535429 -0.004676541 0)
(0.053340343 -0.0068966351 0)
(0.057371293 -0.010596508 0)
(0.0637997 -0.016609175 0)
(0.072721649 -0.026750635 0)
(0.089141289 -0.039555895 0)
(0.10424173 -0.051989232 0)
(0.13699535 -0.059259943 0)
(0.039135469 -0.0013671804 0)
(0.039956942 -0.0016829254 0)
(0.040943925 -0.0015418478 0)
(0.041704148 -0.0012666352 0)
(0.042302063 -0.0010352236 0)
(0.042788102 -0.00084679566 0)
(0.043165713 -0.00070104704 0)
(0.043480966 -0.00060320891 0)
(0.043748978 -0.00055146165 0)
(0.044002437 -0.00055171159 0)
(0.04426109 -0.00060781278 0)
(0.044558181 -0.00073612508 0)
(0.044926763 -0.00095045587 0)
(0.045409256 -0.0012814204 0)
(0.046062157 -0.0017815697 0)
(0.04697331 -0.0025184909 0)
(0.048235796 -0.003612681 0)
(0.050035066 -0.0052464157 0)
(0.052565619 -0.0077106856 0)
(0.056133769 -0.011812503 0)
(0.061744363 -0.018422372 0)
(0.069105771 -0.02957862 0)
(0.082957472 -0.043252043 0)
(0.093327364 -0.05694745 0)
(0.12422786 -0.06403839 0)
(0.039151015 -0.001562565 0)
(0.039986942 -0.0019177742 0)
(0.040988075 -0.0017577808 0)
(0.041759471 -0.0014378159 0)
(0.042352119 -0.0011699943 0)
(0.042830879 -0.00095347421 0)
(0.043197431 -0.00078638869 0)
(0.043500043 -0.00067450574 0)
(0.043754949 -0.000614959 0)
(0.043993338 -0.00061389722 0)
(0.044235767 -0.00067505641 0)
(0.044512043 -0.00081631051 0)
(0.044852939 -0.0010528985 0)
(0.045297502 -0.0014178983 0)
(0.045896665 -0.0019686277 0)
(0.04672775 -0.0027784928 0)
(0.04787238 -0.0039766511 0)
(0.049485778 -0.0057577322 0)
(0.051718295 -0.0084270218 0)
(0.054784326 -0.012861647 0)
(0.059519797 -0.019914263 0)
(0.065119739 -0.03182847 0)
(0.076137378 -0.04603901 0)
(0.081496872 -0.061182441 0)
(0.11023486 -0.067243937 0)
(0.039171827 -0.0017633149 0)
(0.040022127 -0.0021582047 0)
(0.041038104 -0.0019761311 0)
(0.041822854 -0.0016097432 0)
(0.042408345 -0.0013031439 0)
(0.042878377 -0.0010576115 0)
(0.043232197 -0.0008685812 0)
(0.043520483 -0.00074238083 0)
(0.043760733 -0.00067477335 0)
(0.0439826 -0.00067190457 0)
(0.044206824 -0.00073742994 0)
(0.044460303 -0.00089023303 0)
(0.044771199 -0.0011468671 0)
(0.045174431 -0.0015424982 0)
(0.045715596 -0.0021385001 0)
(0.046460996 -0.0030131974 0)
(0.047477832 -0.0043011022 0)
(0.048891531 -0.0062067531 0)
(0.050817936 -0.0090430583 0)
(0.053347364 -0.013730218 0)
(0.057175186 -0.021107802 0)
(0.061001427 -0.033457562 0)
(0.068848639 -0.04795235 0)
(0.068540962 -0.064211275 0)
(0.090957958 -0.067593296 0)
(0.22293233 -0.0032557581 0)
(0.23684881 -0.0014025505 0)
(0.2429754 -0.00050541227 0)
(0.24495296 -0.0002265692 0)
(0.24611427 -8.3036523e-005 0)
(0.24609692 1.0736696e-005 0)
(0.24589244 2.4458784e-005 0)
(0.24575189 1.1139375e-005 0)
(0.24572651 1.7826543e-006 0)
(0.24572802 -4.0798488e-007 0)
(0.24573187 -2.9405633e-007 0)
(0.24573239 -2.2530508e-008 0)
(0.24573215 2.6854862e-008 0)
(0.24573202 6.9915365e-009 0)
(0.24573203 -2.4732936e-009 0)
(0.24573206 -2.8707697e-009 0)
(0.24573207 -1.7229767e-009 0)
(0.24573208 -1.13249e-010 0)
(0.24573207 1.2849805e-009 0)
(0.24573207 -8.4157606e-010 0)
(0.24573208 -8.7049989e-010 0)
(0.24573208 1.0657785e-009 0)
(0.24573207 8.3410528e-010 0)
(0.24573207 5.8771743e-009 0)
(0.245732 6.0271968e-009 0)
(0.21842209 -0.0092212149 0)
(0.22986872 -0.0039266712 0)
(0.23550533 -0.0014036001 0)
(0.23683499 -0.00061653357 0)
(0.237681 -0.00018959177 0)
(0.23761532 3.4105467e-005 0)
(0.23745093 6.5466468e-005 0)
(0.23734205 2.9204049e-005 0)
(0.2373227 4.6906686e-006 0)
(0.23732403 -1.1063511e-006 0)
(0.23732704 -7.6544121e-007 0)
(0.23732741 -5.8755787e-008 0)
(0.23732721 7.0558337e-008 0)
(0.23732712 1.9929399e-008 0)
(0.23732713 -5.749321e-009 0)
(0.23732714 -7.2776134e-009 0)
(0.23732716 -4.0085804e-009 0)
(0.23732716 3.0350638e-010 0)
(0.23732716 1.6602041e-009 0)
(0.23732715 -2.0098322e-009 0)
(0.23732716 -1.6003828e-009 0)
(0.23732716 2.6522056e-009 0)
(0.23732715 2.3630578e-009 0)
(0.23732715 1.1347241e-008 0)
(0.23732713 1.1191524e-008 0)
(0.20979936 -0.014391208 0)
(0.21711866 -0.005983162 0)
(0.22172427 -0.0020985449 0)
(0.2218923 -0.00085478416 0)
(0.2222555 -0.00023033599 0)
(0.22213917 5.6578933e-005 0)
(0.22204462 9.4754932e-005 0)
(0.22198421 4.154563e-005 0)
(0.22197605 6.6245608e-006 0)
(0.22197717 -1.6493924e-006 0)
(0.22197885 -1.0759987e-006 0)
(0.22197896 -7.790477e-008 0)
(0.22197885 1.0109908e-007 0)
(0.2219788 2.8412535e-008 0)
(0.22197881 -7.999562e-009 0)
(0.22197881 -9.5641074e-009 0)
(0.22197882 -5.4417826e-009 0)
(0.22197882 -3.3495852e-010 0)
(0.22197882 1.326257e-009 0)
(0.22197883 -1.8779696e-009 0)
(0.22197882 -1.0933776e-009 0)
(0.22197882 3.4885612e-009 0)
(0.22197882 3.2258021e-009 0)
(0.22197881 1.0151252e-008 0)
(0.22197885 9.6170305e-009 0)
(0.19760391 -0.018376638 0)
(0.2005081 -0.0074079032 0)
(0.20303512 -0.0023341948 0)
(0.20212394 -0.00087703652 0)
(0.20206245 -0.00020963346 0)
(0.20190614 7.5098544e-005 0)
(0.201892 0.00010768922 0)
(0.2018826 4.5459497e-005 0)
(0.20188664 6.9695183e-006 0)
(0.20188733 -1.9565995e-006 0)
(0.20188759 -1.1695796e-006 0)
(0.20188743 -7.226068e-008 0)
(0.20188742 1.1269222e-007 0)
(0.20188743 2.8947587e-008 0)
(0.20188744 -9.0013025e-009 0)
(0.20188743 -9.7516808e-009 0)
(0.20188743 -5.4596528e-009 0)
(0.20188743 -1.1748893e-009 0)
(0.20188744 1.9927429e-010 0)
(0.20188744 -7.9236382e-010 0)
(0.20188742 -1.6998384e-010 0)
(0.20188743 2.9024843e-009 0)
(0.20188743 3.3239201e-009 0)
(0.20188743 3.1372279e-009 0)
(0.20188749 1.7363016e-009 0)
(0.18246178 -0.020948503 0)
(0.18092971 -0.0080438202 0)
(0.18083369 -0.0021271727 0)
(0.17935175 -0.00073481942 0)
(0.17903408 -0.00014427233 0)
(0.1788598 8.7835004e-005 0)
(0.1789195 0.00010456588 0)
(0.17895348 4.1524478e-005 0)
(0.17896653 5.8963387e-006 0)
(0.17896652 -1.9997182e-006 0)
(0.17896563 -1.065944e-006 0)
(0.1789653 -4.9168264e-008 0)
(0.17896538 1.0529636e-007 0)
(0.17896542 2.3527912e-008 0)
(0.17896543 -8.9347366e-009 0)
(0.17896542 -7.9039737e-009 0)
(0.17896541 -4.3502693e-009 0)
(0.17896541 -2.0479381e-009 0)
(0.17896542 -7.8384651e-010 0)
(0.17896541 3.4949022e-010 0)
(0.17896541 5.8675137e-010 0)
(0.17896542 1.358788e-009 0)
(0.17896542 2.4683347e-009 0)
(0.17896542 -3.7181028e-009 0)
(0.17896546 -5.7571796e-009 0)
(0.16532688 -0.022380757 0)
(0.15749769 -0.0075774564 0)
(0.15613121 -0.0016876284 0)
(0.15441005 -0.00053025175 0)
(0.15403835 -5.6767768e-005 0)
(0.15389355 9.2265048e-005 0)
(0.1540128 8.8197496e-005 0)
(0.15407338 3.2386899e-005 0)
(0.15409035 4.1070721e-006 0)
(0.1540894 -1.8005907e-006 0)
(0.15408786 -8.3596452e-007 0)
(0.15408748 -2.4464716e-008 0)
(0.15408763 8.3574205e-008 0)
(0.15408769 1.5202628e-008 0)
(0.15408769 -7.9112225e-009 0)
(0.15408768 -5.4553503e-009 0)
(0.15408767 -2.7979593e-009 0)
(0.15408767 -2.3044048e-009 0)
(0.15408767 -7.5215115e-010 0)
(0.15408767 9.2388153e-010 0)
(0.15408767 1.2278981e-010 0)
(0.15408768 -6.2295471e-010 0)
(0.15408768 1.2151933e-009 0)
(0.15408769 -5.9858952e-009 0)
(0.15408768 -8.0903955e-009 0)
(0.14479753 -0.022027931 0)
(0.12992318 -0.0063353724 0)
(0.12888604 -0.0011202858 0)
(0.12708023 -0.00031732616 0)
(0.12684454 1.717878e-005 0)
(0.12676892 8.3210908e-005 0)
(0.12692645 6.3724967e-005 0)
(0.12699273 2.1185108e-005 0)
(0.12700944 2.2838403e-006 0)
(0.12700744 -1.4203269e-006 0)
(0.12700577 -5.6253979e-007 0)
(0.12700543 -6.4040887e-009 0)
(0.12700561 5.5949579e-008 0)
(0.12700566 7.276207e-009 0)
(0.12700566 -5.9741701e-009 0)
(0.12700565 -3.1087365e-009 0)
(0.12700564 -1.5198337e-009 0)
(0.12700564 -1.9213328e-009 0)
(0.12700564 -5.9567332e-010 0)
(0.12700564 8.5015796e-010 0)
(0.12700564 -4.0830029e-010 0)
(0.12700564 -2.1538167e-009 0)
(0.12700564 -2.4880111e-011 0)
(0.12700565 -2.782916e-009 0)
(0.12700561 -4.3373618e-009 0)
(0.11804746 -0.018898681 0)
(0.098604941 -0.0045538865 0)
(0.098363261 -0.00061953733 0)
(0.096583926 -0.00014342736 0)
(0.096617943 5.5333676e-005 0)
(0.096616846 6.0277142e-005 0)
(0.096783467 3.7295865e-005 0)
(0.096836783 1.0705184e-005 0)
(0.096850587 8.9466983e-007 0)
(0.096847742 -9.4135854e-007 0)
(0.096846315 -3.0720903e-007 0)
(0.096846049 1.3883095e-009 0)
(0.09684622 2.9785363e-008 0)
(0.096846252 1.790046e-009 0)
(0.096846246 -3.6539201e-009 0)
(0.096846237 -1.381334e-009 0)
(0.096846234 -6.3405271e-010 0)
(0.096846232 -1.3365634e-009 0)
(0.096846229 -4.121298e-010 0)
(0.09684623 6.0271992e-010 0)
(0.096846231 -5.9583544e-010 0)
(0.096846231 -2.7134343e-009 0)
(0.09684623 -1.1315761e-009 0)
(0.096846236 1.808377e-009 0)
(0.096846206 1.0019311e-009 0)
(0.08427828 -0.013371092 0)
(0.063095872 -0.0025082491 0)
(0.063649782 -0.00020988618 0)
(0.062169957 -4.2885078e-005 0)
(0.062466687 5.1611663e-005 0)
(0.06250506 2.9199282e-005 0)
(0.062645458 1.5306188e-005 0)
(0.062674242 3.1611283e-006 0)
(0.0626837 1.8781361e-007 0)
(0.062680577 -4.503233e-007 0)
(0.062679664 -1.071814e-007 0)
(0.062679477 -1.9007934e-010 0)
(0.062679608 1.0122658e-008 0)
(0.062679615 -7.6730512e-010 0)
(0.06267961 -1.5157619e-009 0)
(0.062679604 -3.9078655e-010 0)
(0.062679604 -2.1185633e-010 0)
(0.062679602 -6.7205875e-010 0)
(0.062679599 -1.16269e-010 0)
(0.0626796 3.306316e-010 0)
(0.062679601 -4.9805783e-010 0)
(0.062679598 -2.0278358e-009 0)
(0.062679591 -1.6619728e-009 0)
(0.062679596 2.1682888e-009 0)
(0.062679597 2.3670681e-009 0)
(0.03913625 -0.0068916111 0)
(0.022852911 -9.0389965e-005 0)
(0.02438074 2.0815749e-005 0)
(0.023422417 2.7925403e-005 0)
(0.023816981 3.6512099e-006 0)
(0.023806648 2.6717362e-006 0)
(0.023886567 -9.8323604e-007 0)
(0.023887577 -3.3126804e-007 0)
(0.023892492 -1.3190893e-007 0)
(0.023890173 -2.7238281e-008 0)
(0.023890001 -1.0238479e-008 0)
(0.023889869 -7.2192849e-010 0)
(0.023889935 -1.1968357e-009 0)
(0.023889925 -2.8259699e-010 0)
(0.023889924 -8.2164861e-011 0)
(0.023889921 7.763924e-011 0)
(0.023889922 1.2841611e-011 0)
(0.02388992 -5.3892696e-011 0)
(0.023889919 1.1575345e-011 0)
(0.02388992 1.3325173e-011 0)
(0.02388992 -2.0772318e-010 0)
(0.023889917 -6.1462082e-010 0)
(0.023889909 -3.0547275e-010 0)
(0.023889908 2.0400412e-009 0)
(0.023889923 2.1124327e-009 0)
(0.039220558 -0.0021705693 0)
(0.040103322 -0.0026621322 0)
(0.041152617 -0.002412385 0)
(0.041967277 -0.001955513 0)
(0.042534839 -0.0015657486 0)
(0.042983574 -0.00125998 0)
(0.043308492 -0.0010261564 0)
(0.043564571 -0.00087070894 0)
(0.043772341 -0.00078649755 0)
(0.043958449 -0.00077918612 0)
(0.044142871 -0.00085197138 0)
(0.044346675 -0.0010248772 0)
(0.044593755 -0.0013167598 0)
(0.04490815 -0.0017666825 0)
(0.045325651 -0.0024417115 0)
(0.045889293 -0.0034285605 0)
(0.046635321 -0.0048653578 0)
(0.047632818 -0.0069724633 0)
(0.048938506 -0.010064257 0)
(0.050414632 -0.015062262 0)
(0.052410393 -0.022840921 0)
(0.053163792 -0.035323215 0)
(0.054546451 -0.049335284 0)
(0.042639971 -0.06404891 0)
(0.036358444 -0.051571213 0)
(0.039294553 -0.0028317041 0)
(0.040288093 -0.0035134965 0)
(0.041432884 -0.0030898939 0)
(0.042278831 -0.0024733939 0)
(0.042808236 -0.0019380296 0)
(0.043202189 -0.0015286927 0)
(0.043465661 -0.0012244837 0)
(0.043657329 -0.0010229192 0)
(0.043802218 -0.00091257371 0)
(0.043922812 -0.00089413154 0)
(0.044035129 -0.00096960206 0)
(0.044150172 -0.0011584912 0)
(0.044286424 -0.0014810109 0)
(0.044449119 -0.0019770484 0)
(0.044655798 -0.0027147532 0)
(0.044919898 -0.0037866276 0)
(0.045239179 -0.0053200625 0)
(0.045598681 -0.007528442 0)
(0.045998167 -0.010678163 0)
(0.046131726 -0.015527974 0)
(0.045909621 -0.022776051 0)
(0.043666584 -0.033272269 0)
(0.039506713 -0.043226216 0)
(0.025801638 -0.048131874 0)
(0.010793285 -0.025897058 0)
(0.039426405 -0.0036074969 0)
(0.040627773 -0.0044726555 0)
(0.041923702 -0.0038198065 0)
(0.042778806 -0.0029776487 0)
(0.043239394 -0.0022686254 0)
(0.043546187 -0.00174409 0)
(0.043724844 -0.0013682352 0)
(0.043835219 -0.0011221892 0)
(0.043904418 -0.00098535032 0)
(0.043950589 -0.00095281093 0)
(0.043980472 -0.0010237858 0)
(0.044001434 -0.0012124007 0)
(0.04401539 -0.0015412171 0)
(0.044023578 -0.0020475023 0)
(0.044012862 -0.0027923858 0)
(0.043974317 -0.0038671034 0)
(0.043878394 -0.005382849 0)
(0.043646575 -0.007523179 0)
(0.043222121 -0.010507542 0)
(0.042240089 -0.014873991 0)
(0.040390356 -0.021143052 0)
(0.036216192 -0.0294785 0)
(0.029186332 -0.036715754 0)
(0.016308647 -0.037734331 0)
(0.0025515036 -0.019347345 0)
(0.039746044 -0.0046158525 0)
(0.041313388 -0.0056137744 0)
(0.042808113 -0.0046039049 0)
(0.043620189 -0.003442042 0)
(0.043953363 -0.0025267272 0)
(0.044127427 -0.0018824683 0)
(0.044192161 -0.0014410447 0)
(0.044203724 -0.0011573046 0)
(0.044186428 -0.00099786147 0)
(0.044150212 -0.00095065361 0)
(0.04409445 -0.001009282 0)
(0.044019383 -0.0011849496 0)
(0.043912179 -0.0014963939 0)
(0.043765194 -0.0019772414 0)
(0.043547024 -0.0026803221 0)
(0.043222473 -0.0036837224 0)
(0.042742526 -0.0050850779 0)
(0.041989956 -0.0070232202 0)
(0.040860973 -0.0096680411 0)
(0.039013083 -0.013360991 0)
(0.036083 -0.018431021 0)
(0.030956931 -0.024666093 0)
(0.02301396 -0.029377657 0)
(0.012011201 -0.028083381 0)
(0.00015201429 -0.013865051 0)
(0.040424236 -0.0061321938 0)
(0.042495324 -0.0070394318 0)
(0.044122188 -0.0054182104 0)
(0.044771482 -0.0038139465 0)
(0.044886346 -0.0026638629 0)
(0.044870088 -0.0019130129 0)
(0.044789011 -0.0014248224 0)
(0.044685756 -0.0011181112 0)
(0.044575215 -0.00094448923 0)
(0.044452237 -0.00088402334 0)
(0.044314068 -0.0009266312 0)
(0.044143604 -0.0010763159 0)
(0.043926387 -0.0013505869 0)
(0.043630387 -0.0017732024 0)
(0.043224443 -0.0023906996 0)
(0.042649181 -0.0032626264 0)
(0.041833627 -0.0044682195 0)
(0.040649929 -0.0061069389 0)
(0.038953579 -0.0082997265 0)
(0.036455104 -0.011256328 0)
(0.032786644 -0.015144858 0)
(0.027200091 -0.019579704 0)
(0.019196214 -0.022459807 0)
(0.0096841129 -0.020323443 0)
(-0.00023502465 -0.010137204 0)
(0.041453423 -0.0085219522 0)
(0.043858727 -0.0087216876 0)
(0.045209393 -0.0061371317 0)
(0.045459844 -0.0039900056 0)
(0.04524144 -0.0026157901 0)
(0.04498006 -0.0018009395 0)
(0.04472678 -0.0013029069 0)
(0.044501761 -0.00099710702 0)
(0.044297221 -0.00082356068 0)
(0.044094236 -0.00075485077 0)
(0.043881118 -0.00077904635 0)
(0.043629345 -0.00089334415 0)
(0.043315927 -0.0011119519 0)
(0.042899497 -0.0014511356 0)
(0.042340734 -0.0019457211 0)
(0.041567929 -0.0026398556 0)
(0.040493939 -0.0035891956 0)
(0.03899239 -0.0048603694 0)
(0.036903804 -0.0065327943 0)
(0.03398215 -0.0087299128 0)
(0.0298994 -0.011516347 0)
(0.024169109 -0.014485919 0)
(0.01648947 -0.016021095 0)
(0.0082886383 -0.013777528 0)
(-0.00010918256 -0.0068120237 0)
(0.042236647 -0.011921259 0)
(0.04417702 -0.010150765 0)
(0.044295682 -0.0064038186 0)
(0.043799351 -0.0038043932 0)
(0.043146034 -0.0023185512 0)
(0.042616753 -0.0015213579 0)
(0.042192595 -0.0010670821 0)
(0.041855944 -0.00079524402 0)
(0.041572371 -0.00064029478 0)
(0.041311718 -0.00057225107 0)
(0.041045091 -0.00057775162 0)
(0.040743667 -0.00065326242 0)
(0.040371679 -0.00080347482 0)
(0.039890689 -0.0010431615 0)
(0.039248293 -0.0013912863 0)
(0.038373632 -0.0018767877 0)
(0.03717683 -0.0025376192 0)
(0.035535718 -0.0034118157 0)
(0.03330039 -0.0045426742 0)
(0.030264717 -0.0059979693 0)
(0.026167473 -0.0077923541 0)
(0.020693013 -0.0095849232 0)
(0.013712943 -0.010213004 0)
(0.0068613683 -0.0082307999 0)
(-2.4000235e-005 -0.0038882065 0)
(0.041392072 -0.015481905 0)
(0.041390145 -0.010276957 0)
(0.038969295 -0.0057886799 0)
(0.037507005 -0.003114573 0)
(0.036409612 -0.0017518602 0)
(0.035657277 -0.0010864169 0)
(0.035116629 -0.00073631269 0)
(0.034712193 -0.000533185 0)
(0.034391233 -0.00041568264 0)
(0.034112169 -0.00035923905 0)
(0.033838501 -0.00035111503 0)
(0.033539715 -0.00038754974 0)
(0.033178456 -0.00046930615 0)
(0.032718242 -0.0006049613 0)
(0.032106286 -0.00080327626 0)
(0.031283719 -0.001079791 0)
(0.030169657 -0.0014531082 0)
(0.028656983 -0.0019413569 0)
(0.026624318 -0.0025656382 0)
(0.02391386 -0.0033570136 0)
(0.020332518 -0.004311738 0)
(0.01569017 -0.0051967164 0)
(0.0099822584 -0.0052768692 0)
(0.0048685655 -0.0037898015 0)
(-8.1648949e-005 -0.0015272741 0)
(0.036142282 -0.015265758 0)
(0.033743586 -0.0073294965 0)
(0.027847975 -0.0037846924 0)
(0.025723663 -0.0018507947 0)
(0.024352825 -0.00098012478 0)
(0.023534313 -0.00057887961 0)
(0.02299692 -0.00038000293 0)
(0.022614561 -0.00026872886 0)
(0.022326834 -0.00020417642 0)
(0.022090016 -0.00017130654 0)
(0.021870467 -0.00016281369 0)
(0.021640415 -0.00017521357 0)
(0.021371881 -0.00020894484 0)
(0.021034221 -0.00026686857 0)
(0.020589667 -0.00035257238 0)
(0.019994325 -0.00047299902 0)
(0.0191896 -0.0006314339 0)
(0.018106623 -0.00083449038 0)
(0.016664825 -0.0010909237 0)
(0.014761984 -0.0014080925 0)
(0.012276256 -0.0017802745 0)
(0.0091147928 -0.0020924788 0)
(0.0053201929 -0.0019910058 0)
(0.0023693885 -0.0011661483 0)
(-0.00024501189 -0.00029474097 0)
(0.021397382 -0.012253811 0)
(0.018056739 -0.0025968678 0)
(0.011667924 -0.00056429218 0)
(0.010474582 -0.00025826706 0)
(0.0094148096 -9.8133119e-005 0)
(0.0088962198 -4.6661048e-005 0)
(0.0085655501 -2.489538e-005 0)
(0.0083393654 -1.4013662e-005 0)
(0.0081760022 -7.1960777e-006 0)
(0.0080481737 -2.1995704e-006 0)
(0.0079363729 1.724269e-006 0)
(0.0078250143 4.9871247e-006 0)
(0.0077000716 8.3597019e-006 0)
(0.0075459728 1.1954944e-005 0)
(0.0073457262 1.6692819e-005 0)
(0.0070788223 2.3074881e-005 0)
(0.0067214421 3.1970357e-005 0)
(0.0062471292 4.3841231e-005 0)
(0.0056255911 6.0788669e-005 0)
(0.0048208746 8.361036e-005 0)
(0.0037919951 0.00011582924 0)
(0.0025425882 0.00017020562 0)
(0.0010610059 0.00023443277 0)
(0.00027612256 0.00035039765 0)
(-0.00019790621 0.00023232045 0)
)
;

boundaryField
{
    inlet
    {
        type            fixedValue;
        value           uniform (0.03876 0 0);
    }
    walls
    {
        type            fixedValue;
        value           uniform (0 0 0);
    }
    outlet
    {
        type            zeroGradient;
    }
    centreline
    {
        type            symmetryPlane;
    }
    frontAndBack
    {
        type            empty;
    }
}


// ************************************************************************* //
