# vtk DataFile Version 2.0
track0
ASCII
DATASET POLYDATA
POINTS 11980 float
-0.0205 0.001 1e-005
-0.0202034 0.00100022 1e-005
-0.0199069 0.00100067 1e-005
-0.0196103 0.00100132 1e-005
-0.0193137 0.00100219 1e-005
-0.0190172 0.00100326 1e-005
-0.0187132 0.00100466 1e-005
-0.0184093 0.00100588 1e-005
-0.0181054 0.0010071 1e-005
-0.0178015 0.00100832 1e-005
-0.0174976 0.00100953 1e-005
-0.0172058 0.00101083 1e-005
-0.016914 0.00101193 1e-005
-0.0166222 0.00101303 1e-005
-0.0163305 0.00101413 1e-005
-0.0160387 0.00101522 1e-005
-0.0157586 0.00101636 1e-005
-0.0154784 0.00101744 1e-005
-0.0151983 0.00101856 1e-005
-0.0149182 0.00101971 1e-005
-0.0146381 0.0010209 1e-005
-0.0143744 0.00102208 1e-005
-0.0141106 0.00102327 1e-005
-0.0138469 0.00102449 1e-005
-0.0135832 0.00102574 1e-005
-0.0133604 0.00102682 1e-005
-0.013347 0.00102688 1e-005
-0.0133336 0.00102695 1e-005
-0.0133202 0.00102702 1e-005
-0.0133068 0.00102708 1e-005
-0.0132934 0.00102715 1e-005
-0.0130353 0.00102844 1e-005
-0.0127771 0.00102974 1e-005
-0.0125189 0.00103106 1e-005
-0.0122607 0.00103239 1e-005
-0.0120025 0.00103374 1e-005
-0.0117547 0.00103505 1e-005
-0.0115068 0.00103636 1e-005
-0.0112589 0.00103768 1e-005
-0.0110111 0.00103901 1e-005
-0.0107632 0.00104034 1e-005
-0.0105252 0.00104161 1e-005
-0.0102873 0.00104289 1e-005
-0.0100493 0.00104417 1e-005
-0.00981133 0.00104544 1e-005
-0.00957337 0.00104672 1e-005
-0.00934491 0.00104794 1e-005
-0.00911645 0.00104916 1e-005
-0.00888799 0.00105038 1e-005
-0.00865954 0.00105159 1e-005
-0.00843108 0.00105281 1e-005
-0.00821175 0.00105396 1e-005
-0.00799242 0.00105512 1e-005
-0.00777309 0.00105627 1e-005
-0.00755376 0.00105742 1e-005
-0.00733443 0.00105856 1e-005
-0.00712387 0.00105965 1e-005
-0.0069133 0.00106074 1e-005
-0.00670273 0.00106182 1e-005
-0.00649216 0.0010629 1e-005
-0.0062816 0.00106398 1e-005
-0.00607944 0.001065 1e-005
-0.00587729 0.00106603 1e-005
-0.00567514 0.00106704 1e-005
-0.00547298 0.00106806 1e-005
-0.00527083 0.00106907 1e-005
-0.00507675 0.00107003 1e-005
-0.00488267 0.00107099 1e-005
-0.0046886 0.00107195 1e-005
-0.00449452 0.0010729 1e-005
-0.00430044 0.00107385 1e-005
-0.00411412 0.00107475 1e-005
-0.0039278 0.00107566 1e-005
-0.00374147 0.00107656 1e-005
-0.00355515 0.00107745 1e-005
-0.00336883 0.00107835 1e-005
-0.00318995 0.00107919 1e-005
-0.00301107 0.00108004 1e-005
-0.00283219 0.00108089 1e-005
-0.00265331 0.00108173 1e-005
-0.00247443 0.00108258 1e-005
-0.0023027 0.00108337 1e-005
-0.00213097 0.00108418 1e-005
-0.00195924 0.00108498 1e-005
-0.0017875 0.00108577 1e-005
-0.00161577 0.00108657 1e-005
-0.0014509 0.00108732 1e-005
-0.00128603 0.00108808 1e-005
-0.00112116 0.00108884 1e-005
-0.000956289 0.00108959 1e-005
-0.000791418 0.00109034 1e-005
-0.000633135 0.00109106 1e-005
-0.000474851 0.00109179 1e-005
-0.000316567 0.0010925 1e-005
-0.000158284 0.00109322 1e-005
0 0.00109393 1e-005
0.000105677 0.0010944 1e-005
0.000211355 0.00109487 1e-005
0.000317032 0.00109534 1e-005
0.00042271 0.00109581 1e-005
0.000528387 0.00109627 1e-005
0.000634886 0.00109672 1e-005
0.000741385 0.00109718 1e-005
0.000847885 0.00109763 1e-005
0.000954384 0.00109808 1e-005
0.00106088 0.00109853 1e-005
0.00116821 0.00109897 1e-005
0.00127554 0.00109941 1e-005
0.00138286 0.00109985 1e-005
0.00149019 0.00110028 1e-005
0.00159752 0.00110071 1e-005
0.00170568 0.00110113 1e-005
0.00181384 0.00110154 1e-005
0.001922 0.00110195 1e-005
0.00203016 0.00110235 1e-005
0.00213833 0.00110274 1e-005
0.00224733 0.00110312 1e-005
0.00235633 0.0011035 1e-005
0.00246533 0.00110387 1e-005
0.00257434 0.00110423 1e-005
0.00268334 0.00110458 1e-005
0.00279319 0.00110493 1e-005
0.00290304 0.00110527 1e-005
0.00301289 0.0011056 1e-005
0.00312274 0.00110592 1e-005
0.00323259 0.00110624 1e-005
0.00334329 0.00110654 1e-005
0.003454 0.00110685 1e-005
0.0035647 0.00110715 1e-005
0.0036754 0.00110743 1e-005
0.00378611 0.00110772 1e-005
0.00389767 0.00110799 1e-005
0.00400924 0.00110825 1e-005
0.0041208 0.00110851 1e-005
0.00423237 0.00110877 1e-005
0.00434393 0.00110901 1e-005
0.00445636 0.00110925 1e-005
0.00456879 0.00110948 1e-005
0.00468123 0.0011097 1e-005
0.00479366 0.00110992 1e-005
0.00490609 0.00111013 1e-005
0.0050194 0.00111032 1e-005
0.0051327 0.00111052 1e-005
0.00524601 0.00111071 1e-005
0.00535932 0.00111088 1e-005
0.00547262 0.00111106 1e-005
0.00558681 0.00111122 1e-005
0.005701 0.00111138 1e-005
0.00581518 0.00111153 1e-005
0.00592937 0.00111167 1e-005
0.00604356 0.0011118 1e-005
0.00615863 0.00111193 1e-005
0.00627371 0.00111205 1e-005
0.00638878 0.00111216 1e-005
0.00650386 0.00111227 1e-005
0.00661893 0.00111237 1e-005
0.0067349 0.00111246 1e-005
0.00685087 0.00111254 1e-005
0.00696684 0.00111262 1e-005
0.00708281 0.00111269 1e-005
0.00719878 0.00111275 1e-005
0.00726192 0.00111278 1e-005
0.00732505 0.00111281 1e-005
0.00738819 0.00111284 1e-005
0.00745133 0.00111286 1e-005
0.00751263 0.00111288 1e-005
0.00756673 0.00111289 1e-005
0.00762083 0.00111291 1e-005
0.00767493 0.00111292 1e-005
0.00772903 0.00111293 1e-005
0.00778313 0.00111294 1e-005
0.00790091 0.00111296 1e-005
0.00801869 0.00111297 1e-005
0.00813647 0.00111297 1e-005
0.00825425 0.00111296 1e-005
0.00837203 0.00111295 1e-005
0.00849073 0.00111292 1e-005
0.00860942 0.00111289 1e-005
0.00872812 0.00111286 1e-005
0.00884682 0.00111281 1e-005
0.00896551 0.00111276 1e-005
0.00908513 0.00111269 1e-005
0.00920475 0.00111262 1e-005
0.00932437 0.00111254 1e-005
0.00944398 0.00111246 1e-005
0.0095636 0.00111237 1e-005
0.00968415 0.00111226 1e-005
0.0098047 0.00111215 1e-005
0.00992525 0.00111203 1e-005
0.0100458 0.0011119 1e-005
0.0101663 0.00111177 1e-005
0.0102878 0.00111161 1e-005
0.0104093 0.00111146 1e-005
0.0105308 0.0011113 1e-005
0.0106523 0.00111114 1e-005
0.0107738 0.00111096 1e-005
0.0108962 0.00111076 1e-005
0.0110186 0.00111057 1e-005
0.0111411 0.00111037 1e-005
0.0112635 0.00111016 1e-005
0.0113859 0.00110994 1e-005
0.0115093 0.0011097 1e-005
0.0116327 0.00110946 1e-005
0.0117561 0.00110921 1e-005
0.0118795 0.00110896 1e-005
0.0120028 0.0011087 1e-005
0.0121272 0.00110841 1e-005
0.0122515 0.00110813 1e-005
0.0123759 0.00110784 1e-005
0.0125002 0.00110754 1e-005
0.0126245 0.00110723 1e-005
0.0127498 0.0011069 1e-005
0.0128752 0.00110657 1e-005
0.0130005 0.00110624 1e-005
0.0131258 0.00110589 1e-005
0.0132511 0.00110554 1e-005
0.0133774 0.00110516 1e-005
0.0135036 0.00110479 1e-005
0.0136299 0.00110441 1e-005
0.0137562 0.00110402 1e-005
0.0138825 0.00110362 1e-005
0.0140098 0.00110319 1e-005
0.014137 0.00110277 1e-005
0.0142643 0.00110234 1e-005
0.0143915 0.0011019 1e-005
0.0145188 0.00110146 1e-005
0.0146471 0.00110099 1e-005
0.0147753 0.00110052 1e-005
0.0149036 0.00110004 1e-005
0.0150318 0.00109955 1e-005
0.0151601 0.00109905 1e-005
0.0152893 0.00109854 1e-005
0.0154186 0.00109802 1e-005
0.0155478 0.00109749 1e-005
0.0156771 0.00109696 1e-005
0.0158063 0.00109641 1e-005
0.0159366 0.00109585 1e-005
0.0160668 0.00109528 1e-005
0.0161971 0.0010947 1e-005
0.0163274 0.00109412 1e-005
0.0164576 0.00109352 1e-005
0.0165889 0.00109291 1e-005
0.0167201 0.0010923 1e-005
0.0168514 0.00109167 1e-005
0.0169827 0.00109103 1e-005
0.0171139 0.00109039 1e-005
0.0172462 0.00108973 1e-005
0.0173785 0.00108907 1e-005
0.0175108 0.00108839 1e-005
0.0176431 0.0010877 1e-005
0.0177754 0.00108701 1e-005
0.0179087 0.00108631 1e-005
0.018042 0.00108559 1e-005
0.0181753 0.00108487 1e-005
0.0183087 0.00108413 1e-005
0.018442 0.00108339 1e-005
0.0185763 0.00108264 1e-005
0.0187107 0.00108187 1e-005
0.018845 0.00108109 1e-005
0.0189794 0.0010803 1e-005
0.0191137 0.00107951 1e-005
0.0192491 0.00107872 1e-005
0.0193845 0.00107791 1e-005
0.0195199 0.00107708 1e-005
0.0196553 0.00107623 1e-005
0.0197907 0.0010754 1e-005
0.0199272 0.00107455 1e-005
0.0200636 0.00107369 1e-005
0.0202001 0.00107281 1e-005
0.0203365 0.00107192 1e-005
0.020473 0.00107103 1e-005
0.0206105 0.00107014 1e-005
0.020748 0.00106923 1e-005
0.0208855 0.0010683 1e-005
0.021023 0.00106736 1e-005
0.0211606 0.00106642 1e-005
0.0212991 0.00106549 1e-005
0.0214377 0.00106453 1e-005
0.0215763 0.00106354 1e-005
0.0217149 0.00106255 1e-005
0.0218535 0.00106157 1e-005
0.0219931 0.00106058 1e-005
0.0221328 0.00105958 1e-005
0.0222724 0.00105854 1e-005
0.0224121 0.0010575 1e-005
0.0225517 0.00105647 1e-005
0.0226925 0.00105544 1e-005
0.0228332 0.00105438 1e-005
0.022974 0.00105329 1e-005
0.0231147 0.0010522 1e-005
0.0232555 0.00105112 1e-005
0.0233973 0.00105004 1e-005
0.0235391 0.00104893 1e-005
0.023681 0.0010478 1e-005
0.0238228 0.00104666 1e-005
0.0239647 0.00104552 1e-005
0.0241076 0.00104439 1e-005
0.0242505 0.00104324 1e-005
0.0243935 0.00104205 1e-005
0.0245364 0.00104086 1e-005
0.0246794 0.00103968 1e-005
0.0248234 0.0010385 1e-005
0.0249675 0.00103729 1e-005
0.0251115 0.00103605 1e-005
0.0252556 0.00103481 1e-005
0.0253996 0.00103358 1e-005
0.0255448 0.00103235 1e-005
0.02569 0.00103109 1e-005
0.0258351 0.0010298 1e-005
0.0259803 0.00102851 1e-005
0.0261255 0.00102723 1e-005
0.0262718 0.00102595 1e-005
0.0264181 0.00102464 1e-005
0.0265644 0.0010233 1e-005
0.0267107 0.00102196 1e-005
0.026857 0.00102063 1e-005
0.0270044 0.00101929 1e-005
0.0271519 0.00101793 1e-005
0.0272993 0.00101654 1e-005
0.0274468 0.00101515 1e-005
0.0275942 0.00101376 1e-005
0.0277428 0.00101237 1e-005
0.0278914 0.00101095 1e-005
0.0280399 0.00100952 1e-005
0.0281885 0.00100808 1e-005
0.0283371 0.00100663 1e-005
0.0284869 0.00100519 1e-005
0.0286366 0.00100371 1e-005
0.0287863 0.00100222 1e-005
0.0289361 0.00100073 1e-005
0.0290858 0.000999228 1e-005
0.0292367 0.000997726 1e-005
0.0293876 0.000996194 1e-005
0.0295385 0.000994651 1e-005
0.0296894 0.0009931 1e-005
0.0298403 0.000991542 1e-005
0.0299924 0.000989981 1e-005
0.0301445 0.00098839 1e-005
0.0302966 0.00098679 1e-005
0.0304486 0.000985182 1e-005
0.0306007 0.000983566 1e-005
0.030754 0.000981944 1e-005
0.0309072 0.000980295 1e-005
0.0310605 0.000978637 1e-005
0.0312138 0.00097697 1e-005
0.031367 0.000975294 1e-005
0.0315215 0.000973608 1e-005
[...]
POINT_DATA 11980
 FIELD attributes 2
p 1 11980 float
-4.83441 -4.83371 -4.83009 -4.8264 -4.82263 -4.81426 -4.82813 -4.84311 -4.8581 -4.87309 -4.89753 -4.91933 -4.94929 -4.97925 -5.00921 -5.04198 -5.05768 -5.07941 -5.10115 -5.12289 -5.14625 -5.1652 -5.18616 -5.20713 -5.22809 -5.24581 -5.24687 -5.24793 -5.24899 -5.25005 -5.25111 -5.27283 -5.29454 -5.31626 -5.33798 -5.35942 -5.37825 -5.39689 -5.41552 -5.43416 -5.45223 -5.46793 -5.48336 -5.49878 -5.51421 -5.52908 -5.54295 -5.55658 -5.5702 -5.58382 -5.597 -5.60982 -5.62238 -5.63494 -5.64751 -5.65965 -5.67158 -5.68321 -5.69484 -5.70648 -5.71769 -5.72882 -5.73967 -5.75053 -5.76138 -5.77188 -5.7824 -5.79266 -5.80292 -5.81318 -5.82313 -5.83317 -5.84304 -5.8529 -5.86277 -5.87242 -5.88217 -5.89168 -5.90118 -5.91068 -5.91997 -5.92953 -5.93922 -5.94892 -5.95861 -5.96843 -5.97844 -5.98822 -5.99799 -6.00777 -6.01734 -6.02734 -6.03809 -6.04885 -6.05961 -6.07049 -6.08024 -6.09061 -6.10097 -6.11134 -6.12124 -6.13023 -6.13872 -6.14721 -6.1557 -6.16343 -6.17041 -6.17849 -6.18656 -6.19463 -6.20347 -6.21158 -6.22017 -6.22877 -6.23736 -6.24608 -6.25414 -6.26123 -6.26832 -6.27541 -6.28167 -6.2883 -6.29366 -6.29901 -6.30437 -6.3087 -6.31428 -6.31883 -6.32338 -6.32793 -6.33155 -6.3364 -6.34036 -6.34432 -6.34828 -6.35143 -6.35532 -6.35846 -6.3616 -6.36474 -6.36728 -6.37014 -6.37245 -6.37476 -6.37707 -6.37902 -6.38112 -6.38288 -6.38464 -6.3864 -6.38797 -6.38971 -6.39124 -6.39277 -6.3943 -6.39574 -6.39728 -6.39871 -6.40014 -6.40157 -6.40297 -6.40373 -6.40445 -6.40517 -6.40589 -6.40658 -6.4072 -6.40782 -6.40844 -6.40906 -6.40972 -6.41093 -6.4122 -6.41347 -6.41473 -6.41619 -6.41722 -6.41848 -6.41974 -6.421 -6.42268 -6.42351 -6.4248 -6.4261 -6.42739 -6.4294 -6.43002 -6.43141 -6.4328 -6.43419 -6.43666 -6.43708 -6.43859 -6.44011 -6.44163 -6.44456 -6.44476 -6.44638 -6.44799 -6.4496 -6.45298 -6.45296 -6.45468 -6.4564 -6.45812 -6.46197 -6.46181 -6.46367 -6.46552 -6.46738 -6.47168 -6.47143 -6.47343 -6.47543 -6.47744 -6.48211 -6.4818 -6.48394 -6.48609 -6.48823 -6.49323 -6.49292 -6.49519 -6.49748 -6.49996 -6.50505 -6.50506 -6.50721 -6.50965 -6.51254 -6.5176 -6.51795 -6.52002 -6.52261 -6.52588 -6.53089 -6.53159 -6.53363 -6.53637 -6.53998 -6.54492 -6.54597 -6.54802 -6.55091 -6.55481 -6.55968 -6.56109 -6.56319 -6.56623 -6.57037 -6.57518 -6.57692 -6.5791 -6.5823 -6.58664 -6.59138 -6.59346 -6.59576 -6.59909 -6.6036 -6.60829 -6.61068 -6.61312 -6.6166 -6.62123 -6.62589 -6.62856 -6.63124 -6.63488 -6.63952 -6.64415 -6.64709 -6.65004 -6.65382 -6.65844 -6.66306 -6.66626 -6.66946 -6.67337 -6.678 -6.68264 -6.68609 -6.68954 -6.69358 -6.69821 -6.70284 -6.70653 -6.71022 -6.71438 -6.719 -6.72362 -6.72752 -6.73143 -6.73568 -6.74029 -6.7449 -6.74897 -6.75304 -6.75738 -6.762 -6.76662 -6.77082 -6.77502 -6.77946 -6.7841 -6.78875 -6.79306 -6.7974 -6.80191 -6.80658 -6.81127 -6.81567 -6.82013 -6.82471 -6.8294 -6.83414 -6.83863 -6.84318 -6.84783 -6.85255 -6.85734 -6.86189 -6.86652 -6.87123 -6.87598 -6.88082 -6.88542 -6.89013 -6.89489 -6.89967 -6.90454 -6.90918 -6.91395 -6.91874 -6.92354 -6.92844 -6.93312 -6.93793 -6.94275 -6.94756 -6.95247 -6.95718 -6.96201 -6.96684 -6.97167 -6.97658 -6.98131 -6.98614 -6.99097 -6.9958 -7.00069 -7.00544 -7.01026 -7.01508 -7.0199 -7.02476 -7.0295 -7.0343 -7.0391 -7.0439 -7.04871 -7.05344 -7.0582 -7.06296 -7.06772 -7.07248 -7.07571 -7.07894 -7.08218 -7.08542 -7.08857 -7.09005 -7.09154 -7.09303 -7.09451 -7.09601 -7.10064 -7.10528 -7.10993 -7.11457 -7.11922 -7.12378 -7.12834 -7.13289 -7.13745 -7.14203 -7.14649 -7.15095 -7.15541 -7.15987 -7.16435 -7.16871 -7.17305 -7.1774 -7.18174 -7.18611 -7.19035 -7.19456 -7.19877 -7.20298 -7.20719 -7.21131 -7.21535 -7.2194 -7.22345 -7.22749 -7.23145 -7.23534 -7.23921 -7.24308 -7.24693 -7.25071 -7.25443 -7.2581 -7.26176 -7.26539 -7.26897 -7.27249 -7.27594 -7.27935 -7.28274 -7.28609 -7.2894 -7.2926 -7.29574 -7.29886 -7.30195 -7.30505 -7.30797 -7.3108 -7.31363 -7.31644 -7.31926 -7.3219 -7.32441 -7.32692 -7.32943 -7.33195 -7.33428 -7.33644 -7.3386 -7.34078 -7.34296 -7.34496 -7.34675 -7.34853 -7.35035 -7.35218 -7.35382 -7.3552 -7.35658 -7.35801 -7.35944 -7.36067 -7.36165 -7.3626 -7.36361 -7.36457 -7.36536 -7.36595 -7.36644 -7.367 -7.36745 -7.36777 -7.36795 -7.36795 -7.36803 -7.36792 -7.36774 -7.3675 -7.36698 -7.36654 -7.36584 -7.36512 -7.36441 -7.36336 -7.36233 -7.36104 -7.35976 -7.35848 -7.35695 -7.35525 -7.35337 -7.35148 -7.3496 -7.34757 -7.34517 -7.34266 -7.34014 -7.33763 -7.33507 -7.33394 -7.33278 -7.33161 -7.33045 -7.32931 -7.32732 -7.32533 -7.32335 -7.32136 -7.3193 -7.31557 -7.31174 -7.30792 -7.3041 -7.30009 -7.29578 -7.29123 -7.28669 -7.28214 -7.27726 -7.27237 -7.26706 -7.26176 -7.25646 -7.25066 -7.24509 -7.23907 -7.23298 -7.22674 -7.22012 -7.21376 -7.2071 -7.20019 -7.19296 -7.1855 -7.1783 -7.171 -7.16324 -7.15497 -7.14663 -7.13856 -7.1305 -7.12184 -7.1126 -7.10337 -7.0944 -7.08544 -7.07589 -7.06572 -7.05555 -7.04566 -7.03578 -7.02529 -7.01416 -7.00304 -6.9922 -6.98123 -6.96972 -6.9578 -6.94568 -6.93386 -6.92167 -6.90916 -6.89647 -6.88335 -6.87052 -6.85706 -6.84352 -6.82998 -6.8159 -6.80185 -6.78726 -6.77267 -6.75808 -6.74321 -6.72782 -6.71215 -6.69648 -6.68082 -6.66516 -6.66513 -6.66509 -6.66505 -6.66501 -6.66497 -6.64837 -6.63179 -6.61521 -6.59863 -6.58179 -6.56432 -6.54658 -6.52885 -6.51113 -6.49285 -6.47453 -6.45567 -6.43681 -6.41777 -6.39822 -6.37876 -6.35906 -6.33906 -6.31855 -6.29784 -6.27722 -6.25661 -6.23539 -6.2135 -6.1916 -6.16982 -6.14804 -6.12561 -6.10253 -6.07945 -6.05649 -6.03344 -6.00972 -5.98559 -5.96132 -5.93716 -5.91254 -5.88761 -5.86262 -5.83714 -5.8117 -5.78556 -5.75942 -5.73329 -5.70689 -5.68735 -5.66751 -5.64767 -5.62783 -5.60896 -5.60128 -5.5936 -5.58592 -5.57824 -5.57048 -5.54205 -5.51356 -5.48509 -5.45662 -5.42777 -5.39835 -5.36865 -5.33896 -5.30917 -5.27891 -5.24832 -5.2176 -5.1867 -5.15538 -5.1239 -5.09211 -5.06033 -5.02813 -4.99545 -4.96276 -4.92976 -4.89677 -4.86327 -4.82939 -4.79551 -4.76131 -4.72685 -4.69208 -4.65725 -4.62218 -4.58677 -4.55081 -4.51486 -4.47892 -4.44284 -4.42323 -4.40343 -4.38363 -4.36384 -4.3447 -4.3273 -4.3099 -4.2925 -4.2751 -4.25752 -4.21946 -4.18129 -4.14313 -4.10498 -4.06625 -4.02724 -3.98801 -3.94873 -3.90912 -3.86921 -3.82908 -3.78896 -3.74849 -3.70749 -3.66648 -3.62526 -3.58406 -3.54234 -3.50028 -3.45821 -3.41593 -3.37335 -3.33049 -3.28762 -3.24452 -3.20109 -3.1572 -3.11332 -3.06946 -3.02555 -3.01916 -3.01271 -3.00627 -2.99983 -2.99344 -2.95506 -2.9167 -2.87835 -2.84 -2.80127 -2.75571 -2.70997 -2.66424 -2.61835 -2.57202 -2.52556 -2.47907 -2.43242 -2.38522 -2.338 -2.29064 -2.2433 -2.19552 -2.14748 -2.09941 -2.0512 -2.00274 -1.95403 -1.90532 -1.85646 -1.81017 -1.76354 -1.71692 -1.67031 -1.62608 -1.62274 -1.61939 -1.61604 -1.61269 -1.60932 -1.55913 -1.50894 -1.45876 -1.4086 -1.35798 -1.3072 -1.25634 -1.20547 -1.15432 -1.10295 -1.0515 -1.00006 -0.948396 -0.896447 -0.844472 -0.792403 -0.740254 -0.687801 -0.635331 -0.582799 -0.530147 -0.477145 -0.424153 -0.37117 -0.318152 -0.311925 -0.305664 -0.299402 -0.293141 -0.286917 -0.239674 -0.192437 -0.145209 -0.0979874 -0.0504566 0.00346988 0.0574061 0.111335 0.165454 0.219742 0.274089 0.328426 0.382865 0.437436 0.492042 0.546719 0.601468 0.656368 0.711251 0.766134 0.812653 0.859323 0.905987 0.952645 0.997429 1.0063 1.01518 1.02405 1.03292 1.04183 1.09727 1.15268 1.20808 1.26349 1.31913 1.37479 1.43041 1.48597 1.54168 1.59745 1.65323 1.70901 1.76489 1.82068 1.8765 1.93236 1.98827 2.04419 2.1001 2.15601 2.16704 2.17807 2.1891 2.20014 2.21108 2.25605 2.30102 2.34598 2.39094 2.43598 2.49206 2.54803 2.60396 2.65991 2.7159 2.77189 2.82787 2.88381 2.93959 2.99543 3.05127 3.10706 3.16282 3.21858 3.2743 3.28889 3.30346 3.31803 3.3326 3.34702 3.38813 3.42924 3.47035 3.51145 3.55253 3.60814 3.6636 3.719 3.77432 3.82966 3.88497 3.94026 3.99544 4.05037 4.10534 4.16029 4.21508 4.26983 4.32458 4.37933 4.38424 4.38914 4.39403 4.39893 4.40381 4.45343 4.50305 4.55267 4.60228 4.65175 4.70605 4.76028 4.81433 4.86815 4.92202 4.97584 5.02962 5.08315 5.13658 5.1899 5.22877 5.26745 5.30609 5.34474 5.38257 5.39713 5.41169 5.42625 5.4408 5.45529 5.50806 5.56068 5.61331 5.66582 5.71819 5.77045 5.82271 5.87468 5.92635 5.97806 6.02967 6.08106 6.13232 6.18357 6.23474 6.24561 6.25642 6.26721 6.27801 6.28875 6.32875 6.36874 6.40873 6.44869 6.48843 6.5388 6.58906 6.63916 6.6889 6.73867 6.78829 6.83785 6.88707 6.93622 6.9852 7.01402 7.04262 7.07119 7.09975 7.12812 7.14816 7.1682 7.18823 7.20824 7.22811 7.27631 7.32425 7.37218 7.41982 7.46732 7.51471 7.5621 7.60907 7.65577 7.70241 7.73744 7.77217 7.80682 7.84148 7.87608 7.88757 7.89906 7.91055 7.92202 7.93339 7.97908 8.0246 8.07012 8.11539 8.16041 8.20531 8.25022 8.29474 8.33885 8.38295 8.41956 8.45583 8.492 8.52817 8.56468 8.57197 8.57926 8.58654 8.59381 8.60102 8.64403 8.68694 8.72984 8.77252 8.81489 8.85711 8.89934 8.94117 8.98259 9.02399 9.0609 9.09744 9.13387 9.17031 9.20757 9.21174 9.2159 9.22006 9.22421 9.22831 9.2685 9.30862 9.34875 9.38869 9.42826 9.46766 9.50706 9.54606 9.58466 9.62323 9.66162 9.6996 9.73747 9.77534 9.81315 9.81386 9.81456 9.81527 9.81597 9.81667 9.85318 9.88969 9.92621 9.96263 9.9986 10.0351 10.0715 10.1076 10.1433 10.1789 10.2143 10.2495 10.2844 10.3193 10.354 10.3637 10.3733 10.3828 10.3924 10.4021 10.4266 10.4512 10.4757 10.5002 10.5244 10.5578 10.5911 10.6243 10.657 10.6897 10.7221 10.7544 10.7864 10.8181 10.8497 10.8751 10.9002 10.9253 10.9504 10.9773 10.9828 10.9883 10.9937 10.9992 11.0046 11.0349 11.065 11.0951 11.1251 11.1548 11.1841 11.2135 11.2425 11.2712 11.2999 11.3283 11.3566 11.3842 11.4116 11.4385 11.4632 11.489 11.5147 11.5404 11.5705 11.5715 11.5725 11.5735 11.5746 11.5756 11.5992 11.6224 11.6456 11.6688 11.6867 11.7031 11.7252 11.7495 11.7813 11.8173 11.8527 11.888 11.9086 11.9146 11.9205 11.9249 11.9334 11.9432 11.953 11.9642 11.9651 11.9659 11.9668 11.9678 11.9692 11.9824 11.9955 12.0085 12.0212 12.0332 12.0444 12.0555 12.0649 12.0726 12.0803 12.0868 12.0925 12.0975 12.1025 12.1069 12.1076 12.1079 12.1081 12.1083 12.1086 12.1101 12.1116 12.113 12.1143 12.1146 12.1133 12.1111 12.1083 12.1038 12.099 12.0924 12.0858 12.0772 12.0667 12.056 12.0433 12.0284 12.0131 11.9977 11.9816 11.9774 11.9725 11.9677 11.9629 11.9578 11.9413 11.9247 11.9081 11.8915 11.8729 11.8461 11.8171 11.7877 11.7564 11.7239 11.6881 11.6523 11.6132 11.5709 11.5286 11.4828 11.4358 11.3857 11.3344 11.281 11.2236 11.1617 11.0998 11.0378 10.9745 10.9509 10.926 10.9012 10.8763 10.8489 10.8002 10.7514 10.7026 10.6537 10.6025 10.517 10.4286 10.3402 10.251 10.157 10.0573 9.95477 9.84921 9.73837 9.62565 9.50676 9.3878 9.2631 9.13301 9.0028 8.86589 8.72892 8.58113 8.42246 8.26362 8.09714 7.9297 7.76101 7.59161 7.42087 7.24217 7.03542 6.82593 6.61649 6.38768 6.1533 5.93717 5.72098 5.50474 5.29385 5.18396 5.05063 4.91739 4.78424 4.62811 4.45271 4.27715 4.10143 3.92556 3.72233 3.41138 3.15005 2.88801 2.6253 2.49435 2.36311 1.92797 1.49787 0.941046 0