/*--------------------------------*- C++ -*----------------------------------*\
| =========                 |                                                 |
| \\      /  F ield         | OpenFOAM: The Open Source CFD Toolbox           |
|  \\    /   O peration     | Version:  5.x                                   |
|   \\  /    A nd           | Web:      www.OpenFOAM.org                      |
|    \\/     M anipulation  |                                                 |
\*---------------------------------------------------------------------------*/
/*   Windows 32 and 64 bit porting by blueCAPE: http://www.bluecape.com.pt   *\
|  Based on Windows porting (2.0.x v4) by Symscape: http://www.symscape.com   |
\*---------------------------------------------------------------------------*/
FoamFile
{
    version     2.0;
    format      ascii;
    class       volScalarField;
    location    "3000";
    object      omega;
}
// * * * * * * * * * * * * * * * * * * * * * * * * * * * * * * * * * * * * * //

dimensions      [0 0 -1 0 0 0 0];

internalField   nonuniform List<scalar> 
4000
(
6.46323e+008
9.33557e+008
1.15624e+009
1.32503e+009
1.46578e+009
1.58696e+009
1.69483e+009
1.79365e+009
1.88527e+009
1.97145e+009
2.05356e+009
2.13246e+009
2.20862e+009
2.28237e+009
2.35391e+009
2.42333e+009
2.49064e+009
2.5558e+009
2.61872e+009
2.6793e+009
2.73741e+009
2.79295e+009
2.84649e+009
2.89775e+009
2.94616e+009
2.99178e+009
3.03465e+009
3.0748e+009
3.11229e+009
3.14718e+009
3.17954e+009
3.20946e+009
3.23704e+009
3.26239e+009
3.28562e+009
3.30685e+009
3.32617e+009
3.34371e+009
3.35959e+009
3.37387e+009
3.38662e+009
3.3979e+009
3.40777e+009
3.41633e+009
3.42369e+009
3.42971e+009
3.43436e+009
3.43758e+009
3.43938e+009
3.43985e+009
3.43893e+009
3.43643e+009
3.43229e+009
3.42644e+009
3.41883e+009
3.4094e+009
3.39811e+009
3.3849e+009
3.36975e+009
3.3526e+009
3.33344e+009
3.31231e+009
3.28927e+009
3.26427e+009
3.23791e+009
3.21003e+009
3.18056e+009
3.14974e+009
3.11777e+009
3.08481e+009
3.05108e+009
3.01681e+009
2.98223e+009
2.94754e+009
2.91294e+009
2.87858e+009
2.84459e+009
2.81107e+009
2.77804e+009
2.74549e+009
2.71334e+009
2.68155e+009
2.65099e+009
2.62126e+009
2.59138e+009
2.56138e+009
2.53118e+009
2.50071e+009
2.46989e+009
2.43855e+009
2.40661e+009
2.37457e+009
2.34284e+009
2.31221e+009
2.28287e+009
2.25474e+009
2.22794e+009
2.20336e+009
2.18178e+009
2.16401e+009
2.15092e+009
2.14334e+009
2.14203e+009
2.15031e+009
2.16883e+009
2.19696e+009
2.23556e+009
2.28553e+009
2.34767e+009
2.42231e+009
2.5095e+009
2.61055e+009
2.72202e+009
2.84451e+009
2.97788e+009
3.12138e+009
3.27399e+009
3.43484e+009
3.60307e+009
3.77793e+009
3.95872e+009
4.14479e+009
4.33552e+009
4.53036e+009
4.72876e+009
4.93024e+009
5.13432e+009
5.34058e+009
5.54866e+009
5.75863e+009
5.97313e+009
6.18961e+009
6.40625e+009
6.62329e+009
6.84057e+009
7.05785e+009
7.27485e+009
7.49126e+009
7.70678e+009
7.92106e+009
8.13364e+009
8.34373e+009
8.55057e+009
8.75542e+009
8.95875e+009
9.16164e+009
9.36114e+009
9.55578e+009
9.74361e+009
9.92552e+009
1.01013e+010
1.02706e+010
1.04329e+010
1.05878e+010
1.07346e+010
1.0873e+010
1.10024e+010
1.11222e+010
1.12318e+010
1.13306e+010
1.1418e+010
1.14933e+010
1.15558e+010
1.16047e+010
1.16393e+010
1.16588e+010
1.16622e+010
1.16487e+010
1.16174e+010
1.15673e+010
1.14974e+010
1.14066e+010
1.12938e+010
1.11576e+010
1.09976e+010
1.08243e+010
1.06273e+010
1.04044e+010
1.01549e+010
9.87899e+009
9.57679e+009
9.24885e+009
8.89603e+009
8.51963e+009
8.12186e+009
7.70638e+009
7.27942e+009
6.851e+009
6.43009e+009
6.00013e+009
5.61337e+009
5.26659e+009
4.94549e+009
4.62135e+009
4.25461e+009
3.80704e+009
3.264e+009
2.58802e+009
1.74838e+009
8.27934e+008
6.15697e+008
4.50471e+008
4.60852e+008
4.96705e+008
5.37246e+008
5.76222e+008
6.12685e+008
6.46799e+008
6.78839e+008
7.09079e+008
7.37685e+008
7.64812e+008
7.90635e+008
8.15272e+008
8.38808e+008
8.61309e+008
8.8283e+008
9.03412e+008
9.23098e+008
9.41923e+008
9.59935e+008
9.77245e+008
9.94287e+008
1.01094e+009
1.02684e+009
1.04195e+009
1.05625e+009
1.06976e+009
1.08249e+009
1.09445e+009
1.10567e+009
1.11616e+009
1.12594e+009
1.13504e+009
1.14348e+009
1.15127e+009
1.15843e+009
1.16499e+009
1.17096e+009
1.17635e+009
1.18117e+009
1.18544e+009
1.18918e+009
1.19244e+009
1.19522e+009
1.1974e+009
1.19898e+009
1.19998e+009
1.2004e+009
1.2003e+009
1.19971e+009
1.19857e+009
1.19685e+009
1.19456e+009
1.19167e+009
1.1882e+009
1.18412e+009
1.17945e+009
1.17417e+009
1.1683e+009
1.16182e+009
1.15476e+009
1.14715e+009
1.13905e+009
1.13073e+009
1.12216e+009
1.11319e+009
1.10379e+009
1.09396e+009
1.08375e+009
1.07316e+009
1.06221e+009
1.05091e+009
1.03927e+009
1.02731e+009
1.01505e+009
1.0025e+009
9.89669e+008
9.76583e+008
9.63261e+008
9.49743e+008
9.36165e+008
9.23153e+008
9.10768e+008
8.98488e+008
8.86212e+008
8.73928e+008
8.61651e+008
8.49404e+008
8.37219e+008
8.25149e+008
8.13299e+008
8.01788e+008
7.90878e+008
7.80724e+008
7.71389e+008
7.63013e+008
7.55817e+008
7.50052e+008
7.46e+008
7.43977e+008
7.44368e+008
7.47775e+008
7.55744e+008
7.68844e+008
7.86151e+008
8.0765e+008
8.33399e+008
8.633e+008
8.97446e+008
9.36309e+008
9.79079e+008
1.02532e+009
1.07457e+009
1.12615e+009
1.17966e+009
1.23489e+009
1.29158e+009
1.34945e+009
1.40832e+009
1.46797e+009
1.52824e+009
1.58903e+009
1.65023e+009
1.71177e+009
1.7736e+009
1.8357e+009
1.89809e+009
1.96089e+009
2.02451e+009
2.09053e+009
2.15899e+009
2.22805e+009
2.29735e+009
2.36678e+009
2.43627e+009
2.50575e+009
2.57515e+009
2.64441e+009
2.71344e+009
2.78218e+009
2.85054e+009
2.91851e+009
2.98636e+009
3.05371e+009
3.12019e+009
3.18556e+009
3.24959e+009
3.31207e+009
3.37293e+009
3.43203e+009
3.48923e+009
3.54438e+009
3.59731e+009
3.64784e+009
3.69582e+009
3.74107e+009
3.78341e+009
3.82267e+009
3.85865e+009
3.89117e+009
3.92005e+009
3.94508e+009
3.96607e+009
3.98281e+009
3.99511e+009
4.00273e+009
4.00547e+009
4.00311e+009
3.99541e+009
3.98214e+009
3.96309e+009
3.93808e+009
3.90721e+009
3.87172e+009
3.8389e+009
3.80354e+009
3.76333e+009
3.71723e+009
3.66462e+009
3.60495e+009
3.53768e+009
3.46221e+009
3.37796e+009
3.28412e+009
3.17972e+009
3.06324e+009
2.93222e+009
2.78645e+009
2.62939e+009
2.46333e+009
2.29241e+009
2.10659e+009
1.89886e+009
1.66946e+009
1.43058e+009
1.21312e+009
1.02333e+009
8.64942e+008
7.72679e+008
7.28707e+008
4.23217e+008
3.66792e+008
3.63769e+008
3.76161e+008
3.93607e+008
4.12618e+008
4.31866e+008
4.508e+008
4.69179e+008
4.86888e+008
5.03885e+008
5.2017e+008
5.35759e+008
5.50673e+008
5.64934e+008
5.78568e+008
5.91604e+008
6.04071e+008
6.16005e+008
6.27451e+008
6.38486e+008
6.49246e+008
6.59712e+008
6.69768e+008
6.79371e+008
6.88512e+008
6.97189e+008
7.05409e+008
7.13179e+008
7.20507e+008
7.274e+008
7.33868e+008
7.39916e+008
7.45553e+008
7.50785e+008
7.55617e+008
7.60056e+008
7.64107e+008
7.67772e+008
7.71057e+008
7.73966e+008
7.76506e+008
7.78688e+008
7.80515e+008
7.8195e+008
7.82983e+008
7.83622e+008
7.83874e+008
7.83769e+008
7.83305e+008
7.82473e+008
7.81266e+008
7.79685e+008
7.7773e+008
7.75401e+008
7.727e+008
7.6963e+008
7.66194e+008
7.62398e+008
7.58249e+008
7.53757e+008
7.48947e+008
7.43864e+008
7.38596e+008
7.33132e+008
7.27428e+008
7.21464e+008
7.15231e+008
7.08732e+008
7.01968e+008
6.94936e+008
6.87637e+008
6.80072e+008
6.72244e+008
6.64158e+008
6.55821e+008
6.47245e+008
6.38446e+008
6.29454e+008
6.20321e+008
6.11153e+008
6.02169e+008
5.93402e+008
5.84716e+008
5.76064e+008
5.67442e+008
5.58868e+008
5.50373e+008
5.41997e+008
5.33793e+008
5.25831e+008
5.18193e+008
5.11006e+008
5.04413e+008
4.98498e+008
4.93373e+008
4.89184e+008
4.86098e+008
4.84312e+008
4.84055e+008
4.85612e+008
4.89388e+008
4.9603e+008
5.05726e+008
5.18306e+008
5.33741e+008
5.52026e+008
5.7314e+008
5.97123e+008
6.23727e+008
6.52616e+008
6.83499e+008
7.16047e+008
7.49912e+008
7.8482e+008
8.20574e+008
8.57003e+008
8.9396e+008
9.31328e+008
9.69011e+008
1.00694e+009
1.04507e+009
1.08338e+009
1.12185e+009
1.1605e+009
1.19936e+009
1.23848e+009
1.27801e+009
1.31818e+009
1.35975e+009
1.40227e+009
1.44528e+009
1.48855e+009
1.53201e+009
1.57559e+009
1.61925e+009
1.66296e+009
1.70668e+009
1.75038e+009
1.79403e+009
1.83761e+009
1.88118e+009
1.92456e+009
1.96748e+009
2.00987e+009
2.0516e+009
2.09259e+009
2.13272e+009
2.17192e+009
2.21008e+009
2.24711e+009
2.28289e+009
2.31733e+009
2.35032e+009
2.38174e+009
2.41149e+009
2.43945e+009
2.46552e+009
2.48959e+009
2.51153e+009
2.53125e+009
2.54863e+009
2.56357e+009
2.57594e+009
2.58565e+009
2.59257e+009
2.59662e+009
2.59767e+009
2.59564e+009
2.59043e+009
2.58199e+009
2.57036e+009
2.55579e+009
2.53916e+009
2.52229e+009
2.504e+009
2.4834e+009
2.45987e+009
2.43295e+009
2.40222e+009
2.36723e+009
2.32749e+009
2.2824e+009
2.2312e+009
2.17293e+009
2.10636e+009
2.03009e+009
1.94338e+009
1.84647e+009
1.73956e+009
1.62216e+009
1.49672e+009
1.36479e+009
1.23277e+009
1.1135e+009
1.02528e+009
9.87413e+008
1.02245e+009
1.14999e+009
8.02767e+008
4.37259e+008
3.48222e+008
3.25323e+008
3.2357e+008
3.30362e+008
3.40975e+008
3.53328e+008
3.66405e+008
3.79671e+008
3.92829e+008
4.0571e+008
4.1822e+008
4.3031e+008
4.41955e+008
4.53146e+008
4.63887e+008
4.74188e+008
4.84068e+008
4.93548e+008
5.02662e+008
5.11452e+008
5.19975e+008
5.28232e+008
5.36177e+008
5.43788e+008
5.51055e+008
5.57975e+008
5.6455e+008
5.70783e+008
5.76679e+008
5.82241e+008
5.87474e+008
5.9238e+008
5.96963e+008
6.01226e+008
6.05171e+008
6.08801e+008
6.12116e+008
6.1512e+008
6.17812e+008
6.20196e+008
6.22273e+008
6.24046e+008
6.25513e+008
6.26669e+008
6.27503e+008
6.28018e+008
6.28224e+008
6.28129e+008
6.27734e+008
6.27038e+008
6.26042e+008
6.24748e+008
6.23156e+008
6.2127e+008
6.19094e+008
6.1663e+008
6.13885e+008
6.10863e+008
6.07573e+008
6.04025e+008
6.00236e+008
5.96234e+008
5.92055e+008
5.87697e+008
5.83144e+008
5.78387e+008
5.73417e+008
5.68233e+008
5.62831e+008
5.57209e+008
5.51365e+008
5.45299e+008
5.39013e+008
5.32509e+008
5.25794e+008
5.1888e+008
5.11784e+008
5.04532e+008
4.97169e+008
4.89762e+008
4.8241e+008
4.75139e+008
4.67914e+008
4.60721e+008
4.53566e+008
4.46469e+008
4.39459e+008
4.32575e+008
4.25865e+008
4.1939e+008
4.1322e+008
4.07442e+008
4.02179e+008
3.97518e+008
3.93565e+008
3.90442e+008
3.88291e+008
3.87277e+008
3.87589e+008
3.89451e+008
3.9313e+008
3.99005e+008
4.07143e+008
4.1755e+008
4.30226e+008
4.45165e+008
4.62351e+008
4.81674e+008
5.02905e+008
5.25835e+008
5.50233e+008
5.75858e+008
6.02474e+008
6.29882e+008
6.57921e+008
6.8646e+008
7.15392e+008
7.44638e+008
7.74137e+008
8.03849e+008
8.33752e+008
8.63839e+008
8.94117e+008
9.24608e+008
9.55352e+008
9.86413e+008
1.01789e+009
1.04993e+009
1.08278e+009
1.11624e+009
1.15009e+009
1.18424e+009
1.2186e+009
1.25312e+009
1.28779e+009
1.32255e+009
1.35739e+009
1.39227e+009
1.42718e+009
1.46212e+009
1.49701e+009
1.53165e+009
1.56595e+009
1.59984e+009
1.63324e+009
1.66607e+009
1.69825e+009
1.72971e+009
1.76035e+009
1.79011e+009
1.81889e+009
1.84661e+009
1.87317e+009
1.8985e+009
1.9225e+009
1.94508e+009
1.96617e+009
1.98566e+009
2.00349e+009
2.01955e+009
2.03378e+009
2.04608e+009
2.05639e+009
2.06462e+009
2.0707e+009
2.07457e+009
2.07616e+009
2.07542e+009
2.07232e+009
2.06685e+009
2.0591e+009
2.04928e+009
2.03788e+009
2.02543e+009
2.0116e+009
1.99598e+009
1.97823e+009
1.95804e+009
1.93509e+009
1.90904e+009
1.8795e+009
1.84597e+009
1.80788e+009
1.7645e+009
1.71499e+009
1.65853e+009
1.59453e+009
1.52289e+009
1.44389e+009
1.35833e+009
1.26831e+009
1.17967e+009
1.1001e+009
1.04165e+009
1.02225e+009
1.06959e+009
1.23006e+009
1.56725e+009
8.64263e+008
4.57934e+008
3.48199e+008
3.12793e+008
3.02219e+008
3.02366e+008
3.07771e+008
3.15913e+008
3.25492e+008
3.35782e+008
3.46358e+008
3.56961e+008
3.67433e+008
3.77676e+008
3.8763e+008
3.97261e+008
4.06555e+008
4.15506e+008
4.24121e+008
4.32412e+008
4.40398e+008
4.48104e+008
4.55557e+008
4.62762e+008
4.69698e+008
4.76353e+008
4.82718e+008
4.88791e+008
4.94571e+008
5.0006e+008
5.05259e+008
5.10172e+008
5.14799e+008
5.19142e+008
5.23205e+008
5.26986e+008
5.30489e+008
5.33714e+008
5.36661e+008
5.39331e+008
5.41726e+008
5.43845e+008
5.45689e+008
5.47259e+008
5.48555e+008
5.49573e+008
5.50312e+008
5.50773e+008
5.50959e+008
5.50876e+008
5.50525e+008
5.49908e+008
5.49026e+008
5.47883e+008
5.46481e+008
5.44823e+008
5.42912e+008
5.40754e+008
5.38354e+008
5.35717e+008
5.3285e+008
5.29764e+008
5.26471e+008
5.22987e+008
5.19335e+008
5.15512e+008
5.11515e+008
5.07337e+008
5.02974e+008
4.98423e+008
4.93681e+008
4.88746e+008
4.83616e+008
4.78293e+008
4.72776e+008
4.6707e+008
4.61181e+008
4.55119e+008
4.48902e+008
4.42552e+008
4.36103e+008
4.29602e+008
4.23105e+008
4.16634e+008
4.10185e+008
4.0376e+008
3.97372e+008
3.91041e+008
3.84797e+008
3.78676e+008
3.72724e+008
3.66995e+008
3.61556e+008
3.56482e+008
3.51874e+008
3.47827e+008
3.44439e+008
3.41825e+008
3.40114e+008
3.39454e+008
3.40006e+008
3.41954e+008
3.455e+008
3.50867e+008
3.58123e+008
3.67299e+008
3.78405e+008
3.91432e+008
4.06344e+008
4.22983e+008
4.41197e+008
4.60813e+008
4.81646e+008
5.0351e+008
5.26226e+008
5.49638e+008
5.73616e+008
5.98054e+008
6.2287e+008
6.48002e+008
6.73405e+008
6.99053e+008
7.24932e+008
7.51043e+008
7.77397e+008
8.04017e+008
8.3094e+008
8.58216e+008
8.85915e+008
9.14125e+008
9.42919e+008
9.72185e+008
1.00182e+009
1.03176e+009
1.06194e+009
1.09232e+009
1.12287e+009
1.15355e+009
1.18434e+009
1.21521e+009
1.24613e+009
1.27708e+009
1.3079e+009
1.3385e+009
1.36882e+009
1.39877e+009
1.4283e+009
1.45732e+009
1.48578e+009
1.51359e+009
1.54068e+009
1.56698e+009
1.5924e+009
1.61687e+009
1.64031e+009
1.66265e+009
1.6838e+009
1.70369e+009
1.72224e+009
1.73938e+009
1.75503e+009
1.76912e+009
1.78158e+009
1.79235e+009
1.80136e+009
1.80856e+009
1.81388e+009
1.81728e+009
1.81871e+009
1.81816e+009
1.81561e+009
1.81108e+009
1.80465e+009
1.79647e+009
1.78684e+009
1.77593e+009
1.7636e+009
1.74965e+009
1.73387e+009
1.71603e+009
1.69592e+009
1.67326e+009
1.64774e+009
1.61901e+009
1.58661e+009
1.55005e+009
1.50878e+009
1.46231e+009
1.41037e+009
1.35305e+009
1.29098e+009
1.22563e+009
1.15984e+009
1.0987e+009
1.05083e+009
1.02824e+009
1.05052e+009
1.15463e+009
1.42128e+009
1.98965e+009
9.14469e+008
4.76823e+008
3.53288e+008
3.09532e+008
2.93041e+008
2.88682e+008
2.90533e+008
2.95804e+008
3.03017e+008
3.11324e+008
3.2021e+008
3.29354e+008
3.38546e+008
3.47653e+008
3.56588e+008
3.65299e+008
3.73752e+008
3.81931e+008
3.89832e+008
3.97457e+008
4.04816e+008
4.11922e+008
4.18789e+008
4.25423e+008
4.31811e+008
4.37944e+008
4.43817e+008
4.49427e+008
4.54772e+008
4.59852e+008
4.64668e+008
4.69222e+008
4.73513e+008
4.77544e+008
4.81315e+008
4.84828e+008
4.88081e+008
4.91077e+008
4.93816e+008
4.96298e+008
4.98523e+008
5.00493e+008
5.02206e+008
5.03664e+008
5.04866e+008
5.05811e+008
5.06499e+008
5.06932e+008
5.07111e+008
5.0704e+008
5.0672e+008
5.06154e+008
5.05344e+008
5.04293e+008
5.03004e+008
5.0148e+008
4.99726e+008
4.97745e+008
4.95542e+008
4.93124e+008
4.90497e+008
4.8767e+008
4.84653e+008
4.81458e+008
4.78098e+008
4.74575e+008
4.70886e+008
4.6703e+008
4.63004e+008
4.58806e+008
4.54433e+008
4.49885e+008
4.4516e+008
4.4026e+008
4.35186e+008
4.29942e+008
4.24534e+008
4.18973e+008
4.13273e+008
4.07454e+008
4.01543e+008
3.95573e+008
3.89585e+008
3.83596e+008
3.77613e+008
3.71647e+008
3.65713e+008
3.59832e+008
3.54033e+008
3.48353e+008
3.42834e+008
3.3753e+008
3.32502e+008
3.27823e+008
3.23582e+008
3.19874e+008
3.16797e+008
3.1446e+008
3.12985e+008
3.12506e+008
3.13167e+008
3.15122e+008
3.18532e+008
3.23546e+008
3.30224e+008
3.38602e+008
3.48686e+008
3.60462e+008
3.73864e+008
3.88767e+008
4.05043e+008
4.2255e+008
4.41137e+008
4.60651e+008
4.80952e+008
5.01912e+008
5.23425e+008
5.45405e+008
5.67782e+008
5.90508e+008
6.13546e+008
6.36877e+008
6.60492e+008
6.84393e+008
7.08592e+008
7.33109e+008
7.57975e+008
7.83227e+008
8.08915e+008
8.3509e+008
8.61762e+008
8.88864e+008
9.16332e+008
9.44112e+008
9.72159e+008
1.00043e+009
1.0289e+009
1.05752e+009
1.08627e+009
1.1151e+009
1.14401e+009
1.17288e+009
1.20162e+009
1.23016e+009
1.25843e+009
1.28635e+009
1.31387e+009
1.34092e+009
1.36742e+009
1.3933e+009
1.4185e+009
1.44293e+009
1.46653e+009
1.48922e+009
1.51092e+009
1.53157e+009
1.5511e+009
1.56942e+009
1.58647e+009
1.60218e+009
1.61648e+009
1.62932e+009
1.64061e+009
1.65032e+009
1.65837e+009
1.66473e+009
1.66934e+009
1.67218e+009
1.67321e+009
1.67242e+009
1.66981e+009
1.66541e+009
1.65929e+009
1.65157e+009
1.64243e+009
1.63194e+009
1.62001e+009
1.60652e+009
1.59134e+009
1.57431e+009
1.55527e+009
1.53402e+009
1.51032e+009
1.48391e+009
1.45447e+009
1.42167e+009
1.3852e+009
1.34482e+009
1.30053e+009
1.25267e+009
1.20216e+009
1.15079e+009
1.10162e+009
1.05959e+009
1.03256e+009
1.03307e+009
1.08244e+009
1.22565e+009
1.57596e+009
2.40101e+009
9.49538e+008
4.88619e+008
3.58766e+008
3.09662e+008
2.89214e+008
2.8176e+008
2.81124e+008
2.84368e+008
2.8991e+008
2.96824e+008
3.04536e+008
3.12679e+008
3.21009e+008
3.29365e+008
3.3764e+008
3.45764e+008
3.53692e+008
3.61397e+008
3.68866e+008
3.76093e+008
3.83082e+008
3.89837e+008
3.96365e+008
4.02671e+008
4.08745e+008
4.1458e+008
4.20171e+008
4.25515e+008
4.3061e+008
4.35455e+008
4.4005e+008
4.44396e+008
4.48493e+008
4.52341e+008
4.55942e+008
4.59295e+008
4.62402e+008
4.65263e+008
4.67878e+008
4.70248e+008
4.72373e+008
4.74253e+008
4.7589e+008
4.77282e+008
4.78431e+008
4.79335e+008
4.79997e+008
4.80416e+008
4.80595e+008
4.80535e+008
4.8024e+008
4.7971e+008
4.78949e+008
4.77958e+008
4.76743e+008
4.75304e+008
4.73647e+008
4.71776e+008
4.69696e+008
4.67412e+008
4.64931e+008
4.62259e+008
4.59407e+008
4.56383e+008
4.53198e+008
4.49854e+008
4.4635e+008
4.42686e+008
4.38861e+008
4.34874e+008
4.30723e+008
4.26409e+008
4.21932e+008
4.17291e+008
4.12491e+008
4.07535e+008
4.02428e+008
3.97182e+008
3.91808e+008
3.86324e+008
3.80751e+008
3.75117e+008
3.69452e+008
3.63771e+008
3.58087e+008
3.52412e+008
3.46762e+008
3.41161e+008
3.35636e+008
3.30224e+008
3.24966e+008
3.19914e+008
3.15129e+008
3.10681e+008
3.06655e+008
3.03144e+008
3.00245e+008
2.98065e+008
2.9672e+008
2.96335e+008
2.9704e+008
2.9897e+008
3.02255e+008
3.07006e+008
3.13274e+008
3.21088e+008
3.30449e+008
3.41335e+008
3.53674e+008
3.67364e+008
3.82299e+008
3.98356e+008
4.15409e+008
4.33334e+008
4.52014e+008
4.71345e+008
4.91237e+008
5.11618e+008
5.32432e+008
5.53635e+008
5.75199e+008
5.97108e+008
6.19355e+008
6.41942e+008
6.64879e+008
6.88185e+008
7.11883e+008
7.36001e+008
7.60573e+008
7.85635e+008
8.11167e+008
8.37122e+008
8.63453e+008
8.90114e+008
9.17066e+008
9.44268e+008
9.71681e+008
9.99269e+008
1.02699e+009
1.05481e+009
1.08269e+009
1.1105e+009
1.13818e+009
1.16567e+009
1.19288e+009
1.21976e+009
1.24623e+009
1.27223e+009
1.29768e+009
1.32252e+009
1.34666e+009
1.37005e+009
1.39261e+009
1.41427e+009
1.43495e+009
1.45458e+009
1.4731e+009
1.49043e+009
1.50651e+009
1.52126e+009
1.53464e+009
1.54657e+009
1.557e+009
1.56587e+009
1.57314e+009
1.57876e+009
1.5827e+009
1.58492e+009
1.58542e+009
1.58417e+009
1.5812e+009
1.57654e+009
1.57025e+009
1.56242e+009
1.55318e+009
1.54256e+009
1.53049e+009
1.5169e+009
1.5017e+009
1.48479e+009
1.46605e+009
1.44532e+009
1.42245e+009
1.39725e+009
1.36951e+009
1.33905e+009
1.30572e+009
1.26948e+009
1.23054e+009
1.18944e+009
1.1473e+009
1.10603e+009
1.06868e+009
1.04005e+009
1.02757e+009
1.04372e+009
1.11121e+009
1.28035e+009
1.67858e+009
2.76597e+009
9.66692e+008
4.91005e+008
3.62836e+008
3.1074e+008
2.87794e+008
2.78277e+008
2.75938e+008
2.77771e+008
2.82141e+008
2.88077e+008
2.94969e+008
3.02418e+008
3.10158e+008
3.18009e+008
3.25847e+008
3.33591e+008
3.41185e+008
3.48595e+008
3.558e+008
3.62789e+008
3.69558e+008
3.76109e+008
3.82443e+008
3.88563e+008
3.94459e+008
4.00126e+008
4.05559e+008
4.10753e+008
4.15707e+008
4.2042e+008
4.2489e+008
4.29118e+008
4.33104e+008
4.36847e+008
4.40349e+008
4.4361e+008
4.46631e+008
4.49412e+008
4.51955e+008
4.54258e+008
4.56324e+008
4.58153e+008
4.59745e+008
4.611e+008
4.62219e+008
4.63102e+008
4.63751e+008
4.64166e+008
4.64349e+008
4.64301e+008
4.64025e+008
4.63522e+008
4.62795e+008
4.61847e+008
4.6068e+008
4.59298e+008
4.57705e+008
4.55904e+008
4.53901e+008
4.51701e+008
4.49309e+008
4.46734e+008
4.43982e+008
4.41062e+008
4.37983e+008
4.34747e+008
4.31355e+008
4.27808e+008
4.24106e+008
4.20248e+008
4.16235e+008
4.12067e+008
4.07744e+008
4.03268e+008
3.98642e+008
3.9387e+008
3.88959e+008
3.83916e+008
3.78754e+008
3.73487e+008
3.68134e+008
3.62717e+008
3.57263e+008
3.51785e+008
3.46295e+008
3.40807e+008
3.35339e+008
3.29913e+008
3.24557e+008
3.19307e+008
3.14205e+008
3.09301e+008
3.04656e+008
3.0034e+008
2.96436e+008
2.93035e+008
2.90234e+008
2.8814e+008
2.86863e+008
2.86523e+008
2.87238e+008
2.89128e+008
2.92305e+008
2.96854e+008
3.02817e+008
3.10215e+008
3.19042e+008
3.2927e+008
3.40832e+008
3.53642e+008
3.67606e+008
3.82622e+008
3.98581e+008
4.15381e+008
4.32923e+008
4.5112e+008
4.69897e+008
4.89193e+008
5.08959e+008
5.2916e+008
5.4977e+008
5.70776e+008
5.92172e+008
6.13961e+008
6.36151e+008
6.58758e+008
6.81798e+008
7.05295e+008
7.29272e+008
7.53755e+008
7.78712e+008
8.04105e+008
8.29893e+008
8.56036e+008
8.82493e+008
9.09223e+008
9.36185e+008
9.63336e+008
9.90632e+008
1.01803e+009
1.04545e+009
1.07281e+009
1.10004e+009
1.12706e+009
1.15381e+009
1.18022e+009
1.2062e+009
1.23171e+009
1.25665e+009
1.28096e+009
1.30456e+009
1.32739e+009
1.34937e+009
1.37043e+009
1.3905e+009
1.4095e+009
1.42738e+009
1.44405e+009
1.45946e+009
1.47354e+009
1.48622e+009
1.49746e+009
1.50719e+009
1.51537e+009
1.52194e+009
1.52688e+009
1.53015e+009
1.53172e+009
1.5316e+009
1.52977e+009
1.52626e+009
1.5211e+009
1.51436e+009
1.50611e+009
1.49646e+009
1.4854e+009
1.4729e+009
1.4589e+009
1.44336e+009
1.4262e+009
1.40734e+009
1.38669e+009
1.36413e+009
1.33956e+009
1.31285e+009
1.28394e+009
1.2528e+009
1.21955e+009
1.18453e+009
1.14845e+009
1.11249e+009
1.07862e+009
1.04982e+009
1.03071e+009
1.02848e+009
1.05542e+009
1.13545e+009
1.32265e+009
1.74462e+009
3.08275e+009
9.70069e+008
4.87657e+008
3.65248e+008
3.11801e+008
2.87423e+008
2.76631e+008
2.732e+008
2.74113e+008
2.77709e+008
2.82997e+008
2.89345e+008
2.96338e+008
3.03694e+008
3.11219e+008
3.18782e+008
3.2629e+008
3.33683e+008
3.4092e+008
3.47974e+008
3.54831e+008
3.61483e+008
3.67926e+008
3.74161e+008
3.80187e+008
3.85995e+008
3.9158e+008
3.96935e+008
4.02057e+008
4.06942e+008
4.1159e+008
4.15999e+008
4.20167e+008
4.24097e+008
4.27786e+008
4.31237e+008
4.3445e+008
4.37425e+008
4.40164e+008
4.42668e+008
4.44936e+008
4.46971e+008
4.48772e+008
4.50341e+008
4.51677e+008
4.52783e+008
4.53658e+008
4.54303e+008
4.5472e+008
4.54909e+008
4.54873e+008
4.54613e+008
4.54131e+008
4.53429e+008
4.5251e+008
4.51376e+008
4.50031e+008
4.48479e+008
4.46722e+008
4.44767e+008
4.42617e+008
4.40279e+008
4.3776e+008
4.35067e+008
4.32207e+008
4.2919e+008
4.26016e+008
4.22689e+008
4.1921e+008
4.1558e+008
4.11799e+008
4.07867e+008
4.03787e+008
3.99559e+008
3.95185e+008
3.90668e+008
3.86012e+008
3.81224e+008
3.76311e+008
3.71285e+008
3.66157e+008
3.60945e+008
3.55668e+008
3.50348e+008
3.44999e+008
3.39632e+008
3.34262e+008
3.28905e+008
3.23583e+008
3.18325e+008
3.13166e+008
3.08146e+008
3.03319e+008
2.98745e+008
2.94493e+008
2.90647e+008
2.87298e+008
2.84543e+008
2.82486e+008
2.81239e+008
2.80913e+008
2.81621e+008
2.83469e+008
2.86556e+008
2.9095e+008
2.96686e+008
3.03774e+008
3.12203e+008
3.21942e+008
3.32929e+008
3.45091e+008
3.58344e+008
3.72598e+008
3.87764e+008
4.03752e+008
4.2048e+008
4.37875e+008
4.55873e+008
4.7442e+008
4.93477e+008
5.13012e+008
5.33004e+008
5.53441e+008
5.74319e+008
5.95638e+008
6.17407e+008
6.39638e+008
6.62346e+008
6.85549e+008
7.09265e+008
7.33511e+008
7.58253e+008
7.83457e+008
8.09083e+008
8.35091e+008
8.61441e+008
8.88088e+008
9.14988e+008
9.42092e+008
9.69349e+008
9.96705e+008
1.02408e+009
1.05139e+009
1.07856e+009
1.10552e+009
1.1322e+009
1.15851e+009
1.18439e+009
1.20976e+009
1.23455e+009
1.25868e+009
1.28208e+009
1.30467e+009
1.32637e+009
1.34713e+009
1.36686e+009
1.3855e+009
1.40296e+009
1.4192e+009
1.43414e+009
1.44771e+009
1.45987e+009
1.47054e+009
1.47968e+009
1.48724e+009
1.49318e+009
1.49746e+009
1.50006e+009
1.50096e+009
1.50015e+009
1.49766e+009
1.49349e+009
1.48769e+009
1.48031e+009
1.47144e+009
1.46118e+009
1.4495e+009
1.43637e+009
1.42179e+009
1.4057e+009
1.38807e+009
1.36886e+009
1.34801e+009
1.32546e+009
1.30116e+009
1.27506e+009
1.24719e+009
1.21761e+009
1.18654e+009
1.15444e+009
1.12207e+009
1.09065e+009
1.06213e+009
1.03939e+009
1.02686e+009
1.03157e+009
1.06579e+009
1.15394e+009
1.35478e+009
1.79372e+009
3.35456e+009
9.66375e+008
4.83047e+008
3.66482e+008
3.1258e+008
2.87499e+008
2.76043e+008
2.72027e+008
2.72436e+008
2.75605e+008
2.80531e+008
2.86576e+008
2.93314e+008
3.00457e+008
3.07806e+008
3.15223e+008
3.22612e+008
3.29908e+008
3.37066e+008
3.44057e+008
3.50863e+008
3.57474e+008
3.63883e+008
3.70088e+008
3.76089e+008
3.81875e+008
3.87441e+008
3.92778e+008
3.97884e+008
4.02755e+008
4.07387e+008
4.11781e+008
4.15934e+008
4.19848e+008
4.23522e+008
4.26957e+008
4.30154e+008
4.33114e+008
4.35838e+008
4.38327e+008
4.40583e+008
4.42607e+008
4.44399e+008
4.4596e+008
4.47293e+008
4.48396e+008
4.49272e+008
4.4992e+008
4.50343e+008
4.50542e+008
4.50517e+008
4.5027e+008
4.49804e+008
4.4912e+008
4.48221e+008
4.47108e+008
4.45786e+008
4.44257e+008
4.42525e+008
4.40595e+008
4.38471e+008
4.3616e+008
4.33668e+008
4.31003e+008
4.28171e+008
4.25182e+008
4.22037e+008
4.18741e+008
4.15294e+008
4.11698e+008
4.07954e+008
4.04065e+008
4.0003e+008
3.95852e+008
3.91534e+008
3.87077e+008
3.82488e+008
3.7777e+008
3.72933e+008
3.67985e+008
3.62938e+008
3.57808e+008
3.52612e+008
3.47371e+008
3.42096e+008
3.36797e+008
3.3149e+008
3.2619e+008
3.20919e+008
3.15704e+008
3.1058e+008
3.05589e+008
3.00784e+008
2.96226e+008
2.91987e+008
2.8815e+008
2.84808e+008
2.82059e+008
2.80008e+008
2.78764e+008
2.78434e+008
2.79126e+008
2.80938e+008
2.83956e+008
2.8824e+008
2.93813e+008
3.0068e+008
3.08824e+008
3.1821e+008
3.28782e+008
3.40476e+008
3.53215e+008
3.66922e+008
3.81519e+008
3.9693e+008
4.13085e+008
4.2992e+008
4.47385e+008
4.6543e+008
4.84021e+008
5.03133e+008
5.22747e+008
5.42853e+008
5.63446e+008
5.84528e+008
6.06106e+008
6.2819e+008
6.50794e+008
6.73933e+008
6.97623e+008
7.21875e+008
7.46658e+008
7.71935e+008
7.97669e+008
8.23818e+008
8.50339e+008
8.77185e+008
9.04306e+008
9.31649e+008
9.59156e+008
9.86762e+008
1.01439e+009
1.04195e+009
1.06937e+009
1.09656e+009
1.12346e+009
1.14998e+009
1.17604e+009
1.20156e+009
1.22647e+009
1.25068e+009
1.27412e+009
1.29671e+009
1.31838e+009
1.33906e+009
1.35866e+009
1.37712e+009
1.39437e+009
1.41033e+009
1.42495e+009
1.43816e+009
1.44989e+009
1.4601e+009
1.46873e+009
1.47574e+009
1.48108e+009
1.48472e+009
1.48665e+009
1.48685e+009
1.48532e+009
1.48208e+009
1.47716e+009
1.47061e+009
1.46248e+009
1.45287e+009
1.44185e+009
1.4294e+009
1.41553e+009
1.40021e+009
1.38343e+009
1.36519e+009
1.34545e+009
1.32421e+009
1.30145e+009
1.27716e+009
1.25137e+009
1.22414e+009
1.19563e+009
1.16612e+009
1.13611e+009
1.10638e+009
1.07816e+009
1.0533e+009
1.03452e+009
1.026e+009
1.0345e+009
1.07209e+009
1.1635e+009
1.36981e+009
1.82424e+009
3.53632e+009
9.67769e+008
4.83788e+008
3.67127e+008
3.13044e+008
2.87797e+008
2.76195e+008
2.72047e+008
2.72337e+008
2.754e+008
2.80232e+008
2.86196e+008
2.92868e+008
2.99958e+008
3.07268e+008
3.14658e+008
3.22032e+008
3.29323e+008
3.36486e+008
3.43489e+008
3.50315e+008
3.56949e+008
3.63387e+008
3.69624e+008
3.75657e+008
3.81478e+008
3.87077e+008
3.92449e+008
3.97586e+008
4.02487e+008
4.07147e+008
4.11565e+008
4.15741e+008
4.19673e+008
4.23364e+008
4.26812e+008
4.30021e+008
4.3299e+008
4.35723e+008
4.38219e+008
4.40482e+008
4.42511e+008
4.4431e+008
4.45878e+008
4.47217e+008
4.48328e+008
4.49212e+008
4.4987e+008
4.50303e+008
4.50512e+008
4.50498e+008
4.50264e+008
4.49809e+008
4.49137e+008
4.48249e+008
4.47147e+008
4.45834e+008
4.44314e+008
4.4259e+008
4.40666e+008
4.38548e+008
4.36241e+008
4.33751e+008
4.31087e+008
4.28257e+008
4.25267e+008
4.22123e+008
4.18827e+008
4.15381e+008
4.11788e+008
4.0805e+008
4.04167e+008
4.00142e+008
3.95977e+008
3.91675e+008
3.87239e+008
3.82672e+008
3.77981e+008
3.73172e+008
3.68254e+008
3.6324e+008
3.58142e+008
3.52977e+008
3.47764e+008
3.42515e+008
3.37239e+008
3.31948e+008
3.26658e+008
3.2139e+008
3.1617e+008
3.11033e+008
3.06022e+008
3.01191e+008
2.96602e+008
2.9233e+008
2.88461e+008
2.85088e+008
2.82314e+008
2.80242e+008
2.78982e+008
2.7864e+008
2.79316e+008
2.81103e+008
2.84081e+008
2.88299e+008
2.93774e+008
3.00504e+008
3.08467e+008
3.17624e+008
3.27925e+008
3.39306e+008
3.51702e+008
3.65044e+008
3.79262e+008
3.94291e+008
4.10072e+008
4.2655e+008
4.43681e+008
4.61424e+008
4.7975e+008
4.98635e+008
5.18065e+008
5.38031e+008
5.58528e+008
5.79559e+008
6.0113e+008
6.2325e+008
6.45932e+008
6.69191e+008
6.93042e+008
7.17497e+008
7.42525e+008
7.68089e+008
7.9415e+008
8.20664e+008
8.47584e+008
8.7486e+008
9.02438e+008
9.3026e+008
9.58261e+008
9.86371e+008
1.01451e+009
1.04259e+009
1.07052e+009
1.09822e+009
1.1256e+009
1.15258e+009
1.17907e+009
1.20499e+009
1.23026e+009
1.25479e+009
1.2785e+009
1.30131e+009
1.32315e+009
1.34394e+009
1.3636e+009
1.38206e+009
1.39925e+009
1.4151e+009
1.42953e+009
1.4425e+009
1.45392e+009
1.46376e+009
1.47195e+009
1.47846e+009
1.48324e+009
1.48626e+009
1.48752e+009
1.48699e+009
1.4847e+009
1.48066e+009
1.47492e+009
1.46752e+009
1.45855e+009
1.44808e+009
1.4362e+009
1.42289e+009
1.40815e+009
1.39198e+009
1.37439e+009
1.35539e+009
1.33498e+009
1.31318e+009
1.29001e+009
1.26551e+009
1.23974e+009
1.21282e+009
1.18494e+009
1.15642e+009
1.12777e+009
1.09975e+009
1.07355e+009
1.05084e+009
1.0341e+009
1.02711e+009
1.03592e+009
1.07137e+009
1.15579e+009
1.34581e+009
1.78632e+009
3.34826e+009
9.74275e+008
4.89948e+008
3.67171e+008
3.13168e+008
2.88299e+008
2.77072e+008
2.73251e+008
2.73809e+008
2.77089e+008
2.82098e+008
2.88207e+008
2.95001e+008
3.02198e+008
3.09605e+008
3.17087e+008
3.2455e+008
3.31929e+008
3.3918e+008
3.46273e+008
3.53188e+008
3.59913e+008
3.66441e+008
3.72769e+008
3.78894e+008
3.84804e+008
3.90492e+008
3.95947e+008
4.01165e+008
4.06141e+008
4.10871e+008
4.15353e+008
4.19587e+008
4.23573e+008
4.27312e+008
4.30804e+008
4.34051e+008
4.37056e+008
4.39819e+008
4.42344e+008
4.44632e+008
4.46685e+008