/*--------------------------------*- C++ -*----------------------------------*\
| =========                 |                                                 |
| \\      /  F ield         | OpenFOAM: The Open Source CFD Toolbox           |
|  \\    /   O peration     | Version:  5.x                                   |
|   \\  /    A nd           | Web:      www.OpenFOAM.org                      |
|    \\/     M anipulation  |                                                 |
\*---------------------------------------------------------------------------*/
/*   Windows 32 and 64 bit porting by blueCAPE: http://www.bluecape.com.pt   *\
|  Based on Windows porting (2.0.x v4) by Symscape: http://www.symscape.com   |
\*---------------------------------------------------------------------------*/
FoamFile
{
    version     2.0;
    format      ascii;
    class       surfaceScalarField;
    location    "3000";
    object      phi;
}
// * * * * * * * * * * * * * * * * * * * * * * * * * * * * * * * * * * * * * //

dimensions      [0 3 -1 0 0 0 0];

internalField   nonuniform List<scalar> 
7780
(
0.577353
-0.577303
1.12661
-0.549252
1.39364
-0.267032
1.3682
0.0254387
1.11401
0.254193
0.697899
0.416107
0.161494
0.536405
-0.470754
0.632248
-1.17724
0.706489
-1.9396
0.762358
-2.73125
0.791647
-3.52407
0.79282
-4.29665
0.772578
-5.03011
0.733459
-5.70767
0.677564
-6.3151
0.607431
-6.84088
0.525784
-7.27634
0.435458
-7.61585
0.339506
-7.85684
0.240992
-7.99899
0.142152
-8.04227
0.0432798
-7.99045
-0.0518204
-7.85516
-0.135295
-7.64849
-0.20667
-7.38108
-0.267402
-7.06455
-0.316536
-6.7112
-0.353347
-6.33346
-0.377739
-5.94348
-0.389978
-5.55274
-0.390745
-5.17172
-0.381017
-4.8097
-0.362023
-4.47447
-0.335227
-4.17224
-0.30223
-3.90752
-0.264721
-3.68309
-0.224431
-3.4999
-0.18319
-3.35647
-0.143431
-3.25033
-0.106139
-3.17905
-0.0712754
-3.13857
-0.040482
-3.12436
-0.0142089
-3.12944
0.00507362
-3.14626
0.0168268
-3.16727
0.0210099
-3.18653
0.0192602
-3.20117
0.0146354
-3.20663
0.00546195
-3.19636
-0.0102674
-3.16432
-0.0320442
-3.10921
-0.0551065
-3.03157
-0.07764
-2.93239
-0.0991815
-2.81392
-0.118469
-2.67984
-0.134082
-2.53506
-0.144782
-2.38487
-0.150186
-2.23591
-0.148958
-2.09707
-0.138845
-1.97864
-0.118428
-1.88801
-0.0906263
-1.83082
-0.0571933
-1.81727
-0.013555
-1.85477
0.0375095
-1.94937
0.094598
-2.10692
0.157545
-2.32752
0.220598
-2.60949
0.281977
-2.95251
0.34302
-3.35278
0.400273
-3.80275
0.449965
-4.29198
0.489235
-4.80745
0.515465
-5.3338
0.526355
-5.85377
0.519961
-6.34844
0.49468
-6.79794
0.449496
-7.18197
0.384034
-7.48063
0.298655
-7.6741
0.193471
-7.73967
0.0655721
-7.65744
-0.0822315
-7.41958
-0.237864
-7.02138
-0.3982
-6.45774
-0.563635
-5.72775
-0.729992
-4.83516
-0.892586
-3.78942
-1.04575
-2.6134
-1.17602
-1.34275
-1.27065
0.00208566
-1.34483
1.4081
-1.40602
2.84586
-1.43776
4.30215
-1.45629
5.74005
-1.4379
7.10205
-1.362
8.34866
-1.24662
9.44372
-1.09506
10.3524
-0.908645
11.042
-0.689672
11.4809
-0.438825
11.6304
-0.149562
11.4484
0.181983
10.9197
0.528792
10.0347
0.884981
8.7791
1.25557
7.1463
1.6328
5.1627
1.9836
2.86172
2.30097
0.258104
2.60362
-2.64403
2.90213
-5.8426
3.19857
-9.30985
3.46726
-12.9685
3.65869
-16.7366
3.7681
-20.5535
3.81686
-24.3604
3.80691
-28.1015
3.74112
-31.7251
3.62353
-35.1802
3.45518
-38.4192
3.23896
-41.3976
2.97839
-44.075
2.67738
-46.415
2.34008
-48.3858
1.97076
-49.9591
1.57328
-51.1096
1.15049
-51.8142
0.704647
-52.0383
0.224124
-51.7649
-0.273445
-51.0046
-0.760326
-49.7633
-1.24127
-48.0372
-1.72609
-45.8258
-2.21139
-43.1319
-2.69388
-39.9612
-3.17076
-36.3214
-3.63981
-32.222
-4.09941
-27.6746
-4.54738
-22.6971
-4.97752
-17.3346
-5.36249
-11.6864
-5.64817
-5.76593
-5.92047
0.473629
-6.23956
7.00757
-6.53394
13.9119
-6.90436
21.1517
-7.23977
28.6042
-7.45253
36.2325
-7.62825
44.0136
-7.78112
51.9254
-7.91184
59.9453
-8.01989
68.0502
-8.10485
76.2167
-8.16648
84.4212
-8.20455
92.6398
-8.21861
100.847
-8.2075
109.017
-8.1695
117.119
-8.10239
125.122
-8.00327
132.991
-7.86858
140.685
-7.69396
148.159
-7.47429
155.363
-7.20363
162.238
-6.87524
168.72
-6.48167
174.735
-6.01479
180.201
-5.46612
185.028
-4.82715
189.117
-4.0891
192.361
-3.24438
194.647
-2.28546
195.834
-1.18666
195.729
0.104679
194.174
1.5553
191.05
3.1236
186.241
4.80911
179.619
6.62155
171.061
8.55825
160.455
10.606
147.711
12.7444
132.763
14.9472
115.57
17.193
96.1462
19.4242
74.5927
21.5534
51.2029
23.3898
26.7493
24.4537
2.18198
24.5673
-22.4432
24.6251
-46.9808
24.5377
-70.2567
23.2759
-90.7654
20.5087
-106.96
16.195
-117.484
10.5239
-121.147
3.66261
-117.694
-3.45307
-108.639
-9.05472
-96.9168
-11.7223
-7.53911
0.48726
-1.06451
0.592235
-0.654228
0.553027
-0.227824
0.40654
0.171926
0.154148
0.506585
-0.203006
0.773261
-0.65168
0.985078
-1.17128
1.15185
-1.74231
1.27752
-2.34433
1.36439
-2.96297
1.41028
-3.5849
1.41476
-4.19386
1.38154
-4.7747
1.3143
-5.31395
1.21681
-5.79994
1.09343
-6.22307
0.948907
-6.57598
0.788367
-6.8536
0.617125
-7.05305
0.440449
-7.17405
0.263146
-7.22025
0.0894857
-7.19692
-0.0751525
-7.1076
-0.22461
-6.95848
-0.355794
-6.75851
-0.467371
-6.51718
-0.557869
-6.2442
-0.626327
-5.94937
-0.672571
-5.64225
-0.697099
-5.33193
-0.701068
-5.02675
-0.686189
-4.73413
-0.654644
-4.46035
-0.60901
-4.21044
-0.552136
-3.98812
-0.487048
-3.79569
-0.416855
-3.63418
-0.344701
-3.5039
-0.273715
-3.40371
-0.206331
-3.33045
-0.144529
-3.28032
-0.0906154
-3.24995
-0.0445803
-3.23503
-0.00984855
-3.2301
0.0119011
-3.23072
0.0216258
-3.23251
0.0210529
-3.23005
0.0121772
-3.21901
-0.00557551
-3.19724
-0.0320364
-3.16313
-0.0661616
-3.1139
-0.104332
-3.04876
-0.142783
-2.96839
-0.179555
-2.87455
-0.212307
-2.76998
-0.238651
-2.65837
-0.256392
-2.54487
-0.263683
-2.43529
-0.258536
-2.3352
-0.238938
-2.25022
-0.203404
-2.18628
-0.154575
-2.15129
-0.0921753
-2.15121
-0.0136404
-2.19105
0.077355
-2.27426
0.1778
-2.40311
0.286403
-2.58099
0.398472
-2.80878
0.509773
-3.08318
0.617411
-3.39968
0.716774
-3.75238
0.802669
-4.13329
0.870148
-4.5324
0.914568
-4.93778
0.931736
-5.33588
0.918059
-5.71189
0.870696
-6.05011
0.787712
-6.33427
0.668194
-6.54791
0.512294
-6.67531
0.320876
-6.70507
0.0953309
-6.628
-0.159306
-6.43146
-0.434397
-6.10649
-0.723169
-5.65048
-1.01965
-5.06444
-1.31603
-4.3537
-1.60332
-3.52825
-1.8712
-2.59735
-2.10692
-1.56753
-2.30047
-0.459528
-2.45283
0.695281
-2.56083
1.87316
-2.61564
3.03371
-2.61684
4.1486
-2.55278
5.19797
-2.41137
6.14789
-2.19654
6.96381
-1.91098
7.6124
-1.55724
8.06161
-1.13888
8.2819
-0.659111
8.25169
-0.119351
7.95989
0.473781
7.38541
1.10327
6.51352
1.75687
5.34408
2.42501
3.88483
3.09206
2.13288
3.73555
0.0894778
4.34437
-2.22472
4.91782
-4.76779
5.4452
-7.48361
5.91439
-10.3246
6.30829
-13.2662
6.60023
-16.2773
6.77918
-19.3098
6.8494
-22.3171
6.81419
-25.2534
6.67749
-28.0734
6.44352
-30.7352
6.11697
-33.1997
5.70347
-35.4307
5.20932
-37.3946
4.64131
-39.061
4.00649
-40.4021
3.31187
-41.393
2.56419
-42.0123
1.76971
-42.2416
0.933999
-42.0795
0.061962
-41.5195
-0.833442
-40.5422
-1.7376
-39.1376
-2.6459
-37.3067
-3.55695
-35.0522
-4.46592
-32.3789
-5.36718
-29.2945
-6.25507
-25.8104
-7.12394
-21.9419
-7.96797
-17.7091
-8.78015
-13.1354
-9.55125
-8.23252
-10.2653
-2.97254
-10.9081
2.62448
-11.5175
8.49728
-12.1124
14.6374
-12.6741
20.9558
-13.2228
27.4389
-13.7229
34.1181
-14.1318
40.9632
-14.4733
47.9418
-14.7597
55.0256
-14.9956
62.1891
-15.1834
69.408
-15.3238
76.6588
-15.4173
83.9181
-15.4638
91.1618
-15.4623
98.3649
-15.4107
105.501
-15.3059
112.543
-15.1437
119.458
-14.919
126.215
-14.6252
132.776
-14.2545
139.099
-13.7977
145.139
-13.244
150.846
-12.5816
156.161
-11.7972
161.023
-10.8768
165.362
-9.80522
169.102
-8.56723
172.161
-7.14726
174.446
-5.53019
175.862
-3.7009
176.312
-1.63684
175.725
0.691709
174.008
3.27263
171.044
6.08696
166.728
9.1249
160.973
12.3775
153.704
15.8272
144.865
19.4442
134.424
23.1857
122.378
26.993
108.78
30.791
93.7277
34.4768
77.3813
37.8998
59.9363
40.8349
41.3916
42.9983
21.7214
44.2375
1.79155
44.555
-17.4297
43.7589
-35.6657
41.5119
-52.6207
37.4636
-67.8963
31.4706
-80.8915
23.5191
-91.0038
13.7748
-97.4162
2.95937
-98.9908
-7.4801
-96.1303
-14.5827
-11.4134
0.209271
-1.27373
0.168846
-0.613802
0.0375741
-0.0965526
-0.151527
0.361027
-0.400771
0.755828
-0.714684
1.08717
-1.08938
1.35977
-1.51519
1.57766
-1.98023
1.74256
-2.47103
1.85518
-2.97553
1.91479
-3.48254
1.92177
-3.97993
1.87892
-4.45581
1.79018
-4.89928
1.66028
-5.30072
1.49487
-5.65213
1.30032
-5.94729
1.08353
-6.18184
0.851674
-6.35337
0.611977
-6.46162
0.371394
-6.50866
0.136531
-6.49786
-0.0859491
-6.43278
-0.289697
-6.3184
-0.470173
-6.16142
-0.624352
-5.96928
-0.750009
-5.74977
-0.845837
-5.5108
-0.911534
-5.26017
-0.947734
-5.00528
-0.955958
-4.75299
-0.938475
-4.50943
-0.898205
-4.27982
-0.838618
-4.0684
-0.763555
-3.87835
-0.677105
-3.71174
-0.583459
-3.56967
-0.486778
-3.45232
-0.391057
-3.35883
-0.299823
-3.28718
-0.21618
-3.23463
-0.143169
-3.19765
-0.0815617
-3.17333
-0.0341683
-3.15808
-0.00334438
-3.14862
0.0121654
-3.14089
0.013321
-3.13014
0.00143326
-3.11306
-0.0226565
-3.08762
-0.0574778
-3.05297
-0.10081
-3.00796
-0.149349
-2.95152
-0.199214
-2.88403
-0.247048
-2.80683
-0.289511
-2.72214
-0.323341
-2.63302
-0.34551
-2.54342
-0.353279
-2.45779
-0.344174
-2.38053
-0.316192
-2.31565
-0.26828
-2.26877
-0.201463
-2.24601
-0.114929
-2.25198
-0.00767166
-2.29039
0.115764
-2.36377
0.251184
-2.47406
0.396691
-2.62292
0.547329
-2.81079
0.697641
-3.03558
0.842203
-3.29363
0.974823
-3.57988
1.08892
-3.88771
1.17798
-4.20892
1.23578
-4.53385
1.25667
-4.85157
1.23578
-5.15013
1.16926
-5.41687
1.05444
-5.63875
0.890074
-5.80284
0.676384
-5.89712
0.415158
-5.91163
0.109847
-5.83754
-0.2334
-5.66601
-0.605924
-5.39056
-0.998623
-5.00841
-1.4018
-4.52007
-1.80438
-3.92925
-2.19414
-3.24251
-2.55794
-2.46737
-2.88207
-1.61334
-3.15449
-0.698412
-3.36776
0.254714
-3.51395
1.2227
-3.58363
2.17634
-3.57048
3.08867
-3.46511
3.93678
-3.25947
4.69303
-2.9528
5.32836
-2.54631
5.81421
-2.04309
6.12344
-1.44811
6.232
-0.767671
6.12217
-0.00951862
5.78135
0.814601
5.197
1.68762
4.36167
2.5922
3.27615
3.51053
1.94615
4.42205
0.37743
5.30427
-1.41762
6.13942
-3.41337
6.91357
-5.57776
7.60959
-7.87369
8.21032
-10.2633
8.69791
-12.7167
9.05365
-15.205
9.26739
-17.693
9.33745
-20.1442
9.26537
-22.5217
9.05499
-24.7895
8.71128
-26.9132
8.24068
-28.8604
7.65069
-30.6007
6.94966
-32.1059
6.14652
-33.35
5.25059
-34.3095
4.2713
-34.9633
3.218
-35.2937
2.10011
-35.2868
0.927163
-34.934
-0.290876
-34.2258
-1.54161
-33.1511
-2.81229
-31.7029
-4.0941
-29.88
-5.37988
-27.6843
-6.66163
-25.1204
-7.93106
-22.1958
-9.17972
-18.9206
-10.3992
-15.3077
-11.5808
-11.3721
-12.7158
-7.12835
-13.795
-2.58482
-14.8089
2.25972
-15.7527
7.38164
-16.6394
12.7444
-17.4752
18.3231
-18.2527
24.0741
-18.9738
29.9723
-19.6211
36.0177
-20.1771
42.1925
-20.6482
48.4731
-21.0403
54.8351
-21.3576
61.2551
-21.6034
67.7104
-21.779
74.1782
-21.8852
80.636
-21.9216
87.0608
-21.8871
93.4289
-21.7788
99.7152
-21.5921
105.893
-21.3216
111.934
-20.9598
117.807
-20.498
123.477
-19.9253
128.909
-19.2293
134.061
-18.3956
138.887
-17.4081
143.339
-16.2493
147.363
-14.9004
150.9
-13.3421
153.887
-11.5543
156.257
-9.51742
157.939
-7.21201
158.857
-4.61932
158.939
-1.71911
158.127
1.50401
156.353
5.04668
153.544
8.89566
149.634
13.0353
144.567
17.4442
138.304
22.09
130.823
26.9261
122.12
31.8883
112.221
36.892
101.183
41.8287
89.1009
46.5593
76.0942
50.9065
62.282
54.647
47.7473
57.533
32.6326
59.3523
17.2499
59.9376
1.93778
59.0711
-13.0398
56.4895
-27.5159
51.9398
-41.3082
45.2629
-54.2071
36.418
-65.9646
25.5323
-76.1046
13.0994
-83.6254
0.0406222
-87.138
-11.0701
-11.909
-0.047767
-1.22592
-0.152828
-0.508741
-0.30732
0.0579395
-0.497192
0.550899
-0.725004
0.98364
-0.995047
1.35722
-1.30715
1.67188
-1.6568
1.92731
-2.03674
2.1225
-2.43793
2.25637
-2.85114
2.32799
-3.26705
2.33768
-3.676
2.28787
-4.06846
2.18263
-4.43548
2.02731
-4.76913
1.82852
-5.06268
1.59387
-5.31084
1.33168
-5.50984
1.05068
-5.65756
0.759697
-5.75355
0.467376
-5.79898
0.181962
-5.7962
-0.0887275
-5.74827
-0.337632
-5.65928
-0.559154
-5.53448
-0.749158
-5.37977
-0.904721
-5.20145
-1.02415
-5.00598
-1.107
-4.79975
-1.15397
-4.58886
-1.16685
-4.37898
-1.14835
-4.17523
-1.10196
-3.98198
-1.03187
-3.80281
-0.942726
-3.64044
-0.83947
-3.49673
-0.727167
-3.37268
-0.610829
-3.26849
-0.495248
-3.18352
-0.384791
-3.11637
-0.283333
-3.06528
-0.194256
-3.02703
-0.119813
-2.99896
-0.0622407
-2.97896
-0.0233444
-2.96393
-0.00286156
-2.95056
-5.46683e-005
-2.93554
-0.0135857
-2.91632
-0.0418785
-2.89104
-0.0827505
-2.85857
-0.133281
-2.81813
-0.189788
-2.76925
-0.248101
-2.71221
-0.304083
-2.64809
-0.353629
-2.57868
-0.39276
-2.50639
-0.417795
-2.43431
-0.425359
-2.36592
-0.412566
-2.30484
-0.377273
-2.25483
-0.318288
-2.22038
-0.235906
-2.20561
-0.1297
-2.21395
0.0006679
-2.2484
0.150213
-2.31158
0.314362
-2.40511
0.490221
-2.52989
0.67211
-2.6858
0.853546
-2.87118
1.02759
-3.08308
1.18672
-3.31728
1.32312
-3.5683
1.42899
-3.82938
1.49686
-4.09262
1.51991
-4.34912
1.49228
-4.58917
1.40931
-4.80248
1.26776
-4.97855
1.06614
-5.10701
0.804844
-5.17815
0.48629
-5.18337
0.115075
-5.11509
-0.301682
-4.96649
-0.754524
-4.73257
-1.23255
-4.41084
-1.72353
-4.00139
-2.21382
-3.50688
-2.68865
-2.93234
-3.13247
-2.28481
-3.5296
-1.57395
-3.86535
-0.814319
-4.1274
-0.0242517
-4.30402
0.775941
-4.38382
1.56285
-4.35739
2.31317
-4.21543
3.00453
-3.95084
3.61287
-3.56113
4.11349
-3.04693
4.48225
-2.41185
4.6966
-1.66246
4.737
-0.808077
4.58837
0.139119
4.23976
1.16321
3.68313
2.24425
2.915
3.36033
1.93753
4.488
0.757399
5.60218
-0.615633
6.6773
-2.16628
7.69007
-3.87204
8.61934
-5.70627
9.44382
-7.63963
10.1437
-9.64245
10.7007
-11.6879
11.0991
-13.7499
11.3293
-15.7999
11.3874
-17.8084
11.2739
-19.7459
10.9925
-21.5832
10.5486
-23.2921
9.94963
-24.8457
9.20427
-26.2184
8.32232
-27.3862
7.31432
-28.3269
6.19137
-29.0205
4.96489
-29.449
3.64645
-29.5969
2.24801
-29.4515
0.781748
-29.0025
-0.739807
-28.241
-2.30317
-27.1585
-3.89482
-25.7496
-5.50299
-24.0126
-7.11683
-21.9488
-8.72542
-19.5621
-10.3178
-16.8587
-11.8831
-13.8473
-13.4105
-10.5385
-14.8897
-6.94377
-16.3105
-3.07501
-17.6637
1.05766
-18.9415
5.44441
-20.1394
10.0647
-21.2597
14.8915
-22.302
19.9004
-23.2616
25.062
-24.1354
30.355
-24.9141
35.7671
-25.5892
41.2812
-26.1623
46.8773
-26.6363
52.5344
-27.0148
58.2318
-27.3007
63.9485
-27.4958
69.6636
-27.6002
75.3559
-27.6139
81.0043
-27.5356
86.5868
-27.3612
92.0801
-27.0854
97.4595
-26.701
102.699
-26.1992
107.77
-25.5693
112.643
-24.7981
117.284
-23.8704
121.657
-22.769
125.724
-21.4746
129.441
-19.9664
132.763
-18.2224
135.641
-16.2199
138.022
-13.936
139.853
-11.3484
141.077
-8.4357
141.636
-5.17865
141.478
-1.56096
140.555
2.42716
138.82
6.78229
136.225
11.4907
132.729
16.5307
128.303
21.8704
122.928
27.4645
116.604
33.2507
109.345
39.1474
101.187
45.0497
92.1887
50.827
82.4291
56.3188
72.0027
61.333
61.0043
65.6454
49.5223
69.015
37.6665
71.2081
25.594
72.0101
13.4683
71.1968
1.41152
68.5463
-10.5147
63.866
-22.2853
57.0335
-33.9025
48.0353
-45.3602
36.9899
-56.4799
24.2192
-66.6672
10.2279
-74.2158
-3.52141
-8.73513
-0.196842
-1.02902
-0.345265
-0.360319
-0.506054
0.218729
-0.683782
0.728626
-0.883738
1.1836
-1.1108
1.58428
-1.36676
1.92784
-1.65006
2.21061
-1.95654
2.42898
-2.28019
2.58002
-2.61419
2.662
-2.95115
2.67465
-3.28338
2.6201
-3.60327
2.50253
-3.90356
2.3276
-4.17771
2.10267
-4.42013
1.83628
-4.62634
1.5379
-4.79313
1.21747
-4.91857
0.885135
-5.00205
0.55086
-5.04423
0.224144
-5.04677
-0.0861891
-5.01211
-0.372292
-4.94355
-0.627715
-4.8452
-0.847509
-4.72175
-1.02817
-4.57826
-1.16765
-4.41993
-1.26532
-4.25198
-1.32192
-4.07937
-1.33946
-3.90675
-1.32097
-3.73836
-1.27035
-3.57781
-1.19242
-3.42811
-1.09243
-3.29155
-0.97603
-3.16973
-0.848983
-3.06356
-0.717002
-2.97326
-0.58555
-2.89839
-0.459656
-2.83793
-0.34379
-2.79041
-0.241778
-2.75369
-0.156532
-2.72554
-0.0903898
-2.70399
-0.0448974
-2.68667
-0.0201813
-2.67104
-0.0156872
-2.65457
-0.0300496
-2.63525
-0.0612059
-2.61154
-0.106463
-2.58242
-0.162396
-2.54727
-0.224935
-2.50583
-0.289545
-2.45836
-0.351547
-2.40573
-0.406259
-2.34936
-0.449136
-2.29114
-0.476012
-2.23349
-0.48301
-2.17918
-0.46688
-2.13112
-0.425327
-2.09249
-0.356918
-2.06701
-0.261386
-2.05779
-0.13892
-2.06658
0.00945532
-2.09618
0.179813
-2.14937
0.367548
-2.22714
0.567993
-2.32998
0.77495
-2.45756
0.981125
-2.60851
1.17854
-2.78042
1.35864
-2.96986
1.51256
-3.17235
1.63148
-3.38242
1.70693
-3.59365
1.73114
-3.79889
1.69752
-3.99034
1.60075
-4.15973
1.43716
-4.29864
1.20505
-4.39874
0.904945
-4.45216
0.539703
-4.45175
0.114666
-4.3912
-0.362234
-4.26509
-0.880633
-4.06944
-1.4282
-3.80213
-1.99084
-3.46305
-2.55291
-3.05419
-3.09751
-2.57963
-3.60702
-2.04556
-4.06366
-1.46063
-4.45029
-0.836845
-4.75118
-0.189174
-4.95169
0.465376
-5.03837
1.10767
-4.99968
1.71784
-4.8256
2.27599
-4.50899
2.76144
-4.04658
3.15342
-3.4389
3.43185
-2.69028
3.57829
-1.80891
3.57697
-0.806748
3.41561
0.300475
3.08567
1.49315
2.58202
2.7479
1.90362
4.03873
1.05385
5.33777
0.0400158
6.61602
-1.12719
7.84451
-2.43296
8.99584
-3.85821
10.0446
-5.38121
10.9668
-6.97868
11.7411
-8.62707
12.3491
-10.3039
12.776
-11.9871
13.0126
-13.6536
13.0539
-15.2796
12.8998
-16.8416
12.5544
-18.3159
12.023
-19.6797
11.3134
-20.9106
10.4352
-21.9875
9.39918
-22.8902
8.21698
-23.5998
6.90105
-24.0993
5.46435
-24.3731
3.92022
-24.4075
2.28243
-24.1908
0.565084
-23.7132
-1.21742
-22.9663
-3.05012
-21.943
-4.91808
-20.6388
-6.80718
-19.0518
-8.70382
-17.1827
-10.5945
-15.0344
-12.4661
-12.6121
-14.3054
-9.9228
-16.0998
-6.97522
-17.8373
-3.77916
-19.5065
-0.345238
-21.0976
3.31545
-22.6022
7.19012
-24.0141
11.2608
-25.3303
15.506
-26.5473
19.9048
-27.6603
24.4345
-28.6652
29.0763
-29.5559
33.815
-30.3279
38.6339
-30.9812
43.5151
-31.5175
48.4401
-31.9398
53.3907
-32.2514
58.3483
-32.4534
63.2937
-32.5456
68.2079
-32.5281
73.072
-32.3997
77.8661
-32.1554
82.5692
-31.7885
87.1592
-31.2909
91.6127
-30.6528
95.905
-29.8616
100.009
-28.9024
103.897
-27.7581
107.537
-26.409
110.896
-24.8335
113.938
-23.0084
116.625
-20.9094
118.917
-18.5117
120.771
-15.7904
122.145
-12.7222
122.995
-9.28536
123.278
-5.46185
122.955
-1.23847
121.992
3.39015
120.357
8.41803
118.019
13.8281
114.958
19.5922
111.159
25.6692
106.621
32.0024
101.355
38.5166
95.3868
45.1158
88.7565
51.68
81.5198
58.0637
73.7448
64.0938
65.5083
69.5695
56.8877
74.266
47.9569
77.9457
38.7931
80.3719
29.4762
81.327
20.0754
80.5976
10.6217
78
1.08909
73.3985
-8.59888
66.7215
-18.5643
58.0007
-28.9398
47.3655
-39.7588
35.0382
-50.7975
21.2665
-60.8585
6.53965
-2.2929
-0.241539
-0.787436
-0.415359
-0.186499
-0.574738
0.378108
-0.735107
0.888996
-0.905244
1.35373
-1.09112
1.77016
-1.29586
2.13258
-1.51978
2.43452
-1.76085
2.67005
-2.0153
2.83447
-2.27837
2.92506
-2.54441
2.94069
-2.8075
2.88318
-3.06174
2.75677
-3.30134
2.5672
-3.52105
2.32238
-3.71632
2.03155
-3.88346
1.70504
-4.01976
1.35377
-4.12352
0.988893
-4.19406
0.621402
-4.23169
0.26177
-4.23755
-0.0803332
-4.21349
-0.396349
-4.16207
-0.679138
-4.08645
-0.923121
-3.9903
-1.12432
-3.87757
-1.28038
-3.75239
-1.3905
-3.61891
-1.4554
-3.48107
-1.4773
-3.34261
-1.45943
-3.20695
-1.40601
-3.07703
-1.32234
-2.95528
-1.21418
-2.84361
-1.0877
-2.74336
-0.949238
-2.6553
-0.805063
-2.57967
-0.661177
-2.5162
-0.523126
-2.46414
-0.395853
-2.42235
-0.283569
-2.38928
-0.189595
-2.36325
-0.116423
-2.34256
-0.06559
-2.32539
-0.0373502
-2.3098
-0.0312751
-2.29389
-0.0459617
-2.27609
-0.0790044
-2.25519
-0.127362
-2.23034
-0.187245
-2.20104
-0.254243
-2.16709
-0.323487
-2.12876
-0.389886
-2.08669
-0.448322
-2.04202
-0.493805
-1.99619
-0.521844
-1.95107
-0.528129
-1.90885
-0.5091
-1.87182
-0.46236
-1.84248
-0.386259
-1.82352
-0.280343
-1.81732
-0.145118
-1.8256
0.0177335
-1.85041
0.204616
-1.89358
0.410719
-1.95605
0.630464
-2.03813
0.857036
-2.13949
1.08248
-2.25899
1.29804
-2.39472
1.49436
-2.54394
1.66178
-2.70312
1.79066
-2.86793
1.87174
-3.03329
1.8965
-3.19362
1.85785
-3.34282
1.74995
-3.47438
1.56872
-3.58169
1.31236
-3.65818
0.981437
-3.6976
0.579127
-3.69422
0.111281
-3.64293
-0.413523
-3.53944
-0.984125
-3.38056
-1.58707
-3.16453
-2.20687
-2.89113
-2.8263
-2.56188
-3.42677
-2.18003
-3.98888
-1.75072
-4.49297
-1.28122
-4.91979
-0.781233
-5.25117
-0.262862
-5.47006
0.260062
-5.56129
0.772061
-5.51168
1.25669
-5.31023
1.69723
-4.94953
2.07649
-4.42584
2.37747
-3.73988
2.58398
-2.89678
2.68136
-1.90629
2.65728
-0.78267
2.50233
0.455428
2.2103
1.78518
1.77823
3.17997
1.20661
4.61035
0.499429
6.04495
-0.336152
7.4516
-1.29013
8.79848
-2.34963
10.0553
-3.49919
11.1941
-4.72167
12.1893
-5.99902
13.0185
-7.31302
13.6631
-8.64576
14.1087
-9.9801
14.3469
-11.2976
14.3715
-12.5795
14.1818
-13.8078
13.7827
-14.9638
13.1789
-16.029
12.3787
-16.9857
11.3919
-17.8165
10.23
-18.5048
8.90525
-19.0349
7.43118
-19.3924
5.82178
-19.5638
4.09168
-19.5374
2.25601
-19.3026
0.330279
-18.8504
-1.66962
-18.1732
-3.72732
-17.2649
-5.82641
-16.1212
-7.95082
-14.7402
-10.0848
-13.122
-12.2128
-11.2686
-14.3195
-9.18397
-16.39
-6.87378
-18.41
-4.34516
-20.3659
-1.60647
-22.2452
1.33274
-24.0369
4.46169
-25.7312
7.76781
-27.3202
11.2356
-28.7981
14.8477
-30.1594
18.5864
-31.399
22.4335
-32.5123
26.3726
-33.495
30.3888
-34.344
34.4667
-35.059
38.59
-35.6408
42.7425
-36.0923
46.9087
-36.4176
51.0726
-36.6173
55.2169
-36.6899
59.3248
-36.636
63.3809
-36.4557
67.3675
-36.142
71.2659
-35.6869
75.057
-35.0821
78.7209
-34.3166
82.2363
-33.377
85.5807
-32.2469
88.7299
-30.9074
91.6581
-29.3372
94.3377
-27.5131
96.7395
-25.4101
98.8325
-23.0024
100.585
-20.264
101.964
-17.1693
102.936
-13.6946
103.47
-9.81923
103.535
-5.52683
103.104
-0.807328
102.153
4.3407
100.664
9.90767
98.6196
15.872
96.0124
22.1994
92.8412
28.8404
89.1148
35.7288
84.8528
42.7787
80.0857
49.8829
74.8552
56.9105
69.2131
63.7059
63.2182
70.0886
56.9325
75.8552
50.4148
80.7837
43.7176
84.6429
36.8883
87.2013
29.9584
88.2569
22.9397
87.6163
15.8022
85.1375
8.45862
80.7421
0.774953
74.4051
-7.4307
66.2063
-16.3648
56.2995
-26.1996
44.873
-37.0071
32.074
-48.2402
17.7727
6.43324
-0.22685
-0.560536
-0.39657
-0.0167786
-0.540726
0.522263
-0.676777
1.02505
-0.814375
1.49133
-0.959734
1.91552
-1.1165
2.28935
-1.286
2.60402
-1.46759
2.85165
-1.65907
3.02595
-1.85736
3.12335
-2.05838
3.14171
-2.2578
3.0826
-2.45129
2.95026
-2.6344
2.75032
-2.8031
2.49107
-2.95384
2.18229
-3.08371
1.83491
-3.19052
1.46057
-3.2728
1.07118
-3.3299
0.678503
-3.36189
0.293752
-3.36948
-0.0727373
-3.35401
-0.411818
-3.31734
-0.715806
-3.26183
-0.97864
-3.19018
-1.19597
-3.10539
-1.36516
-3.01059
-1.4853
-2.90898
-1.55702
-2.80356
-1.58272
-2.6972
-1.5658
-2.59259
-1.51061
-2.492
-1.42293
-2.39734
-1.30884
-2.3101
-1.17494
-2.23135
-1.02798
-2.16175
-0.87466
-2.10153
-0.721398
-2.05053
-0.574134
-2.00821
-0.438168
-1.97377
-0.318013
-1.94609
-0.217271
-1.92392
-0.13859
-1.90594
-0.0835777
-1.89075
-0.052536
-1.87691
-0.0451126
-1.86305
-0.0598202
-1.84803
-0.094027
-1.83092
-0.144475
-1.81105
-0.207118
-1.78801
-0.27728
-1.76167
-0.34982
-1.73222
-0.419342
-1.70014
-0.4804
-1.66629
-0.527657
-1.63173
-0.556403
-1.59787
-0.561993
-1.56634
-0.540627
-1.53882
-0.489878
-1.51719
-0.407887
-1.5034
-0.294141
-1.4992
-0.149317
-1.50604
0.0245812
-1.52537
0.223945
-1.55844
0.443781
-1.60596
0.677985
-1.66815
0.919229
-1.74472
1.15905
-1.83479
1.38811
-1.93691
1.59648
-2.04901
1.77388
-2.16845
1.9101
-2.29198
1.99528
-2.41574
2.02026
-2.53558
1.97768
-2.64696
1.86133
-2.74495
1.66671
-2.82456
1.39197
-2.88084
1.03771
-2.90902
0.607306
-2.90468
0.106944
-2.86388
-0.454322
-2.78329
-1.06471
-2.66043
-1.70994
-2.49383
-2.37347
-2.28325
-3.03688
-2.02975
-3.68027
-1.73581
-4.28282
-1.40545
-4.82333
-1.04437
-5.28087
-0.660131
-5.63541
-0.262184
-5.86801
0.138676
-5.96215
0.530418
-5.90342
0.899984
-5.6798
1.23409
-5.28364
1.51917
-4.71092
1.74195
-3.96266
1.89
-3.04484
1.95227
-1.96857
1.91967
-0.750065
1.78549
0.58961
1.54568
2.02499
1.1989
3.52675
0.746542
5.0627
0.19261
6.59888
-0.45653
8.10074
-1.19248
9.53443
-2.00501
10.8679
-2.88234
12.0715
-3.81177
13.1187
-4.78012
13.9868
-5.77417
14.6572
-6.78049
15.115
-7.78701
15.3535
-8.77986
15.3643
-9.74492
15.1468
-10.6693
14.707
-11.5387
14.0483
-12.3391
13.1791
-13.0567
12.1095
-13.6779
10.8511
-14.1894
9.41676
-14.5786
7.82041
-14.8336
6.0768
-14.9433
4.20138
-14.8975
2.21023
-14.6872
0.119934
-14.3043
-2.05252
-13.7421
-4.28956
-12.995
-6.57346
-12.0592
-8.88662
-10.9325
-11.2115
-9.61428
-13.531
-8.10588
-15.8279
-6.41006
-18.0858
-4.53111
-20.289
-2.47468
-22.4223
-0.247676
-24.4722
2.14173
-26.4263
4.68399
-28.2734
7.36805
-30.0043
10.1811
-31.6111
13.1091
-33.0874
16.1375
-34.4274
19.2517
-35.6265
22.4378
-36.6811
25.6827
-37.5889
28.9729
-38.3492
32.294
-38.9619
35.6318
-39.43
38.9738
-39.7597
42.3073
-39.9507
45.6167
-39.9993
48.8877
-39.907
52.1087
-39.6767
55.2647
-39.298
58.3396
-38.7617
61.3175
-38.06
64.1822
-37.1813
66.9165
-36.1113
69.5023
-34.8326
71.92
-33.3251
74.1492
-31.5664
76.168
-29.5319
77.9536
-27.1958
79.4825
-24.5313
80.7304
-21.5119
81.6733
-18.1121
82.2876
-14.3089
82.5512
-10.0828
82.444
-5.41964
81.9493
-0.312606
81.0539
5.23607
79.7487
11.2129
78.029
17.5917
75.8963
24.3321
73.3587
31.378
70.4322
38.6552
67.1413
46.0696
63.5185
53.5056
59.6041
60.825
55.444
67.866
51.0872
74.4454
46.5812
80.3612
41.9673
85.3976
37.276
89.3342
32.5265
91.9508
27.718
93.0654
22.8166
92.5176
17.7515
90.2026
12.4093
86.0844
6.63161
80.1828
0.216046
72.6219
-7.06951
63.5851
-15.4658
53.2693
-25.2085
41.8167
-36.3208
28.885
16.539
-0.182392
-0.378093
-0.318862
0.119691
-0.431852
0.635254
-0.53517
1.12836
-0.636394
1.59256
-0.740662
2.01978
-0.85122
2.39991
-0.969629
2.72243
-1.09598
2.978
-1.22913
3.1591
-1.36713
3.26134
-1.50735
3.28193
-1.6472
3.22245
-1.78353
3.08659
-1.91316
2.87994
-2.03323
2.61115
-2.14121
2.29027
-2.23496
1.92866
-2.31282
1.53843
-2.37364
1.132
-2.41681
0.721671
-2.44223
0.319181
-2.45032
-0.0646497
-2.44191
-0.420235
-2.41822
-0.739487
-2.38087
-1.01599
-2.33173
-1.24511
-2.27287
-1.42402
-2.20649
-1.55168
-2.1349
-1.62861
-2.06033
-1.65728
-1.98472
-1.64141
-1.91005
-1.58529
-1.83795
-1.49503
-1.76983
-1.37696
-1.70678
-1.23798
-1.64962
-1.08514
-1.59884
-0.925444
-1.55464
-0.765598
-1.51694
-0.611828
-1.48543
-0.469684
-1.45954
-0.343896
-1.43856
-0.238251
-1.42163
-0.155524
-1.40783
-0.0973777
-1.39595
-0.0644178
-1.38501
-0.0560474
-1.37432
-0.0705139
-1.36302
-0.105323
-1.35045
-0.157047
-1.33611
-0.221464
-1.31968
-0.293708
-1.30106
-0.36844
-1.28035
-0.440053
-1.25787
-0.502876
-1.23417
-0.551354
-1.21012
-0.580453
-1.18672
-0.585394
-1.16489
-0.562457
-1.14583
-0.50894
-1.13086
-0.42286
-1.12129
-0.303705
-1.11836
-0.15225
-1.12311
0.029332
-1.13651
0.237345
-1.15937
0.466645
-1.1922
0.710808
-1.23512
0.962151
-1.28792
1.21185
-1.34999
1.45019
-1.42033
1.66681
-1.49751
1.85107
-1.57972
1.99231
-1.66478
2.08034
-1.74993
2.10541
-1.83249
2.06024
-1.90923
1.93807
-1.97667
1.73416
-2.03138
1.44667
-2.06988
1.07622
-2.08882
0.626248
-2.08504
0.10316
-2.05567
-0.48369
-1.99828
-1.1221
-1.91101
-1.79721
-1.79271
-2.49177
-1.64307
-3.18651
-1.46276
-3.86058
-1.25348
-4.49209
-1.0181
-5.05871
-0.760715
-5.53826
-0.486735
-5.90939
-0.203084
-6.15166
0.0821516
-6.24739
0.360642
-6.18191
0.622694
-5.94185
0.85843
-5.51937
1.05796
-4.91045
1.21179
-4.11649
1.31117
-3.14422
1.34853
-2.00592
1.31784
-0.719377
1.21494
0.69251
1.03768
2.20225
0.785928
3.7785
0.461498
5.38713
0.0679467
6.99244
-0.389658
8.55835
-0.905043
10.0498
-1.47092
11.4337
-2.07925
12.6798
-2.72166
13.7611
-3.38971
14.6549
-4.07501
15.3425
-4.76853
15.8085
-5.46189
16.0468
-6.14695
16.0494
-6.81524
15.8151
-7.45739
15.3492
-8.06318
14.6541
-8.62289
13.7388
-9.12667
12.6133
-9.56458
11.289
-9.92676
9.77894
-10.2035
8.09719
-10.3856
6.25885
-10.4641
4.27984
-10.4306
2.1768
-10.2777
-0.0329992
-9.99842
-2.33178
-9.5869
-4.70108
-9.0382
-7.12216
-8.34863
-9.57619
-7.51579
-12.0444
-6.53865
-14.5081
-5.41754
-16.949
-4.1541
-19.3493
-2.75125
-21.6918
-1.2131
-23.9605
0.455067
-26.1404
2.24682
-28.218
4.15448
-30.1811
6.16917
-32.019
8.28083
-33.7228
10.4785
-35.2851
12.7509
-36.6997
15.0865
-37.9621
17.4742
-39.0689
19.9035
-40.0182
22.3638
-40.8095
24.8431
-41.4412
27.3277
-41.9147
29.8088
-42.2407
32.2776
-42.4195
34.7205
-42.4422
37.1263
-42.3128
39.4885
-42.0389
41.7928
-41.6024
44.0261
-40.995
46.1768
-40.2107
48.2327
-39.2373
50.181
-38.0596
52.0079
-36.6595
53.6989
-35.0162
55.2388
-33.1063
56.6117
-30.9047
57.801
-28.3851
58.7902
-25.5205
59.5627
-22.2844
60.1023
-18.6518
60.3943
-14.6008
60.4253
-10.1138
60.1846
-5.17892
59.6644
0.207529
58.8607
6.03982
57.7729
12.3006
56.4051
18.9595
54.7663
25.971
52.8711
33.2732
50.7402
40.7861
48.4002
48.4096
45.8832
56.0226
43.2259
63.4822
40.467
70.6249
37.6443
77.2681
34.7914
83.2141
31.9326
88.2565
29.0773
92.1895
26.2136
94.8146
23.3206
95.9583
20.3314
95.5068
17.1438
93.3902
13.6556
89.5726
9.698
84.1404
5.07315
77.2467
-0.442327
69.1006
-7.10263
59.9296
-15.1989
49.913
-25.1039
38.79
27.0893
-0.116738
-0.261305
-0.201754
0.204707
-0.272066
0.705565
-0.335632
1.19193
-0.39683
1.65375
-0.458882
2.08184
-0.523955
2.46498
-0.593243
2.79172
-0.667067
3.05182
-0.745223
3.23725
-0.825822
3.34194
-0.908479
3.36459
-0.991844
3.30581
-1.07333
3.16808
-1.15141
2.95802
-1.2244
2.68413
-1.29072
2.3566
-1.34903
1.98696
-1.3982
1.5876
-1.43742
1.17123
-1.4662
0.750451
-1.48435
0.337324
-1.49197
-0.0570297
-1.48946
-0.42274
-1.47749
-0.751455
-1.45696
-1.03652
-1.42895
-1.27312
-1.39469
-1.45828
-1.35547
-1.5909
-1.31252
-1.67156
-1.26757
-1.70223
-1.22202
-1.68696
-1.17656
-1.63075
-1.13248
-1.53911
-1.09061
-1.41883
-1.05167
-1.27692
-1.0162
-1.12062
-0.984528
-0.957113
-0.956824
-0.793302
-0.933069
-0.635582
-0.913096
-0.489657
-0.896604
-0.360389
-0.883181
-0.251674
-0.872337
-0.166368
-0.863494
-0.10622
-0.855819
-0.0720924
-0.848862
-0.0630045
-0.842249
-0.0771269
-0.835415
-0.112157
-0.827948
-0.164514
-0.819531
-0.229881
-0.80996
-0.303279
-0.799151
-0.37925
-0.787142
-0.452061
-0.774112
-0.515906
-0.760249
-0.565217
-0.746372
-0.59433
-0.73279
-0.598976
-0.719751
-0.575496
-0.70838