/*--------------------------------*- C++ -*----------------------------------*\
| =========                 |                                                 |
| \\      /  F ield         | OpenFOAM: The Open Source CFD Toolbox           |
|  \\    /   O peration     | Version:  5.x                                   |
|   \\  /    A nd           | Web:      www.OpenFOAM.org                      |
|    \\/     M anipulation  |                                                 |
\*---------------------------------------------------------------------------*/
/*   Windows 32 and 64 bit porting by blueCAPE: http://www.bluecape.com.pt   *\
|  Based on Windows porting (2.0.x v4) by Symscape: http://www.symscape.com   |
\*---------------------------------------------------------------------------*/
FoamFile
{
    version     2.0;
    format      ascii;
    class       surfaceScalarField;
    location    "10";
    object      phi;
}
// * * * * * * * * * * * * * * * * * * * * * * * * * * * * * * * * * * * * * //

dimensions      [0 3 -1 0 0 0 0];

internalField   nonuniform List<scalar> 
7780
(
4.99769e-005
2.31388e-008
4.98772e-005
9.96874e-008
4.97446e-005
1.32545e-007
4.96119e-005
1.32721e-007
4.94908e-005
1.21158e-007
4.93834e-005
1.07332e-007
4.92884e-005
9.49751e-008
4.9203e-005
8.54558e-008
4.9124e-005
7.90036e-008
4.90492e-005
7.47986e-008
4.89773e-005
7.18522e-008
4.89078e-005
6.95127e-008
4.88402e-005
6.76503e-008
4.87736e-005
6.66006e-008
4.87068e-005
6.67875e-008
4.86381e-005
6.87125e-008
4.8567e-005
7.10413e-008
4.84949e-005
7.21172e-008
4.8423e-005
7.19205e-008
4.83518e-005
7.115e-008
4.82815e-005
7.03063e-008
4.82118e-005
6.96923e-008
4.81424e-005
6.94689e-008
4.80728e-005
6.96095e-008
4.80028e-005
6.99606e-008
4.79324e-005
7.04351e-008
4.78613e-005
7.10511e-008
4.77895e-005
7.18387e-008
4.77168e-005
7.2675e-008
4.76434e-005
7.34395e-008
4.75691e-005
7.42217e-008
4.7494e-005
7.51188e-008
4.7418e-005
7.60485e-008
4.73411e-005
7.68607e-008
4.72639e-005
7.72163e-008
4.71871e-005
7.67638e-008
4.71116e-005
7.5551e-008
4.70375e-005
7.40645e-008
4.69647e-005
7.27719e-008
4.68929e-005
7.18634e-008
4.68216e-005
7.13085e-008
4.67506e-005
7.10031e-008
4.66797e-005
7.08368e-008
4.6609e-005
7.07321e-008
4.65384e-005
7.06351e-008
4.64678e-005
7.05211e-008
4.63974e-005
7.04501e-008
4.63269e-005
7.05415e-008
4.62561e-005
7.07875e-008
4.6185e-005
7.10816e-008
4.61136e-005
7.1364e-008
4.6042e-005
7.16253e-008
4.59701e-005
7.18604e-008
4.58981e-005
7.20461e-008
4.58259e-005
7.21375e-008
4.57538e-005
7.21079e-008
4.56818e-005
7.2019e-008
4.56098e-005
7.20316e-008
4.55375e-005
7.22925e-008
4.54647e-005
7.28388e-008
4.53911e-005
7.36058e-008
4.53166e-005
7.44386e-008
4.52414e-005
7.51822e-008
4.51656e-005
7.5802e-008
4.50893e-005
7.63397e-008
4.50125e-005
7.68205e-008
4.49352e-005
7.72263e-008
4.48577e-005
7.75111e-008
4.47801e-005
7.7655e-008
4.47024e-005
7.76814e-008
4.46248e-005
7.76265e-008
4.45472e-005
7.7524e-008
4.44698e-005
7.73986e-008
4.43926e-005
7.7267e-008
4.43154e-005
7.71392e-008
4.42384e-005
7.70171e-008
4.41615e-005
7.68982e-008
4.40847e-005
7.67813e-008
4.40081e-005
7.6671e-008
4.39315e-005
7.65756e-008
4.3855e-005
7.65079e-008
4.37785e-005
7.6482e-008
4.3702e-005
7.65099e-008
4.36254e-005
7.66007e-008
4.35486e-005
7.67662e-008
4.34716e-005
7.70286e-008
4.33942e-005
7.73801e-008
4.33165e-005
7.7745e-008
4.32384e-005
7.80414e-008
4.31602e-005
7.81873e-008
4.30821e-005
7.81025e-008
4.30044e-005
7.77897e-008
4.2927e-005
7.7361e-008
4.285e-005
7.69473e-008
4.27734e-005
7.66317e-008
4.2697e-005
7.6445e-008
4.26206e-005
7.6384e-008
4.25442e-005
7.64299e-008
4.24676e-005
7.65515e-008
4.23909e-005
7.67097e-008
4.2314e-005
7.6872e-008
4.2237e-005
7.70085e-008
4.21599e-005
7.70802e-008
4.20829e-005
7.70329e-008
4.20061e-005
7.68036e-008
4.19298e-005
7.62647e-008
4.18545e-005
7.52853e-008
4.17806e-005
7.3952e-008
4.1708e-005
7.25624e-008
4.16366e-005
7.13829e-008
4.15661e-005
7.05187e-008
4.14962e-005
6.99425e-008
4.14266e-005
6.95811e-008
4.13572e-005
6.93665e-008
4.1288e-005
6.9248e-008
4.12188e-005
6.91881e-008
4.11496e-005
6.91644e-008
4.10805e-005
6.91616e-008
4.10113e-005
6.91817e-008
4.09421e-005
6.92322e-008
4.08728e-005
6.93046e-008
4.08034e-005
6.93786e-008
4.07339e-005
6.94438e-008
4.06644e-005
6.95004e-008
4.05949e-005
6.95567e-008
4.05252e-005
6.96225e-008
4.04555e-005
6.97112e-008
4.03857e-005
6.98373e-008
4.03157e-005
7.00211e-008
4.02454e-005
7.02878e-008
4.01747e-005
7.06728e-008
4.01035e-005
7.12197e-008
4.00315e-005
7.19775e-008
3.99585e-005
7.2984e-008
3.98843e-005
7.42372e-008
3.98087e-005
7.5646e-008
3.97317e-005
7.6986e-008
3.96538e-005
7.78567e-008
3.9576e-005
7.78373e-008
3.94992e-005
7.68152e-008
3.94241e-005
7.50782e-008
3.9351e-005
7.30526e-008
3.92799e-005
7.10989e-008
3.92105e-005
6.9427e-008
3.91424e-005
6.81352e-008
3.90751e-005
6.72411e-008
3.90084e-005
6.66801e-008
3.89421e-005
6.63769e-008
3.88758e-005
6.62647e-008
3.88095e-005
6.62713e-008
3.87432e-005
6.63245e-008
3.86768e-005
6.63553e-008
3.86106e-005
6.6299e-008
3.85445e-005
6.6074e-008
3.84788e-005
6.56526e-008
3.84136e-005
6.5184e-008
3.83489e-005
6.47843e-008
3.82845e-005
6.43933e-008
3.82205e-005
6.39594e-008
3.8157e-005
6.34683e-008
3.80941e-005
6.29134e-008
3.80318e-005
6.22911e-008
3.79702e-005
6.16112e-008
3.79093e-005
6.08822e-008
3.78492e-005
6.01021e-008
3.779e-005
5.92527e-008
3.77317e-005
5.82975e-008
3.76745e-005
5.71653e-008
3.76188e-005
5.57343e-008
3.7565e-005
5.38202e-008
3.75138e-005
5.12062e-008
3.7466e-005
4.77238e-008
3.74227e-005
4.3376e-008
3.73842e-005
3.8419e-008
3.73509e-005
3.331e-008
3.73224e-005
2.85594e-008
3.72978e-005
2.46075e-008
3.7276e-005
2.17655e-008
3.72558e-005
2.01872e-008
3.7236e-005
1.98002e-008
3.72157e-005
2.02967e-008
3.71945e-005
2.12445e-008
3.71721e-005
2.23203e-008
3.71486e-005
2.35918e-008
3.71229e-005
2.56781e-008
3.70931e-005
2.97313e-008
3.70558e-005
3.73234e-008
3.70055e-005
5.03043e-008
3.69349e-005
7.06384e-008
3.6835e-005
9.98952e-008
3.6697e-005
1.37934e-007
3.65158e-005
1.81284e-007
3.6293e-005
2.22717e-007
3.60399e-005
2.53194e-007
3.57737e-005
2.66129e-007
3.55149e-005
2.58799e-007
3.52817e-005
2.33235e-007
3.50931e-005
1.88637e-007
3.50191e-005
7.39611e-008
-1.12409e-007
5.00737e-005
-5.05217e-008
5.0119e-005
5.43033e-008
5.01409e-005
1.10714e-007
5.01507e-005
1.22868e-007
5.01528e-005
1.19109e-007
5.01483e-005
1.11785e-007
5.01386e-005
1.04681e-007
5.01252e-005
9.88721e-008
5.01097e-005
9.4525e-008
5.00932e-005
9.12811e-008
5.00763e-005
8.87673e-008
5.00588e-005
8.70421e-008
5.00399e-005
8.65065e-008
5.00192e-005
8.73203e-008
4.99965e-005
8.94757e-008
4.99721e-005
9.31224e-008
4.99463e-005
9.68269e-008
4.9919e-005
9.93733e-008
4.98903e-005
1.00618e-007
4.98605e-005
1.00964e-007
4.98299e-005
1.0095e-007
4.97985e-005
1.01051e-007
4.97664e-005
1.01617e-007
4.97334e-005
1.02633e-007
4.96995e-005
1.03809e-007
4.96649e-005
1.05039e-007
4.96295e-005
1.06452e-007
4.95931e-005
1.08193e-007
4.9556e-005
1.09868e-007
4.95181e-005
1.1128e-007
4.94796e-005
1.12705e-007
4.94405e-005
1.14232e-007
4.94008e-005
1.15793e-007
4.93604e-005
1.17232e-007
4.93198e-005
1.17836e-007
4.92794e-005
1.1712e-007
4.92393e-005
1.15664e-007
4.91992e-005
1.14207e-007
4.9159e-005
1.12989e-007
4.91187e-005
1.12128e-007
4.90784e-005
1.11608e-007
4.90381e-005
1.1133e-007
4.89977e-005
1.11159e-007
4.89574e-005
1.11021e-007
4.89172e-005
1.10907e-007
4.88769e-005
1.10814e-007
4.88365e-005
1.10876e-007
4.87957e-005
1.11337e-007
4.87544e-005
1.12052e-007
4.87127e-005
1.1273e-007
4.86708e-005
1.13306e-007
4.86286e-005
1.13835e-007
4.85861e-005
1.14347e-007
4.85433e-005
1.14807e-007
4.85004e-005
1.15096e-007
4.84574e-005
1.15086e-007
4.84146e-005
1.14848e-007
4.83719e-005
1.14762e-007
4.83289e-005
1.15204e-007
4.82855e-005
1.16283e-007
4.82412e-005
1.17873e-007
4.81961e-005
1.19574e-007
4.81503e-005
1.2098e-007
4.8104e-005
1.2207e-007
4.80574e-005
1.23009e-007
4.80103e-005
1.23875e-007
4.79629e-005
1.24628e-007
4.79153e-005
1.25136e-007
4.78676e-005
1.25349e-007
4.78199e-005
1.25337e-007
4.77724e-005
1.2518e-007
4.7725e-005
1.24944e-007
4.76777e-005
1.24672e-007
4.76306e-005
1.24393e-007
4.75836e-005
1.24125e-007
4.75367e-005
1.23867e-007
4.749e-005
1.23608e-007
4.74434e-005
1.23345e-007
4.7397e-005
1.2309e-007
4.73507e-005
1.22857e-007
4.73046e-005
1.22672e-007
4.72585e-005
1.22562e-007
4.72125e-005
1.22555e-007
4.71664e-005
1.2268e-007
4.71202e-005
1.22971e-007
4.70737e-005
1.23504e-007
4.70267e-005
1.24379e-007
4.69789e-005
1.25565e-007
4.69301e-005
1.26847e-007
4.68805e-005
1.27808e-007
4.68305e-005
1.2805e-007
4.67807e-005
1.27559e-007
4.67314e-005
1.26702e-007
4.66825e-005
1.25863e-007
4.66339e-005
1.25239e-007
4.65854e-005
1.24884e-007
4.6537e-005
1.24774e-007
4.64886e-005
1.24872e-007
4.644e-005
1.25113e-007
4.63913e-005
1.25416e-007
4.63425e-005
1.2573e-007
4.62935e-005
1.26022e-007
4.62443e-005
1.26236e-007
4.61951e-005
1.26262e-007
4.61459e-005
1.25951e-007
4.60972e-005
1.24959e-007
4.60495e-005
1.23018e-007
4.6003e-005
1.2045e-007
4.59576e-005
1.17915e-007
4.59131e-005
1.15882e-007
4.58692e-005
1.14457e-007
4.58256e-005
1.13537e-007
4.57822e-005
1.12968e-007
4.5739e-005
1.12624e-007
4.56958e-005
1.12415e-007
4.56527e-005
1.12283e-007
4.56097e-005
1.12197e-007
4.55667e-005
1.12131e-007
4.55238e-005
1.12102e-007
4.54809e-005
1.12131e-007
4.5438e-005
1.12198e-007
4.53951e-005
1.1226e-007
4.53523e-005
1.12302e-007
4.53094e-005
1.12327e-007
4.52666e-005
1.12349e-007
4.52239e-005
1.12389e-007
4.51811e-005
1.12468e-007
4.51383e-005
1.12612e-007
4.50955e-005
1.12855e-007
4.50525e-005
1.13241e-007
4.50094e-005
1.13836e-007
4.49659e-005
1.14727e-007
4.49218e-005
1.16024e-007
4.4877e-005
1.17836e-007
4.4831e-005
1.20213e-007
4.47836e-005
1.23035e-007
4.47347e-005
1.25868e-007
4.46848e-005
1.27796e-007
4.46349e-005
1.27756e-007
4.45862e-005
1.2547e-007
4.45396e-005
1.21728e-007
4.44951e-005
1.1755e-007
4.44525e-005
1.13628e-007
4.44116e-005
1.10359e-007
4.43719e-005
1.07894e-007
4.43329e-005
1.0619e-007
4.42945e-005
1.05103e-007
4.42564e-005
1.04481e-007
4.42184e-005
1.04195e-007
4.41806e-005
1.0412e-007
4.41428e-005
1.0414e-007
4.4105e-005
1.04148e-007
4.40672e-005
1.04057e-007
4.40295e-005
1.03791e-007
4.39918e-005
1.03321e-007
4.39543e-005
1.02715e-007
4.39171e-005
1.02029e-007
4.38802e-005
1.01236e-007
4.38439e-005
1.00318e-007
4.38081e-005
9.92704e-008
4.37729e-005
9.81007e-008
4.37383e-005
9.6826e-008
4.37045e-005
9.54766e-008
4.36713e-005
9.40704e-008
4.36388e-005
9.25985e-008
4.3607e-005
9.10327e-008
4.3576e-005
8.93229e-008
4.35458e-005
8.73658e-008
4.35166e-005
8.49519e-008
4.34887e-005
8.17098e-008
4.34628e-005
7.71298e-008
4.34397e-005
7.07409e-008
4.34207e-005
6.2442e-008
4.34063e-005
5.2773e-008
4.33969e-005
4.27534e-008
4.3392e-005
3.3455e-008
4.33908e-005
2.57465e-008
4.33923e-005
2.02687e-008
4.33951e-005
1.73922e-008
4.33979e-005
1.70454e-008
4.33996e-005
1.86043e-008
4.33998e-005
2.10222e-008
4.33988e-005
2.33466e-008
4.33968e-005
2.55186e-008
4.33938e-005
2.87264e-008
4.33883e-005
3.5258e-008
4.33774e-005
4.81495e-008
4.33568e-005
7.09746e-008
4.33195e-005
1.079e-007
4.32563e-005
1.63117e-007
4.31561e-005
2.3816e-007
4.30101e-005
3.27259e-007
4.28179e-005
4.14891e-007
4.25913e-005
4.79773e-007
4.23513e-005
5.0614e-007
4.21185e-005
4.91617e-007
4.1911e-005
4.40705e-007
4.17509e-005
3.48819e-007
4.17406e-005
8.42251e-008
-1.98109e-007
5.00473e-005
-9.78164e-008
5.00609e-005
4.06934e-008
5.008e-005
9.158e-008
5.00974e-005
1.05525e-007
5.01107e-005
1.05743e-007
5.01204e-005
1.02155e-007
5.01271e-005
9.79613e-008
5.01317e-005
9.42799e-008
5.01348e-005
9.13866e-008
5.01371e-005
8.90232e-008
5.01388e-005
8.70213e-008
5.01404e-005
8.54974e-008
5.0142e-005
8.48342e-008
5.01443e-005
8.50722e-008
5.01477e-005
8.60691e-008
5.01534e-005
8.74574e-008
5.0162e-005
8.82142e-008
5.01733e-005
8.80993e-008
5.01857e-005
8.81861e-008
5.01982e-005
8.84281e-008
5.02102e-005
8.89535e-008
5.02214e-005
8.9824e-008
5.02321e-005
9.09745e-008
5.02425e-005
9.2261e-008
5.02527e-005
9.35487e-008
5.02629e-005
9.49088e-008
5.02727e-005
9.66063e-008
5.02817e-005
9.91694e-008
5.02902e-005
1.0137e-007
5.02985e-005
1.0298e-007
5.03067e-005
1.04493e-007
5.03148e-005
1.06202e-007
5.03223e-005
1.08266e-007
5.03288e-005
1.10678e-007
5.03335e-005
1.13218e-007
5.03351e-005
1.1543e-007
5.03344e-005
1.16414e-007
5.03322e-005
1.16397e-007
5.03289e-005
1.16276e-007
5.03247e-005
1.16377e-007
5.03196e-005
1.16666e-007
5.03139e-005
1.1705e-007
5.03076e-005
1.17418e-007
5.03009e-005
1.17725e-007
5.02939e-005
1.17953e-007
5.02866e-005
1.18053e-007
5.02792e-005
1.18318e-007
5.02715e-005
1.19066e-007
5.02635e-005
1.20044e-007
5.02553e-005
1.20934e-007
5.02468e-005
1.2173e-007
5.02381e-005
1.2254e-007
5.02291e-005
1.23425e-007
5.02194e-005
1.24498e-007
5.02088e-005
1.25642e-007
5.01975e-005
1.26389e-007
5.01858e-005
1.26524e-007
5.0174e-005
1.26625e-007
5.01618e-005
1.27415e-007
5.01488e-005
1.29242e-007
5.01346e-005
1.32116e-007
5.0119e-005
1.35117e-007
5.01028e-005
1.37257e-007
5.00861e-005
1.38696e-007
5.00692e-005
1.39935e-007
5.00519e-005
1.41188e-007
5.00341e-005
1.42403e-007
5.00161e-005
1.43187e-007
4.9998e-005
1.43422e-007
4.998e-005
1.43336e-007
4.99621e-005
1.43064e-007
4.99443e-005
1.42711e-007
4.99267e-005
1.42321e-007
4.99091e-005
1.41938e-007
4.98917e-005
1.4159e-007
4.98743e-005
1.41254e-007
4.9857e-005
1.40901e-007
4.98398e-005
1.40527e-007
4.98228e-005
1.40153e-007
4.98058e-005
1.39802e-007
4.9789e-005
1.39514e-007
4.97722e-005
1.39334e-007
4.97555e-005
1.39277e-007
4.97388e-005
1.3937e-007
4.97221e-005
1.39667e-007
4.97053e-005
1.40299e-007
4.96883e-005
1.41418e-007
4.96708e-005
1.43022e-007
4.96528e-005
1.44872e-007
4.96344e-005
1.46207e-007
4.96162e-005
1.46197e-007
4.9599e-005
1.44831e-007
4.95827e-005
1.43e-007
4.9567e-005
1.41477e-007
4.95518e-005
1.40474e-007
4.95367e-005
1.39947e-007
4.95217e-005
1.39772e-007
4.95067e-005
1.39922e-007
4.94915e-005
1.4028e-007
4.94763e-005
1.40689e-007
4.94609e-005
1.41113e-007
4.94453e-005
1.41579e-007
4.94295e-005
1.4206e-007
4.94133e-005
1.42411e-007
4.93969e-005
1.42366e-007
4.93802e-005
1.41646e-007
4.9363e-005
1.40225e-007
4.9345e-005
1.38439e-007
4.93262e-005
1.3671e-007
4.93068e-005
1.35282e-007
4.92871e-005
1.34202e-007
4.92672e-005
1.33414e-007
4.92474e-005
1.32836e-007
4.92276e-005
1.32396e-007
4.9208e-005
1.32045e-007
4.91885e-005
1.31754e-007
4.91692e-005
1.31499e-007
4.91501e-005
1.31257e-007
4.91311e-005
1.31038e-007
4.91124e-005
1.30842e-007
4.90939e-005
1.30664e-007
4.90757e-005
1.30498e-007
4.90577e-005
1.30336e-007
4.90398e-005
1.30182e-007
4.90221e-005
1.30047e-007
4.90046e-005
1.29948e-007
4.89871e-005
1.29907e-007
4.89698e-005
1.29954e-007
4.89525e-005
1.30127e-007
4.89353e-005
1.3048e-007
4.8918e-005
1.31099e-007
4.89006e-005
1.32117e-007
4.88829e-005
1.33727e-007
4.88646e-005
1.36176e-007
4.88451e-005
1.39699e-007
4.88238e-005
1.44324e-007
4.88002e-005
1.49487e-007
4.87744e-005
1.53548e-007
4.87479e-005
1.54242e-007
4.87227e-005
1.50735e-007
4.86997e-005
1.44734e-007
4.8679e-005
1.38198e-007
4.86605e-005
1.32138e-007
4.86436e-005
1.27224e-007
4.86278e-005
1.23683e-007
4.86127e-005
1.21324e-007
4.8598e-005
1.19851e-007
4.85834e-005
1.19007e-007
4.8569e-005
1.18598e-007
4.85547e-005
1.18463e-007
4.85404e-005
1.1845e-007
4.85261e-005
1.18423e-007
4.85119e-005
1.18278e-007
4.84977e-005
1.17945e-007
4.84837e-005
1.17391e-007
4.84698e-005
1.16616e-007
4.84562e-005
1.15628e-007
4.8443e-005
1.14421e-007
4.84303e-005
1.1299e-007
4.84182e-005
1.1135e-007
4.84068e-005
1.0953e-007
4.83961e-005
1.07569e-007
4.8386e-005
1.05528e-007
4.83766e-005
1.03448e-007
4.83679e-005
1.01309e-007
4.83599e-005
9.90869e-008
4.83524e-005
9.67563e-008
4.83455e-005
9.42521e-008
4.83391e-005
9.13531e-008
4.83334e-005
8.74963e-008
4.83288e-005
8.16746e-008
4.83268e-005
7.27198e-008
4.83291e-005
6.01505e-008
4.83369e-005
4.4982e-008
4.83504e-005
2.92281e-008
4.83691e-005
1.47561e-008
4.8392e-005
2.84574e-009
4.84178e-005
-5.51809e-009
4.84448e-005
-9.54404e-009
4.84709e-005
-9.1235e-009
4.84949e-005
-5.34019e-009
4.85164e-005
-4.97771e-010
4.85368e-005
2.94261e-009
4.85578e-005
4.50396e-009
4.85803e-005
6.20525e-009
4.86038e-005
1.17904e-008
4.86262e-005
2.57631e-008
4.86439e-005
5.32126e-008
4.86509e-005
1.0092e-007
4.86357e-005
1.7839e-007
4.85802e-005
2.93567e-007
4.84658e-005
4.41724e-007
4.82845e-005
5.96185e-007
4.80512e-005
7.13035e-007
4.78012e-005
7.56175e-007
4.75507e-005
7.421e-007
4.72997e-005
6.91747e-007
4.70982e-005
5.5032e-007
4.69719e-005
2.10465e-007
-9.08711e-008
5.00355e-005
-1.33282e-007
5.00423e-005
3.38103e-008
5.00556e-005
7.82886e-008
5.00707e-005
9.04789e-008
5.0084e-005
9.24623e-008
5.00953e-005
9.08476e-008
5.01049e-005
8.83806e-008
5.01131e-005
8.60026e-008
5.01206e-005
8.39508e-008
5.01275e-005
8.21178e-008
5.0134e-005
8.0476e-008
5.01404e-005
7.91182e-008
5.01471e-005
7.81774e-008
5.01544e-005
7.77405e-008
5.01626e-005
7.7813e-008
5.0172e-005
7.80932e-008
5.01825e-005
7.76879e-008
5.01945e-005
7.6146e-008
5.02078e-005
7.48847e-008
5.02221e-005
7.41602e-008
5.02371e-005
7.39041e-008
5.0253e-005
7.39729e-008
5.02698e-005
7.41287e-008
5.02879e-005
7.41762e-008
5.03073e-005
7.41784e-008
5.03278e-005
7.43556e-008
5.03495e-005
7.49551e-008
5.03725e-005
7.61145e-008
5.03974e-005
7.64505e-008
5.04237e-005
7.67226e-008
5.04512e-005
7.6976e-008
5.048e-005
7.73849e-008
5.05103e-005
7.80204e-008
5.05421e-005
7.8887e-008
5.05754e-005
7.99051e-008
5.061e-005
8.07816e-008
5.06454e-005
8.10679e-008
5.06804e-005
8.14035e-008
5.07146e-005
8.1995e-008
5.07483e-005
8.27504e-008
5.07813e-005
8.35941e-008
5.08139e-005
8.44502e-008
5.08461e-005
8.5258e-008
5.08778e-005
8.60333e-008
5.09089e-005
8.68528e-008
5.09391e-005
8.78732e-008
5.09681e-005
8.92592e-008
5.09964e-005
9.07668e-008
5.10245e-005
9.19913e-008
5.10526e-005
9.28187e-008
5.10809e-005
9.34221e-008
5.11095e-005
9.39659e-008
5.11383e-005
9.46271e-008
5.11672e-005
9.5568e-008
5.11959e-005
9.69146e-008
5.12238e-005
9.85776e-008
5.12501e-005
1.00167e-007
5.12752e-005
1.0156e-007
5.12995e-005
1.03044e-007
5.13236e-005
1.05214e-007
5.13467e-005
1.08995e-007
5.13686e-005
1.13203e-007
5.13898e-005
1.16056e-007
5.14107e-005
1.17768e-007
5.14314e-005
1.19232e-007
5.14518e-005
1.2085e-007
5.14714e-005
1.22797e-007
5.14906e-005
1.23966e-007
5.15099e-005
1.24137e-007
5.15292e-005
1.23974e-007
5.15486e-005
1.23689e-007
5.1568e-005
1.2335e-007
5.15873e-005
1.22965e-007
5.16067e-005
1.22605e-007
5.16259e-005
1.22347e-007
5.1645e-005
1.22126e-007
5.16641e-005
1.21839e-007
5.16832e-005
1.21474e-007
5.17022e-005
1.21096e-007
5.17213e-005
1.20726e-007
5.17404e-005
1.20444e-007
5.17594e-005
1.20329e-007
5.17783e-005
1.20348e-007
5.17972e-005
1.205e-007
5.1816e-005
1.20865e-007
5.18347e-005
1.2161e-007
5.18531e-005
1.22949e-007
5.18711e-005
1.25014e-007
5.18885e-005
1.2749e-007
5.19056e-005
1.29154e-007
5.1923e-005
1.28753e-007
5.19418e-005
1.26027e-007
5.19618e-005
1.23049e-007
5.19821e-005
1.21135e-007
5.20025e-005
1.20068e-007
5.20228e-005
1.1962e-007
5.2043e-005
1.19614e-007
5.2063e-005
1.1989e-007
5.2083e-005
1.20332e-007
5.21028e-005
1.20862e-007
5.21225e-005
1.21442e-007
5.21419e-005
1.22184e-007
5.21608e-005
1.23163e-007
5.21789e-005
1.24228e-007
5.21964e-005
1.24964e-007
5.22129e-005
1.2507e-007
5.22285e-005
1.24651e-007
5.2243e-005
1.23961e-007
5.22565e-005
1.23186e-007
5.22693e-005
1.22448e-007
5.22817e-005
1.21807e-007
5.22939e-005
1.21272e-007
5.23059e-005
1.2082e-007
5.23179e-005
1.20426e-007
5.23298e-005
1.20074e-007
5.23418e-005
1.19761e-007
5.23538e-005
1.19475e-007
5.23659e-005
1.19178e-007
5.23781e-005
1.18845e-007
5.23905e-005
1.1846e-007
5.24031e-005
1.18062e-007
5.24159e-005
1.177e-007
5.24289e-005
1.17382e-007
5.24419e-005
1.17103e-007
5.24551e-005
1.16862e-007
5.24684e-005
1.16671e-007
5.24818e-005
1.1655e-007
5.24952e-005
1.16523e-007
5.25087e-005
1.16624e-007
5.25223e-005
1.16902e-007
5.25359e-005
1.17449e-007
5.25496e-005
1.18427e-007
5.25632e-005
1.20109e-007
5.25765e-005
1.22942e-007
5.25886e-005
1.27566e-007
5.25983e-005
1.34606e-007
5.26041e-005
1.4374e-007
5.26046e-005
1.5298e-007
5.26001e-005
1.58744e-007
5.25924e-005
1.58403e-007
5.25839e-005
1.53272e-007
5.25762e-005
1.45862e-007
5.25705e-005
1.37883e-007
5.25666e-005
1.31162e-007
5.25637e-005
1.26505e-007
5.25616e-005
1.23467e-007
5.25599e-005
1.2151e-007
5.25587e-005
1.20275e-007
5.25577e-005
1.1955e-007
5.2557e-005
1.19164e-007
5.25565e-005
1.18926e-007
5.25563e-005
1.18664e-007
5.25563e-005
1.18253e-007
5.25567e-005
1.17619e-007
5.25573e-005
1.16726e-007
5.25584e-005
1.15542e-007
5.256e-005
1.14037e-007
5.25622e-005
1.12203e-007
5.25651e-005
1.1006e-007
5.25688e-005
1.07642e-007
5.25734e-005
1.04998e-007
5.25787e-005
1.02191e-007
5.2585e-005
9.92878e-008
5.25921e-005
9.63486e-008
5.26e-005
9.33893e-008
5.26087e-005
9.03946e-008
5.26181e-005
8.73978e-008
5.26278e-005
8.4497e-008
5.26375e-005
8.16885e-008
5.26466e-005
7.83784e-008
5.26555e-005
7.27356e-008
5.26663e-005
6.19115e-008
5.26822e-005
4.43321e-008
5.27052e-005
2.1961e-008
5.27356e-005
-1.20645e-009
5.27726e-005
-2.22107e-008
5.2815e-005
-3.96047e-008
5.28617e-005
-5.21736e-008
5.29103e-005
-5.811e-008
5.29575e-005
-5.63994e-008
5.30008e-005
-4.85965e-008
5.304e-005
-3.96854e-008
5.30786e-005
-3.56572e-008
5.31209e-005
-3.77744e-008
5.31693e-005
-4.22234e-008
5.32239e-005
-4.28445e-008
5.32835e-005
-3.38426e-008
5.33471e-005
-1.03208e-008
5.34122e-005
3.57691e-008
5.34669e-005
1.23709e-007
5.34806e-005
2.7985e-007
5.34116e-005
5.1076e-007
5.32322e-005
7.75576e-007
5.29619e-005
9.83354e-007
5.26881e-005
1.02989e-006
5.24213e-005
1.0089e-006
5.20649e-005
1.0482e-006
5.16949e-005
9.20337e-007
5.13885e-005
5.16847e-007
2.13439e-007
5.00288e-005
-1.62108e-007
5.0038e-005
2.46338e-008
5.00509e-005
6.53635e-008
5.00648e-005
7.66249e-008
5.00779e-005
7.93425e-008
5.00898e-005
7.89004e-008
5.01007e-005
7.75248e-008
5.01107e-005
7.59803e-008
5.01202e-005
7.4482e-008
5.01293e-005
7.30627e-008
5.0138e-005
7.17475e-008
5.01465e-005
7.05939e-008
5.0155e-005
6.96654e-008
5.01637e-005
6.90606e-008
5.01727e-005
6.88266e-008
5.0182e-005
6.87734e-008
5.01914e-005
6.83081e-008
5.02002e-005
6.73225e-008
5.02086e-005
6.64733e-008
5.02169e-005
6.58835e-008
5.02252e-005
6.55731e-008
5.02338e-005
6.54026e-008
5.02428e-005
6.5135e-008
5.02523e-005
6.46559e-008
5.02623e-005
6.41809e-008
5.02728e-005
6.39072e-008
5.0284e-005
6.36859e-008
5.0297e-005
6.31862e-008
5.03114e-005
6.19799e-008
5.03269e-005
6.12927e-008
5.03429e-005
6.09107e-008
5.03597e-005
6.06349e-008
5.03773e-005
6.03864e-008
5.03961e-005
6.0076e-008
5.04164e-005
5.96528e-008
5.04379e-005
5.92348e-008
5.04597e-005
5.92344e-008
5.04809e-005
6.025e-008
5.05012e-005
6.16908e-008
5.0521e-005
6.29432e-008
5.05407e-005
6.39403e-008
5.05603e-005
6.47867e-008
5.058e-005
6.55465e-008
5.05998e-005
6.62685e-008
5.06197e-005
6.69986e-008
5.06398e-005
6.77546e-008
5.06605e-005
6.85274e-008
5.06821e-005
6.91927e-008
5.07044e-005
6.971e-008
5.07271e-005
7.00678e-008
5.07503e-005
7.02717e-008
5.07738e-005
7.03999e-008
5.07979e-005
7.05264e-008
5.08229e-005
7.05652e-008
5.08493e-005
7.05385e-008
5.08771e-005
7.07391e-008
5.0906e-005
7.13329e-008
5.09354e-005
7.21892e-008
5.09653e-005
7.30858e-008
5.09963e-005
7.42092e-008
5.10292e-005
7.60646e-008
5.10647e-005
7.77941e-008
5.11017e-005
7.89757e-008
5.11397e-005
7.97969e-008
5.11784e-005
8.04919e-008
5.12181e-005
8.1239e-008
5.12588e-005
8.20781e-008
5.13005e-005
8.2215e-008
5.13427e-005
8.19677e-008
5.13851e-005
8.15601e-008
5.14277e-005
8.11296e-008
5.14703e-005
8.0684e-008
5.15131e-005
8.02268e-008
5.15559e-005
7.98187e-008
5.15987e-005
7.94858e-008
5.16417e-005
7.91637e-008
5.16847e-005
7.88043e-008
5.17278e-005
7.83995e-008
5.17709e-005
7.79726e-008
5.18141e-005
7.7551e-008
5.18573e-005
7.72122e-008
5.19007e-005
7.69779e-008
5.19442e-005
7.68212e-008
5.19879e-005
7.67523e-008
5.2032e-005
7.68119e-008
5.20765e-005
7.70649e-008
5.21219e-005
7.75615e-008
5.21687e-005
7.82586e-008
5.22173e-005
7.88989e-008
5.22675e-005
7.89695e-008
5.23183e-005
7.79656e-008
5.23683e-005
7.59924e-008
5.24168e-005
7.4487e-008
5.24643e-005
7.3661e-008
5.25111e-005
7.33044e-008
5.25575e-005
7.31806e-008
5.26039e-005
7.3271e-008
5.26502e-005
7.35336e-008
5.26966e-005
7.3945e-008
5.27431e-005
7.43779e-008
5.27897e-005
7.48196e-008
5.28365e-005
7.53555e-008
5.28837e-005
7.60301e-008
5.29312e-005
7.67472e-008
5.29788e-005
7.73369e-008
5.30262e-005
7.77025e-008
5.30729e-005
7.78653e-008
5.3119e-005
7.7928e-008
5.31642e-005
7.79738e-008
5.32086e-005
7.80496e-008
5.32522e-005
7.81722e-008
5.32952e-005
7.83304e-008
5.33375e-005
7.85011e-008
5.33792e-005
7.86688e-008
5.34205e-005
7.88284e-008
5.34613e-005
7.89732e-008
5.35017e-005
7.90926e-008
5.35417e-005
7.91799e-008
5.35813e-005
7.92283e-008
5.36205e-005
7.92313e-008
5.36594e-005
7.92025e-008
5.36979e-005
7.91629e-008
5.37361e-005
7.91268e-008
5.37741e-005
7.91014e-008
5.38119e-005
7.9096e-008
5.38495e-005
7.91242e-008
5.38868e-005
7.92037e-008
5.3924e-005
7.93549e-008
5.3961e-005
7.96005e-008
5.39979e-005
7.99712e-008
5.40349e-005
8.05239e-008
5.40719e-005
8.1374e-008
5.41093e-005
8.27085e-008
5.41473e-005
8.49019e-008
5.41863e-005
8.86521e-008
5.42257e-005
9.51734e-008
5.42647e-005
1.04691e-007
5.43015e-005
1.16182e-007
5.43335e-005
1.26758e-007
5.43589e-005
1.33056e-007
5.43778e-005
1.34375e-007
5.43936e-005
1.30055e-007
5.44102e-005
1.21263e-007
5.44279e-005
1.13477e-007
5.44454e-005
1.08945e-007
5.44626e-005
1.0627e-007
5.44796e-005
1.04582e-007
5.44963e-005
1.03509e-007
5.45129e-005
1.02937e-007
5.45294e-005
1.02753e-007
5.45456e-005
1.02719e-007
5.45616e-005
1.02619e-007
5.45775e-005
1.02322e-007
5.45934e-005
1.01764e-007
5.46092e-005
1.00936e-007
5.46249e-005
9.98079e-008
5.46406e-005
9.83375e-008
5.46563e-005
9.65124e-008
5.4672e-005
9.43593e-008
5.46877e-005
9.19616e-008
5.47033e-005
8.94051e-008
5.47188e-005
8.67174e-008
5.47341e-005
8.39207e-008
5.47494e-005
8.10634e-008
5.47646e-005
7.81656e-008
5.47798e-005
7.51923e-008
5.47951e-005
7.21483e-008
5.48105e-005
6.91226e-008
5.4826e-005
6.61027e-008
5.48419e-005
6.25565e-008
5.48574e-005
5.71556e-008
5.48711e-005
4.83089e-008
5.48801e-005
3.52742e-008
5.48832e-005
1.88939e-008
5.48807e-005
1.2357e-009
5.48741e-005
-1.55487e-008
5.48643e-005
-2.98592e-008
5.48526e-005
-4.04371e-008
5.48409e-005
-4.64303e-008
5.48323e-005
-4.78392e-008
5.48297e-005
-4.5969e-008
5.48326e-005
-4.26073e-008
5.48341e-005
-3.70805e-008
5.48254e-005
-2.91351e-008
5.48058e-005
-2.25941e-008
5.47798e-005
-1.68401e-008
5.47529e-005
-6.97216e-009
5.47321e-005
1.05108e-008
5.47274e-005
4.04191e-008
5.47601e-005
9.10369e-008
5.48669e-005
1.73069e-007
5.50775e-005
3.00196e-007
5.53603e-005
4.92702e-007
5.55913e-005
7.52429e-007
5.56589e-005
9.62277e-007
5.55907e-005
1.07707e-006
5.53715e-005
1.26738e-006
5.49397e-005
1.35211e-006
5.44554e-005
1.00116e-006
5.76917e-007
5.0026e-005
-1.88116e-007
5.00383e-005
1.23218e-008
5.00512e-005
5.24889e-008
5.00643e-005
6.34711e-008
5.00771e-005
6.6571e-008
5.00892e-005
6.6835e-008
5.01005e-005
6.61611e-008
5.01113e-005
6.51828e-008
5.01217e-005
6.41125e-008
5.01318e-005
6.30286e-008
5.01415e-005
6.19825e-008
5.01511e-005
6.10263e-008
5.01605e-005
6.02058e-008
5.017e-005
5.95742e-008
5.01797e-005
5.9139e-008
5.01897e-005
5.88166e-008
5.01996e-005
5.83424e-008
5.02093e-005
5.76828e-008
5.02187e-005
5.70249e-008
5.02281e-005
5.64917e-008
5.02376e-005
5.61114e-008
5.02472e-005
5.57865e-008
5.02569e-005
5.53911e-008
5.02667e-005
5.48492e-008
5.02766e-005
5.42929e-008
5.02867e-005
5.38382e-008
5.0297e-005
5.33676e-008
5.03075e-005
5.26732e-008
5.03178e-005
5.17128e-008
5.0328e-005
5.10654e-008
5.03383e-005
5.06395e-008
5.03486e-005
5.03067e-008
5.0359e-005
4.99984e-008
5.03694e-005
4.96993e-008
5.03796e-005
4.94321e-008
5.03895e-005
4.93428e-008
5.03991e-005
4.96768e-008
5.04087e-005
5.05962e-008
5.04186e-005
5.17768e-008
5.04287e-005
5.28927e-008
5.04388e-005
5.38443e-008
5.04489e-005
5.46514e-008
5.04591e-005
5.53653e-008
5.04693e-005
5.6038e-008
5.04796e-005
5.66766e-008
5.04901e-005
5.72606e-008
5.05009e-005
5.77298e-008
5.05122e-005
5.79772e-008
5.05238e-005
5.80736e-008
5.05357e-005
5.81646e-008
5.05477e-005
5.82216e-008
5.05599e-005
5.82363e-008
5.05722e-005
5.82482e-008
5.05845e-005
5.82157e-008
5.05969e-005
5.81562e-008
5.06094e-005
5.82476e-008
5.06222e-005
5.85742e-008
5.06353e-005
5.90223e-008
5.06491e-005
5.93607e-008
5.06638e-005
5.94212e-008
5.06809e-005
5.90303e-008
5.07007e-005
5.7999e-008
5.07225e-005
5.71526e-008
5.07455e-005
5.68248e-008
5.07693e-005
5.66149e-008
5.07944e-005
5.62188e-008
5.08209e-005
5.55861e-008
5.08484e-005
5.47153e-008
5.08761e-005
5.42085e-008
5.09038e-005
5.39251e-008
5.09312e-005
5.36828e-008
5.09584e-005
5.34445e-008
5.09854e-005
5.32187e-008
5.10123e-005
5.30148e-008
5.10389e-005
5.27916e-008
5.10656e-005
5.25155e-008
5.10922e-005
5.22254e-008
5.11186e-005
5.19474e-008
5.11449e-005
5.16737e-008
5.11711e-005
5.14087e-008
5.11971e-005
5.11689e-008
5.12232e-005
5.0908e-008
5.12494e-005
5.06144e-008
5.12758e-005
5.03181e-008
5.13026e-005
4.99994e-008
5.13301e-005
4.95881e-008
5.13587e-005
4.89634e-008
5.1389e-005
4.80157e-008
5.1421e-005
4.68081e-008
5.14543e-005
4.57203e-008
5.1487e-005
4.52288e-008
5.15175e-005
4.55475e-008
5.15455e-005
4.64242e-008
5.15722e-005
4.69798e-008
5.15983e-005
4.72442e-008
5.16241e-005
4.73914e-008
5.16498e-005
4.756e-008
5.16755e-005
4.78354e-008
5.17012e-005
4.82092e-008
5.17271e-005
4.85188e-008
5.17532e-005
4.86929e-008
5.17798e-005
4.87462e-008
5.18072e-005
4.86704e-008
5.18354e-005
4.85143e-008
5.18642e-005
4.85322e-008
5.18929e-005
4.89684e-008
5.1921e-005
4.97719e-008
5.19482e-005
5.07433e-008
5.19745e-005
5.17018e-008
5.2e-005
5.25386e-008
5.20249e-005
5.32234e-008
5.20495e-005
5.37749e-008
5.20738e-005
5.42256e-008
5.20978e-005
5.46049e-008
5.21217e-005
5.49304e-008
5.21455e-005
5.52055e-008
5.21692e-005
5.54269e-008
5.21928e-005
5.56013e-008
5.22162e-005
5.57363e-008
5.22396e-005
5.58335e-008
5.2263e-005
5.58931e-008
5.22862e-005
5.59228e-008
5.23094e-005
5.59389e-008
5.23325e-005