/*--------------------------------*- C++ -*----------------------------------*\
| =========                 |                                                 |
| \\      /  F ield         | OpenFOAM: The Open Source CFD Toolbox           |
|  \\    /   O peration     | Version:  5.x                                   |
|   \\  /    A nd           | Web:      www.OpenFOAM.org                      |
|    \\/     M anipulation  |                                                 |
\*---------------------------------------------------------------------------*/
/*   Windows 32 and 64 bit porting by blueCAPE: http://www.bluecape.com.pt   *\
|  Based on Windows porting (2.0.x v4) by Symscape: http://www.symscape.com   |
\*---------------------------------------------------------------------------*/
FoamFile
{
    version     2.0;
    format      ascii;
    class       volScalarField;
    location    "10";
    object      yPlus;
}
// * * * * * * * * * * * * * * * * * * * * * * * * * * * * * * * * * * * * * //

dimensions      [0 0 0 0 0 0 0];

internalField   uniform 0;

boundaryField
{
    walls
    {
        type            calculated;
        value           nonuniform List<scalar> 
400
(
8.96574
8.67962
8.44905
8.27957
8.16685
8.0989
8.06179
8.04374
8.03648
8.03491
8.03618
8.03873
8.04173
8.0448
8.04783
8.05086
8.05392
8.05701
8.06012
8.06326
8.06642
8.06962
8.07286
8.07616
8.07949
8.08287
8.08628
8.08972
8.09317
8.09654
8.09961
8.10243
8.10496
8.10729
8.10952
8.11158
8.11348
8.11542
8.11743
8.11951
8.12166
8.12385
8.12609
8.12837
8.13067
8.13297
8.13526
8.13751
8.13974
8.14195
8.14416
8.14638
8.14861
8.15086
8.15313
8.15541
8.15772
8.16005
8.1624
8.16476
8.16713
8.16951
8.17191
8.17431
8.17672
8.17915
8.18158
8.18403
8.18648
8.18894
8.19141
8.19389
8.19639
8.19889
8.2014
8.20392
8.20645
8.20899
8.21153
8.21409
8.21664
8.21921
8.22178
8.22435
8.22692
8.2295
8.23207
8.23462
8.23714
8.23962
8.24207
8.24452
8.24695
8.24938
8.25181
8.25423
8.25666
8.25909
8.26153
8.26396
8.26639
8.26883
8.27126
8.27369
8.27613
8.27858
8.28104
8.28351
8.28601
8.28853
8.29107
8.29363
8.29619
8.29876
8.30132
8.30389
8.30645
8.30902
8.31158
8.31414
8.31669
8.31924
8.3218
8.32434
8.32688
8.32943
8.33196
8.3345
8.33703
8.33957
8.34209
8.34461
8.34713
8.34964
8.35215
8.35465
8.35713
8.35961
8.36208
8.36454
8.367
8.36947
8.37193
8.37441
8.37687
8.37933
8.38177
8.38419
8.38658
8.38897
8.39135
8.39373
8.39611
8.39848
8.40085
8.4032
8.40554
8.40788
8.41021
8.41254
8.41486
8.41719
8.41952
8.42187
8.42422
8.42657
8.42895
8.43133
8.43373
8.43615
8.43858
8.44104
8.44352
8.44604
8.44859
8.45119
8.45385
8.45655
8.45928
8.46207
8.46489
8.46775
8.47065
8.47359
8.47656
8.47956
8.48258
8.48561
8.48862
8.4916
8.49448
8.49723
8.49981
8.50222
8.50452
8.50687
8.50964
8.51355
8.51937
8.52719
8.87551
8.60791
8.39718
8.24476
8.14438
8.08425
8.05162
8.03593
8.02979
8.02867
8.03003
8.03255
8.03559
8.03885
8.0422
8.04559
8.04899
8.0524
8.05583
8.05926
8.0627
8.06616
8.06963
8.07311
8.07661
8.08011
8.08361
8.08712
8.09062
8.09413
8.09764
8.10105
8.10421
8.10717
8.10998
8.11255
8.11496
8.1173
8.11952
8.12154
8.12353
8.12556
8.12762
8.12973
8.13187
8.13406
8.13624
8.13841
8.14054
8.14266
8.14478
8.14691
8.14906
8.15123
8.15343
8.15565
8.1579
8.16016
8.16246
8.16477
8.1671
8.16945
8.17181
8.17419
8.17658
8.17898
8.18139
8.18381
8.18624
8.18867
8.19112
8.19357
8.19603
8.1985
8.20097
8.20346
8.20595
8.20845
8.21095
8.21347
8.21598
8.21851
8.22104
8.22358
8.22612
8.22866
8.2312
8.23372
8.2362
8.23866
8.24109
8.24351
8.24593
8.24833
8.25074
8.25315
8.25557
8.25799
8.26042
8.26287
8.26534
8.26784
8.27035
8.27288
8.27541
8.27794
8.28047
8.283
8.28553
8.28806
8.29058
8.2931
8.29563
8.29815
8.30066
8.30318
8.30569
8.3082
8.3107
8.31321
8.31571
8.31821
8.3207
8.3232
8.32569
8.32818
8.33066
8.33314
8.33563
8.33812
8.34061
8.3431
8.34559
8.34808
8.35057
8.35306
8.35554
8.35802
8.36049
8.36296
8.36542
8.36788
8.37034
8.37278
8.37521
8.37761
8.37998
8.38231
8.38462
8.38689
8.38914
8.39136
8.39355
8.39572
8.39784
8.39993
8.40199
8.40404
8.40605
8.40805
8.41003
8.41199
8.41393
8.41585
8.41773
8.41957
8.42137
8.42313
8.42485
8.42655
8.42821
8.42985
8.43147
8.43307
8.43462
8.43614
8.4376
8.43902
8.44038
8.44168
8.44292
8.4441
8.44521
8.44624
8.44718
8.44802
8.44874
8.4493
8.44967
8.44984
8.44975
8.44935
8.44865
8.44766
8.44645
8.44518
8.44417
8.44379
8.44714
8.45978
)
;
    }
    inlet
    {
        type            calculated;
        value           uniform 0;
    }
    outlet
    {
        type            calculated;
        value           uniform 0;
    }
    frontAndBack
    {
        type            empty;
    }
}


// ************************************************************************* //
