/*--------------------------------*- C++ -*----------------------------------*\
| =========                 |                                                 |
| \\      /  F ield         | OpenFOAM: The Open Source CFD Toolbox           |
|  \\    /   O peration     | Version:  5.x                                   |
|   \\  /    A nd           | Web:      www.OpenFOAM.org                      |
|    \\/     M anipulation  |                                                 |
\*---------------------------------------------------------------------------*/
/*   Windows 32 and 64 bit porting by blueCAPE: http://www.bluecape.com.pt   *\
|  Based on Windows porting (2.0.x v4) by Symscape: http://www.symscape.com   |
\*---------------------------------------------------------------------------*/
FoamFile
{
    version     2.0;
    format      ascii;
    class       volScalarField;
    location    "0.09";
    object      p;
}
// * * * * * * * * * * * * * * * * * * * * * * * * * * * * * * * * * * * * * //

dimensions      [0 2 -2 0 0 0 0];

internalField   nonuniform List<scalar> 
750
(
0.36566836
0.36574447
0.3654743
0.36522927
0.36489146
0.36449976
0.36407562
0.36361485
0.3631354
0.36263877
0.36212843
0.36160757
0.36107946
0.3605371
0.35997647
0.35940001
0.35876461
0.35808928
0.35728462
0.35623447
0.35516924
0.35242586
0.35131991
0.34192653
0.33778272
0.36567436
0.36574975
0.36547957
0.36523377
0.36489428
0.36450263
0.36407727
0.36361636
0.36313636
0.36263947
0.36212905
0.36160824
0.36108001
0.36053782
0.35997802
0.35940146
0.35876853
0.35809459
0.35729175
0.3562602
0.35516904
0.35252622
0.35126942
0.34212157
0.33780689
0.36568554
0.36576172
0.36548926
0.3652422
0.36490062
0.36450783
0.36408095
0.36361924
0.36313842
0.36264104
0.36213041
0.36160959
0.36108141
0.3605398
0.35998122
0.35940601
0.35877686
0.3581074
0.35731309
0.35630017
0.35521871
0.35265394
0.35137059
0.34236167
0.33831608
0.36570311
0.36577861
0.3655047
0.36525415
0.36491062
0.36451534
0.36408662
0.36362347
0.36314155
0.36264342
0.3621324
0.36161151
0.36108358
0.36054289
0.35998584
0.35941327
0.35878906
0.35812657
0.35734675
0.35635176
0.35530577
0.35280576
0.35158829
0.34266542
0.33912333
0.36572716
0.36580034
0.3655259
0.36526975
0.36492408
0.36452523
0.36409418
0.36362906
0.3631457
0.36264656
0.362135
0.36161401
0.36108646
0.36054696
0.35999179
0.35942282
0.35880485
0.35815117
0.35739115
0.35641711
0.35542454
0.35299028
0.35189267
0.34305966
0.34016591
0.36575752
0.3658274
0.36555266
0.3652892
0.36494086
0.36453756
0.36410356
0.36363599
0.36315083
0.36265042
0.3621382
0.36161708
0.36108997
0.36055186
0.35999897
0.35943432
0.35882394
0.3581808
0.35744506
0.35649986
0.35557258
0.35322875
0.35228217
0.34352915
0.34171035
0.36579405
0.3658603
0.36558483
0.3653126
0.36496092
0.36455229
0.36411471
0.36364423
0.3631569
0.36265498
0.36214196
0.36162067
0.36109406
0.36055753
0.36000732
0.35944756
0.35884607
0.35821555
0.3575069
0.35659878
0.35574433
0.35352234
0.35280673
0.34407435
0.34412542
0.36583641
0.3658999
0.36562208
0.36534009
0.36498418
0.36456938
0.36412759
0.36365374
0.36316389
0.3626602
0.36214624
0.36162477
0.36109873
0.36056397
0.36001694
0.3594625
0.35887113
0.35825504
0.35757516
0.35671276
0.35595236
0.35385618
0.35356235
0.34499188
0.34791449
0.36588419
0.36594689
0.36566401
0.36537198
0.36501032
0.36458892
0.36414205
0.36366449
0.36317176
0.36266601
0.36215103
0.36162942
0.36110393
0.36057106
0.36002779
0.35947921
0.35889879
0.35829833
0.35765058
0.35683737
0.3562037
0.35426281
0.35451294
0.34638819
0.35258091
0.36593897
0.36599865
0.36571208
0.36540838
0.36503892
0.36461101
0.36415794
0.36367645
0.36318038
0.36267235
0.36215624
0.3616344
0.36110937
0.36057842
0.36003927
0.35949676
0.3589285
0.35834422
0.35772992
0.35697307
0.35643148
0.35479259
0.35533087
0.34827214
0.35743547
0.31524039
0.30464356
0.28908079
0.2765965
0.26330234
0.2505187
0.23763212
0.22479754
0.21194678
0.19910274
0.18625686
0.17341167
0.16056633
0.14772104
0.13487573
0.12203041
0.1091851
0.096339795
0.083494486
0.07064917
0.057803864
0.044958563
0.032113248
0.01926795
0.0064226428
0.31493065
0.30437574
0.28892466
0.27653173
0.26327151
0.25051412
0.23763516
0.22479792
0.21194706
0.19910261
0.18625684
0.17341167
0.16056634
0.14772104
0.13487573
0.12203041
0.1091851
0.096339795
0.083494485
0.070649172
0.057803865
0.044958562
0.03211325
0.019267948
0.0064226459
0.31432195
0.30431435
0.28861789
0.27646613
0.26323793
0.25050234
0.23763421
0.22479749
0.21194725
0.19910254
0.18625683
0.17341167
0.16056634
0.14772104
0.13487573
0.12203042
0.1091851
0.096339793
0.083494481
0.070649175
0.057803868
0.044958559
0.032113251
0.019267945
0.0064226488
0.31350842
0.30433733
0.28829883
0.27635936
0.26321744
0.25049062
0.23763164
0.22479707
0.21194739
0.19910247
0.18625682
0.17341167
0.16056635
0.14772104
0.13487573
0.12203042
0.1091851
0.09633979
0.083494482
0.070649178
0.057803868
0.044958557
0.032113251
0.019267944
0.006422651
0.31282461
0.30422484
0.28814902
0.27621608
0.26318964
0.25048327
0.237629
0.22479673
0.21194747
0.19910241
0.18625681
0.17341167
0.16056635
0.14772105
0.13487573
0.12203042
0.10918511
0.096339791
0.083494484
0.070649176
0.057803864
0.044958557
0.032113252
0.019267942
0.0064226495
0.3121914
0.30412204
0.28799587
0.27608814
0.26314717
0.25047768
0.23762662
0.22479624
0.21194747
0.19910238
0.18625682
0.17341168
0.16056635
0.14772105
0.13487573
0.12203042
0.10918511
0.096339793
0.083494484
0.070649174
0.057803864
0.044958558
0.032113253
0.019267942
0.0064226476
0.31111468
0.30413661
0.28769821
0.27600722
0.26311218
0.25047391
0.23762474
0.22479597
0.21194738
0.1991024
0.18625683
0.17341169
0.16056635
0.14772105
0.13487573
0.12203042
0.10918511
0.096339794
0.083494483
0.070649174
0.057803865
0.044958558
0.032113252
0.019267944
0.0064226471
0.30980642
0.30393722
0.28739361
0.2759642
0.26308914
0.25047393
0.23762412
0.22479626
0.21194723
0.19910245
0.18625684
0.1734117
0.16056635
0.14772105
0.13487573
0.12203042
0.10918511
0.096339794
0.083494484
0.070649174
0.057803865
0.044958559
0.032113251
0.019267946
0.006422647
0.30788427
0.30358799
0.28719489
0.27594068
0.26307846
0.25047827
0.23762462
0.22479696
0.21194714
0.19910251
0.18625686
0.17341172
0.16056635
0.14772105
0.13487573
0.12203042
0.10918511
0.096339794
0.083494484
0.070649174
0.057803865
0.04495856
0.032113251
0.019267946
0.0064226463
0.30295488
0.30398112
0.28713358
0.27604471
0.26305518
0.25048619
0.23762166
0.22479781
0.21194669
0.19910262
0.18625685
0.17341173
0.16056635
0.14772105
0.13487573
0.12203042
0.10918511
0.096339793
0.083494484
0.070649175
0.057803865
0.044958559
0.032113251
0.019267946
0.0064226464
0.36606731
0.36610679
0.36582388
0.3654895
0.36510123
0.36465985
0.36419241
0.36370234
0.36319882
0.36268582
0.36216706
0.3616444
0.36112015
0.36059302
0.36006214
0.35953146
0.35898973
0.35844042
0.35788662
0.35726976
0.35678249
0.35595536
0.35653161
0.35329159
0.37037969
0.36631551
0.36634952
0.36602995
0.36564766
0.36522306
0.36475044
0.36425792
0.36374982
0.36323263
0.36271057
0.36218681
0.3616617
0.36113863
0.36061838
0.36009983
0.35958849
0.35908391
0.35858508
0.35811282
0.35763296
0.35726291
0.35683128
0.35694478
0.35495956
0.36042191
0.36663887
0.3666689
0.3662851
0.36584013
0.36536791
0.36485516
0.36433242
0.36380257
0.36326951
0.36273713
0.36220685
0.36167859
0.36115557
0.36064085
0.36013467
0.35964078
0.35916792
0.35871618
0.3583149
0.35794806
0.35771932
0.35755167
0.35773708
0.35740707
0.35976034
0.36705336
0.36707915
0.36659272
0.36606334
0.36552936
0.36496912
0.3644114
0.36385699
0.36330684
0.3627627
0.36222463
0.36169246
0.36116897
0.36065733
0.36016047
0.35968109
0.35923237
0.35881931
0.35846965
0.35818537
0.3580426
0.35801664
0.35825854
0.35870393
0.35935884
0.36759336
0.36758767
0.36694924
0.36630897
0.3656985
0.36508487
0.36448925
0.36390873
0.36334122
0.36278459
0.36223823
0.36170141
0.36117659
0.36066586
0.36017288
0.35970362
0.3592702
0.35888335
0.3585677
0.35833918
0.35824509
0.35829647
0.35859423
0.35932131
0.35935768
0.36834127
0.36817053
0.3673393
0.36656317
0.36586303
0.36519252
0.36455914
0.36395319
0.36336888
0.36280044
0.36224584
0.36170449
0.36117639
0.36066404
0.36017105
0.35970567
0.3592787
0.35890354
0.35860263
0.35839822
0.3583245
0.35840594
0.35869619
0.35949058
0.35930682
0.36945381
0.36877127
0.36773566
0.3668029
0.36600528
0.3652804
0.3646137
0.36398607
0.36338668
0.36280808
0.36224603
0.36169919
0.36116606
0.36064922
0.36015273
0.35968398
0.35925346
0.35887523
0.35856975
0.35835997
0.35827706
0.35834644
0.35859294
0.35936
0.35912718
0.37134
0.36924346
0.36806023
0.36697915
0.36610131
0.36533609
0.36464473
0.36400181
0.36339159
0.36280506
0.36223648
0.36168289
0.36114304
0.36061825
0.36011244
0.35963194
0.35918632
0.35878908
0.35845902
0.35821802
0.35809519
0.35811733
0.35830055
0.35900711
0.35879858
0.37523393
0.36940857
0.36833997
0.36708014
0.36614388
0.3653529
0.36464671
0.36399542
0.36337903
0.36278641
0.36221085
0.36164812
0.36109656
0.36055642
0.36003058
0.35952434
0.35904564
0.35860593
0.35822246
0.35791669
0.35771601
0.35765485
0.35775385
0.3583821
0.35824172
0.37652044
0.368151
0.36865543
0.3671407
0.36619749
0.36538339
0.36466508
0.36400671
0.36338632
0.36279159
0.36221502
0.36165216
0.36110106
0.36056187
0.36003726
0.35953208
0.35905522
0.3586172
0.35823385
0.35792624
0.35772048
0.35765351
0.35770421
0.35829121
0.35813506
)
;

boundaryField
{
    inlet
    {
        type            zeroGradient;
    }
    walls
    {
        type            zeroGradient;
    }
    outlet
    {
        type            fixedValue;
        value           uniform 0;
    }
    centreline
    {
        type            symmetryPlane;
    }
    frontAndBack
    {
        type            empty;
    }
}


// ************************************************************************* //
