/*--------------------------------*- C++ -*----------------------------------*\
| =========                 |                                                 |
| \\      /  F ield         | OpenFOAM: The Open Source CFD Toolbox           |
|  \\    /   O peration     | Version:  5.x                                   |
|   \\  /    A nd           | Web:      www.OpenFOAM.org                      |
|    \\/     M anipulation  |                                                 |
\*---------------------------------------------------------------------------*/
/*   Windows 32 and 64 bit porting by blueCAPE: http://www.bluecape.com.pt   *\
|  Based on Windows porting (2.0.x v4) by Symscape: http://www.symscape.com   |
\*---------------------------------------------------------------------------*/
FoamFile
{
    version     2.0;
    format      ascii;
    class       surfaceScalarField;
    location    "0.09";
    object      phi;
}
// * * * * * * * * * * * * * * * * * * * * * * * * * * * * * * * * * * * * * //

dimensions      [0 3 -1 0 0 0 0];

internalField   nonuniform List<scalar> 
1430
(
5.0876555e-006
-8.6375211e-008
5.1894639e-006
-1.0180832e-007
5.2834391e-006
-9.3975209e-008
5.3603992e-006
-7.6960105e-008
5.4250393e-006
-6.4640034e-008
5.4792665e-006
-5.4227254e-008
5.5251527e-006
-4.5886128e-008
5.5656917e-006
-4.0539048e-008
5.6036682e-006
-3.7976496e-008
5.6426469e-006
-3.8978629e-008
5.6864695e-006
-4.382263e-008
5.7402591e-006
-5.3789605e-008
5.8102922e-006
-7.0033034e-008
5.9052498e-006
-9.4957677e-008
6.037807e-006
-1.3255722e-007
6.225871e-006
-1.88064e-007
6.4977944e-006
-2.7192337e-007
6.8959371e-006
-3.9814268e-007
7.4855781e-006
-5.8964101e-007
8.3917494e-006
-9.0617131e-007
9.803011e-006
-1.4112616e-006
1.2143478e-005
-2.3404674e-006
1.5727466e-005
-3.5839875e-006
2.0693066e-005
-4.9655998e-006
-5.815567e-006
2.6508633e-005
5.0869105e-006
-1.7200541e-007
5.1904611e-006
-2.0535886e-007
5.2837343e-006
-1.8724835e-007
5.3611231e-006
-1.5434888e-007
5.4256599e-006
-1.291768e-007
5.479735e-006
-1.0830231e-007
5.5254862e-006
-9.1637356e-008
5.5658057e-006
-8.0858534e-008
5.6035636e-006
-7.5734358e-008
5.6422767e-006
-7.76917e-008
5.6857853e-006
-8.7331297e-008
5.7391483e-006
-1.071526e-007
5.8086007e-006
-1.394854e-007
5.902747e-006
-1.8910397e-007
6.0340243e-006
-2.6383454e-007
6.2203354e-006
-3.7437514e-007
6.4891645e-006
-5.4075251e-007
6.8824449e-006
-7.9142309e-007
7.4648385e-006
-1.1720346e-006
8.3562141e-006
-1.7975469e-006
9.7576206e-006
-2.812668e-006
1.2044821e-005
-4.6276682e-006
1.5593214e-005
-7.1323799e-006
2.0369773e-005
-9.7421593e-006
-1.1505863e-005
2.6060068e-005
5.0870374e-006
-2.5776249e-007
5.1910789e-006
-3.0940035e-007
5.2848277e-006
-2.8099705e-007
5.3624511e-006
-2.3197225e-007
5.4268681e-006
-1.9359386e-007
5.4807297e-006
-1.6216385e-007
5.5261374e-006
-1.3704505e-007
5.5660802e-006
-1.2080133e-007
5.6033988e-006
-1.1305292e-007
5.6415906e-006
-1.1588354e-007
5.6844678e-006
-1.3020851e-007
5.7370093e-006
-1.5969408e-007
5.8053056e-006
-2.0778171e-007
5.897808e-006
-2.8160635e-007
6.0266886e-006
-3.9271521e-007
6.209295e-006
-5.5698151e-007
6.4722965e-006
-8.0375408e-007
6.8560937e-006
-1.1752203e-006
7.4229407e-006
-1.7388816e-006
8.2903012e-006
-2.6649073e-006
9.6534661e-006
-4.1758329e-006
1.1875678e-005
-6.8498798e-006
1.5278756e-005
-1.0535458e-005
1.9815651e-005
-1.4279054e-005
-1.6806958e-005
2.5116746e-005
5.0873227e-006
-3.4380487e-007
5.1920815e-006
-4.1415915e-007
5.2865771e-006
-3.7549259e-007
5.3644637e-006
-3.0985888e-007
5.4287402e-006
-2.5787033e-007
5.4822492e-006
-2.1567277e-007
5.5271599e-006
-1.8195578e-007
5.5665285e-006
-1.6016994e-007
5.6031964e-006
-1.4972074e-007
5.640618e-006
-1.5330523e-007
5.6825464e-006
-1.7213686e-007
5.7338534e-006
-2.1100112e-007
5.8004467e-006
-2.7437497e-007
5.8905095e-006
-3.7166921e-007
6.0158059e-006
-5.1801157e-007
6.1929615e-006
-7.3413712e-007
6.4473201e-006
-1.0581128e-006
6.8172403e-006
-1.5451404e-006
7.3612157e-006
-2.2828571e-006
8.1925466e-006
-3.4962383e-006
9.4986751e-006
-5.4819614e-006
1.1619517e-005
-8.970722e-006
1.4814052e-005
-1.3729993e-005
1.9016767e-005
-1.8481769e-005
-2.1598043e-005
2.3807852e-005
5.0878835e-006
-4.3040805e-007
5.1935531e-006
-5.1982875e-007
5.289028e-006
-4.7096749e-007
5.3671949e-006
-3.8802573e-007
5.4312769e-006
-3.2195234e-007
5.4842991e-006
-2.6869496e-007
5.5285488e-006
-2.2620542e-007
5.5671482e-006
-1.9876935e-007
5.6029527e-006
-1.8552522e-007
5.6393599e-006
-1.8971236e-007
5.6800329e-006
-2.1280989e-007
5.7297055e-006
-2.6067371e-007
5.7940674e-006
-3.387369e-007
5.880931e-006
-4.5853288e-007
6.0015176e-006
-6.3859818e-007
6.1715762e-006
-9.0419567e-007
6.414704e-006
-1.3012406e-006
6.7666348e-006
-1.8970713e-006
7.2809696e-006
-2.7971919e-006
8.0645054e-006
-4.279774e-006
9.2898516e-006
-6.7073076e-006
1.1270558e-005
-1.0951428e-005
1.4194122e-005
-1.6653557e-005
1.7995986e-005
-2.2283633e-005
-2.5797715e-005
2.2195658e-005
5.088827e-006
-5.179547e-007
5.1955919e-006
-6.265936e-007
5.292232e-006
-5.6760758e-007
5.370693e-006
-4.6648675e-007
5.4344974e-006
-3.8575669e-007
5.4868995e-006
-3.2109705e-007
5.5303155e-006
-2.6962145e-007
5.5679518e-006
-2.3640561e-007
5.6026829e-006
-2.202563e-007
5.6378345e-006
-2.24864e-007
5.6769572e-006
-2.5193257e-007
5.7246118e-006
-3.0832835e-007
5.7862306e-006
-4.0035565e-007
5.8691764e-006
-5.4147868e-007
5.9840003e-006
-7.5342212e-007
6.1454128e-006
-1.0656082e-006
6.3748935e-006
-1.5307213e-006
6.7050406e-006
-2.2272184e-006
7.1832422e-006
-3.2753935e-006
7.90651e-006
-5.0030418e-006
9.0260829e-006
-7.8268805e-006
1.0825813e-005
-1.2751158e-005
1.3412742e-005
-1.9240487e-005
1.676486e-005
-2.5635751e-005
-2.9416648e-005
2.0383793e-005
5.090233e-006
-6.0690741e-007
5.1982789e-006
-7.3463944e-007
5.2962416e-006
-6.6557031e-007
5.3750019e-006
-5.4524699e-007
5.4384211e-006
-4.4917591e-007
5.4900626e-006
-3.7273851e-007
5.5324661e-006
-3.1202493e-007
5.5689447e-006
-2.7288416e-007
5.6023946e-006
-2.5370617e-007
5.6360583e-006
-2.5852772e-007
5.6733477e-006
-2.8922196e-007
5.7186157e-006
-3.5359635e-007
5.7770037e-006
-4.5874373e-007
5.8553527e-006
-6.1982762e-007
5.9634339e-006
-8.6150337e-007
6.1147216e-006
-1.2168959e-006
6.3283889e-006
-1.7443885e-006
6.6333343e-006
-2.5321638e-006
7.0696986e-006
-3.7117577e-006
7.7224097e-006
-5.6557529e-006
8.7147737e-006
-8.8192445e-006
1.0292189e-005
-1.4328573e-005
1.2471743e-005
-2.1420042e-005
1.5366253e-005
-2.853026e-005
-3.2410313e-005
1.8359918e-005
5.092158e-006
-6.9778506e-007
5.2016794e-006
-8.4416088e-007
5.301084e-006
-7.6497482e-007
5.3801544e-006
-6.2431743e-007
5.4430539e-006
-5.1207541e-007
5.4937849e-006
-4.2346947e-007
5.5349888e-006
-3.5322883e-007
5.5701156e-006
-3.080109e-007
5.602074e-006
-2.8566457e-007
5.6340261e-006
-2.9047984e-007
5.6692237e-006
-3.2441953e-007
5.7117574e-006
-3.9613012e-007
5.7664453e-006
-5.1343159e-007
5.8395619e-006
-6.9294425e-007
5.9399845e-006
-9.6192603e-007
6.0798412e-006
-1.3567525e-006
6.2758968e-006
-1.9404442e-006
6.5527427e-006
-2.8090098e-006
6.942787e-006
-4.101802e-006
7.5154357e-006
-6.2284016e-006
8.3604186e-006
-9.6642275e-006
9.6720351e-006
-1.5640189e-005
1.1395445e-005
-2.3143451e-005
1.3827452e-005
-3.0962268e-005
-3.4496719e-005
1.5913858e-005
5.0946596e-006
-7.9116433e-007
5.2058262e-006
-9.5532745e-007
5.3067485e-006
-8.6589704e-007
5.386168e-006
-7.0373695e-007
5.4483665e-006
-5.7427385e-007
5.4980368e-006
-4.7313973e-007
5.5378407e-006
-3.9303278e-007
5.5714258e-006
-3.4159602e-007
5.601685e-006
-3.1592372e-007
5.6317077e-006
-3.2050257e-007
5.6645788e-006
-3.5729059e-007
5.7040626e-006
-4.3561389e-007
5.7546123e-006
-5.6398136e-007
5.8219301e-006
-7.6026202e-007
5.9139077e-006
-1.0539036e-006
6.0412341e-006
-1.484079e-006
6.2181601e-006
-2.1173702e-006
6.4644476e-006
-3.0552974e-006
6.8043723e-006
-4.4417267e-006
7.290405e-006
-6.7144343e-006
7.9703494e-006
-1.0344172e-005
8.982476e-006
-1.6652316e-005
1.0211824e-005
-2.4372799e-005
1.2139903e-005
-3.2890347e-005
-3.5272849e-005
1.2916032e-005
5.0973279e-006
-8.8721193e-007
5.2110723e-006
-1.0690717e-006
5.313196e-006
-9.6802071e-007
5.3930428e-006
-7.8358371e-007
5.4543617e-006
-6.3559275e-007
5.5027621e-006
-5.2154011e-007
5.5409811e-006
-4.3125177e-007
5.5728201e-006
-3.7343491e-007
5.6011957e-006
-3.4429934e-007
5.6290747e-006
-3.4838158e-007
5.65938e-006
-3.8759585e-007
5.6955368e-006
-4.7177072e-007
5.7415849e-006
-6.1002952e-007
5.8026233e-006
-8.2130042e-007
5.885484e-006
-1.1367643e-006
5.9993464e-006
-1.5979414e-006
6.1556358e-006
-2.2736596e-006
6.3697215e-006
-3.269383e-006
6.6573769e-006
-4.7293821e-006
7.0514406e-006
-7.108498e-006
7.5652566e-006
-1.0857988e-005
8.2488664e-006
-1.7335926e-005
8.9395138e-006
-2.5063446e-005
9.9851832e-006
-3.3936016e-005
8.7886526e-006
-3.4076318e-005
3.0089884e-005
-3.5812515e-006
3.1817377e-005
-1.7274938e-006
3.2514606e-005
-6.9722884e-007
3.2748269e-005
-2.3366295e-007
3.276467e-005
-1.6401017e-008
3.2721486e-005
4.3184289e-008
3.2694668e-005
2.6817113e-008
3.268768e-005
6.9886266e-009
3.2687743e-005
-6.307261e-011
3.268823e-005
-4.8706346e-010
3.2688299e-005
-6.9443732e-011
3.268825e-005
4.952354e-011
3.2688229e-005
2.139355e-011
3.2688229e-005
4.1376782e-014
3.2688231e-005
-2.5827157e-012
3.2688233e-005
-1.6114728e-012
3.2688234e-005
-1.0659806e-012
3.2688233e-005
3.3683932e-013
3.2688233e-005
7.9191565e-013
3.2688234e-005
-1.2110733e-012
3.2688235e-005
-7.8972735e-013
3.2688234e-005
8.298302e-013
3.2688232e-005
1.5170858e-012
3.2688218e-005
1.4142174e-011
1.3538896e-011
2.9191635e-005
-6.7128189e-006
3.0680128e-005
-3.2159877e-006
3.1231153e-005
-1.2482536e-006
3.1420413e-005
-4.2292273e-007
3.1428014e-005
-2.4002059e-008
3.1394996e-005
7.620191e-008
3.1373794e-005
4.8019241e-008
3.1368433e-005
1.234947e-008
3.1368375e-005
-4.5322762e-012
3.1368752e-005
-8.6379144e-010
3.1368799e-005
-1.1684993e-010
3.1368763e-005
8.5563214e-011
3.1368746e-005
3.8171892e-011
3.1368746e-005
-2.2570203e-014
3.1368748e-005
-4.5607126e-012
3.1368749e-005
-2.931022e-012
3.136875e-005
-1.7760426e-012
3.136875e-005
5.3017117e-013
3.136875e-005
9.3334293e-013
3.136875e-005
-1.6444342e-012
3.136875e-005
-9.7310504e-013
3.136875e-005
1.4479259e-012
3.1368749e-005
2.564555e-012
3.1368742e-005
2.0702033e-011
2.0060763e-011
2.7595238e-005
-9.191311e-006
2.860762e-005
-4.2283701e-006
2.8932518e-005
-1.5731514e-006
2.9023143e-005
-5.1354808e-007
2.9020869e-005
-2.1727593e-008
2.9003263e-005
9.3808171e-008
2.8992075e-005
5.9207066e-008
2.8989265e-005
1.5159589e-008
2.8989181e-005
7.9386406e-011
2.8989366e-005
-1.0486767e-009
2.8989386e-005
-1.3701782e-010
2.8989368e-005
1.0336287e-010
2.898936e-005
4.6324302e-011
2.898936e-005
-3.1418282e-013
2.8989361e-005
-5.5542695e-012
2.8989362e-005
-3.2890776e-012
2.8989362e-005
-1.9513593e-012
2.8989362e-005
7.7979961e-014
2.8989363e-005
1.6128281e-013
2.8989362e-005
-1.0396917e-012
2.8989361e-005
-1.0367832e-013
2.8989361e-005
1.6099582e-012
2.8989361e-005
2.3241972e-012
2.8989365e-005
1.7547892e-011
1.7335375e-011
2.5496566e-005
-1.0880026e-005
2.5950754e-005
-4.6825575e-006
2.5987561e-005
-1.6099587e-006
2.596913e-005
-4.9511698e-007
2.5957968e-005
-1.0565504e-008
2.595667e-005
9.5105905e-008
2.595608e-005
5.9796817e-008
2.5956074e-005
1.5166007e-008
2.5956034e-005
1.1986035e-010
2.5956028e-005
-1.0433975e-009
2.5956021e-005
-1.2936918e-010
2.5956022e-005
1.0209664e-010
2.5956023e-005
4.5177652e-011
2.5956024e-005
-1.0002313e-012
2.5956024e-005
-5.610867e-012
2.5956023e-005
-2.732892e-012
2.5956023e-005
-1.7128987e-012
2.5956024e-005
-8.8680949e-013
2.5956025e-005
-4.7568747e-013
2.5956023e-005
1.5064769e-013
2.5956023e-005
7.2071824e-013
2.5956023e-005
1.0345975e-012
2.5956025e-005
8.5997462e-013
2.5956035e-005
7.2839133e-012
7.7513634e-012
2.3086444e-005
-1.1770811e-005
2.2989215e-005
-4.5853285e-006
2.2742501e-005
-1.3632445e-006
2.2646937e-005
-3.9955314e-007
2.2630128e-005
6.2429841e-009
2.2640692e-005
8.4542593e-008
2.2648566e-005
5.192244e-008
2.2650887e-005
1.2844817e-008
2.2650919e-005
8.8441989e-011
2.2650773e-005
-8.9755509e-010
2.2650746e-005
-1.025454e-010
2.2650762e-005
8.5772121e-011
2.265077e-005
3.7068773e-011
2.2650771e-005
-1.8108488e-012
2.2650771e-005
-4.870182e-012
2.265077e-005
-1.9005809e-012
2.2650769e-005
-1.2768823e-012
2.265077e-005
-1.4557407e-012
2.265077e-005
-4.6037629e-013
2.2650769e-005
8.6738328e-013
2.2650769e-005
6.1630782e-013
2.265077e-005
3.537597e-014
2.2650772e-005
-9.6073765e-013
2.2650784e-005
-5.0081719e-012
-3.9243838e-012
2.041385e-005
-1.1800869e-005
1.9799569e-005
-3.9710477e-006
1.9397312e-005
-9.6098732e-007
1.926922e-005
-2.7146143e-007
1.9252111e-005
2.3352487e-008
1.926971e-005
6.6943308e-008
1.9282614e-005
3.90182e-008
1.9286285e-005
9.1741856e-009
1.9286361e-005
1.2824126e-011
1.9286143e-005
-6.7969006e-010
1.928611e-005
-6.9298167e-011
1.9286134e-005
6.1354089e-011
1.9286145e-005
2.5825912e-011
1.9286146e-005
-2.3661043e-012
1.9286145e-005
-3.6238497e-012
1.9286144e-005
-1.0934406e-012
1.9286143e-005
-7.8529281e-013
1.9286143e-005
-1.4109359e-012
1.9286143e-005
-3.3527465e-013
1.9286143e-005
8.5173959e-013
1.9286143e-005
2.0685327e-013
1.9286144e-005
-8.6979689e-013
1.9286146e-005
-2.5202024e-012
1.9286154e-005
-1.3406574e-011
-1.1807286e-011
1.7348789e-005
-1.0789739e-005
1.634576e-005
-2.9680195e-006
1.5949248e-005
-5.6447504e-007
1.5824251e-005
-1.4646477e-007
1.5813756e-005
3.3847347e-008
1.5834721e-005
4.5978306e-008
1.5849115e-005
2.4624985e-008
1.585299e-005
5.298574e-009
1.5853053e-005
-5.0137774e-011
1.5852822e-005
-4.4853302e-010
1.5852792e-005
-3.9456519e-011
1.5852818e-005
3.6216424e-011
1.5852828e-005
1.4879154e-011
1.5852828e-005
-2.3825788e-012
1.5852827e-005
-2.2602554e-012
1.5852826e-005
-5.0576092e-013
1.5852826e-005
-3.7606177e-013
1.5852826e-005
-1.0570697e-012
1.5852826e-005
-2.3096986e-013
1.5852826e-005
5.9961371e-013
1.5852826e-005
-1.0611956e-013
1.5852827e-005
-1.3992751e-012
1.5852827e-005
-3.3331804e-012
1.5852829e-005
-1.4806232e-011
-1.2961919e-011
1.3693278e-005
-8.5691594e-006
1.2539499e-005
-1.81424e-006
1.2226192e-005
-2.5116837e-007
1.2131376e-005
-5.1649313e-008
1.2134351e-005
3.0873155e-008
1.2155425e-005
2.4904154e-008
1.2168139e-005
1.1911049e-008
1.2171251e-005
2.185803e-009
1.2171265e-005
-6.3672225e-011
1.2171058e-005
-2.4171071e-010
1.2171036e-005
-1.7192217e-011
1.2171057e-005
1.564895e-011
1.2171065e-005
6.3815364e-012
1.2171064e-005
-1.7272716e-012
1.2171063e-005
-1.0720256e-012
1.2171063e-005
-1.6937363e-013
1.2171063e-005
-1.4857796e-013
1.2171062e-005
-6.2316355e-013
1.2171062e-005
-9.3213148e-014
1.2171062e-005
3.4374795e-013
1.2171062e-005
-2.2627213e-013
1.2171062e-005
-1.3522372e-012
1.2171062e-005
-2.9279347e-012
1.2171057e-005
-1.0319562e-011
-8.7828246e-012
9.2947935e-006
-4.9479205e-006
8.1887788e-006
-7.0822534e-007
7.9912062e-006
-5.3595844e-008
7.9459272e-006
-6.3703173e-009
7.9612185e-006
1.5581883e-008
7.978669e-006
7.4536011e-009
7.9872253e-006
3.3548114e-009
7.9890322e-006
3.7897933e-010
7.9889934e-006
-2.4837742e-011
7.9888346e-006
-8.2908037e-011
7.9888209e-006
-3.4878172e-012
7.9888337e-006
2.8059469e-012
7.9888387e-006
1.4343042e-012
7.9888377e-006
-7.3794829e-013
7.9888369e-006
-2.8333328e-013
7.9888367e-006
-2.6535051e-014
7.9888366e-006
-3.2551882e-014
7.9888362e-006
-2.2105628e-013
7.9888361e-006
-1.8301367e-014
7.9888363e-006
1.1124956e-013
7.9888361e-006
-1.4021587e-013
7.9888355e-006
-6.9313782e-013
7.988834e-006
-1.4559989e-012
7.9888275e-006
-3.9063154e-012
-3.1407093e-012
3.840732e-006
3.1325067e-006
3.0789109e-006
3.0725406e-006
3.0881224e-006
3.0955761e-006
3.0989309e-006
3.0993099e-006
3.0992851e-006
3.0992022e-006
3.0991987e-006
3.0992015e-006
3.0992029e-006
3.0992022e-006
3.0992019e-006
3.0992018e-006
3.0992018e-006
3.0992016e-006
3.0992015e-006
3.0992016e-006
3.0992015e-006
3.0992008e-006
3.0991993e-006
3.0991954e-006
1.5300502e-005
-1.1838726e-006
1.5677733e-005
-1.4463034e-006
1.598462e-005
-1.2749076e-006
1.6225163e-005
-1.0241268e-006
1.6404561e-005
-8.1499054e-007
1.6539448e-005
-6.5642672e-007
1.6643717e-005
-5.355207e-007
1.6727352e-005
-4.5707014e-007
1.680006e-005
-4.1700721e-007
1.6869597e-005
-4.1791865e-007
1.6943807e-005
-4.6180531e-007
1.7030687e-005
-5.5865082e-007
1.71399e-005
-7.1924305e-007
1.7282868e-005
-9.6426833e-007
1.747298e-005
-1.326876e-006
1.7729018e-005
-1.8539799e-006
1.8068292e-005
-2.6129329e-006
1.8510759e-005
-3.7118504e-006
1.9068101e-005
-5.2867245e-006
1.9694547e-005
-7.7349439e-006
2.0353022e-005
-1.1516462e-005
2.0460123e-005
-1.7443027e-005
1.9338044e-005
-2.3941367e-005
1.4615904e-005
-2.9213876e-005
-1.9460415e-005
1.5338498e-005
-1.5185298e-006
1.5757862e-005
-1.8656669e-006
1.6083642e-005
-1.6006873e-006
1.6321277e-005
-1.2617621e-006
1.6485722e-005
-9.7943593e-007
1.6600168e-005
-7.7087206e-007
1.6682138e-005
-6.1749118e-007
1.6743298e-005
-5.1822958e-007
1.6792617e-005
-4.6632708e-007
1.6836625e-005
-4.6192571e-007
1.688095e-005
-5.0613105e-007
1.6930173e-005
-6.0787351e-007
1.6989416e-005
-7.7848577e-007
1.7063742e-005
-1.0385946e-006
1.715749e-005
-1.4206243e-006
1.7274461e-005
-1.9709504e-006
1.741345e-005
-2.7519222e-006
1.7563662e-005
-3.8620622e-006
1.7693421e-005
-5.4164834e-006
1.7678911e-005
-7.7204338e-006
1.7295521e-005
-1.1133073e-005
1.5913208e-005
-1.6060714e-005
1.2924246e-005
-2.0952405e-005
6.7734207e-006
-2.3063051e-005
-1.2686994e-005
1.5408527e-005
-1.9232158e-006
1.5892063e-005
-2.3492029e-006
1.6241345e-005
-1.9499694e-006
1.6466775e-005
-1.4871923e-006
1.6605685e-005
-1.118346e-006
1.6690365e-005
-8.5555119e-007
1.674329e-005
-6.7041624e-007
1.6776798e-005
-5.5173825e-007
1.6798857e-005
-4.8838545e-007
1.6814103e-005
-4.7717177e-007
1.6825496e-005
-5.1752434e-007
1.6834122e-005
-6.1649973e-007
1.6840767e-005
-7.8513082e-007
1.6844138e-005
-1.041965e-006
1.6839928e-005
-1.4164143e-006
1.681991e-005
-1.9509327e-006
1.6768211e-005
-2.7002233e-006
1.6650687e-005
-3.7445387e-006
1.6410222e-005
-5.1760184e-006
1.5890127e-005
-7.2003385e-006
1.4818012e-005
-1.0060958e-005
1.263684e-005
-1.3879543e-005
8.9858765e-006
-1.7301441e-005
3.5141971e-006
-1.7591372e-005
-9.172797e-006
1.5563364e-005
-2.4827388e-006
1.6153764e-005
-2.9396032e-006
1.6522817e-005
-2.3190219e-006
1.6718172e-005
-1.6825473e-006
1.6813689e-005
-1.2138627e-006
1.6856387e-005
-8.9824928e-007
1.6872352e-005
-6.8638081e-007
1.6873226e-005
-5.5261278e-007
1.6864917e-005
-4.8007606e-007
1.6849449e-005
-4.6170432e-007
1.6826887e-005
-4.949621e-007
1.6794695e-005
-5.8430745e-007
1.6749169e-005
-7.3960503e-007
1.6683203e-005
-9.7599934e-007
1.6585624e-005
-1.3188353e-006
1.6438548e-005
-1.8038562e-006
1.6214702e-005
-2.4763771e-006
1.5866586e-005
-3.396423e-006
1.5324167e-005
-4.6335998e-006
1.4440608e-005
-6.3167797e-006
1.2972207e-005
-8.5925566e-006
1.0506955e-005
-1.141429e-005
6.8672575e-006
-1.3661744e-005
2.3416926e-006
-1.3065807e-005
-6.8311045e-006
1.5885336e-005
-3.3642338e-006
1.6617893e-005
-3.6721603e-006
1.6978622e-005
-2.6797513e-006
1.710965e-005
-1.813575e-006
1.7135686e-005
-1.2398986e-006
1.7121152e-005
-8.8371471e-007
1.7091893e-005
-6.5712213e-007
1.7055909e-005
-5.1662909e-007
1.7015322e-005
-4.3948855e-007
1.6968653e-005
-4.1503553e-007
1.6912809e-005
-4.3911823e-007
1.6841591e-005
-5.1308962e-007
1.67468e-005
-6.4481334e-007
1.6616681e-005
-8.4588098e-007
1.6434827e-005
-1.1369814e-006
1.6176071e-005
-1.5450995e-006
1.5805003e-005
-2.1053094e-006
1.5267642e-005
-2.8590623e-006
1.4488627e-005
-3.8545845e-006
1.334164e-005
-5.1697924e-006
1.1632765e-005
-6.8836816e-006
9.0901316e-006
-8.8716573e-006
5.664323e-006
-1.0235936e-005
1.9289159e-006
-9.3304002e-006
-4.9021886e-006
1.6379054e-005
-4.7394465e-006
1.7172678e-005
-4.4657844e-006
1.7429776e-005
-2.9368498e-006
1.7437183e-005
-1.8209813e-006
1.7362464e-005
-1.1651802e-006
1.7275539e-005
-7.9678943e-007
1.7194629e-005
-5.7621192e-007
1.7119844e-005
-4.4184451e-007
1.7047421e-005
-3.6706563e-007
1.6971671e-005
-3.3928507e-007
1.6885564e-005
-3.5301079e-007
1.677977e-005
-4.0729645e-007
1.6642311e-005
-5.0735414e-007
1.6458431e-005
-6.6200049e-007
1.6206756e-005
-8.8530687e-007
1.585763e-005
-1.1959737e-006
1.5371653e-005
-1.6193327e-006
1.4693348e-005
-2.1807573e-006
1.3748535e-005
-2.909771e-006
1.2429908e-005
-3.8511659e-006
1.0588996e-005
-5.0427694e-006
8.0664997e-006
-6.3491609e-006
4.9169049e-006
-7.0863408e-006
1.7345764e-006
-6.1480719e-006
-3.1676123e-006
1.6762334e-005
-6.49794e-006
1.7250096e-005
-4.953546e-006
1.7198576e-005
-2.8853297e-006
1.7002076e-005
-1.6244815e-006
1.6802293e-005
-9.6539681e-007
1.6636926e-005
-6.3142203e-007
1.6504735e-005
-4.4402128e-007
1.639466e-005
-3.3176945e-007
1.6295862e-005
-2.6826728e-007
1.6198045e-005
-2.4146827e-007
1.6090408e-005
-2.4537429e-007
1.5961615e-005
-2.7850349e-007
1.5797286e-005
-3.4302451e-007
1.5580409e-005
-4.451236e-007
1.5287216e-005
-5.9211406e-007
1.4887168e-005
-7.9592605e-007
1.4339851e-005
-1.0720156e-006
1.3592744e-005
-1.4336501e-006
1.257918e-005
-1.8962072e-006
1.1210915e-005
-2.4829003e-006
9.3771175e-006
-3.2089723e-006
6.992576e-006
-3.9646194e-006
4.1797002e-006
-4.2734651e-006
1.4976046e-006
-3.4659763e-006
-1.6700077e-006
1.6331755e-005
-7.8258542e-006
1.5810202e-005
-4.4319924e-006
1.5219151e-005
-2.2942789e-006
1.4764927e-005
-1.1702577e-006
1.4444381e-005
-6.4485026e-007
1.421554e-005
-4.0258095e-007
1.4046659e-005
-2.7514012e-007
1.3915058e-005
-2.0016848e-007
1.3803693e-005
-1.5690225e-007
1.3698864e-005
-1.3664017e-007
1.3587993e-005
-1.3450331e-007
1.3458551e-005
-1.4906065e-007
1.3296337e-005
-1.8081076e-007
1.3083969e-005
-2.327556e-007
1.2800003e-005
-3.0814818e-007
1.2417141e-005
-4.1306405e-007
1.1897943e-005
-5.5281737e-007
1.1198764e-005
-7.3447122e-007
1.026643e-005
-9.6387346e-007
9.0334923e-006
-1.2499626e-006
7.4219196e-006
-1.5973997e-006
5.3950076e-006
-1.9377074e-006
3.1171404e-006
-1.9955981e-006
1.0890279e-006
-1.4378638e-006
-5.8097995e-007
1.4070912e-005
-6.892925e-006
1.2056342e-005
-2.417423e-006
1.0841941e-005
-1.0798778e-006
1.0176039e-005
-5.0435553e-007
9.7941644e-006
-2.6297536e-007
9.5495414e-006
-1.5795793e-007
9.3800086e-006
-1.056073e-007
9.2549142e-006
-7.5074087e-008
9.1550921e-006
-5.7080155e-008
9.0663897e-006
-4.793773e-008
8.9773763e-006
-4.5489949e-008
8.8772195e-006
-4.890381e-008
8.7546293e-006
-5.8220539e-008
8.5959592e-006
-7.4085562e-008
8.3852496e-006
-9.7438533e-008
8.1021785e-006
-1.2999298e-007
7.7214833e-006
-1.7212224e-007
7.2134762e-006
-2.2646409e-007
6.5430713e-006
-2.9346864e-007
5.6675011e-006
-3.7439238e-007
4.5396944e-006
-4.6959309e-007
3.1532805e-006
-5.512936e-007
1.6805173e-006
-5.2283495e-007
5.1955952e-007
-2.7690615e-007
-6.1420491e-008
8.110916e-006
5.693493e-006
4.6136153e-006
4.1092598e-006
3.8462845e-006
3.6883265e-006
3.5827192e-006
3.5076452e-006
3.450565e-006
3.4026273e-006
3.3571373e-006
3.3082335e-006
3.250013e-006
3.1759274e-006
3.0784889e-006
2.9484959e-006
2.7763736e-006
2.5499095e-006
2.2564409e-006
1.8820485e-006
1.4124554e-006
8.6116172e-007
3.383267e-007
6.1420491e-008
)
;

boundaryField
{
    inlet
    {
        type            calculated;
        value           nonuniform List<scalar> 
20
(
-5.0012803e-006
-5.0012803e-006
-5.0012803e-006
-5.0012803e-006
-5.0012803e-006
-5.0012803e-006
-5.0012803e-006
-5.0012803e-006
-5.0012803e-006
-5.0012803e-006
-1.5003841e-005
-1.5003841e-005
-1.5003841e-005
-1.5003841e-005
-1.5003841e-005
-1.5003841e-005
-1.5003841e-005
-1.5003841e-005
-1.5003841e-005
-1.5003841e-005
)
;
    }
    walls
    {
        type            calculated;
        value           uniform 0;
    }
    outlet
    {
        type            calculated;
        value           nonuniform List<scalar> 10(3.2688205e-005 3.1368736e-005 2.8989367e-005 2.5956044e-005 2.2650796e-005 1.9286162e-005 1.585283e-005 1.2171053e-005 7.9888219e-006 3.0991922e-006);
    }
    centreline
    {
        type            symmetryPlane;
        value           uniform 0;
    }
    frontAndBack
    {
        type            empty;
        value           nonuniform 0();
    }
}


// ************************************************************************* //
