/*--------------------------------*- C++ -*----------------------------------*\
| =========                 |                                                 |
| \\      /  F ield         | OpenFOAM: The Open Source CFD Toolbox           |
|  \\    /   O peration     | Version:  5.x                                   |
|   \\  /    A nd           | Web:      www.OpenFOAM.org                      |
|    \\/     M anipulation  |                                                 |
\*---------------------------------------------------------------------------*/
/*   Windows 32 and 64 bit porting by blueCAPE: http://www.bluecape.com.pt   *\
|  Based on Windows porting (2.0.x v4) by Symscape: http://www.symscape.com   |
\*---------------------------------------------------------------------------*/
FoamFile
{
    version     2.0;
    format      ascii;
    class       surfaceScalarField;
    location    "0.09";
    object      phi_0;
}
// * * * * * * * * * * * * * * * * * * * * * * * * * * * * * * * * * * * * * //

dimensions      [0 3 -1 0 0 0 0];

internalField   nonuniform List<scalar> 
1430
(
5.0875141e-006
-8.6233768e-008
5.1891024e-006
-1.0158833e-007
5.28285e-006
-9.3747575e-008
5.3596203e-006
-7.6770277e-008
5.4241097e-006
-6.4489322e-008
5.4782275e-006
-5.4117779e-008
5.5240291e-006
-4.5801625e-008
5.5645078e-006
-4.0478678e-008
5.6024404e-006
-3.7932581e-008
5.6413889e-006
-3.8948552e-008
5.6851912e-006
-4.3802268e-008
5.7389662e-006
-5.3775025e-008
5.8089871e-006
-7.0020849e-008
5.9039311e-006
-9.4944036e-008
6.0364674e-006
-1.3253625e-007
6.224495e-006
-1.880277e-007
6.4963542e-006
-2.7185918e-007
6.894392e-006
-3.9803781e-007
7.4838419e-006
-5.8944992e-007
8.3896025e-006
-9.0576056e-007
9.799961e-006
-1.4103585e-006
1.2139166e-005
-2.3392054e-006
1.5722352e-005
-3.5831851e-006
2.0689559e-005
-4.9672077e-006
-5.8207451e-006
2.6510304e-005
5.0867706e-006
-1.7172404e-007
5.1900968e-006
-2.0491448e-007
5.2831446e-006
-1.8679536e-007
5.3603414e-006
-1.5396705e-007
5.4247289e-006
-1.2887673e-007
5.4786938e-006
-1.0808273e-007
5.5243614e-006
-9.1469194e-008
5.5646205e-006
-8.0737723e-008
5.6023349e-006
-7.5646989e-008
5.6410181e-006
-7.763172e-008
5.6845067e-006
-8.72909e-008
5.7378553e-006
-1.0712366e-007
5.8072956e-006
-1.3946114e-007
5.9014288e-006
-1.890772e-007
6.0326856e-006
-2.637931e-007
6.2189613e-006
-3.7430343e-007
6.4877284e-006
-5.4062622e-007
6.8809067e-006
-7.9121618e-007
7.4631115e-006
-1.1716547e-006
8.3540771e-006
-1.7967261e-006
9.7546287e-006
-2.81091e-006
1.2040672e-005
-4.6252489e-006
1.5588511e-005
-7.1310238e-006
2.0366565e-005
-9.7452617e-006
-1.1515368e-005
2.6061187e-005
5.0868954e-006
-2.5733906e-007
5.1907126e-006
-3.0873166e-007
5.284234e-006
-2.8031673e-007
5.3616655e-006
-2.3139855e-007
5.4259329e-006
-1.9314417e-007
5.4796851e-006
-1.6183488e-007
5.5250096e-006
-1.367937e-007
5.5648926e-006
-1.2062071e-007
5.6021682e-006
-1.1292259e-007
5.6403307e-006
-1.1579419e-007
5.6831884e-006
-1.3014864e-007
5.7357159e-006
-1.5965117e-007
5.8040007e-006
-2.0774591e-007
5.8964907e-006
-2.8156723e-007
6.025352e-006
-3.9265445e-007
6.207925e-006
-5.5687641e-007
6.470868e-006
-8.0356925e-007
6.8545694e-006
-1.1749175e-006
7.4212329e-006
-1.7383182e-006
8.2881931e-006
-2.6636863e-006
9.6505781e-006
-4.173295e-006
1.1871837e-005
-6.8465074e-006
1.5274712e-005
-1.0533899e-005
1.9812943e-005
-1.4283493e-005
-1.6819344e-005
2.5116919e-005
5.087177e-006
-3.4323571e-007
5.1917105e-006
-4.1326514e-007
5.2859774e-006
-3.7458366e-007
5.3636718e-006
-3.0909288e-007
5.4277989e-006
-2.5727129e-007
5.4811993e-006
-2.1523521e-007
5.5260277e-006
-1.8162212e-007
5.5653374e-006
-1.5993041e-007
5.6019631e-006
-1.4954826e-007
5.6393562e-006
-1.5318724e-007
5.6812658e-006
-1.7205825e-007
5.7325595e-006
-2.1094495e-007
5.799142e-006
-2.743284e-007
5.8891937e-006
-3.716189e-007
6.0144723e-006
-5.1793311e-007
6.1915974e-006
-7.340015e-007
6.4459026e-006
-1.0578744e-006
6.8157346e-006
-1.5447496e-006
7.3595362e-006
-2.2821198e-006
8.1904845e-006
-3.4946346e-006
9.4959202e-006
-5.4787307e-006
1.1616077e-005
-8.966664e-006
1.4810744e-005
-1.3728566e-005
1.9014593e-005
-1.8487342e-005
-2.1611842e-005
2.3807091e-005
5.087732e-006
-4.2968742e-007
5.1931746e-006
-5.1870763e-007
5.2884199e-006
-4.6982903e-007
5.3663942e-006
-3.8706708e-007
5.4303274e-006
-3.2120454e-007
5.4832421e-006
-2.6814983e-007
5.5274107e-006
-2.2579071e-007
5.5659524e-006
-1.9847213e-007
5.6017158e-006
-1.853117e-007
5.6380953e-006
-1.8956668e-007
5.6787505e-006
-2.1271345e-007
5.7284108e-006
-2.6060525e-007
5.792763e-006
-3.3868061e-007
5.8796169e-006
-4.5847286e-007
6.0001879e-006
-6.3850411e-007
6.1702196e-006
-9.0403325e-007
6.4133e-006
-1.3009549e-006
6.7651517e-006
-1.8966012e-006
7.2793251e-006
-2.7962932e-006
8.0624974e-006
-4.277807e-006
9.2872374e-006
-6.7034708e-006
1.1267475e-005
-1.0946902e-005
1.4191418e-005
-1.6652508e-005
1.7994335e-005
-2.2290259e-005
-2.5811692e-005
2.2194185e-005
5.0886678e-006
-5.1707487e-007
5.195203e-006
-6.2524284e-007
5.2916127e-006
-5.6623874e-007
5.3698811e-006
-4.6533544e-007
5.4335376e-006
-3.8486095e-007
5.4858335e-006
-3.204457e-007
5.52917e-006
-2.6912729e-007
5.5667501e-006
-2.360522e-007
5.6014416e-006
-2.2000312e-007
5.6365667e-006
-2.246918e-007
5.6756726e-006
-2.5181938e-007
5.7233162e-006
-3.082488e-007
5.7849265e-006
-4.0029094e-007
5.8678644e-006
-5.4141076e-007
5.9826753e-006
-7.5331509e-007
6.1440655e-006
-1.0654234e-006
6.3735056e-006
-1.530395e-006
6.703583e-006
-2.2266787e-006
7.1816395e-006
-3.2743497e-006
7.9045687e-006
-5.0007361e-006
9.0236299e-006
-7.8225319e-006
1.0823042e-005
-1.2746314e-005
1.341054e-005
-1.9240006e-005
1.6763779e-005
-2.5643499e-005
-2.9429987e-005
2.0382074e-005
5.0900648e-006
-6.0585931e-007
5.1978775e-006
-7.3305554e-007
5.2956088e-006
-6.6397008e-007
5.3741768e-006
-5.4390333e-007
5.4374491e-006
-4.4813328e-007
5.4889861e-006
-3.719827e-007
5.5313121e-006
-3.1145328e-007
5.5677363e-006
-2.7247638e-007
5.6011482e-006
-2.5341501e-007
5.6347868e-006
-2.5833041e-007
5.6720607e-006
-2.8909328e-007
5.7173191e-006
-3.5350713e-007
5.7757003e-006
-4.5867216e-007
5.8540434e-006
-6.1975389e-007
5.9621147e-006
-8.6138641e-007
6.1133849e-006
-1.2166936e-006
6.3270193e-006
-1.7440294e-006
6.6319063e-006
-2.5315657e-006
7.0681456e-006
-3.710589e-006
7.7205613e-006
-5.6531519e-006
8.7125175e-006
-8.8144881e-006
1.02898e-005
-1.4323596e-005
1.2470077e-005
-2.1420283e-005
1.5365806e-005
-2.8539228e-005
-3.2423059e-005
1.8358878e-005
5.0919801e-006
-6.9655908e-007
5.2012641e-006
-8.4233956e-007
5.3004356e-006
-7.6314155e-007
5.3793143e-006
-6.22782e-007
5.4420682e-006
-5.1088715e-007
5.4926969e-006
-4.226114e-007
5.5338256e-006
-3.5258198e-007
5.5689001e-006
-3.0755087e-007
5.6008226e-006
-2.8533747e-007
5.6327513e-006
-2.9025909e-007
5.6679346e-006
-3.2427667e-007
5.7104603e-006
-3.9603274e-007
5.7651431e-006
-5.1335497e-007
5.8382562e-006
-6.9286701e-007
5.9386724e-006
-9.6180262e-007
6.0785165e-006
-1.3565377e-006
6.2745473e-006
-1.9400603e-006
6.5513488e-006
-2.8083673e-006
6.9412906e-006
-4.1005308e-006
7.5136985e-006
-6.2255598e-006
8.358369e-006
-9.6591586e-006
9.6699997e-006
-1.5635227e-005
1.1394159e-005
-2.3144442e-005
1.3827526e-005
-3.0972595e-005
-3.4509554e-005
1.5914021e-005
5.0944719e-006
-7.8975064e-007
5.205397e-006
-9.532646e-007
5.3060828e-006
-8.6382738e-007
5.3853118e-006
-7.0201093e-007
5.4473658e-006
-5.7294117e-007
5.4969367e-006
-4.7218223e-007
5.5366681e-006
-3.9231336e-007
5.5702034e-006
-3.4108617e-007
5.600429e-006
-3.1556305e-007
5.6304302e-006
-3.2026027e-007
5.6632884e-006
-3.5713492e-007
5.7027656e-006
-4.3550994e-007
5.7533124e-006
-5.6390171e-007
5.820629e-006
-7.6018368e-007
5.9126039e-006
-1.0537775e-006
6.039923e-006
-1.4838568e-006
6.2168329e-006
-2.1169702e-006
6.4630913e-006
-3.0546256e-006
6.8029373e-006
-4.4403767e-006
7.2887849e-006
-6.7114074e-006
7.9684972e-006
-1.0338871e-005
8.9806591e-006
-1.6647389e-005
1.0210711e-005
-2.4374494e-005
1.2140291e-005
-3.2902175e-005
-3.5286227e-005
1.2916964e-005
5.0971318e-006
-8.8560205e-007
5.2106279e-006
-1.0667607e-006
5.3125121e-006
-9.6571156e-007
5.392169e-006
-7.8166782e-007
5.4533455e-006
-6.3411759e-007
5.5016495e-006
-5.2048623e-007
5.5397991e-006
-4.3046298e-007
5.5715909e-006
-3.7287791e-007
5.5999356e-006
-3.4390773e-007
5.6277951e-006
-3.4811983e-007
5.6580893e-006
-3.8742903e-007
5.6942412e-006
-4.7166192e-007
5.7402885e-006
-6.0994894e-007
5.8013283e-006
-8.2122356e-007
5.8841899e-006
-1.1366391e-006
5.9980509e-006
-1.5977179e-006
6.1543343e-006
-2.2732535e-006
6.3684034e-006
-3.2686947e-006
6.6560083e-006
-4.7279817e-006
7.0499458e-006
-7.1053449e-006
7.5635979e-006
-1.0852523e-005
8.247245e-006
-1.7331036e-005
8.9385658e-006
-2.5065815e-005
9.985617e-006
-3.3949226e-005
8.7895882e-006
-3.4090199e-005
3.0098883e-005
-3.5885795e-006
3.1833428e-005
-1.734545e-006
3.253356e-005
-7.0013209e-007
3.2766442e-005
-2.3288208e-007
3.2781432e-005
-1.4990256e-008
3.2737744e-005
4.3688792e-008
3.2710968e-005
2.6775997e-008
3.2704072e-005
6.8950989e-009
3.270416e-005
-8.7783989e-011
3.2704644e-005
-4.8325377e-010
3.2704709e-005
-6.5169054e-011
3.2704658e-005
5.0244545e-011
3.2704637e-005
2.1142717e-011
3.2704637e-005
-6.7333895e-014
3.270464e-005
-2.5649968e-012
3.2704642e-005
-1.5868295e-012
3.2704643e-005
-1.057725e-012
3.2704642e-005
3.3970654e-013
3.2704641e-005
7.8799779e-013
3.2704643e-005
-1.2182412e-012
3.2704643e-005
-7.9093076e-013
3.2704643e-005
8.2652708e-013
3.2704641e-005
1.5328754e-012
3.2704627e-005
1.4308657e-011
1.3692532e-011
2.9198612e-005
-6.7260055e-006
3.0692611e-005
-3.2285442e-006
3.1245984e-005
-1.2535054e-006
3.1434942e-005
-4.2184011e-007
3.1441613e-005
-2.1661072e-008
3.1408234e-005
7.7067931e-008
3.1387062e-005
4.794794e-008
3.1381769e-005
1.2187853e-008
3.1381729e-005
-4.7461328e-011
3.1382103e-005
-8.5703926e-010
3.1382147e-005
-1.0940937e-010
3.138211e-005
8.6801773e-011
3.1382094e-005
3.7736415e-011
3.1382094e-005
-2.136159e-013
3.1382096e-005
-4.5335322e-012
3.1382097e-005
-2.891618e-012
3.1382098e-005
-1.7615739e-012
3.1382098e-005
5.3669784e-013
3.1382098e-005
9.285998e-013
3.1382098e-005
-1.6521511e-012
3.1382098e-005
-9.7077341e-013
3.1382097e-005
1.4443547e-012
3.1382096e-005
2.5905457e-012
3.138209e-005
2.0975897e-011
2.032033e-011
2.7598649e-005
-9.2077356e-006
2.8613778e-005
-4.2436736e-006
2.8940187e-005
-1.5799144e-006
2.9031132e-005
-5.1278503e-007
2.9028589e-005
-1.9117599e-008
2.9010861e-005
9.4795494e-008
2.8999693e-005
5.9116164e-008
2.8996913e-005
1.496832e-008
2.8996836e-005
2.9414301e-011
2.8997019e-005
-1.0401269e-009
2.8997038e-005
-1.280907e-010
2.899702e-005
1.0479127e-010
2.8997012e-005
4.5796736e-011
2.8997012e-005
-5.3960431e-013
2.8997013e-005
-5.5272424e-012
2.8997013e-005
-3.2469899e-012
2.8997013e-005
-1.9345302e-012
2.8997014e-005
8.4197561e-014
2.8997015e-005
1.5581742e-013
2.8997014e-005
-1.0417801e-012
2.8997013e-005
-9.5768387e-014
2.8997013e-005
1.6092602e-012
2.8997013e-005
2.3435343e-012
2.8997016e-005
1.7829136e-011
1.7615352e-011
2.549567e-005
-1.0896315e-005
2.5949617e-005
-4.6976206e-006
2.5987009e-005
-1.6173063e-006
2.5969133e-005
-4.9490905e-007
2.5958303e-005
-8.287533e-009
2.5957115e-005
9.5983046e-008
2.5956537e-005
5.9694635e-008
2.5956523e-005
1.4982188e-008
2.5956479e-005
7.3931171e-011
2.5956473e-005
-1.0342871e-009
2.5956465e-005
-1.2066261e-010
2.5956467e-005
1.0339793e-010
2.5956468e-005
4.4648747e-011
2.5956468e-005
-1.212976e-012
2.5956469e-005
-5.5854168e-012
2.5956468e-005
-2.694473e-012
2.5956468e-005
-1.6991207e-012
2.5956469e-005
-8.8688219e-013
2.5956469e-005
-4.8038866e-013
2.5956468e-005
1.5674801e-013
2.5956467e-005
7.3221482e-013
2.5956468e-005
1.0359605e-012
2.5956469e-005
8.5790341e-013
2.595648e-005
7.4595036e-012
7.9463082e-012
2.3082029e-005
-1.1784159e-005
2.2982186e-005
-4.5977779e-006
2.2734853e-005
-1.3699734e-006
2.2639718e-005
-3.9977471e-007
2.2623565e-005
7.8664135e-009
2.2634387e-005
8.5160822e-008
2.2642264e-005
5.1817822e-008
2.2644552e-005
1.2694219e-008
2.2644572e-005
5.3398978e-011
2.2644427e-005
-8.8906432e-010
2.2644402e-005
-9.5303984e-011
2.2644418e-005
8.6746272e-011
2.2644426e-005
3.661209e-011
2.2644427e-005
-1.9802265e-012
2.2644426e-005
-4.8468598e-012
2.2644426e-005
-1.870806e-012
2.2644425e-005
-1.2691861e-012
2.2644426e-005
-1.4608349e-012
2.2644426e-005
-4.6115462e-013
2.2644425e-005
8.7710527e-013
2.2644425e-005
6.2564542e-013
2.2644426e-005
3.8065806e-014
2.2644428e-005
-9.8641573e-013
2.264444e-005
-5.0181519e-012
-3.8981606e-012
2.0407986e-005
-1.1810071e-005
1.9789745e-005
-3.9795371e-006
1.9385707e-005
-9.6593583e-007
1.92578e-005
-2.7186707e-007
1.9241379e-005
2.4287315e-008
1.9259257e-005
6.7283175e-008
1.9272151e-005
3.8922988e-008
1.9275777e-005
9.0681722e-009
1.9275841e-005
-9.5833472e-012
1.9275624e-005
-6.7271252e-010
1.9275593e-005
-6.4096646e-011
1.9275618e-005
6.1950547e-011
1.9275629e-005
2.548499e-011
1.9275629e-005
-2.4812769e-012
1.9275628e-005
-3.6042475e-012
1.9275627e-005
-1.0752065e-012
1.9275627e-005
-7.8304679e-013
1.9275627e-005
-1.4156591e-012
1.9275627e-005
-3.3295814e-013
1.9275627e-005
8.5950053e-013
1.9275627e-005
2.1292436e-013
1.9275628e-005
-8.6563827e-013
1.9275629e-005
-2.5633373e-012
1.9275638e-005
-1.3599245e-011
-1.1954246e-011
1.7343749e-005
-1.0794942e-005
1.6336634e-005
-2.9724226e-006
1.5937981e-005
-5.6728244e-007
1.581289e-005
-1.4677631e-007
1.5802918e-005
3.425966e-008
1.5824096e-005
4.6105288e-008
1.5838467e-005
2.455177e-008
1.5842299e-005
5.2363005e-009
1.5842351e-005
-6.1727082e-011
1.5842122e-005
-4.4359139e-010
1.5842094e-005
-3.6292612e-011
1.584212e-005
3.6497762e-011
1.5842131e-005
1.4666668e-011
1.584213e-005
-2.447685e-012
1.5842129e-005
-2.2462269e-012
1.5842129e-005
-4.974204e-013
1.5842128e-005
-3.7608009e-013
1.5842128e-005
-1.0590641e-012
1.5842128e-005
-2.2817024e-013
1.5842128e-005
6.0357812e-013
1.5842128e-005
-1.0195014e-013
1.5842129e-005
-1.3938043e-012
1.5842129e-005
-3.3815266e-012
1.5842131e-005
-1.5091185e-011
-1.3201252e-011
1.3690543e-005
-8.5714645e-006
1.2533719e-005
-1.8155985e-006
1.2218686e-005
-2.5224904e-007
1.2123687e-005
-5.1777341e-008
1.2126962e-005
3.0984462e-008
1.2148149e-005
2.4918024e-008
1.2160833e-005
1.1868061e-008
1.2163911e-005
2.1582845e-009
1.2163917e-005
-6.7836314e-011
1.2163713e-005
-2.389536e-010
1.2163692e-005
-1.5694881e-011
1.2163713e-005
1.5731496e-011
1.2163721e-005
6.2827668e-012
1.216372e-005
-1.754884e-012
1.2163719e-005
-1.0643231e-012
1.2163719e-005
-1.671358e-013
1.2163719e-005
-1.4900229e-013
1.2163718e-005
-6.2321687e-013
1.2163718e-005
-9.1349355e-014
1.2163718e-005
3.4509517e-013
1.2163718e-005
-2.2318501e-013
1.2163718e-005
-1.3471409e-012
1.2163718e-005
-2.9643433e-012
1.2163713e-005
-1.056168e-011
-8.9920864e-012
9.2941566e-006
-4.948657e-006
8.1868334e-006
-7.0827533e-007
7.9883665e-006
-5.3782198e-008
7.9429816e-006
-6.392452e-009
7.9583868e-006
1.557928e-008
7.9758647e-006
7.4401162e-009
7.9843918e-006
3.3410019e-009
7.9861774e-006
3.7270525e-010
7.9861349e-006
-2.5353007e-011
7.985978e-006
-8.2005936e-011
7.9859654e-006
-3.0983567e-012
7.9859783e-006
2.8167917e-012
7.9859832e-006
1.4095302e-012
7.9859822e-006
-7.4395224e-013
7.9859814e-006
-2.8102243e-013
7.9859813e-006
-2.6743256e-014
7.9859811e-006
-3.2787529e-014
7.9859807e-006
-2.2082973e-013
7.9859806e-006
-1.7763857e-014
7.9859808e-006
1.1149469e-013
7.9859807e-006
-1.3842148e-013
7.98598e-006
-6.8998083e-013
7.9859785e-006
-1.4687449e-012
7.9859719e-006
-4.0094251e-012
-3.2318113e-012
3.8409312e-006
3.1326558e-006
3.0788736e-006
3.0724812e-006
3.0880605e-006
3.0955006e-006
3.0988416e-006
3.0992144e-006
3.099189e-006
3.099107e-006
3.0991039e-006
3.0991067e-006
3.0991081e-006
3.0991074e-006
3.0991071e-006
3.0991071e-006
3.099107e-006
3.0991068e-006
3.0991068e-006
3.0991069e-006
3.0991067e-006
3.099106e-006
3.0991045e-006
3.0991005e-006
1.5299889e-005
-1.1816502e-006
1.5676283e-005
-1.4431547e-006
1.5982444e-005
-1.2718724e-006
1.6222417e-005
-1.0216409e-006
1.6401416e-005
-8.1311612e-007
1.6536024e-005
-6.550941e-007
1.6640111e-005
-5.3455004e-007
1.6723622e-005
-4.563889e-007
1.6796254e-005
-4.1653968e-007
1.6865746e-005
-4.1761194e-007
1.6939934e-005
-4.6161709e-007
1.7026811e-005
-5.5853847e-007
1.7136034e-005
-7.1917244e-007
1.7279022e-005
-9.6421156e-007
1.7469163e-005
-1.3267801e-006
1.7725231e-005
-1.8537859e-006
1.8064547e-005
-2.6125698e-006
1.850704e-005
-3.7111872e-006
1.9064422e-005
-5.2853637e-006
1.9690853e-005
-7.7317758e-006
2.0349278e-005
-1.1510948e-005
2.0456626e-005
-1.7438385e-005
1.9336139e-005
-2.3945328e-005
1.4616558e-005
-2.9229646e-005
-1.947364e-005
1.533774e-005
-1.5155487e-006
1.5756159e-005
-1.8615746e-006
1.6081138e-005
-1.5968512e-006
1.6318224e-005
-1.2587263e-006
1.6482308e-005
-9.772008e-007
1.6596524e-005
-7.6930957e-007
1.6678358e-005
-6.1638417e-007
1.6739434e-005
-5.174647e-007
1.6788709e-005
-4.6581518e-007
1.6832697e-005
-4.615991e-007
1.6877022e-005
-5.0594239e-007
1.6926261e-005
-6.0777715e-007
1.6985535e-005
-7.7844705e-007
1.7059909e-005
-1.0385849e-006
1.7153724e-005
-1.4205954e-006
1.7270781e-005
-1.9708428e-006
1.7409892e-005
-2.7516816e-006
1.7560269e-005
-3.8615636e-006
1.7690322e-005
-5.4154168e-006
1.7676358e-005
-7.7178124e-006
1.7293815e-005
-1.1128404e-005
1.5912331e-005
-1.6056901e-005
1.2923837e-005
-2.0956833e-005
6.7727877e-006
-2.3078597e-005
-1.2700853e-005
1.5407452e-005
-1.9191593e-006
1.5889766e-005
-2.3438889e-006
1.6238167e-005
-1.9452527e-006
1.6463068e-005
-1.4836269e-006
1.6601694e-005
-1.1158264e-006
1.6686219e-005
-8.5383514e-007
1.6739073e-005
-6.6923765e-007
1.6772549e-005
-5.5094153e-007
1.6794603e-005
-4.8786833e-007
1.680986e-005
-4.7685607e-007
1.6821277e-005
-5.1735995e-007
1.6829942e-005
-6.1644178e-007
1.6836641e-005
-7.8514603e-007
1.6840084e-005
-1.0420282e-006
1.6835977e-005
-1.4164881e-006
1.68161e-005
-1.9509663e-006
1.6764595e-005
-2.7001767e-006
1.6647346e-005
-3.7443147e-006
1.6407327e-005
-5.1753971e-006
1.588811e-005
-7.1985958e-006
1.4817432e-005
-1.0057726e-005
1.2637749e-005
-1.3877219e-005
8.9870661e-006
-1.7306151e-005
3.5140099e-006
-1.7605541e-005
-9.1868429e-006
1.5561597e-005
-2.4769156e-006
1.6150386e-005
-2.932678e-006
1.6518489e-005
-2.313355e-006
1.6713393e-005
-1.6785306e-006
1.6808756e-005
-1.2111896e-006
1.6851418e-005
-8.9649704e-007
1.6867398e-005
-6.8521794e-007
1.6868306e-005
-5.5184922e-007
1.6860038e-005
-4.7960037e-007
1.6844616e-005
-4.6143458e-007
1.6822105e-005
-4.9484844e-007
1.6789975e-005
-5.8431223e-007
1.6744526e-005
-7.3969629e-007
1.6678659e-005
-9.7616108e-007
1.6581217e-005
-1.3190465e-006
1.6434336e-005
-1.804085e-006
1.6210757e-005
-2.4765984e-006
1.5863021e-005
-3.3965779e-006
1.5321166e-005
-4.6335422e-006
1.4438611e-005
-6.3160413e-006
1.2971847e-005
-8.5909615e-006
1.0508447e-005
-1.1413818e-005
6.8693348e-006
-1.3667039e-005
2.342434e-006
-1.307864e-005
-6.8444089e-006
1.5882747e-005
-3.3558212e-006
1.6613626e-005
-3.6635571e-006
1.6973535e-005
-2.6732641e-006
1.7104307e-005
-1.8093022e-006
1.7130385e-005
-1.2372684e-006
1.7115972e-005
-8.8208352e-007
1.7086836e-005
-6.5608228e-007
1.7050959e-005
-5.1597211e-007
1.7010462e-005
-4.3910309e-007
1.6963873e-005
-4.1484537e-007
1.6908104e-005
-4.3907988e-007
1.6836967e-005
-5.1317484e-007
1.6742268e-005
-6.4499787e-007
1.6612269e-005
-8.4616216e-007
1.6430576e-005
-1.1373532e-006
1.6172045e-005
-1.5455542e-006
1.5801293e-005
-2.1058461e-006
1.5264377e-005
-2.8596621e-006
1.4486001e-005
-3.8551667e-006
1.3340043e-005
-5.1700826e-006
1.1632766e-005
-6.8836848e-006
9.0920059e-006
-8.8730584e-006
5.6671226e-006
-1.0242156e-005
1.9306941e-006
-9.3422116e-006
-4.9137148e-006
1.6376649e-005
-4.7286289e-006
1.7169582e-005
-4.45649e-006
1.7426479e-005
-2.9301614e-006
1.7433998e-005
-1.8168207e-006
1.7359563e-005
-1.1628342e-006
1.7272929e-005
-7.9544899e-007
1.719225e-005
-5.7540294e-007
1.7117637e-005
-4.4135943e-007
1.7045342e-005
-3.6680778e-007
1.6969691e-005
-3.3919421e-007
1.6883666e-005
-3.5305507e-007
1.6777948e-005
-4.0745701e-007
1.6640573e-005
-5.0762302e-007
1.6456795e-005
-6.6238383e-007
1.6205253e-005
-8.8581146e-007
1.5856313e-005
-1.196614e-006
1.5370604e-005
-1.6201369e-006
1.4692673e-005
-2.1817319e-006
1.3748396e-005
-2.910889e-006
1.2430598e-005
-3.8522851e-006
1.0590929e-005
-5.044016e-006
8.0697916e-006
-6.3519208e-006
4.9206655e-006
-7.0930296e-006
1.7370629e-006
-6.1586091e-006
-3.176652e-006
1.6762176e-005
-6.4869643e-006
1.7251386e-005
-4.9456992e-006
1.7200819e-005
-2.879595e-006
1.7004988e-005
-1.6209896e-006
1.6805731e-005
-9.6357683e-007
1.6640779e-005
-6.3049753e-007
1.6508891e-005
-4.4351493e-007
1.6399022e-005
-3.314899e-007
1.6300359e-005
-2.6814439e-007
1.620263e-005
-2.4146571e-007
1.6095048e-005
-2.4547332e-007
1.5966288e-005
-2.7869652e-007
1.580198e-005
-3.4331559e-007
1.558512e-005
-4.4552353e-007
1.5291945e-005
-5.9263626e-007
1.4891929e-005
-7.9659771e-007
1.4344668e-005
-1.072876e-006
1.3597657e-005
-1.4347209e-006
1.258426e-005
-1.8974925e-006
1.1216311e-005
-2.4843364e-006
9.3830012e-006
-3.2107059e-006
6.9987357e-006
-3.9676553e-006
4.1850282e-006
-4.2793221e-006
1.5005364e-006
-3.4741174e-006
-1.6761156e-006
1.6334941e-005
-7.8180646e-006
1.5816813e-005
-4.427571e-006
1.522771e-005
-2.2904916e-006
1.4774657e-005
-1.1679371e-006
1.4454799e-005
-6.4371811e-007
1.4226397e-005
-4.0209598e-007
1.4057806e-005
-2.7492398e-007
1.3926387e-005
-2.0007038e-007
1.3815124e-005
-1.5688153e-007
1.3710342e-005
-1.3668337e-007
1.359947e-005
-1.3460221e-007
1.3469992e-005
-1.4921767e-007
1.3307709e-005
-1.8103267e-007
1.3095238e-005
-2.3305284e-007
1.2811137e-005
-3.0853491e-007
1.24281e-005
-4.135613e-007
1.1908671e-005
-5.5344666e-007
1.1209222e-005
-7.3527175e-007
1.0276578e-005
-9.648484e-007
9.0433276e-006
-1.2510864e-006
7.4313894e-006
-1.5987677e-006
5.4036074e-006
-1.9398734e-006
3.1235573e-006
-1.999272e-006
1.0919509e-006
-1.4425112e-006
-5.8416481e-007
1.4075615e-005
-6.8898388e-006
1.2064244e-005
-2.4162e-006
1.0851994e-005
-1.078241e-006
1.0187437e-005
-5.0338029e-007
9.8062518e-006
-2.625331e-007
9.5619661e-006
-1.5781021e-007
9.3926121e-006
-1.0557003e-007
9.2676125e-006
-7.5070771e-008
9.1678272e-006
-5.7096144e-008
9.0791165e-006
-4.7972635e-008
8.9900571e-006
-4.5542825e-008
8.889817e-006
-4.8977592e-008
8.7671047e-006
-5.832038e-008
8.6082672e-006
-7.4215332e-008
8.3973393e-006
-9.7607056e-008
8.113987e-006
-1.30209e-007
7.7329325e-006
-1.7239218e-007
7.2244739e-006
-2.2681316e-007
6.5535205e-006
-2.93895e-007
5.6773206e-006
-3.7488654e-007
4.5487463e-006
-4.7019353e-007
3.1610484e-006
-5.521756e-007
1.6858887e-006
-5.2411241e-007
5.2168162e-007
-2.7830414e-007
-6.2483248e-008
8.1140022e-006
5.6978023e-006
4.6195614e-006
4.1161811e-006
3.853648e-006
3.6958378e-006
3.5902678e-006
3.515197e-006
3.4581009e-006
3.4101283e-006
3.3645854e-006
3.3156078e-006
3.2572875e-006
3.1830721e-006
3.085465e-006
2.955256e-006
2.7828639e-006
2.5560507e-006
2.2621557e-006
1.8872691e-006
1.4170756e-006
8.6489992e-007
3.4078745e-007
6.2483248e-008
)
;

boundaryField
{
    inlet
    {
        type            calculated;
        value           nonuniform List<scalar> 
20
(
-5.0012803e-006
-5.0012803e-006
-5.0012803e-006
-5.0012803e-006
-5.0012803e-006
-5.0012803e-006
-5.0012803e-006
-5.0012803e-006
-5.0012803e-006
-5.0012803e-006
-1.5003841e-005
-1.5003841e-005
-1.5003841e-005
-1.5003841e-005
-1.5003841e-005
-1.5003841e-005
-1.5003841e-005
-1.5003841e-005
-1.5003841e-005
-1.5003841e-005
)
;
    }
    walls
    {
        type            calculated;
        value           uniform 0;
    }
    outlet
    {
        type            calculated;
        value           nonuniform List<scalar> 10(3.2704613e-005 3.1382083e-005 2.8997019e-005 2.5956489e-005 2.2644452e-005 1.9275646e-005 1.5842132e-005 1.2163709e-005 7.9859662e-006 3.0990973e-006);
    }
    centreline
    {
        type            symmetryPlane;
        value           uniform 0;
    }
    frontAndBack
    {
        type            empty;
        value           nonuniform 0();
    }
}


// ************************************************************************* //
