/*--------------------------------*- C++ -*----------------------------------*\
| =========                 |                                                 |
| \\      /  F ield         | OpenFOAM: The Open Source CFD Toolbox           |
|  \\    /   O peration     | Version:  5.x                                   |
|   \\  /    A nd           | Web:      www.OpenFOAM.org                      |
|    \\/     M anipulation  |                                                 |
\*---------------------------------------------------------------------------*/
/*   Windows 32 and 64 bit porting by blueCAPE: http://www.bluecape.com.pt   *\
|  Based on Windows porting (2.0.x v4) by Symscape: http://www.symscape.com   |
\*---------------------------------------------------------------------------*/
FoamFile
{
    version     2.0;
    format      ascii;
    class       volSymmTensorField;
    location    "0.09";
    object      sigma;
}
// * * * * * * * * * * * * * * * * * * * * * * * * * * * * * * * * * * * * * //

dimensions      [0 2 -2 0 0 0 0];

internalField   nonuniform List<symmTensor> 
750
(
(-0.00016290464 1.229384e-005 0 0.00017081173 0 0)
(-0.00022384021 1.6259459e-007 0 0.00020944025 0 0)
(-0.00017025684 -2.5496752e-006 0 0.00017816996 0 0)
(-0.00016555873 -2.6085673e-006 0 0.00015856306 0 0)
(-0.00012617824 -2.6977853e-006 0 0.00012953753 0 0)
(-0.00011829771 -1.9284868e-006 0 0.00011586063 0 0)
(-9.8846079e-005 -1.5376167e-006 0 9.9695366e-005 0 0)
(-9.3734497e-005 -6.0790336e-007 0 9.2998988e-005 0 0)
(-9.1337854e-005 2.5853685e-007 0 9.1352843e-005 0 0)
(-9.8726824e-005 1.4170406e-006 0 9.8413508e-005 0 0)
(-0.00011707505 2.9051918e-006 0 0.00011676211 0 0)
(-0.00014402874 4.5579648e-006 0 0.00014345845 0 0)
(-0.00019267749 7.1623875e-006 0 0.00019175921 0 0)
(-0.00026159856 1.069137e-005 0 0.00025994752 0 0)
(-0.00036271868 1.5630369e-005 0 0.00035916423 0 0)
(-0.00051479974 2.3329794e-005 0 0.00050845363 0 0)
(-0.00073885369 3.5003443e-005 0 0.00072501473 0 0)
(-0.0010681794 5.2194599e-005 0 0.0010390679 0 0)
(-0.0015978474 8.403189e-005 0 0.0015401812 0 0)
(-0.0023843243 0.00012755534 0 0.0022345644 0 0)
(-0.0037547474 0.00022252087 0 0.0034723318 0 0)
(-0.0060917161 0.00033258359 0 0.0052186262 0 0)
(-0.0098945335 0.00050629082 0 0.0081261993 0 0)
(-0.014820973 0.00073444948 0 0.010661466 0 0)
(-0.019491692 0.00041487402 0 0.013399604 0 0)
(-0.00016286589 3.6630437e-005 0 0.00017136785 0 0)
(-0.00022447565 6.1510895e-007 0 0.00020922251 0 0)
(-0.00017066602 -7.5091938e-006 0 0.00017951303 0 0)
(-0.00016566666 -7.7914373e-006 0 0.00015776975 0 0)
(-0.00012613337 -7.8534821e-006 0 0.00013021539 0 0)
(-0.00011801701 -5.6804908e-006 0 0.0001151152 0 0)
(-9.8501272e-005 -4.3554664e-006 0 9.955829e-005 0 0)
(-9.327903e-005 -1.6203777e-006 0 9.2370094e-005 0 0)
(-9.0817121e-005 1.0365967e-006 0 9.0834515e-005 0 0)
(-9.8139624e-005 4.4830098e-006 0 9.7739479e-005 0 0)
(-0.00011621829 8.9407301e-006 0 0.00011585843 0 0)
(-0.00014283782 1.3884509e-005 0 0.00014218068 0 0)
(-0.00019119086 2.1684223e-005 0 0.00019014794 0 0)
(-0.00025954632 3.2179863e-005 0 0.00025772184 0 0)
(-0.0003593416 4.6901258e-005 0 0.0003554913 0 0)
(-0.00051038106 6.9890616e-005 0 0.00050370462 0 0)
(-0.00073107151 0.00010419324 0 0.00071646485 0 0)
(-0.0010559446 0.0001556135 0 0.0010260579 0 0)
(-0.001579876 0.00024960583 0 0.0015209136 0 0)
(-0.0023455833 0.000373367 0 0.0021907013 0 0)
(-0.0037216996 0.00067654097 0 0.003439342 0 0)
(-0.0059923566 0.00098724402 0 0.0050919576 0 0)
(-0.0098251053 0.0014878847 0 0.008066537 0 0)
(-0.014627163 0.0022048005 0 0.010363383 0 0)
(-0.019126437 0.0012825177 0 0.013206247 0 0)
(-0.00016282317 6.0800089e-005 0 0.00017193716 0 0)
(-0.00022582766 1.2142363e-006 0 0.00020946778 0 0)
(-0.00017133536 -1.2453137e-005 0 0.00018089822 0 0)
(-0.00016603894 -1.3075399e-005 0 0.00015753011 0 0)
(-0.00012598632 -1.2964137e-005 0 0.00013040805 0 0)
(-0.00011747227 -9.4812898e-006 0 0.00011438238 0 0)
(-9.7812786e-005 -7.1127055e-006 0 9.8983382e-005 0 0)
(-9.2376077e-005 -2.6270379e-006 0 9.1444993e-005 0 0)
(-8.9775695e-005 1.850048e-006 0 8.9842089e-005 0 0)
(-9.6912023e-005 7.5557352e-006 0 9.6535854e-005 0 0)
(-0.00011451689 1.4925065e-005 0 0.0001142177 0 0)
(-0.00014064505 2.3167372e-005 0 0.00014004333 0 0)
(-0.00018826896 3.611065e-005 0 0.00018729842 0 0)
(-0.00025537184 5.3397761e-005 0 0.00025365975 0 0)
(-0.00035296314 7.774366e-005 0 0.00034926219 0 0)
(-0.00050106209 0.00011578056 0 0.00049467223 0 0)
(-0.00071628872 0.00017204052 0 0.00070206547 0 0)
(-0.0010321954 0.00025700806 0 0.0010030068 0 0)
(-0.0015416774 0.00041046535 0 0.0014842224 0 0)
(-0.0022801882 0.00062380284 0 0.0021267349 0 0)
(-0.0036341606 0.0010871652 0 0.0033565573 0 0)
(-0.0058425196 0.0016485001 0 0.0049350979 0 0)
(-0.0095890084 0.0024684778 0 0.0078510218 0 0)
(-0.014340473 0.0037373554 0 0.009957804 0 0)
(-0.018218959 0.0022243452 0 0.012692715 0 0)
(-0.00016271583 8.5031674e-005 0 0.00017226982 0 0)
(-0.0002278963 1.864747e-006 0 0.00021068888 0 0)
(-0.00017237078 -1.7531881e-005 0 0.00018241855 0 0)
(-0.00016663724 -1.8612314e-005 0 0.00015787866 0 0)
(-0.00012575614 -1.831492e-005 0 0.0001302436 0 0)
(-0.00011666176 -1.3507288e-005 0 0.00011357572 0 0)
(-9.6769773e-005 -1.0073965e-005 0 9.7928443e-005 0 0)
(-9.102418e-005 -3.8482204e-006 0 9.0115696e-005 0 0)
(-8.8227032e-005 2.4448512e-006 0 8.8290931e-005 0 0)
(-9.4972463e-005 1.0337261e-005 0 9.4612173e-005 0 0)
(-0.00011211278 2.0627467e-005 0 0.00011180809 0 0)
(-0.00013749741 3.2112183e-005 0 0.00013689519 0 0)
(-0.00018378181 5.0055198e-005 0 0.00018281736 0 0)
(-0.00024897985 7.3971554e-005 0 0.00024728475 0 0)
(-0.00034369542 0.00010777649 0 0.00034000718 0 0)
(-0.00048684602 0.00016011759 0 0.00048046457 0 0)
(-0.00069445268 0.00023792332 0 0.00068035373 0 0)
(-0.00099714079 0.00035569365 0 0.00096803415 0 0)
(-0.0014833044 0.00056567203 0 0.0014265429 0 0)
(-0.0021903602 0.00086012351 0 0.002037828 0 0)
(-0.0034721991 0.0015315847 0 0.0031928658 0 0)
(-0.0056123428 0.0023460801 0 0.0046933327 0 0)
(-0.0091431654 0.0035427102 0 0.0074178256 0 0)
(-0.013969914 0.0052831166 0 0.0093964001 0 0)
(-0.016811336 0.0032438887 0 0.011853539 0 0)
(-0.00016257418 0.00010940781 0 0.00017216674 0 0)
(-0.00023064974 2.4436784e-006 0 0.00021316156 0 0)
(-0.00017381902 -2.2812086e-005 0 0.00018397859 0 0)
(-0.00016744 -2.4397261e-005 0 0.0001586847 0 0)
(-0.00012543724 -2.3850906e-005 0 0.00012984679 0 0)
(-0.00011556824 -1.7618622e-005 0 0.00011256047 0 0)
(-9.5372519e-005 -1.3095143e-005 0 9.6477438e-005 0 0)
(-8.922538e-005 -5.1113569e-006 0 8.8359108e-005 0 0)
(-8.6174685e-005 2.9803195e-006 0 8.6229065e-005 0 0)
(-9.2422986e-005 1.3021094e-005 0 9.2082093e-005 0 0)
(-0.00010890733 2.616447e-005 0 0.00010860167 0 0)
(-0.00013335612 4.0810608e-005 0 0.00013276635 0 0)
(-0.00017787023 6.3558826e-005 0 0.00017692255 0 0)
(-0.00024054662 9.3860566e-005 0 0.00023888341 0 0)
(-0.0003315504 0.00013672237 0 0.00032791229 0 0)
(-0.00046811289 0.00020281488 0 0.00046176102 0 0)
(-0.00066580512 0.00030086732 0 0.00065194754 0 0)
(-0.00095147165 0.00044916743 0 0.00092248293 0 0)
(-0.001406403 0.00071247292 0 0.0013503462 0 0)
(-0.0020695814 0.0010911734 0 0.0019181088 0 0)
(-0.0032706368 0.0019081302 0 0.0029887292 0 0)
(-0.005335801 0.0029260824 0 0.0044054355 0 0)
(-0.0085231225 0.0045518862 0 0.0068130477 0 0)
(-0.01346868 0.0067544701 0 0.0086703977 0 0)
(-0.015348066 0.0042370026 0 0.011002738 0 0)
(-0.00016250176 0.00013388965 0 0.00017190487 0 0)
(-0.00023410641 2.8076452e-006 0 0.00021662532 0 0)
(-0.00017564983 -2.8491719e-005 0 0.00018573099 0 0)
(-0.00016843048 -3.0500118e-005 0 0.0001597852 0 0)
(-0.0001250048 -2.9673171e-005 0 0.00012927553 0 0)
(-0.00011417064 -2.1873481e-005 0 0.00011126973 0 0)
(-9.3619756e-005 -1.6240784e-005 0 9.4654222e-005 0 0)
(-8.6977528e-005 -6.4709692e-006 0 8.6162997e-005 0 0)
(-8.3625529e-005 3.3987052e-006 0 8.3671225e-005 0 0)
(-8.9305874e-005 1.5563187e-005 0 8.898019e-005 0 0)
(-0.00010489924 3.1436265e-005 0 0.00010461673 0 0)
(-0.0001281977 4.912962e-005 0 0.00012763441 0 0)
(-0.00017060187 7.645753e-005 0 0.00016967849 0 0)
(-0.0002302458 0.00011280563 0 0.00022861091 0 0)
(-0.00031670182 0.00016436136 0 0.00031314052 0 0)
(-0.00044530987 0.00024297202 0 0.00043901232 0 0)
(-0.00063061607 0.00036043424 0 0.00061707078 0 0)
(-0.00089677877 0.00053523399 0 0.00086808167 0 0)
(-0.0013117911 0.00084847651 0 0.0012567924 0 0)
(-0.0019247033 0.0012938981 0 0.001776397 0 0)
(-0.0029949394 0.0022842495 0 0.0027177888 0 0)
(-0.0049127215 0.0035499131 0 0.0039841359 0 0)
(-0.007672959 0.0055701186 0 0.0060059545 0 0)
(-0.012735615 0.0082242367 0 0.0077279162 0 0)
(-0.013328131 0.0049023152 0 0.0099616632 0 0)
(-0.00016267189 0.00015826648 0 0.00017191928 0 0)
(-0.00023829699 2.8495453e-006 0 0.00022063819 0 0)
(-0.00017780987 -3.4672734e-005 0 0.00018787798 0 0)
(-0.00016956885 -3.6972875e-005 0 0.00016099936 0 0)
(-0.00012441961 -3.5844851e-005 0 0.00012854621 0 0)
(-0.00011244694 -2.630659e-005 0 0.00010966422 0 0)
(-9.1501449e-005 -1.9527036e-005 0 9.2458294e-005 0 0)
(-8.4277927e-005 -7.9374586e-006 0 8.3524276e-005 0 0)
(-8.0582742e-005 3.6832012e-006 0 8.0618184e-005 0 0)
(-8.5591959e-005 1.7914167e-005 0 8.5290149e-005 0 0)
(-0.00010016876 3.6409208e-005 0 9.9904363e-005 0 0)
(-0.00012213978 5.6984428e-005 0 0.00012159486 0 0)
(-0.00016202407 8.8639182e-005 0 0.00016110982 0 0)
(-0.00021812508 0.00013082933 0 0.00021649791 0 0)
(-0.00029934399 0.00019020096 0 0.00029581858 0 0)
(-0.00041869858 0.00028070241 0 0.00041244843 0 0)
(-0.0005904934 0.00041464049 0 0.0005772031 0 0)
(-0.0008324059 0.00061413569 0 0.00080401102 0 0)
(-0.0012040691 0.00096983771 0 0.0011506753 0 0)
(-0.0017466717 0.0014832059 0 0.0016004979 0 0)
(-0.0026723669 0.0026067104 0 0.0023965956 0 0)
(-0.0044005019 0.0040785094 0 0.0034702825 0 0)
(-0.0066114966 0.0065445462 0 0.0049669 0 0)
(-0.011896903 0.0093049163 0 0.0067134414 0 0)
(-0.0093309556 0.0061291915 0 0.0070135606 0 0)
(-0.00016327183 0.00018269713 0 0.00017292081 0 0)
(-0.00024323485 2.5580515e-006 0 0.0002243809 0 0)
(-0.00018024614 -4.1389193e-005 0 0.00019092567 0 0)
(-0.00017083784 -4.3951104e-005 0 0.0001620574 0 0)
(-0.00012362824 -4.2310563e-005 0 0.00012766812 0 0)
(-0.00011037908 -3.0887e-005 0 0.00010770851 0 0)
(-8.9010679e-005 -2.2912337e-005 0 8.9881882e-005 0 0)
(-8.1124628e-005 -9.4766561e-006 0 8.0425845e-005 0 0)
(-7.7062853e-005 3.8642281e-006 0 7.7077553e-005 0 0)
(-8.1288964e-005 2.0037127e-005 0 8.1009786e-005 0 0)
(-9.478156e-005 4.1085466e-005 0 9.4499953e-005 0 0)
(-0.00011522246 6.4416456e-005 0 0.00011466106 0 0)
(-0.00015227684 0.00010007032 0 0.00015134489 0 0)
(-0.00020440151 0.00014750582 0 0.00020275193 0 0)
(-0.00027957164 0.00021428457 0 0.00027601005 0 0)
(-0.00038911693 0.00031454844 0 0.00038270147 0 0)
(-0.00054442956 0.00046525225 0 0.00053127342 0 0)
(-0.00076064262 0.00068411012 0 0.00073266396 0 0)
(-0.001081098 0.001077381 0 0.0010287393 0 0)
(-0.0015522594 0.0016425594 0 0.0014098584 0 0)
(-0.0022911374 0.0028769484 0 0.0020134309 0 0)
(-0.0037612644 0.004521118 0 0.0028297604 0 0)
(-0.0053656508 0.0073633741 0 0.003732667 0 0)
(-0.010599709 0.010267926 0 0.0053754493 0 0)
(-0.006672274 0.0070013775 0 0.004819432 0 0)
(-0.00016455738 0.00020698301 0 0.00017515431 0 0)
(-0.00024886446 2.0565033e-006 0 0.00022820072 0 0)
(-0.00018292341 -4.8488266e-005 0 0.0001945031 0 0)
(-0.00017215369 -5.1541505e-005 0 0.00016281728 0 0)
(-0.00012258257 -4.9103053e-005 0 0.00012670106 0 0)
(-0.00010793725 -3.5639653e-005 0 0.00010530138 0 0)
(-8.6129701e-005 -2.6393073e-005 0 8.6963729e-005 0 0)
(-7.7542345e-005 -1.1078094e-005 0 7.6875579e-005 0 0)
(-7.3073421e-005 3.9491814e-006 0 7.3086331e-005 0 0)
(-7.6505777e-005 2.2022804e-005 0 7.6229242e-005 0 0)
(-8.8684223e-005 4.5454103e-005 0 8.8412375e-005 0 0)
(-0.00010737557 7.1332815e-005 0 0.00010684787 0 0)
(-0.00014129954 0.00011066114 0 0.00014042063 0 0)
(-0.00018891972 0.00016297421 0 0.00018732814 0 0)
(-0.00025733119 0.00023645989 0 0.00025389939 0 0)
(-0.00035573099 0.00034601701 0 0.00034948216 0 0)
(-0.00049390895 0.00050965237 0 0.00048101897 0 0)
(-0.00068171186 0.00074480064 0 0.00065419807 0 0)
(-0.00095192085 0.0011653714 0 0.00090143586 0 0)
(-0.001334516 0.001758257 0 0.0011944971 0 0)
(-0.0018307402 0.0031044554 0 0.0015818771 0 0)
(-0.0030880824 0.0047512992 0 0.0021707549 0 0)
(-0.0034587558 0.0080918843 0 0.0020275588 0 0)
(-0.0075488133 0.011063713 0 0.0028281777 0 0)
(-0.00038429938 0.0097792482 0 -0.0016185542 0 0)
(-0.00016664723 0.00023221334 0 0.00017850032 0 0)
(-0.00025511235 1.5342006e-006 0 0.00023252309 0 0)
(-0.00018604134 -5.634797e-005 0 0.00019930181 0 0)
(-0.00017341528 -5.958465e-005 0 0.00016233589 0 0)
(-0.00012121104 -5.6257009e-005 0 0.00012640821 0 0)
(-0.00010508818 -4.0539344e-005 0 0.00010206827 0 0)
(-8.2837499e-005 -2.9870532e-005 0 8.3887817e-005 0 0)
(-7.3463978e-005 -1.2701116e-005 0 7.2801578e-005 0 0)
(-6.8581687e-005 3.990095e-006 0 6.8655558e-005 0 0)
(-7.1311478e-005 2.4208792e-005 0 7.110383e-005 0 0)
(-8.1807253e-005 4.933035e-005 0 8.170959e-005 0 0)
(-9.8569343e-005 7.7615163e-005 0 9.8199717e-005 0 0)
(-0.00012925842 0.00012049717 0 0.00012854705 0 0)
(-0.00017215834 0.00017737369 0 0.00017081835 0 0)
(-0.00023275196 0.00025639809 0 0.00022963689 0 0)
(-0.00031902153 0.00037403988 0 0.00031324533 0 0)
(-0.00043933032 0.00054860812 0 0.00042690692 0 0)
(-0.00060066493 0.00079167882 0 0.00057225085 0 0)
(-0.00080654522 0.001241182 0 0.00075884588 0 0)
(-0.0011176112 0.0018214657 0 0.00096971053 0 0)
(-0.0013151218 0.0032250101 0 0.0011103094 0 0)
(-0.0021433451 0.0048250044 0 0.0012356876 0 0)
(-0.0013261098 0.0079165017 0 0.00029166677 0 0)
(-0.0033641264 0.01000754 0 -0.00039244329 0 0)
(0.0038178469 0.010017434 0 -0.0071560894 0 0)
(-0.015554297 0.00048298043 0 0.010871973 0 0)
(-0.0089496966 0.0011289015 0 0.0072046207 0 0)
(-0.0034295363 0.0018042946 0 0.0029038142 0 0)
(-0.00085473419 0.0021385567 0 0.00074588186 0 0)
(-0.00012729206 0.002223913 0 2.1778259e-005 0 0)
(-8.4130915e-006 0.0022289098 0 -8.6482042e-005 0 0)
(-5.2163171e-005 0.002219308 0 -4.2280609e-005 0 0)
(-7.9995533e-005 0.0022150952 0 -1.2591781e-005 0 0)
(-9.2114583e-005 0.0022136209 0 -3.9686312e-007 0 0)
(-9.2509402e-005 0.0022134774 0 1.565495e-007 0 0)
(-9.2185391e-005 0.0022134472 0 -1.8922666e-007 0 0)
(-9.2201288e-005 0.0022134196 0 -1.5963283e-007 0 0)
(-9.2318545e-005 0.0022134 0 -4.3325133e-008 0 0)
(-9.2352904e-005 0.0022133938 0 -7.3734776e-009 0 0)
(-9.236049e-005 0.0022133926 0 2.256834e-010 0 0)
(-9.2360751e-005 0.0022133936 0 5.4238067e-010 0 0)
(-9.2361024e-005 0.0022133911 0 8.053743e-010 0 0)
(-9.235981e-005 0.0022133925 0 -4.7102969e-010 0 0)
(-9.2359267e-005 0.002213393 0 -1.0499442e-009 0 0)
(-9.2361534e-005 0.0022133893 0 1.3074401e-009 0 0)
(-9.2361346e-005 0.002213388 0 1.252553e-009 0 0)
(-9.235873e-005 0.0022133918 0 -1.2555808e-009 0 0)
(-9.235727e-005 0.0022133899 0 -3.5299561e-009 0 0)
(-9.2332736e-005 0.0022133855 0 -1.7379767e-008 0 0)
(-9.23322e-005 0.0022133874 0 -1.3429642e-008 0 0)
(-0.014838433 0.0015021255 0 0.01028061 0 0)
(-0.0083951189 0.003452726 0 0.0066218034 0 0)
(-0.0036454341 0.0053950551 0 0.0025921775 0 0)
(-0.0014791873 0.0063697021 0 0.0006753033 0 0)
(-0.00090296165 0.0066050544 0 5.1161065e-005 0 0)
(-0.00077193683 0.0066240154 0 -6.484988e-005 0 0)
(-0.00080153719 0.0066014223 0 -3.4405222e-005 0 0)
(-0.000821729 0.0065913766 0 -1.0971251e-005 0 0)
(-0.00083158331 0.0065875073 0 -6.0941684e-007 0 0)
(-0.00083193577 0.0065870729 0 6.9596948e-008 0 0)
(-0.00083171469 0.0065869704 0 -1.5345468e-007 0 0)
(-0.000831702 0.0065869005 0 -1.3206931e-007 0 0)
(-0.0008317932 0.006586852 0 -3.5013914e-008 0 0)
(-0.0008318176 0.0065868334 0 -5.0190034e-009 0 0)
(-0.00083182299 0.0065868338 0 3.1598941e-010 0 0)
(-0.00083182193 0.0065868269 0 5.4232455e-010 0 0)
(-0.00083182255 0.0065868283 0 4.9629726e-010 0 0)
(-0.00083181971 0.0065868203 0 -2.9408258e-010 0 0)
(-0.00083182117 0.0065868284 0 2.6166992e-011 0 0)
(-0.00083182269 0.0065868318 0 4.4740744e-010 0 0)
(-0.00083182046 0.0065868212 0 -1.7488882e-010 0 0)
(-0.00083182055 0.0065868288 0 -9.2296053e-010 0 0)
(-0.00083181978 0.006586825 0 -2.2986455e-009 0 0)
(-0.00083179818 0.0065868119 0 -1.2159508e-008 0 0)
(-0.00083179646 0.0065868193 0 -1.1049462e-008 0 0)
(-0.013598256 0.0026074768 0 0.009390783 0 0)
(-0.0073360524 0.0059736758 0 0.0054769168 0 0)
(-0.004135132 0.0088906975 0 0.0021076697 0 0)
(-0.0027264476 0.01039947 0 0.00055262322 0 0)
(-0.0024111369 0.010750459 0 9.1994724e-005 0 0)
(-0.0022839988 0.010808559 0 -3.1732968e-005 0 0)
(-0.0022892209 0.010783667 0 -2.2541166e-005 0 0)
(-0.0022975365 0.010769904 0 -7.6372188e-006 0 0)
(-0.0023026142 0.010764349 0 -8.4238172e-007 0 0)
(-0.0023028344 0.010763535 0 -3.8809296e-008 0 0)
(-0.0023027487 0.010763365 0 -1.0011046e-007 0 0)
(-0.0023027114 0.010763278 0 -7.990284e-008 0 0)
(-0.0023027449 0.010763212 0 -2.3638794e-008 0 0)
(-0.0023027557 0.010763194 0 -2.9312443e-009 0 0)
(-0.002302757 0.010763188 0 3.5002144e-010 0 0)
(-0.0023027569 0.010763189 0 1.9533925e-010 0 0)
(-0.0023027524 0.010763174 0 2.229528e-010 0 0)
(-0.0023027549 0.010763182 0 6.5834117e-010 0 0)
(-0.0023027573 0.010763187 0 1.158725e-009 0 0)
(-0.0023027554 0.010763188 0 -1.0156739e-009 0 0)
(-0.002302751 0.010763175 0 -1.3478037e-009 0 0)
(-0.0023027537 0.010763181 0 -5.9661892e-010 0 0)
(-0.0023027552 0.010763181 0 -1.5213082e-010 0 0)
(-0.0023027455 0.010763167 0 -5.4493119e-009 0 0)
(-0.0023027347 0.010763145 0 -7.622486e-009 0 0)
(-0.011754605 0.0038520659 0 0.007955082 0 0)
(-0.0060447455 0.0088826388 0 0.0037247131 0 0)
(-0.0050515059 0.012042701 0 0.0015501964 0 0)
(-0.0045349966 0.014060791 0 0.0003845671 0 0)
(-0.0045331966 0.014519812 0 7.5975908e-005 0 0)
(-0.0044728664 0.014587492 0 1.4531891e-006 0 0)
(-0.0044585702 0.014569188 0 -8.1855358e-006 0 0)
(-0.0044534183 0.014554845 0 -4.4758169e-006 0 0)
(-0.0044538751 0.014548138 0 -1.0086076e-006 0 0)
(-0.0044538788 0.01454697 0 -1.1393144e-007 0 0)
(-0.0044538885 0.014546748 0 -2.772821e-008 0 0)
(-0.0044538166 0.014546666 0 -2.143863e-008 0 0)
(-0.0044537971 0.014546607 0 -9.5763464e-009 0 0)
(-0.0044537902 0.014546588 0 -2.1290094e-009 0 0)
(-0.0044537893 0.014546582 0 2.4823492e-011 0 0)
(-0.0044537884 0.014546583 0 -3.4777984e-010 0 0)
(-0.0044537873 0.014546577 0 -1.4090974e-011 0 0)
(-0.0044537894 0.014546578 0 1.5963665e-009 0 0)
(-0.0044537896 0.01454658 0 8.1077692e-010 0 0)
(-0.0044537818 0.014546569 0 -1.5060458e-009 0 0)
(-0.0044537844 0.014546576 0 -1.4561681e-009 0 0)
(-0.0044537885 0.014546581 0 1.0322217e-010 0 0)
(-0.0044537908 0.014546577 0 2.4196555e-009 0 0)
(-0.0044537932 0.014546563 0 4.3299892e-009 0 0)
(-0.004453782 0.014546545 0 3.4975705e-010 0 0)
(-0.0092477446 0.0050269456 0 0.0059862952 0 0)
(-0.0054072627 0.012107645 0 0.0018030573 0 0)
(-0.0061437401 0.015093042 0 0.00070012562 0 0)
(-0.0068627077 0.017231131 0 0.00017945535 0 0)
(-0.007214794 0.01771395 0 7.4022241e-005 0 0)
(-0.0072086268 0.017793754 0 2.8856028e-005 0 0)
(-0.0071809702 0.017781676 0 4.2327125e-006 0 0)
(-0.0071653111 0.017770153 0 -1.3987574e-006 0 0)
(-0.0071616398 0.017763267 0 -9.4560595e-007 0 0)
(-0.0071612978 0.017761924 0 -1.1507106e-007 0 0)
(-0.0071613539 0.017761695 0 4.4216184e-008 0 0)
(-0.0071612559 0.017761649 0 2.5081107e-008 0 0)
(-0.0071612003 0.017761606 0 2.0793846e-009 0 0)
(-0.0071611805 0.01776159 0 -1.0796624e-009 0 0)
(-0.0071611767 0.017761584 0 -2.9968709e-010 0 0)
(-0.0071611768 0.017761585 0 -5.0098604e-010 0 0)
(-0.0071611748 0.017761581 0 -1.8475962e-010 0 0)
(-0.0071611776 0.017761582 0 1.1905256e-009 0 0)
(-0.0071611734 0.017761578 0 2.660465e-010 0 0)
(-0.0071611742 0.017761582 0 -1.1783782e-009 0 0)
(-0.0071611761 0.017761583 0 -2.8101508e-010 0 0)
(-0.0071611782 0.017761584 0 7.3991899e-010 0 0)
(-0.0071611784 0.017761578 0 3.6716693e-009 0 0)
(-0.0071611986 0.017761573 0 1.3676228e-008 0 0)
(-0.0071611912 0.017761553 0 9.3606957e-009 0 0)
(-0.0057241064 0.0082533165 0 0.00250478 0 0)
(-0.0053706654 0.014246702 0 0.00027128058 0 0)
(-0.0081502541 0.018205072 0 -0.00017447023 0 0)
(-0.0097234736 0.019924318 0 -6.5646258e-007 0 0)
(-0.010304202 0.020308632 0 7.3336345e-005 0 0)
(-0.010331629 0.020395543 0 4.641605e-005 0 0)
(-0.010299522 0.020393466 0 1.2860132e-005 0 0)
(-0.010277928 0.0203863 0 1.2863461e-006 0 0)
(-0.010271145 0.020380195 0 -6.6067401e-007 0 0)
(-0.010270441 0.020378967 0 -6.011597e-008 0 0)
(-0.010270521 0.020378785 0 9.8867338e-008 0 0)
(-0.010270417 0.020378791 0 5.2806436e-008 0 0)
(-0.010270348 0.020378771 0 9.0288822e-009 0 0)
(-0.010270323 0.020378762 0 -4.7437094e-010 0 0)
(-0.01027032 0.020378759 0 -5.35246e-010 0 0)
(-0.010270321 0.020378759 0 -1.7552157e-010 0 0)
(-0.010270319 0.020378758 0 -3.9165548e-010 0 0)
(-0.010270318 0.020378756 0 -1.3591388e-011 0 0)
(-0.010270319 0.020378758 0 -3.1844911e-010 0 0)
(-0.010270321 0.020378759 0 1.6944172e-010 0 0)
(-0.01027032 0.020378757 0 8.1363171e-010 0 0)
(-0.010270321 0.020378757 0 9.2092947e-010 0 0)
(-0.010270322 0.020378754 0 3.4368703e-009 0 0)
(-0.010270353 0.020378759 0 1.785323e-008 0 0)
(-0.010270357 0.020378746 0 1.5811331e-008 0 0)
(-0.004446677 0.010582174 0 0.00020327435 0 0)
(-0.0065359659 0.018376333 0 -0.0016480292 0 0)
(-0.011384886 0.021278955 0 -0.00072968115 0 0)
(-0.01311194 0.022307917 0 -0.00010688618 0 0)
(-0.013759461 0.022539438 0 6.9139446e-005 0 0)
(-0.013792122 0.022619554 0 5.1859131e-005 0 0)
(-0.01376389 0.022627015 0 1.6820406e-005 0 0)
(-0.0137406 0.022624781 0 2.8230142e-006 0 0)
(-0.013733027 0.022620512 0 -3.0922074e-007 0 0)
(-0.01373216 0.022619691 0 5.2272768e-010 0 0)
(-0.013732284 0.022619601 0 1.1858796e-007 0 0)
(-0.013732215 0.022619655 0 6.5015989e-008 0 0)
(-0.013732148 0.022619659 0 1.1107208e-008 0 0)
(-0.013732125 0.022619657 0 -4.3657336e-010 0 0)
(-0.013732122 0.022619654 0 -6.5600236e-010 0 0)
(-0.013732124 0.022619655 0 -7.6430837e-011 0 0)
(-0.013732122 0.022619655 0 -5.6483669e-010 0 0)
(-0.013732123 0.022619655 0 -8.8533876e-010 0 0)
(-0.013732123 0.022619654 0 -1.3045911e-010 0 0)
(-0.013732123 0.022619653 0 9.6544405e-010 0 0)
(-0.013732123 0.022619654 0 8.4330293e-010 0 0)
(-0.013732125 0.022619655 0 6.2700267e-010 0 0)
(-0.013732127 0.022619655 0 1.7601528e-009 0 0)
(-0.013732152 0.022619663 0 1.3808131e-008 0 0)
(-0.013732178 0.022619672 0 1.3863479e-008 0 0)
(-0.0041728922 0.01477383 0 -0.0028432792 0 0)
(-0.010043485 0.022943839 0 -0.0029292563 0 0)
(-0.015881593 0.024391309 0 -0.00087177721 0 0)
(-0.017072812 0.024714837 0 -0.00012461125 0 0)
(-0.017657498 0.024810636 0 6.5901302e-005 0 0)
(-0.017674631 0.024880651 0 4.8259354e-005 0 0)
(-0.017659616 0.024898142 0 1.6313941e-005 0 0)
(-0.017638515 0.024900633 0 2.8138371e-006 0 0)
(-0.017632955 0.024898474 0 -6.4969041e-008 0 0)
(-0.017632171 0.024898145 0 1.7803946e-008 0 0)
(-0.017632414 0.024898152 0 1.1469849e-007 0 0)
(-0.017632365 0.02489825 0 4.8817433e-008 0 0)
(-0.017632334 0.024898266 0 8.8447345e-009 0 0)
(-0.017632318 0.024898269 0 -7.1613717e-010 0 0)
(-0.017632318 0.024898267 0 -6.7934801e-010 0 0)
(-0.017632319 0.024898268 0 -1.2332345e-010 0 0)
(-0.017632318 0.024898268 0 -6.2827994e-010 0 0)
(-0.017632317 0.024898268 0 -9.7805382e-010 0 0)
(-0.017632318 0.024898267 0 1.0324098e-010 0 0)
(-0.017632319 0.024898268 0 7.5266312e-010 0 0)
(-0.01763232 0.024898268 0 4.5590078e-010 0 0)
(-0.01763232 0.024898268 0 2.6831927e-010 0 0)
(-0.01763232 0.024898271 0 -6.1555548e-010 0 0)
(-0.017632328 0.024898278 0 3.02316e-009 0 0)
(-0.017632361 0.024898301 0 4.5579189e-009 0 0)
(-0.0090058881 0.023289029 0 -0.005784032 0 0)
(-0.016374259 0.028014203 0 -0.0036324668 0 0)
(-0.021244679 0.027551818 0 -0.00068712074 0 0)
(-0.02146329 0.02730519 0 -0.00010822699 0 0)
(-0.021891681 0.027323378 0 6.3929622e-005 0 0)
(-0.021911241 0.027400043 0 3.3779025e-005 0 0)
(-0.021924083 0.02742616 0 1.3904395e-005 0 0)
(-0.021907519 0.02743222 0 1.5595785e-006 0 0)
(-0.021906263 0.027431741 0 1.6465478e-007 0 0)
(-0.021905521 0.027431689 0 -1.1658727e-008 0 0)
(-0.021905932 0.027431786 0 9.2185918e-008 0 0)
(-0.02190591 0.027431891 0 2.5180107e-008 0 0)
(-0.021905924 0.027431914 0 5.6300943e-009 0 0)
(-0.021905912 0.027431916 0 -1.628317e-009 0 0)
(-0.021905914 0.027431915 0 -6.4729359e-010 0 0)
(-0.021905914 0.027431915 0 -2.1487951e-010 0 0)
(-0.021905914 0.027431915 0 -2.9921398e-010 0 0)
(-0.021905913 0.027431914 0 -5.4849675e-010 0 0)
(-0.021905913 0.027431914 0 -5.8062735e-011 0 0)
(-0.021905914 0.027431914 0 3.1833166e-010 0 0)
(-0.021905915 0.027431915 0 2.00041e-010 0 0)
(-0.021905915 0.027431915 0 3.6986529e-012 0 0)
(-0.021905913 0.027431917 0 -2.3115774e-009 0 0)
(-0.0219059 0.02743192 0 -6.095206e-009 0 0)
(-0.021905914 0.027431937 0 -3.5981576e-009 0 0)
(-0.030030437 0.039688933 0 -0.0097576771 0 0)
(-0.025721739 0.03211226 0 -0.0021530363 0 0)
(-0.031768566 0.03273795 0 -0.00032476635 0 0)
(-0.029728525 0.031513116 0 -3.1707007e-005 0 0)
(-0.030660879 0.031869154 0 3.5171675e-005 0 0)
(-0.030513625 0.03185874 0 1.4611842e-005 0 0)
(-0.030620035 0.031924497 0 5.5945579e-006 0 0)
(-0.030596382 0.031921119 0 3.4815002e-007 0 0)
(-0.030604171 0.031924752 0 1.1147057e-007 0 0)
(-0.030601919 0.03192372 0 -3.8462001e-008 0 0)
(-0.030602922 0.031924152 0 3.1014243e-008 0 0)
(-0.030602805 0.031924133 0 3.5490008e-009 0 0)
(-0.030602875 0.031924174 0 9.0655605e-010 0 0)
(-0.030602856 0.031924165 0 -1.3744988e-009 0 0)
(-0.030602859 0.031924164 0 -3.5983022e-010 0 0)
(-0.030602858 0.031924164 0 -1.5507734e-010 0 0)
(-0.030602858 0.031924164 0 -3.0652889e-011 0 0)
(-0.030602857 0.031924163 0 -1.8621493e-010 0 0)
(-0.030602856 0.031924162 0 -3.4203531e-011 0 0)
(-0.030602857 0.031924163 0 8.0920843e-011 0 0)
(-0.030602857 0.031924163 0 1.5338878e-011 0 0)
(-0.030602856 0.031924164 0 -2.1865326e-010 0 0)
(-0.030602851 0.031924164 0 -1.7187901e-009 0 0)
(-0.03060282 0.031924153 0 -8.2301845e-009 0 0)
(-0.030602775 0.031924142 0 -6.6748678e-009 0 0)
(-0.00017188833 0.00027982657 0 0.00018781604 0 0)
(-0.0002696699 -6.3863338e-007 0 0.0002437243 0 0)
(-0.00019256886 -7.4661048e-005 0 0.00021015578 0 0)
(-0.00017576616 -7.7410644e-005 0 0.00016005014 0 0)
(-0.00011783169 -7.05992e-005 0 0.00012482051 0 0)
(-9.8533361e-005 -5.0914664e-005 0 9.4145112e-005 0 0)
(-7.5470229e-005 -3.6314615e-005 0 7.6107118e-005 0 0)
(-6.451372e-005 -1.5793871e-005 0 6.3386309e-005 0 0)
(-5.8884419e-005 4.3684181e-006 0 5.8438022e-005 0 0)
(-5.9717408e-005 2.765658e-005 0 5.9028152e-005 0 0)
(-6.7406253e-005 5.6861491e-005 0 6.679616e-005 0 0)
(-8.0223391e-005 8.9002607e-005 0 7.9172909e-005 0 0)
(-0.0001041305 0.00013777118 0 0.00010266942 0 0)
(-0.0001367993 0.00020085842 0 0.00013450158 0 0)
(-0.0001826658 0.00028871769 0 0.0001781903 0 0)
(-0.00024557168 0.00041667401 0 0.00023817631 0 0)
(-0.00032805724 0.00060664157 0 0.00031490365 0 0)
(-0.00042758291 0.00086065901 0 0.00039881463 0 0)
(-0.00054552661 0.001320549 0 0.0005050144 0 0)
(-0.00067468401 0.0019062767 0 0.00054670186 0 0)
(-0.00062823348 0.0031959764 0 0.00047029717 0 0)
(-0.00068800481 0.0046886397 0 -6.4426941e-005 0 0)
(0.00087605483 0.0071077762 0 -0.0014661297 0 0)
(0.0015500423 0.0075424114 0 -0.003780528 0 0)
(0.0098944184 0.0051390522 0 -0.011957135 0 0)
(-0.00019083907 0.0003529384 0 0.00020823098 0 0)
(-0.00029852846 -7.6970451e-006 0 0.00026877388 0 0)
(-0.00020514431 -0.0001101763 0 0.00022387878 0 0)
(-0.00017585097 -0.00011146011 0 0.00015745563 0 0)
(-0.00010855606 -9.5648086e-005 0 0.00011604533 0 0)
(-8.4119385e-005 -6.9601445e-005 0 7.996423e-005 0 0)
(-5.9970636e-005 -4.722854e-005 0 6.0599311e-005 0 0)
(-4.7324639e-005 -2.1882853e-005 0 4.6772575e-005 0 0)
(-4.0530516e-005 3.1714749e-006 0 4.036817e-005 0 0)
(-3.8859096e-005 3.1329126e-005 0 3.8533203e-005 0 0)
(-4.139876e-005 6.322449e-005 0 4.1355073e-005 0 0)
(-4.7736555e-005 0.00010051897 0 4.7281427e-005 0 0)
(-5.9798689e-005 0.00015398432 0 5.9016728e-005 0 0)
(-7.6471006e-005 0.0002251723 0 7.5283042e-005 0 0)
(-9.7384095e-005 0.00031895346 0 9.4456876e-005 0 0)
(-0.00012370405 0.00045303441 0 0.00011785037 0 0)
(-0.00015086341 0.00064957585 0 0.00014076579 0 0)
(-0.00017453884 0.00090394817 0 0.00014998777 0 0)
(-0.00016360445 0.0013225774 0 0.00012530301 0 0)
(-0.00010788697 0.0018500666 0 5.3946759e-007 0 0)
(0.0002068903 0.0028259532 0 -0.00037978172 0 0)
(0.00073410268 0.0037214502 0 -0.0013418594 0 0)
(0.0026984657 0.0046486228 0 -0.003355074 0 0)
(0.0050350454 0.0020807771 0 -0.0070302846 0 0)
(0.0062903206 -0.0027787419 0 -0.0094412588 0 0)
(-0.00022978666 0.00043102215 0 0.00024627686 0 0)
(-0.00033741397 -3.1344953e-005 0 0.00030770485 0 0)
(-0.00021908959 -0.00016746151 0 0.00023626807 0 0)
(-0.00016985203 -0.00016308738 0 0.00015129755 0 0)
(-9.2602457e-005 -0.00013351863 0 9.8324684e-005 0 0)
(-6.386205e-005 -9.742046e-005 0 6.0451551e-005 0 0)
(-3.9855276e-005 -6.6738256e-005 0 3.9832861e-005 0 0)
(-2.6517764e-005 -3.5886373e-005 0 2.6302396e-005 0 0)
(-1.9107606e-005 -6.5665312e-006 0 1.894382e-005 0 0)
(-1.5124288e-005 2.352538e-005 0 1.4850941e-005 0 0)
(-1.3134531e-005 5.7795495e-005 0 1.3164606e-005 0 0)
(-1.2632949e-005 9.9187021e-005 0 1.2468611e-005 0 0)
(-1.3041828e-005 0.00015129972 0 1.2247937e-005 0 0)
(-1.2636536e-005 0.00022532113 0 1.146662e-005 0 0)
(-9.7889063e-006 0.00032032874 0 7.5707606e-006 0 0)
(-2.1539189e-006 0.00044925602 0 -3.1231602e-006 0 0)
(2.0261737e-005 0.00063684386 0 -2.9076105e-005 0 0)
(6.2103826e-005 0.00087349947 0 -8.2716793e-005 0 0)
(0.00016206585 0.0012329784 0 -0.00019433638 0 0)
(0.00033387794 0.0016793408 0 -0.00041405377 0 0)
(0.00077865563 0.0023871439 0 -0.00090276173 0 0)
(0.0015140608 0.002986662 0 -0.001865939 0 0)
(0.0031124744 0.0031887829 0 -0.003442479 0 0)
(0.0046812565 0.00092763327 0 -0.0053625971 0 0)
(0.0036856075 -0.0047323878 0 -0.0042996589 0 0)
(-0.00031160539 0.00050806561 0 0.00032599284 0 0)