/*--------------------------------*- C++ -*----------------------------------*\
| =========                 |                                                 |
| \\      /  F ield         | OpenFOAM: The Open Source CFD Toolbox           |
|  \\    /   O peration     | Version:  5.x                                   |
|   \\  /    A nd           | Web:      www.OpenFOAM.org                      |
|    \\/     M anipulation  |                                                 |
\*---------------------------------------------------------------------------*/
/*   Windows 32 and 64 bit porting by blueCAPE: http://www.bluecape.com.pt   *\
|  Based on Windows porting (2.0.x v4) by Symscape: http://www.symscape.com   |
\*---------------------------------------------------------------------------*/
FoamFile
{
    version     2.0;
    format      ascii;
    class       volSymmTensorField;
    location    "0.09";
    object      sigma_0;
}
// * * * * * * * * * * * * * * * * * * * * * * * * * * * * * * * * * * * * * //

dimensions      [0 2 -2 0 0 0 0];

internalField   nonuniform List<symmTensor> 
750
(
(-0.00016232758 1.2266574e-005 0 0.00017032661 0 0)
(-0.00022334882 1.5167964e-007 0 0.00020880297 0 0)
(-0.00016940637 -2.5448556e-006 0 0.00017742533 0 0)
(-0.00016509558 -2.5928414e-006 0 0.00015804313 0 0)
(-0.00012567165 -2.6879083e-006 0 0.00012906487 0 0)
(-0.00011797207 -1.9164949e-006 0 0.00011552101 0 0)
(-9.8557238e-005 -1.5295467e-006 0 9.9415122e-005 0 0)
(-9.352895e-005 -6.0059964e-007 0 9.2790925e-005 0 0)
(-9.1173292e-005 2.6360433e-007 0 9.1190557e-005 0 0)
(-9.8603604e-005 1.4207674e-006 0 9.829014e-005 0 0)
(-0.00011697037 2.9066172e-006 0 0.0001166583 0 0)
(-0.00014393293 4.5578667e-006 0 0.0001433637 0 0)
(-0.00019257567 7.1601751e-006 0 0.0001916586 0 0)
(-0.0002614683 1.0685842e-005 0 0.00025981949 0 0)
(-0.00036254768 1.562164e-005 0 0.00035899873 0 0)
(-0.00051451286 2.331276e-005 0 0.00050817473 0 0)
(-0.00073844145 3.4978835e-005 0 0.00072462707 0 0)
(-0.0010674785 5.2148855e-005 0 0.0010384079 0 0)
(-0.0015967823 8.3953248e-005 0 0.00153923 0 0)
(-0.0023824538 0.00012741568 0 0.0022329411 0 0)
(-0.003751253 0.00022230353 0 0.0034695186 0 0)
(-0.0060853385 0.00033222205 0 0.0052139786 0 0)
(-0.0098852056 0.00050595354 0 0.0081208794 0 0)
(-0.014811069 0.00073336655 0 0.010657365 0 0)
(-0.019477665 0.00041214928 0 0.013397013 0 0)
(-0.00016228683 3.6543771e-005 0 0.00017089978 0 0)
(-0.00022398515 5.8435969e-007 0 0.00020855368 0 0)
(-0.00016981223 -7.4915287e-006 0 0.00017878988 0 0)
(-0.00016520166 -7.7462172e-006 0 0.00015723386 0 0)
(-0.00012562714 -7.8221975e-006 0 0.000129752 0 0)
(-0.00011769141 -5.6453754e-006 0 0.00011477163 0 0)
(-9.8213484e-005 -4.3307255e-006 0 9.9281375e-005 0 0)
(-9.3074164e-005 -1.5985904e-006 0 9.2161761e-005 0 0)
(-9.0653464e-005 1.0519589e-006 0 9.0673708e-005 0 0)
(-9.8016926e-005 4.4941621e-006 0 9.7616497e-005 0 0)
(-0.00011611367 8.9451227e-006 0 0.00011575486 0 0)
(-0.00014274386 1.3884486e-005 0 0.0001420877 0 0)
(-0.0001910909 2.1677746e-005 0 0.00019004911 0 0)
(-0.00025941781 3.2163701e-005 0 0.00025759573 0 0)
(-0.00035917357 4.6875207e-005 0 0.00035532881 0 0)
(-0.00051009708 6.9840246e-005 0 0.00050342892 0 0)
(-0.00073067016 0.00010412094 0 0.00071608844 0 0)
(-0.00105525 0.0001554767 0 0.0010254052 0 0)
(-0.0015788387 0.00024938707 0 0.0015199923 0 0)
(-0.0023437326 0.00037296025 0 0.0021890851 0 0)
(-0.0037182694 0.00067587002 0 0.0034366156 0 0)
(-0.0059861486 0.0009863651 0 0.0050874314 0 0)
(-0.0098165126 0.001486276 0 0.0080618442 0 0)
(-0.01461877 0.0022017749 0 0.010360333 0 0)
(-0.019116239 0.0012752282 0 0.013205561 0 0)
(-0.00016224074 6.0650746e-005 0 0.00017147545 0 0)
(-0.00022533811 1.167531e-006 0 0.00020878309 0 0)
(-0.00017047497 -1.2419007e-005 0 0.00018017999 0 0)
(-0.00016557179 -1.3001302e-005 0 0.0001569856 0 0)
(-0.00012548073 -1.2909732e-005 0 0.00012994836 0 0)
(-0.00011714737 -9.4234034e-006 0 0.00011403789 0 0)
(-9.7527058e-005 -7.0705741e-006 0 9.8709154e-005 0 0)
(-9.2172828e-005 -2.5906437e-006 0 9.1237905e-005 0 0)
(-8.9613905e-005 1.8760879e-006 0 8.9683227e-005 0 0)
(-9.6790742e-005 7.5744938e-006 0 9.6414167e-005 0 0)
(-0.00011441362 1.4932913e-005 0 0.00011411544 0 0)
(-0.000140554 2.3168092e-005 0 0.00013995314 0 0)
(-0.0001881717 3.6100307e-005 0 0.00018720218 0 0)
(-0.00025524682 5.3371884e-005 0 0.00025353706 0 0)
(-0.00035280093 7.7701107e-005 0 0.00034910537 0 0)
(-0.0005007852 0.00011569957 0 0.00049440333 0 0)
(-0.00071590357 0.0001719218 0 0.00070170482 0 0)
(-0.0010315249 0.00025678728 0 0.0010023767 0 0)
(-0.0015406812 0.00041011363 0 0.0014833419 0 0)
(-0.0022783883 0.0006231396 0 0.0021251648 0 0)
(-0.0036308174 0.0010861475 0 0.0033539247 0 0)
(-0.0058367392 0.0016468284 0 0.0049309417 0 0)
(-0.0095816131 0.0024663497 0 0.0078472253 0 0)
(-0.014334191 0.0037329262 0 0.0099563278 0 0)
(-0.018215357 0.0022142777 0 0.012694791 0 0)
(-0.00016212669 8.4823495e-005 0 0.00017180449 0 0)
(-0.00022740743 1.806229e-006 0 0.00021000037 0 0)
(-0.00017150155 -1.7479022e-005 0 0.00018169359 0 0)
(-0.00016616759 -1.8507926e-005 0 0.00015733108 0 0)
(-0.0001252516 -1.8236803e-005 0 0.00012978453 0 0)
(-0.00011633805 -1.3426132e-005 0 0.00011323283 0 0)
(-9.648708e-005 -1.001398e-005 0 9.7656906e-005 0 0)
(-9.0823428e-005 -3.7969659e-006 0 8.9911289e-005 0 0)
(-8.8068037e-005 2.4818283e-006 0 8.8134739e-005 0 0)
(-9.485393e-005 1.0364038e-005 0 9.4493206e-005 0 0)
(-0.00011201262 2.0639412e-005 0 0.00011170886 0 0)
(-0.00013740904 3.2113787e-005 0 0.00013680774 0 0)
(-0.0001836882 5.0041364e-005 0 0.00018272476 0 0)
(-0.00024886018 7.3936663e-005 0 0.00024716727 0 0)
(-0.00034354126 0.00010771835 0 0.00033985843 0 0)
(-0.00048658266 0.00016000492 0 0.00048020888 0 0)
(-0.00069408837 0.00023776036 0 0.00068001389 0 0)
(-0.00099651085 0.00035539445 0 0.00096744336 0 0)
(-0.001482366 0.00056519491 0 0.0014257191 0 0)
(-0.0021886294 0.00085920717 0 0.0020363334 0 0)
(-0.0034690264 0.0015301601 0 0.0031904127 0 0)
(-0.005607162 0.0023438079 0 0.0046897314 0 0)
(-0.0091371223 0.0035403968 0 0.0074149726 0 0)
(-0.01396556 0.0052784134 0 0.0093965034 0 0)
(-0.016813646 0.0032334701 0 0.011858146 0 0)
(-0.00016197286 0.00010914471 0 0.00017169 0 0)
(-0.00023016195 2.3764604e-006 0 0.00021247423 0 0)
(-0.00017293979 -2.2739081e-005 0 0.00018324289 0 0)
(-0.00016696788 -2.4260448e-005 0 0.00015813636 0 0)
(-0.0001249344 -2.374843e-005 0 0.00012938805 0 0)
(-0.00011524621 -1.7513665e-005 0 0.00011222027 0 0)
(-9.5093846e-005 -1.3017103e-005 0 9.620933e-005 0 0)
(-8.9028019e-005 -5.0451669e-006 0 8.8158377e-005 0 0)
(-8.6019396e-005 3.0283217e-006 0 8.6076383e-005 0 0)
(-9.2307916e-005 1.3056022e-005 0 9.1966601e-005 0 0)
(-0.00010881125 2.6180602e-005 0 0.00010850649 0 0)
(-0.00013327122 4.0813138e-005 0 0.00013268235 0 0)
(-0.00017778183 6.3542138e-005 0 0.00017683517 0 0)
(-0.00024043371 9.3817297e-005 0 0.00023877254 0 0)
(-0.00033140633 0.00013665004 0 0.00032777361 0 0)
(-0.00046786683 0.00020267579 0 0.00046152232 0 0)
(-0.00066546476 0.00030066512 0 0.0006516314 0 0)
(-0.00095089196 0.00044880208 0 0.00092194192 0 0)
(-0.0014055356 0.00071188207 0 0.0013495895 0 0)
(-0.0020679588 0.0010900244 0 0.0019167349 0 0)
(-0.0032677677 0.0019062724 0 0.002986555 0 0)
(-0.0053313444 0.0029232574 0 0.0044025339 0 0)
(-0.008519302 0.004548334 0 0.0068118765 0 0)
(-0.013466671 0.0067502915 0 0.0086719678 0 0)
(-0.015350827 0.0042283621 0 0.011006304 0 0)
(-0.00016188111 0.00013357466 0 0.00017140905 0 0)
(-0.00023362046 2.7333104e-006 0 0.00021594146 0 0)
(-0.00017475966 -2.8397984e-005 0 0.00018498239 0 0)
(-0.00016795623 -3.0329012e-005 0 0.00015923741 0 0)
(-0.00012450453 -2.9546164e-005 0 0.00012881759 0 0)
(-0.00011385078 -2.1744173e-005 0 0.00011093287 0 0)
(-9.3346195e-005 -1.6144623e-005 0 9.4390543e-005 0 0)
(-8.6784472e-005 -6.3898972e-006 0 8.5966884e-005 0 0)
(-8.3474852e-005 3.4576467e-006 0 8.3522938e-005 0 0)
(-8.9194747e-005 1.5605928e-005 0 8.8868738e-005 0 0)
(-0.00010480784 3.1456588e-005 0 0.00010452616 0 0)
(-0.00012811787 4.913362e-005 0 0.00012755534 0 0)
(-0.00017051942 7.6438536e-005 0 0.00016959702 0 0)
(-0.00023014146 0.00011275514 0 0.0002285085 0 0)
(-0.00031656902 0.0001642764 0 0.00031301318 0 0)
(-0.00044508495 0.00024280834 0 0.0004387946 0 0)
(-0.00063030354 0.00036019622 0 0.00061678233 0 0)
(-0.00089625738 0.0005348107 0 0.00086760072 0 0)
(-0.0013110158 0.00084776812 0 0.0012561231 0 0)
(-0.0019232084 0.0012925744 0 0.0017751572 0 0)
(-0.0029923941 0.002282098 0 0.0027159235 0 0)
(-0.0049084464 0.0035474526 0 0.0039814223 0 0)
(-0.0076702983 0.0055670336 0 0.006005656 0 0)
(-0.012736256 0.0082208271 0 0.0077309345 0 0)
(-0.013334098 0.0048964563 0 0.0099668728 0 0)
(-0.00016202427 0.00015790127 0 0.00017139669 0 0)
(-0.00023781431 2.7683262e-006 0 0.00021995939 0 0)
(-0.00017690757 -3.4558448e-005 0 0.00018711505 0 0)
(-0.00016909291 -3.6766018e-005 0 0.00016045262 0 0)
(-0.00012392302 -3.5693456e-005 0 0.0001280901 0 0)
(-0.0001121298 -2.6152819e-005 0 0.00010933134 0 0)
(-9.1234208e-005 -1.9413141e-005 0 9.2200172e-005 0 0)
(-8.4090093e-005 -7.8420613e-006 0 8.3333746e-005 0 0)
(-8.0437677e-005 3.7525359e-006 0 8.0475292e-005 0 0)
(-8.5485716e-005 1.7964037e-005 0 8.5183649e-005 0 0)
(-0.0001000829 3.6433497e-005 0 9.9819215e-005 0 0)
(-0.00012206554 5.6989538e-005 0 0.00012152133 0 0)
(-0.00016194864 8.8617825e-005 0 0.00016103536 0 0)
(-0.00021803076 0.00013077155 0 0.00021640547 0 0)
(-0.00029922429 0.00019010491 0 0.0002957046 0 0)
(-0.00041849785 0.00028051499 0 0.00041225483 0 0)
(-0.00059021499 0.00041436833 0 0.00057694867 0 0)
(-0.00083194913 0.00061366468 0 0.00080359418 0 0)
(-0.0012033705 0.0009690465 0 0.0011500796 0 0)
(-0.0017453806 0.0014817008 0 0.0015994602 0 0)
(-0.0026700569 0.0026044331 0 0.0023949705 0 0)
(-0.0043972005 0.0040755197 0 0.0034683923 0 0)
(-0.0066094365 0.0065424158 0 0.004966965 0 0)
(-0.011898173 0.0093039517 0 0.00671599 0 0)
(-0.0093335798 0.0061241762 0 0.0070174761 0 0)
(-0.00016258948 0.00018228098 0 0.00017236579 0 0)
(-0.00024275729 2.4694158e-006 0 0.00022370467 0 0)
(-0.0001793303 -4.1256395e-005 0 0.00019014991 0 0)
(-0.00017036045 -4.370765e-005 0 0.00016151055 0 0)
(-0.00012313654 -4.2135615e-005 0 0.000127215 0 0)
(-0.00011006521 -3.0709611e-005 0 0.00010738044 0 0)
(-8.8751012e-005 -2.2781882e-005 0 8.9630431e-005 0 0)
(-8.0942935e-005 -9.3681503e-006 0 8.0241903e-005 0 0)
(-7.692429e-005 3.9428111e-006 0 7.6940942e-005 0 0)
(-8.1188615e-005 2.0093258e-005 0 8.0909113e-005 0 0)
(-9.4702167e-005 4.1112771e-005 0 9.4421157e-005 0 0)
(-0.00011515424 6.4421245e-005 0 0.0001145936 0 0)
(-0.00015220922 0.0001000458 0 0.0001512783 0 0)
(-0.00020431838 0.00014743988 0 0.00020267049 0 0)
(-0.00027946757 0.00021417613 0 0.00027591153 0 0)
(-0.00038894237 0.00031434358 0 0.00038253403 0 0)
(-0.00054418552 0.00046495118 0 0.00053105215 0 0)
(-0.00076026035 0.00068358986 0 0.00073232002 0 0)
(-0.0010805082 0.0010765044 0 0.0010282554 0 0)
(-0.0015511403 0.0016409502 0 0.001408988 0 0)
(-0.0022894017 0.002874387 0 0.002012346 0 0)
(-0.0037586474 0.0045180537 0 0.0028284636 0 0)
(-0.0053660242 0.0073608142 0 0.0037345705 0 0)
(-0.010604256 0.010265906 0 0.005380363 0 0)
(-0.0066724771 0.0069979615 0 0.0048216345 0 0)
(-0.00016383307 0.00020651593 0 0.00017456845 0 0)
(-0.00024839441 1.9606364e-006 0 0.00022751364 0 0)
(-0.00018199257 -4.8339356e-005 0 0.0001937213 0 0)
(-0.00017167497 -5.1261445e-005 0 0.00016226663 0 0)
(-0.00012209707 -4.8904794e-005 0 0.00012625324 0 0)
(-0.00010762748 -3.5439786e-005 0 0.00010497844 0 0)
(-8.5879081e-005 -2.6247471e-005 0 8.6720703e-005 0 0)
(-7.7367679e-005 -1.0958229e-005 0 7.6698903e-005 0 0)
(-7.2942574e-005 4.0350906e-006 0 7.2957144e-005 0 0)
(-7.6411823e-005 2.2083218e-005 0 7.6134974e-005 0 0)
(-8.8611319e-005 4.5482292e-005 0 8.8340059e-005 0 0)
(-0.00010731492 7.133657e-005 0 0.00010678783 0 0)
(-0.00014124071 0.00011063217 0 0.00014036253 0 0)
(-0.00018884976 0.00016290074 0 0.00018725953 0 0)
(-0.00025724408 0.00023634001 0 0.0002538173 0 0)
(-0.00035558728 0.00034579124 0 0.00034934496 0 0)
(-0.00049371296 0.00050932133 0 0.00048084514 0 0)
(-0.00068138851 0.00074425224 0 0.00065391114 0 0)
(-0.00095145908 0.0011644213 0 0.00090107308 0 0)
(-0.0013336316 0.0017565894 0 0.0011938654 0 0)
(-0.0018295185 0.0031017343 0 0.0015812021 0 0)
(-0.0030861778 0.0047484195 0 0.0021701985 0 0)
(-0.0034597514 0.0080906038 0 0.0020293493 0 0)
(-0.0075519459 0.011063645 0 0.0028311342 0 0)
(-0.00038641973 0.0097748813 0 -0.0016139753 0 0)
(-0.0001658728 0.00023168781 0 0.00017790324 0 0)
(-0.00025465329 1.4313164e-006 0 0.00023178309 0 0)
(-0.00018509446 -5.6183131e-005 0 0.00019854284 0 0)
(-0.00017293458 -5.9266581e-005 0 0.00016176806 0 0)
(-0.00012073293 -5.6035007e-005 0 0.00012597374 0 0)
(-0.00010478351 -4.0317222e-005 0 0.00010174841 0 0)
(-8.2597303e-005 -2.9710467e-005 0 8.3655646e-005 0 0)
(-7.3297478e-005 -1.2570953e-005 0 7.2632407e-005 0 0)
(-6.8459434e-005 4.0823522e-006 0 6.8534533e-005 0 0)
(-7.1223734e-005 2.4269682e-005 0 7.101543e-005 0 0)
(-8.1741271e-005 4.9359366e-005 0 8.1643757e-005 0 0)
(-9.8517772e-005 7.7618832e-005 0 9.8148047e-005 0 0)
(-0.00012920997 0.00012046475 0 0.00012849872 0 0)
(-0.00017210045 0.00017729166 0 0.00017076113 0 0)
(-0.00023268342 0.00025626958 0 0.00022957283 0 0)
(-0.00031890448 0.00037379634 0 0.00031313243 0 0)
(-0.00043916406 0.00054826481 0 0.00042676221 0 0)
(-0.00060042522 0.00079110996 0 0.00057204638 0 0)
(-0.00080623764 0.0012401571 0 0.00075861765 0 0)
(-0.0011169133 0.001819837 0 0.00096926019 0 0)
(-0.0013142855 0.0032221839 0 0.0011099564 0 0)
(-0.0021421578 0.0048221806 0 0.001235645 0 0)
(-0.0013265518 0.0079158395 0 0.00029307525 0 0)
(-0.0033650449 0.010007746 0 -0.00039004999 0 0)
(0.0038170845 0.010013351 0 -0.0071517084 0 0)
(-0.01554161 0.00047907509 0 0.010869299 0 0)
(-0.0089324357 0.0011228642 0 0.007196171 0 0)
(-0.0034170896 0.0017955056 0 0.0028947956 0 0)
(-0.00084724131 0.0021274108 0 0.00073996323 0 0)
(-0.00012401131 0.0022118041 0 1.9696138e-005 0 0)
(-7.2083958e-006 0.0022165831 0 -8.6507977e-005 0 0)
(-5.1387442e-005 0.0022070416 0 -4.1879473e-005 0 0)
(-7.9049258e-005 0.0022028848 0 -1.2373785e-005 0 0)
(-9.0980113e-005 0.0022014379 0 -3.7066822e-007 0 0)
(-9.1342549e-005 0.0022012979 0 1.4876427e-007 0 0)
(-9.1022516e-005 0.0022012674 0 -1.9286212e-007 0 0)
(-9.104245e-005 0.0022012395 0 -1.5926735e-007 0 0)
(-9.1159814e-005 0.00220122 0 -4.287341e-008 0 0)
(-9.1193903e-005 0.0022012139 0 -7.2096883e-009 0 0)
(-9.1201289e-005 0.0022012126 0 1.9330401e-010 0 0)
(-9.1201557e-005 0.0022012137 0 5.13585e-010 0 0)
(-9.120184e-005 0.0022012112 0 7.8940453e-010 0 0)
(-9.1200641e-005 0.0022012126 0 -4.7430069e-010 0 0)
(-9.1200107e-005 0.002201213 0 -1.0421601e-009 0 0)
(-9.1202371e-005 0.0022012094 0 1.3054384e-009 0 0)
(-9.1202166e-005 0.002201208 0 1.2387313e-009 0 0)
(-9.1199584e-005 0.0022012118 0 -1.2401687e-009 0 0)
(-9.1198118e-005 0.00220121 0 -3.4804993e-009 0 0)
(-9.1173816e-005 0.0022012056 0 -1.7038727e-008 0 0)
(-9.1173407e-005 0.0022012077 0 -1.3043351e-008 0 0)
(-0.014828606 0.0014917596 0 0.010279553 0 0)
(-0.0083800774 0.0034369438 0 0.0066163036 0 0)
(-0.0036300073 0.0053725063 0 0.0025848301 0 0)
(-0.0014660122 0.0063407399 0 0.00067105666 0 0)
(-0.00089168723 0.0065737545 0 4.9260831e-005 0 0)
(-0.00076246979 0.0065921196 0 -6.4940584e-005 0 0)
(-0.00079250637 0.0065696691 0 -3.4114057e-005 0 0)
(-0.00081261117 0.006559749 0 -1.0803792e-005 0 0)
(-0.00082233244 0.0065559423 0 -5.8662166e-007 0 0)
(-0.00082265962 0.0065555175 0 6.3444422e-008 0 0)
(-0.00082244184 0.0065554136 0 -1.5614069e-007 0 0)
(-0.00082243219 0.0065553432 0 -1.3188415e-007 0 0)
(-0.00082252369 0.0065552949 0 -3.4622425e-008 0 0)
(-0.00082254781 0.0065552764 0 -4.9620851e-009 0 0)
(-0.00082255313 0.0065552768 0 2.9253455e-010 0 0)
(-0.0008225521 0.00655527 0 5.2355183e-010 0 0)
(-0.00082255272 0.0065552713 0 4.8589184e-010 0 0)
(-0.00082254991 0.0065552634 0 -2.9823389e-010 0 0)
(-0.00082255136 0.0065552715 0 2.7740606e-011 0 0)
(-0.00082255286 0.0065552748 0 4.4559261e-010 0 0)
(-0.00082255065 0.0065552641 0 -1.764961e-010 0 0)
(-0.00082255075 0.0065552718 0 -9.1347034e-010 0 0)
(-0.00082254996 0.006555268 0 -2.2613935e-009 0 0)
(-0.00082252854 0.006555255 0 -1.1962568e-008 0 0)
(-0.00082252704 0.0065552632 0 -1.0826095e-008 0 0)
(-0.013592537 0.0025946232 0 0.0093915194 0 0)
(-0.0073254316 0.0059540055 0 0.0054760856 0 0)
(-0.0041159018 0.008864184 0 0.0021026343 0 0)
(-0.0027052551 0.010364792 0 0.00054962188 0 0)
(-0.0023901416 0.010712014 0 9.1158975e-005 0 0)
(-0.0022635303 0.010769588 0 -3.1873801e-005 0 0)
(-0.002269129 0.010744786 0 -2.2387199e-005 0 0)
(-0.0022774629 0.010731188 0 -7.546831e-006 0 0)
(-0.0022824991 0.010725705 0 -8.25656e-007 0 0)
(-0.0022827074 0.010724905 0 -4.1562848e-008 0 0)
(-0.002282623 0.010724734 0 -1.0173064e-007 0 0)
(-0.0022825874 0.010724646 0 -7.9921732e-008 0 0)
(-0.0022826213 0.010724581 0 -2.3436716e-008 0 0)
(-0.0022826321 0.010724562 0 -2.8916114e-009 0 0)
(-0.0022826333 0.010724556 0 3.3807737e-010 0 0)
(-0.0022826332 0.010724557 0 1.8735968e-010 0 0)
(-0.0022826288 0.010724543 0 2.1907904e-010 0 0)
(-0.0022826313 0.010724551 0 6.5507856e-010 0 0)
(-0.0022826337 0.010724555 0 1.1520318e-009 0 0)
(-0.0022826318 0.010724557 0 -1.0125326e-009 0 0)
(-0.0022826273 0.010724543 0 -1.3424496e-009 0 0)
(-0.00228263 0.010724549 0 -5.892567e-010 0 0)
(-0.0022826316 0.01072455 0 -1.4450905e-010 0 0)
(-0.0022826219 0.010724535 0 -5.4759947e-009 0 0)
(-0.0022826115 0.010724514 0 -7.6411303e-009 0 0)
(-0.011753024 0.0038407525 0 0.007957794 0 0)
(-0.0060378779 0.0088631154 0 0.0037288576 0 0)
(-0.0050332586 0.012024047 0 0.0015477507 0 0)
(-0.0045108815 0.014032301 0 0.00038394471 0 0)
(-0.0045065654 0.014487857 0 7.5704044e-005 0 0)
(-0.0044459522 0.014555026 0 1.3034641e-006 0 0)
(-0.0044318517 0.014536743 0 -8.2023869e-006 0 0)
(-0.0044268344 0.014522526 0 -4.452387e-006 0 0)
(-0.0044273262 0.014515888 0 -9.9751689e-007 0 0)
(-0.0044273313 0.014514738 0 -1.1286842e-007 0 0)
(-0.00442734 0.014514516 0 -2.8256271e-008 0 0)
(-0.0044272685 0.014514433 0 -2.1659024e-008 0 0)
(-0.0044272493 0.014514374 0 -9.56658e-009 0 0)
(-0.0044272425 0.014514355 0 -2.1107422e-009 0 0)
(-0.0044272416 0.014514349 0 2.8264408e-011 0 0)
(-0.0044272407 0.01451435 0 -3.4457921e-010 0 0)
(-0.0044272396 0.014514344 0 -8.839623e-012 0 0)
(-0.0044272417 0.014514345 0 1.5935386e-009 0 0)
(-0.0044272419 0.014514348 0 8.0279656e-010 0 0)
(-0.0044272342 0.014514336 0 -1.5047553e-009 0 0)
(-0.0044272368 0.014514343 0 -1.4485388e-009 0 0)
(-0.0044272409 0.014514348 0 1.0143374e-010 0 0)
(-0.0044272431 0.014514345 0 2.4006687e-009 0 0)
(-0.0044272456 0.01451433 0 4.1338706e-009 0 0)
(-0.0044272347 0.014514313 0 1.2514603e-010 0 0)
(-0.0092524554 0.0050150098 0 0.0059926843 0 0)
(-0.0053974631 0.012103404 0 0.0018031708 0 0)
(-0.0061319863 0.015081499 0 0.0007029519 0 0)
(-0.0068425878 0.017216417 0 0.00018063693 0 0)
(-0.0071908973 0.017696984 0 7.4222307e-005 0 0)
(-0.0071837298 0.017776257 0 2.8674657e-005 0 0)
(-0.0071561136 0.017764108 0 4.1038075e-006 0 0)
(-0.0071406149 0.017752631 0 -1.4315877e-006 0 0)
(-0.0071370351 0.017745798 0 -9.396875e-007 0 0)
(-0.0071367048 0.017744472 0 -1.1124224e-007 0 0)
(-0.0071367585 0.017744244 0 4.4523432e-008 0 0)
(-0.0071366595 0.017744197 0 2.4725085e-008 0 0)
(-0.0071366041 0.017744154 0 1.9586474e-009 0 0)
(-0.0071365845 0.017744138 0 -1.0742304e-009 0 0)
(-0.0071365808 0.017744132 0 -2.8528869e-010 0 0)
(-0.0071365808 0.017744133 0 -4.8981242e-010 0 0)
(-0.0071365789 0.017744129 0 -1.7559376e-010 0 0)
(-0.0071365817 0.017744131 0 1.1896864e-009 0 0)
(-0.0071365775 0.017744126 0 2.5939264e-010 0 0)
(-0.0071365782 0.01774413 0 -1.1756428e-009 0 0)
(-0.0071365801 0.017744131 0 -2.7865768e-010 0 0)
(-0.0071365822 0.017744133 0 7.22571e-010 0 0)
(-0.0071365826 0.017744127 0 3.639615e-009 0 0)
(-0.0071366026 0.017744121 0 1.343014e-008 0 0)
(-0.0071365952 0.017744101 0 9.0779046e-009 0 0)
(-0.0057230677 0.008244916 0 0.0025069104 0 0)
(-0.0053685621 0.014245626 0 0.0002738073 0 0)
(-0.0081447238 0.018204586 0 -0.00017103377 0 0)
(-0.0097116669 0.019922672 0 1.4396097e-006 0 0)
(-0.010289221 0.02030655 0 7.3894706e-005 0 0)
(-0.010315338 0.020393189 0 4.6249821e-005 0 0)
(-0.010283131 0.020390967 0 1.2687343e-005 0 0)
(-0.010261656 0.020383776 0 1.2172142e-006 0 0)
(-0.010254994 0.0203777 0 -6.5842924e-007 0 0)
(-0.010254306 0.020376487 0 -5.5000263e-008 0 0)
(-0.010254383 0.020376307 0 9.9651394e-008 0 0)
(-0.010254277 0.020376312 0 5.2427632e-008 0 0)
(-0.010254208 0.020376291 0 8.8527818e-009 0 0)
(-0.010254184 0.020376282 0 -4.721746e-010 0 0)
(-0.010254181 0.020376279 0 -5.1409598e-010 0 0)
(-0.010254182 0.02037628 0 -1.619765e-010 0 0)
(-0.01025418 0.020376278 0 -3.8425778e-010 0 0)
(-0.010254179 0.020376277 0 -1.4476594e-011 0 0)
(-0.01025418 0.020376278 0 -3.1920452e-010 0 0)
(-0.010254182 0.020376279 0 1.7201151e-010 0 0)
(-0.010254181 0.020376278 0 8.1117432e-010 0 0)
(-0.010254182 0.020376277 0 9.0193667e-010 0 0)
(-0.010254184 0.020376275 0 3.4058931e-009 0 0)
(-0.010254214 0.020376279 0 1.7671734e-008 0 0)
(-0.010254218 0.020376266 0 1.5607572e-008 0 0)
(-0.0044423791 0.010580338 0 0.0002009897 0 0)
(-0.0065329527 0.018376836 0 -0.0016476342 0 0)
(-0.011383041 0.02128278 0 -0.00072692101 0 0)
(-0.01310829 0.022313436 0 -0.00010483201 0 0)
(-0.013753932 0.022545792 0 6.9738191e-005 0 0)
(-0.013785411 0.02262592 0 5.1711128e-005 0 0)
(-0.013756991 0.02263319 0 1.6648765e-005 0 0)
(-0.01373378 0.022630893 0 2.7506846e-006 0 0)
(-0.013726315 0.022626627 0 -3.0841289e-007 0 0)
(-0.013725465 0.022625817 0 5.6665661e-009 0 0)
(-0.013725586 0.022625729 0 1.1958723e-007 0 0)
(-0.013725514 0.022625783 0 6.4661091e-008 0 0)
(-0.013725447 0.022625786 0 1.0930784e-008 0 0)
(-0.013725424 0.022625784 0 -4.3224238e-010 0 0)
(-0.013725421 0.022625781 0 -6.3387368e-010 0 0)
(-0.013725423 0.022625782 0 -6.5969872e-011 0 0)
(-0.013725421 0.022625782 0 -5.618459e-010 0 0)
(-0.013725422 0.022625783 0 -8.8487322e-010 0 0)
(-0.013725422 0.022625782 0 -1.2813148e-010 0 0)
(-0.013725422 0.02262578 0 9.6738822e-010 0 0)
(-0.013725422 0.022625781 0 8.4043961e-010 0 0)
(-0.013725424 0.022625782 0 6.1471399e-010 0 0)
(-0.013725426 0.022625783 0 1.7373038e-009 0 0)
(-0.013725451 0.02262579 0 1.3741361e-008 0 0)
(-0.013725477 0.022625799 0 1.3791539e-008 0 0)
(-0.0041664596 0.014769955 0 -0.0028456951 0 0)
(-0.010037976 0.022943779 0 -0.0029309536 0 0)
(-0.015879404 0.024393749 0 -0.00087077127 0 0)
(-0.017072309 0.024719731 0 -0.00012320588 0 0)
(-0.017656556 0.024816922 0 6.6336357e-005 0 0)
(-0.017672817 0.024887092 0 4.811991e-005 0 0)
(-0.017657571 0.024904367 0 1.6170298e-005 0 0)
(-0.017636524 0.024906772 0 2.7637935e-006 0 0)
(-0.017631031 0.024904604 0 -6.3700551e-008 0 0)
(-0.017630259 0.024904283 0 2.2170621e-008 0 0)
(-0.017630499 0.024904292 0 1.1562716e-007 0 0)
(-0.017630448 0.02490439 0 4.8584325e-008 0 0)
(-0.017630417 0.024904405 0 8.7292886e-009 0 0)
(-0.017630401 0.024904408 0 -7.1314461e-010 0 0)
(-0.017630401 0.024904407 0 -6.6183437e-010 0 0)
(-0.017630402 0.024904408 0 -1.1808061e-010 0 0)
(-0.017630402 0.024904407 0 -6.2764923e-010 0 0)
(-0.0176304 0.024904407 0 -9.7511133e-010 0 0)
(-0.017630401 0.024904406 0 1.0529759e-010 0 0)
(-0.017630402 0.024904407 0 7.5178221e-010 0 0)
(-0.017630403 0.024904407 0 4.5499732e-010 0 0)
(-0.017630404 0.024904408 0 2.6392327e-010 0 0)
(-0.017630403 0.02490441 0 -6.2719348e-010 0 0)
(-0.017630411 0.024904417 0 3.0473867e-009 0 0)
(-0.017630444 0.024904439 0 4.5941269e-009 0 0)
(-0.0089983629 0.023282896 0 -0.0057845892 0 0)
(-0.016360666 0.028008331 0 -0.0036348042 0 0)
(-0.021235985 0.027547064 0 -0.00068711919 0 0)
(-0.021457683 0.027302566 0 -0.0001075838 0 0)
(-0.021886749 0.02732203 0 6.4120064e-005 0 0)
(-0.02190567 0.027398781 0 3.3649243e-005 0 0)
(-0.021918294 0.027424685 0 1.3810568e-005 0 0)
(-0.021901719 0.027430649 0 1.5315129e-006 0 0)
(-0.0219005 0.027430161 0 1.6641773e-007 0 0)
(-0.021899764 0.027430114 0 -8.6193842e-009 0 0)
(-0.021900175 0.027430213 0 9.2919658e-008 0 0)
(-0.021900151 0.027430319 0 2.5034905e-008 0 0)
(-0.021900164 0.027430341 0 5.5572041e-009 0 0)
(-0.021900152 0.027430343 0 -1.6175255e-009 0 0)
(-0.021900155 0.027430342 0 -6.3560157e-010 0 0)
(-0.021900155 0.027430342 0 -2.1356578e-010 0 0)
(-0.021900155 0.027430342 0 -2.9847227e-010 0 0)
(-0.021900154 0.027430342 0 -5.4406887e-010 0 0)
(-0.021900154 0.027430341 0 -5.7557295e-011 0 0)
(-0.021900155 0.027430341 0 3.151704e-010 0 0)
(-0.021900156 0.027430342 0 2.0010319e-010 0 0)
(-0.021900156 0.027430343 0 5.8488833e-012 0 0)
(-0.021900154 0.027430344 0 -2.3103327e-009 0 0)
(-0.021900141 0.027430348 0 -6.016919e-009 0 0)
(-0.021900154 0.027430364 0 -3.5053748e-009 0 0)
(-0.030019293 0.039680318 0 -0.0097559335 0 0)
(-0.025702326 0.032098655 0 -0.0021544993 0 0)
(-0.031755636 0.032725077 0 -0.00032531003 0 0)
(-0.029716624 0.031499975 0 -3.1702223e-005 0 0)
(-0.030650054 0.031856998 0 3.5152777e-005 0 0)
(-0.030502039 0.031846261 0 1.4544278e-005 0 0)
(-0.030608237 0.031911866 0 5.5647776e-006 0 0)
(-0.030584498 0.031908391 0 3.3998254e-007 0 0)
(-0.030592298 0.031912024 0 1.1272326e-007 0 0)
(-0.030590055 0.031910997 0 -3.7237273e-008 0 0)
(-0.030591059 0.031911431 0 3.13187e-008 0 0)
(-0.03059094 0.031911412 0 3.496363e-009 0 0)
(-0.03059101 0.031911453 0 8.8406158e-010 0 0)
(-0.030590991 0.031911444 0 -1.3708702e-009 0 0)
(-0.030590994 0.031911443 0 -3.5609474e-010 0 0)
(-0.030590994 0.031911443 0 -1.5556103e-010 0 0)
(-0.030590994 0.031911442 0 -2.9848188e-011 0 0)
(-0.030590993 0.031911442 0 -1.8290785e-010 0 0)
(-0.030590992 0.031911441 0 -3.4376164e-011 0 0)
(-0.030590993 0.031911442 0 7.7913503e-011 0 0)
(-0.030590993 0.031911442 0 1.5277439e-011 0 0)
(-0.030590992 0.031911442 0 -2.1506022e-010 0 0)
(-0.030590987 0.031911443 0 -1.7194303e-009 0 0)
(-0.030590956 0.031911432 0 -8.1719073e-009 0 0)
(-0.030590911 0.031911421 0 -6.6089392e-009 0 0)
(-0.00017100256 0.00027911255 0 0.00018720978 0 0)
(-0.00026923671 -7.5235522e-007 0 0.0002428517 0 0)
(-0.00019158463 -7.4441807e-005 0 0.00020944208 0 0)
(-0.00017528012 -7.7024588e-005 0 0.00015945063 0 0)
(-0.00011737259 -7.0315359e-005 0 0.00012441515 0 0)
(-9.8239659e-005 -5.0649526e-005 0 9.3837685e-005 0 0)
(-7.5253175e-005 -3.6120101e-005 0 7.5898668e-005 0 0)
(-6.4365164e-005 -1.5641697e-005 0 6.323654e-005 0 0)
(-5.8780563e-005 4.4760614e-006 0 5.8335327e-005 0 0)
(-5.9645302e-005 2.772596e-005 0 5.8955915e-005 0 0)
(-6.7356256e-005 5.6895046e-005 0 6.6746529e-005 0 0)
(-8.018885e-005 8.9008302e-005 0 7.9138483e-005 0 0)
(-0.0001041007 0.00013773148 0 0.00010263978 0 0)
(-0.00013676958 0.0002007681 0 0.00013447234 0 0)
(-0.00018263332 0.00028857689 0 0.00017816363 0 0)
(-0.00024551495 0.00041641281 0 0.0002381234 0 0)
(-0.00032798741 0.00060625831 0 0.00031485303 0 0)
(-0.00042747217 0.00086008696 0 0.00039874495 0 0)
(-0.00054538616 0.001319476 0 0.0005049454 0 0)
(-0.00067444751 0.0019046917 0 0.00054671562 0 0)
(-0.00062795317 0.0031930815 0 0.00047054462 0 0)
(-0.00068779867 0.0046863289 0 -6.3702136e-005 0 0)
(0.00087532959 0.0071070627 0 -0.0014645499 0 0)
(0.0015493281 0.0075426188 0 -0.0037787011 0 0)
(0.0098941053 0.005132236 0 -0.011952607 0 0)
(-0.00018981116 0.00035190365 0 0.00020755312 0 0)
(-0.00029805791 -7.7848325e-006 0 0.00026776737 0 0)
(-0.00020408558 -0.00010979664 0 0.00022313632 0 0)
(-0.0001753609 -0.00011093579 0 0.00015684888 0 0)
(-0.00010813476 -9.5219942e-005 0 0.00011567105 0 0)
(-8.3862185e-005 -6.923998e-005 0 7.9698928e-005 0 0)
(-5.9798745e-005 -4.6950083e-005 0 6.0432611e-005 0 0)
(-4.721521e-005 -2.166973e-005 0 4.6662111e-005 0 0)
(-4.046134e-005 3.3285532e-006 0 4.0299052e-005 0 0)
(-3.8816828e-005 3.1437032e-005 0 3.8490821e-005 0 0)
(-4.1377677e-005 6.3297379e-005 0 4.1333219e-005 0 0)
(-4.7731175e-005 0.00010055954 0 4.7276374e-005 0 0)
(-5.9803614e-005 0.00015397244 0 5.9021554e-005 0 0)
(-7.6485747e-005 0.00022510189 0 7.5296408e-005 0 0)
(-9.7411787e-005 0.00031883451 0 9.448928e-005 0 0)
(-0.00012374159 0.00045281043 0 0.00011789455 0 0)
(-0.00015092512 0.00064920373 0 0.00014084057 0 0)
(-0.00017461766 0.00090342576 0 0.00015010881 0 0)
(-0.00016381009 0.0013215917 0 0.00012557271 0 0)
(-0.00010822152 0.0018485657 0 1.0912799e-006 0 0)
(0.00020591304 0.0028236571 0 -0.00037841111 0 0)
(0.00073263345 0.0037197086 0 -0.0013397316 0 0)
(0.002696562 0.0046494562 0 -0.0033526905 0 0)
(0.0050343417 0.002082683 0 -0.0070287859 0 0)
(0.0062892493 -0.0027832941 0 -0.0094400715 0 0)
(-0.00022855212 0.00042971219 0 0.000245414 0 0)
(-0.00033679994 -3.1285415e-005 0 0.00030654231 0 0)
(-0.00021792407 -0.00016677608 0 0.00023542823 0 0)
(-0.00016937179 -0.00016228283 0 0.00015072143 0 0)
(-9.2243989e-005 -0.00013284315 0 9.7997423e-005 0 0)
(-6.3667031e-005 -9.6868006e-005 0 6.0258139e-005 0 0)
(-3.9743665e-005 -6.629418e-005 0 3.9724052e-005 0 0)
(-2.6459429e-005 -3.5530169e-005 0 2.6244047e-005 0 0)
(-1.9081097e-005 -6.2848785e-006 0 1.8917983e-005 0 0)
(-1.5117647e-005 2.3761425e-005 0 1.4843902e-005 0 0)
(-1.3145089e-005 5.7991512e-005 0 1.3173903e-005 0 0)
(-1.2658913e-005 9.9335215e-005 0 1.2493766e-005 0 0)
(-1.3082523e-005 0.00015141825 0 1.2288904e-005 0 0)
(-1.2697847e-005 0.00022536745 0 1.1527688e-005 0 0)
(-9.8808497e-006 0.00032032037 0 7.6634335e-006 0 0)
(-2.2789882e-006 0.00044917908 0 -2.9903986e-006 0 0)
(2.0065043e-005 0.00063660542 0 -2.8870298e-005 0 0)
(6.1850551e-005 0.00087315274 0 -8.242443e-005 0 0)
(0.00016162347 0.0012322279 0 -0.00019384572 0 0)
(0.00033319185 0.0016782263 0 -0.0004131945 0 0)
(0.00077717482 0.0023854738 0 -0.00090097903 0 0)
(0.0015118314 0.0029857713 0 -0.0018632353 0 0)
(0.0031103796 0.0031900411 0 -0.0034399556 0 0)
(0.0046808379 0.00093016714 0 -0.0053615748 0 0)
(0.0036858413 -0.0047378362 0 -0.004300559 0 0)