/*--------------------------------*- C++ -*----------------------------------*\
| =========                 |                                                 |
| \\      /  F ield         | OpenFOAM: The Open Source CFD Toolbox           |
|  \\    /   O peration     | Version:  5.x                                   |
|   \\  /    A nd           | Web:      www.OpenFOAM.org                      |
|    \\/     M anipulation  |                                                 |
\*---------------------------------------------------------------------------*/
/*   Windows 32 and 64 bit porting by blueCAPE: http://www.bluecape.com.pt   *\
|  Based on Windows porting (2.0.x v4) by Symscape: http://www.symscape.com   |
\*---------------------------------------------------------------------------*/
FoamFile
{
    version     2.0;
    format      ascii;
    class       volVectorField;
    location    "0.09";
    object      U;
}
// * * * * * * * * * * * * * * * * * * * * * * * * * * * * * * * * * * * * * //

dimensions      [0 1 -1 0 0 0 0];

internalField   nonuniform List<vector> 
750
(
(0.039078561 -8.4071476e-005 0)
(0.039797412 -9.7878653e-005 0)
(0.040624265 -9.1461316e-005 0)
(0.041273949 -7.4284354e-005 0)
(0.041810889 -6.2789274e-005 0)
(0.042276431 -5.2541975e-005 0)
(0.042652582 -4.4551366e-005 0)
(0.042986687 -3.93442e-005 0)
(0.043281657 -3.6888433e-005 0)
(0.043575222 -3.7870527e-005 0)
(0.043885849 -4.2578984e-005 0)
(0.044254471 -5.2261948e-005 0)
(0.044720007 -6.8075472e-005 0)
(0.045339874 -9.2324566e-005 0)
(0.046191575 -0.00012888499 0)
(0.047396411 -0.000182959 0)
(0.049104002 -0.00026458449 0)
(0.051615703 -0.00038765119 0)
(0.055276383 -0.0005745388 0)
(0.060740716 -0.0008819137 0)
(0.069400403 -0.0013741763 0)
(0.082409842 -0.0022818927 0)
(0.10621956 -0.0034987707 0)
(0.1370057 -0.004873277 0)
(0.18469211 -0.0057190284 0)
(0.039078737 -0.00025056104 0)
(0.039798438 -0.00029695753 0)
(0.040627261 -0.00027261983 0)
(0.041279101 -0.00022384558 0)
(0.041815669 -0.00018789521 0)
(0.042280682 -0.00015749859 0)
(0.042655622 -0.00013336518 0)
(0.0429883 -0.00011773125 0)
(0.043281732 -0.00011031526 0)
(0.043573404 -0.00011321239 0)
(0.043881833 -0.00012726425 0)
(0.044247798 -0.0001561843 0)
(0.044709644 -0.00020337856 0)
(0.045324135 -0.00027576483 0)
(0.046168546 -0.0003848182 0)
(0.047361944 -0.00054616937 0)
(0.049052326 -0.00078928591 0)
(0.051536369 -0.0011556879 0)
(0.055149156 -0.0017119814 0)
(0.06054354 -0.0026272845 0)
(0.069086812 -0.0041053437 0)
(0.081943907 -0.0067726733 0)
(0.10540451 -0.010431849 0)
(0.13540135 -0.014338913 0)
(0.18193011 -0.016914222 0)
(0.039078502 -0.00041631083 0)
(0.039800948 -0.00049828502 0)
(0.04063398 -0.00045335798 0)
(0.04128951 -0.00037413551 0)
(0.041825684 -0.00031271067 0)
(0.04228951 -0.00026216781 0)
(0.042662121 -0.00022172088 0)
(0.042991954 -0.00019559194 0)
(0.043282305 -0.00018314428 0)
(0.043570278 -0.00018783321 0)
(0.043874332 -0.00021111603 0)
(0.044234884 -0.00025900393 0)
(0.044689371 -0.00033710218 0)
(0.045293323 -0.0004569748 0)
(0.046122841 -0.00063747593 0)
(0.047293777 -0.00090441956 0)
(0.048949489 -0.0013059763 0)
(0.051377512 -0.0019107463 0)
(0.0548991 -0.0028291136 0)
(0.060145609 -0.0043374707 0)
(0.068457353 -0.0067901244 0)
(0.080971704 -0.011158587 0)
(0.10373452 -0.017195515 0)
(0.13220434 -0.023417442 0)
(0.17662452 -0.027619309 0)
(0.039078182 -0.00058253668 0)
(0.039805676 -0.00070064264 0)
(0.040644899 -0.00063549587 0)
(0.04130544 -0.0005248104 0)
(0.041841105 -0.00043739823 0)
(0.042303018 -0.00036624768 0)
(0.042672183 -0.00030929734 0)
(0.042997746 -0.0002725174 0)
(0.04328346 -0.00025492284 0)
(0.043565987 -0.00026119915 0)
(0.043863551 -0.00029343608 0)
(0.044215883 -0.00035981206 0)
(0.044659431 -0.00046803319 0)
(0.045247954 -0.00063420704 0)
(0.046055048 -0.00088427187 0)
(0.047192796 -0.0012537669 0)
(0.048797328 -0.0018084942 0)
(0.051142124 -0.0026429776 0)
(0.054532561 -0.0039085971 0)
(0.059554378 -0.0059897362 0)
(0.067532475 -0.0093895877 0)
(0.079499633 -0.01538795 0)
(0.10123247 -0.023620927 0)
(0.12748204 -0.031920804 0)
(0.16911353 -0.037490386 0)
(0.039078717 -0.00074964929 0)
(0.039813491 -0.00090438219 0)
(0.04066044 -0.00081946987 0)
(0.041327241 -0.00067595533 0)
(0.041862006 -0.00056180605 0)
(0.042321236 -0.00046949878 0)
(0.042685803 -0.00039576123 0)
(0.043005643 -0.00034813793 0)
(0.043285174 -0.00032523435 0)
(0.043560495 -0.00033284683 0)
(0.043849541 -0.00037359459 0)
(0.044190931 -0.00045781605 0)
(0.044620064 -0.00059515372 0)
(0.04518845 -0.00080597388 0)
(0.045966012 -0.0011229967 0)
(0.047060288 -0.0015909205 0)
(0.048598383 -0.002291607 0)
(0.050834878 -0.0033443407 0)
(0.054056151 -0.0049371351 0)
(0.05878469 -0.0075592594 0)
(0.066318794 -0.011852315 0)
(0.077474268 -0.019379797 0)
(0.097851907 -0.029583684 0)
(0.12121968 -0.039691952 0)
(0.15972405 -0.046275904 0)
(0.039081105 -0.00091814988 0)
(0.039825218 -0.0011101103 0)
(0.040681099 -0.001005492 0)
(0.041355361 -0.0008276785 0)
(0.04188859 -0.0006857524 0)
(0.042344324 -0.00057168669 0)
(0.042703094 -0.00048077385 0)
(0.043015728 -0.0004220836 0)
(0.04328755 -0.00039366745 0)
(0.043553932 -0.00040228664 0)
(0.043832468 -0.00045103243 0)
(0.044160327 -0.00055228237 0)
(0.044571689 -0.00071743828 0)
(0.045115358 -0.00097082588 0)
(0.045856827 -0.0013515584 0)
(0.046897855 -0.0019127844 0)
(0.048355319 -0.0027506345 0)
(0.050460063 -0.004006849 0)
(0.053476942 -0.0059015417 0)
(0.0578468 -0.0090244759 0)
(0.06480829 -0.014136844 0)
(0.074894578 -0.023056455 0)
(0.09354452 -0.034962117 0)
(0.1133507 -0.046657279 0)
(0.14875244 -0.053792976 0)
(0.039086079 -0.0010888272 0)
(0.0398415 -0.0013182096 0)
(0.04070733 -0.0011938876 0)
(0.041390258 -0.00098000755 0)
(0.041921041 -0.00080903542 0)
(0.042372412 -0.00067255817 0)
(0.042724116 -0.00056399297 0)
(0.043028035 -0.00049397846 0)
(0.043290638 -0.00045981918 0)
(0.043546373 -0.00046905195 0)
(0.043812501 -0.00052519581 0)
(0.044124343 -0.00064249015 0)
(0.044514703 -0.0008339402 0)
(0.045029323 -0.0011274064 0)
(0.045728516 -0.0015679864 0)
(0.046707246 -0.0022164419 0)
(0.048070245 -0.0031808881 0)
(0.0500235 -0.004623532 0)
(0.052802423 -0.0067901488 0)
(0.056759492 -0.010362056 0)
(0.063040928 -0.016196019 0)
(0.071832852 -0.026350352 0)
(0.088354096 -0.039621579 0)
(0.10382927 -0.052765204 0)
(0.13699388 -0.060335086 0)
(0.039094358 -0.0012628067 0)
(0.039862762 -0.0015287635 0)
(0.040739407 -0.0013850568 0)
(0.04143226 -0.0011329349 0)
(0.041959464 -0.00093142308 0)
(0.042405509 -0.00077182976 0)
(0.042748793 -0.00064506853 0)
(0.043042464 -0.00056344509 0)
(0.043294362 -0.00052328151 0)
(0.043537676 -0.00053272154 0)
(0.043789702 -0.00059554115 0)
(0.044083223 -0.00072770449 0)
(0.044449486 -0.00094368442 0)
(0.044930866 -0.0012743993 0)
(0.045582166 -0.0017703366 0)
(0.046489926 -0.0024990641 0)
(0.047746961 -0.0035785405 0)
(0.049532404 -0.0051883508 0)
(0.052044179 -0.0075931482 0)
(0.055548328 -0.011552789 0)
(0.061045017 -0.017980863 0)
(0.068318308 -0.029182828 0)
(0.08228992 -0.043373004 0)
(0.093034333 -0.057822218 0)
(0.12449119 -0.06511723 0)
(0.039106897 -0.0014415321 0)
(0.039889228 -0.0017416437 0)
(0.040777265 -0.0015796298 0)
(0.041481543 -0.0012863328 0)
(0.042003754 -0.0010527473 0)
(0.042443394 -0.00086915439 0)
(0.042776817 -0.00072364689 0)
(0.04305869 -0.0006300851 0)
(0.04329844 -0.00058363477 0)
(0.043527558 -0.00059287221 0)
(0.043763897 -0.00066155953 0)
(0.044037042 -0.00080724359 0)
(0.044376352 -0.0010457766 0)
(0.044820547 -0.0014106514 0)
(0.04541918 -0.0019569517 0)
(0.046248493 -0.0027580907 0)
(0.04739002 -0.0039405278 0)
(0.048993554 -0.0056962374 0)
(0.051214395 -0.0083004484 0)
(0.054228323 -0.012582465 0)
(0.058880372 -0.019448905 0)
(0.064412203 -0.03143738 0)
(0.075536386 -0.046215022 0)
(0.081279035 -0.062158031 0)
(0.11067811 -0.068370846 0)
(0.039124684 -0.0016250868 0)
(0.039920872 -0.001959392 0)
(0.04082049 -0.0017763911 0)
(0.041538352 -0.0014405455 0)
(0.042053627 -0.0011726201 0)
(0.042485686 -0.00096420716 0)
(0.042807736 -0.00079934246 0)
(0.043076237 -0.00069354152 0)
(0.043302412 -0.00064052872 0)
(0.0435159 -0.00064903931 0)
(0.043734712 -0.00072286671 0)
(0.043985596 -0.00088066237 0)
(0.044295647 -0.0011395655 0)
(0.044699328 -0.0015352591 0)
(0.045241056 -0.0021267166 0)
(0.045986222 -0.0029923763 0)
(0.047003007 -0.0042639133 0)
(0.04841073 -0.0061429435 0)
(0.050331067 -0.0089096772 0)
(0.052824467 -0.013436588 0)
(0.056595412 -0.020624929 0)
(0.060368751 -0.033067928 0)
(0.068323373 -0.048199457 0)
(0.068394575 -0.065336715 0)
(0.091399265 -0.068755031 0)
(0.22497115 -0.0036453052 0)
(0.24210931 -0.0018022274 0)
(0.25073183 -0.00072892841 0)
(0.25340501 -0.00024748656 0)
(0.25414081 -1.9352855e-005 0)
(0.25373765 4.6674071e-005 0)
(0.25343999 2.8805459e-005 0)
(0.25333112 7.5832384e-006 0)
(0.253328 -1.0659518e-007 0)
(0.25333337 -5.3162418e-007 0)
(0.25333511 -7.7908163e-008 0)
(0.25333458 5.5331532e-008 0)
(0.2533343 2.2942347e-008 0)
(0.25333426 1.0857916e-011 0)
(0.25333429 -2.8663893e-009 0)
(0.2533343 -1.7836289e-009 0)
(0.25333432 -1.2718945e-009 0)
(0.25333432 3.1161616e-010 0)
(0.25333431 1.4419023e-009 0)
(0.25333431 -1.3935044e-009 0)
(0.25333433 -1.2289513e-009 0)
(0.25333432 7.7412404e-010 0)
(0.25333431 1.7406845e-009 0)
(0.2533343 1.7055076e-008 0)
(0.25333409 1.6556336e-008 0)
(0.21990183 -0.010231416 0)
(0.23377172 -0.0049823851 0)
(0.24120428 -0.0019717784 0)
(0.243161 -0.00066995672 0)
(0.24376037 -4.7404028e-005 0)
(0.24341933 0.00012146985 0)
(0.24319216 7.6453281e-005 0)
(0.24310652 1.9711031e-005 0)
(0.24310376 -9.705314e-008 0)
(0.24310757 -1.3865112e-006 0)
(0.24310891 -1.9309755e-007 0)
(0.2431085 1.3859915e-007 0)
(0.24310829 6.1286936e-008 0)
(0.24310826 2.2189828e-011 0)
(0.24310828 -7.2481993e-009 0)
(0.24310829 -4.7441348e-009 0)
(0.2431083 -2.864543e-009 0)
(0.2431083 1.1821061e-009 0)
(0.2431083 1.8264457e-009 0)
(0.2431083 -3.1845814e-009 0)
(0.2431083 -2.1112735e-009 0)
(0.2431083 2.3451976e-009 0)
(0.24310829 4.5429955e-009 0)
(0.24310829 3.7620045e-008 0)
(0.24310819 3.6592544e-008 0)
(0.21040418 -0.015804928 0)
(0.21868507 -0.0074478683 0)
(0.22408116 -0.0028988301 0)
(0.22470344 -0.00095796685 0)
(0.22504485 -4.8890713e-005 0)
(0.22482509 0.00017177369 0)
(0.22471416 0.00010896542 0)
(0.22466708 2.795796e-005 0)
(0.22466606 7.6211816e-008 0)
(0.22466762 -1.9500263e-006 0)
(0.22466834 -2.6069942e-007 0)
(0.22466809 1.9145991e-007 0)
(0.224668 8.6609183e-008 0)
(0.22466798 -6.4515821e-011 0)
(0.224668 -1.028347e-008 0)
(0.224668 -6.1698915e-009 0)
(0.224668 -3.788481e-009 0)
(0.224668 7.2171806e-010 0)
(0.22466801 1.1180579e-009 0)
(0.22466802 -2.8159419e-009 0)
(0.224668 -1.028979e-009 0)
(0.224668 3.1269328e-009 0)
(0.224668 5.2028242e-009 0)
(0.224668 4.1939584e-008 0)
(0.22466805 4.1354084e-008 0)
(0.1973532 -0.019904391 0)
(0.19944555 -0.0088760581 0)
(0.20201773 -0.0032461971 0)
(0.20117025 -0.0010317866 0)
(0.20123596 -3.2136381e-005 0)
(0.20115321 0.0001904518 0)
(0.20116454 0.00012004887 0)
(0.20115831 3.076297e-005 0)
(0.20116021 2.3490429e-007 0)
(0.20115953 -2.1151163e-006 0)
(0.20115963 -2.7114128e-007 0)
(0.20115955 2.07725e-007 0)
(0.20115958 9.2793335e-008 0)
(0.20115958 -1.004784e-009 0)
(0.20115959 -1.1272406e-008 0)
(0.20115959 -6.2017179e-009 0)
(0.20115958 -3.716179e-009 0)
(0.20115958 -6.2137256e-010 0)
(0.20115959 -2.9263521e-010 0)
(0.20115959 -7.8068674e-010 0)
(0.20115957 5.6170064e-010 0)
(0.20115958 2.8005848e-009 0)
(0.20115958 3.5817902e-009 0)
(0.2011596 2.6394129e-008 0)
(0.20115975 2.6617354e-008 0)
(0.18148184 -0.022238461 0)
(0.17814883 -0.009305194 0)
(0.17736137 -0.002949332 0)
(0.17552728 -0.00090038885 0)
(0.17539771 -7.8670962e-006 0)
(0.17540436 0.00017884195 0)
(0.17551467 0.00011157832 0)
(0.1755416 2.8054405e-005 0)
(0.17554633 2.3488412e-007 0)
(0.17554398 -1.9344116e-006 0)
(0.17554363 -2.3136789e-007 0)
(0.17554368 1.8841129e-007 0)
(0.17554382 8.2210117e-008 0)
(0.17554383 -2.724277e-009 0)
(0.17554382 -1.0429891e-008 0)
(0.17554382 -4.64196e-009 0)
(0.17554381 -3.0001095e-009 0)
(0.17554381 -2.3556057e-009 0)
(0.17554382 -1.1865867e-009 0)
(0.17554381 1.1514354e-009 0)
(0.17554381 1.6942859e-009 0)
(0.17554382 1.1601912e-009 0)
(0.17554382 2.438909e-011 0)
(0.17554384 1.3338544e-009 0)
(0.17554402 2.647236e-009 0)
(0.16403686 -0.023235193 0)
(0.15437066 -0.0084955402 0)
(0.15165589 -0.0022941893 0)
(0.14938384 -0.000657264 0)
(0.14919404 2.881698e-005 0)
(0.14924742 0.00014885363 0)
(0.14941897 8.9536929e-005 0)
(0.14946502 2.1634299e-005 0)
(0.14947139 1.0518368e-007 0)
(0.14946813 -1.5454248e-006 0)
(0.1494676 -1.6554691e-007 0)
(0.14946774 1.440565e-007 0)
(0.14946792 6.1443752e-008 0)
(0.14946793 -4.3137185e-009 0)
(0.14946792 -8.4007216e-009 0)
(0.14946792 -2.8541748e-009 0)
(0.14946791 -1.9088207e-009 0)
(0.14946791 -3.0194143e-009 0)
(0.14946791 -8.8383404e-010 0)
(0.14946791 1.9169783e-009 0)
(0.14946791 9.602415e-010 0)
(0.14946791 -9.3778619e-010 0)
(0.14946792 -3.7893994e-009 0)
(0.14946793 -2.0797831e-008 0)
(0.14946805 -1.8333373e-008 0)
(0.14389283 -0.022545824 0)
(0.12735763 -0.006803341 0)
(0.12500853 -0.0014647443 0)
(0.1226348 -0.00039197175 0)
(0.12253436 6.0140127e-005 0)
(0.12261377 0.00010997224 0)
(0.12280798 6.143101e-005 0)
(0.12285678 1.3823244e-005 0)
(0.12286334 -6.1632493e-008 0)
(0.12285981 -1.0851391e-006 0)
(0.12285934 -1.0182696e-007 0)
(0.12285948 9.3449427e-008 0)
(0.12285967 3.844151e-008 0)
(0.12285967 -4.9438912e-009 0)
(0.12285966 -5.6801944e-009 0)
(0.12285965 -1.423914e-009 0)
(0.12285965 -1.0857577e-009 0)
(0.12285965 -2.5204808e-009 0)
(0.12285964 -4.8741612e-010 0)
(0.12285964 1.5414391e-009 0)
(0.12285965 -3.8812521e-011 0)
(0.12285965 -2.490968e-009 0)
(0.12285965 -6.2328651e-009 0)
(0.12285966 -3.0513959e-008 0)
(0.12285968 -2.7093997e-008 0)
(0.11778774 -0.019158191 0)
(0.09719195 -0.0047138368 0)
(0.096080663 -0.0007516548 0)
(0.093896591 -0.00017076268 0)
(0.094014888 7.0880722e-005 0)
(0.094104415 6.8018819e-005 0)
(0.094286217 3.4033629e-005 0)
(0.09432353 6.732402e-006 0)
(0.094329395 -1.4820154e-007 0)
(0.094325977 -6.5167132e-007 0)
(0.094325702 -5.166141e-008 0)
(0.094325783 4.7620649e-008 0)
(0.09432595 1.908759e-008 0)
(0.094325941 -4.3174235e-009 0)
(0.094325932 -3.0883896e-009 0)
(0.094325926 -5.4303667e-010 0)
(0.094325925 -4.5280453e-010 0)
(0.094325922 -1.6625049e-009 0)
(0.094325918 -3.1574556e-010 0)
(0.09432592 9.2030201e-010 0)
(0.094325922 -4.0445641e-010 0)
(0.094325922 -2.9512067e-009 0)
(0.09432592 -6.7018117e-009 0)
(0.094325915 -2.6382252e-008 0)
(0.09432585 -2.279907e-008 0)
(0.084401229 -0.013469622 0)
(0.062771622 -0.0025167477 0)
(0.063000359 -0.00023093203 0)
(0.061342564 -4.5998994e-005 0)
(0.061682332 5.3801473e-005 0)
(0.061754908 2.8652042e-005 0)
(0.061894155 1.3185123e-005 0)
(0.06191169 1.7889588e-006 0)
(0.061916564 -5.596407e-008 0)
(0.06191355 -2.8940994e-007 0)
(0.061913513 -9.6968336e-009 0)
(0.061913512 1.3107347e-008 0)
(0.061913637 6.1028003e-009 0)
(0.061913617 -2.5319604e-009 0)
(0.061913612 -1.1046713e-009 0)
(0.061913608 -1.3053762e-010 0)
(0.061913609 -1.5100357e-010 0)
(0.061913606 -7.9399446e-010 0)
(0.061913602 -7.0995834e-011 0)
(0.061913604 4.0505379e-010 0)
(0.061913605 -4.1446042e-010 0)
(0.061913603 -2.1393952e-009 0)
(0.061913594 -4.7216041e-009 0)
(0.061913581 -1.405493e-008 0)
(0.061913494 -1.1436391e-008 0)
(0.039275666 -0.0069050822 0)
(0.022989112 -5.3536917e-005 0)
(0.024537938 3.5874462e-005 0)
(0.023551333 3.2314831e-005 0)
(0.023957549 1.6572664e-006 0)
(0.023944543 1.9888713e-006 0)
(0.024020067 -1.1162821e-006 0)
(0.024016919 -1.8997723e-007 0)
(0.024020758 -8.0644407e-008 0)
(0.024018702 -1.0174936e-008 0)
(0.024018904 -7.1824225e-009 0)
(0.024018818 -7.7379234e-010 0)
(0.024018883 -9.9440504e-010 0)
(0.024018863 -9.1493261e-011 0)
(0.024018864 5.3390858e-012 0)
(0.024018862 5.0082514e-011 0)
(0.024018863 1.7307527e-011 0)
(0.024018861 -1.0343411e-010 0)
(0.024018859 4.1797803e-012 0)
(0.024018861 3.238437e-011 0)
(0.024018861 -1.7566316e-010 0)
(0.024018859 -6.8947887e-010 0)
(0.024018849 -8.1179976e-010 0)
(0.024018836 -1.0723327e-009 0)
(0.024018788 -7.4387616e-010 0)
(0.039165802 -0.0019972069 0)
(0.039993705 -0.0024163985 0)
(0.040919378 -0.0021686466 0)
(0.041667215 -0.001751187 0)
(0.042165299 -0.001409145 0)
(0.042578773 -0.0011488142 0)
(0.042875107 -0.00094456938 0)
(0.043113559 -0.00081349377 0)
(0.043309723 -0.00074689035 0)
(0.043489214 -0.00075301173 0)
(0.043669811 -0.00083558735 0)
(0.043872345 -0.001014579 0)
(0.04412002 -0.0013094732 0)
(0.044436653 -0.0017599545 0)
(0.044857107 -0.0024303859 0)
(0.045423635 -0.0034080142 0)
(0.046176034 -0.0048283424 0)
(0.047175048 -0.006905744 0)
(0.048485626 -0.0099235265 0)
(0.049964559 -0.014750035 0)
(0.051948984 -0.022337787 0)
(0.05270236 -0.034943597 0)
(0.054187314 -0.049722116 0)
(0.042558277 -0.065411247 0)
(0.036591394 -0.052767716 0)
(0.039222303 -0.0025977276 0)
(0.040151697 -0.0031884219 0)
(0.041156734 -0.0027754528 0)
(0.041933893 -0.0022171933 0)
(0.042397868 -0.0017458092 0)
(0.04276266 -0.00139361 0)
(0.043004435 -0.0011280878 0)
(0.043183533 -0.0009560741 0)
(0.043321665 -0.00086741061 0)
(0.043438794 -0.00086502834 0)
(0.043550283 -0.00095228032 0)
(0.043666669 -0.0011487235 0)
(0.043805523 -0.001475604 0)
(0.043973542 -0.0019734727 0)
(0.044187374 -0.0027079633 0)
(0.044459416 -0.0037712482 0)
(0.044792657 -0.0052904724 0)
(0.045168454 -0.0074709752 0)
(0.045590201 -0.010554907 0)
(0.04577922 -0.01524183 0)
(0.045629156 -0.022306789 0)
(0.043506092 -0.032944074 0)
(0.039432476 -0.043701792 0)
(0.025755759 -0.049570943 0)
(0.010692794 -0.027030171 0)
(0.039321106 -0.0032934514 0)
(0.040427455 -0.0040498528 0)
(0.041556756 -0.0034282562 0)
(0.04234139 -0.0026706575 0)
(0.042745661 -0.0020460393 0)
(0.0430334 -0.0015909125 0)
(0.043200093 -0.0012622304 0)
(0.043305189 -0.0010500631 0)
(0.043373266 -0.0009380348 0)
(0.043419948 -0.0009234943 0)
(0.04345303 -0.0010075588 0)
(0.043477577 -0.0012052393 0)
(0.043497413 -0.0015398251 0)
(0.043513043 -0.0020492756 0)
(0.043513616 -0.0027935854 0)
(0.043489034 -0.0038620163 0)
(0.043413412 -0.0053677985 0)
(0.043210758 -0.0074863305 0)
(0.042822782 -0.010420642 0)
(0.041922105 -0.014658215 0)
(0.04020794 -0.020776785 0)
(0.036232729 -0.02923993 0)
(0.029350114 -0.037192988 0)
(0.016387859 -0.039075145 0)
(0.0024064757 -0.020538425 0)
(0.039573162 -0.0041734129 0)
(0.040999472 -0.0050596896 0)
(0.042300926 -0.0041262936 0)
(0.043048031 -0.0030879519 0)
(0.043341397 -0.0022829307 0)
(0.043512943 -0.0017203647 0)
(0.043578984 -0.0013326029 0)
(0.043594625 -0.0010855455 0)
(0.043582806 -0.00095257361 0)
(0.04355241 -0.00092397012 0)
(0.043503206 -0.00099673193 0)
(0.043434696 -0.0011826564 0)
(0.043336711 -0.0015011737 0)
(0.043199464 -0.0019869212 0)
(0.042995623 -0.002692598 0)
(0.042691625 -0.0036944832 0)
(0.042238179 -0.0050914157 0)
(0.041526711 -0.0070174309 0)
(0.040448001 -0.0096308271 0)
(0.038695654 -0.013238996 0)
(0.035925033 -0.018213611 0)
(0.031031204 -0.024577012 0)
(0.0232852 -0.029888844 0)
(0.012221052 -0.029312778 0)
(5.2854036e-005 -0.015063854 0)
(0.040165466 -0.0054792494 0)
(0.042096332 -0.0063224174 0)
(0.043548765 -0.0048526947 0)
(0.04415779 -0.0034246287 0)
(0.04425864 -0.0024142966 0)
(0.04426233 -0.0017551523 0)
(0.044199027 -0.0013234127 0)
(0.044110416 -0.0010532688 0)
(0.044012267 -0.00090570479 0)
(0.043900627 -0.00086369829 0)
(0.043771093 -0.00092018936 0)
(0.04361081 -0.0010810178 0)
(0.043403503 -0.001363645 0)
(0.043119978 -0.0017938709 0)
(0.042730106 -0.0024173925 0)
(0.042178328 -0.0032940276 0)
(0.041393136 -0.004502999 0)
(0.040255911 -0.0061411839 0)
(0.038618847 -0.008321105 0)
(0.036218389 -0.011233409 0)
(0.032709905 -0.015082615 0)
(0.027347931 -0.019662218 0)
(0.019544813 -0.023029529 0)
(0.010020595 -0.021442421 0)
(-0.00020106586 -0.011241392 0)
(0.041188425 -0.0076156644 0)
(0.043588221 -0.007877669 0)
(0.044888046 -0.0055164816 0)
(0.045156001 -0.0035909928 0)
(0.04495822 -0.0023810867 0)
(0.044740063 -0.0016630257 0)
(0.044521743 -0.0012188596 0)
(0.044320305 -0.00094610722 0)
(0.044134196 -0.00079549313 0)
(0.04394519 -0.0007434075 0)
(0.04374227 -0.00078052714 0)
(0.043499917 -0.00090583144 0)
(0.043194701 -0.0011339927 0)
(0.042788917 -0.001482879 0)
(0.042242832 -0.0019875032 0)
(0.041487468 -0.0026920358 0)
(0.040437844 -0.0036532193 0)
(0.038972747 -0.0049359699 0)
(0.036932626 -0.0066136603 0)
(0.0340858 -0.0087993417 0)
(0.030126331 -0.011591599 0)
(0.024557694 -0.014719188 0)
(0.017009191 -0.016652027 0)
(0.0087417089 -0.014793715 0)
(1.8153846e-005 -0.0077226633 0)
(0.042164015 -0.010888342 0)
(0.044325769 -0.0093604522 0)
(0.044618046 -0.0058286475 0)
(0.044231426 -0.0034432691 0)
(0.043641005 -0.0021220676 0)
(0.043172506 -0.0014177567 0)
(0.042793676 -0.0010094944 0)
(0.042486094 -0.00076297707 0)
(0.042222609 -0.00062497607 0)
(0.041974681 -0.0005697733 0)
(0.041716071 -0.00058597375 0)
(0.041418523 -0.00067082634 0)
(0.041048776 -0.00083041695 0)
(0.040568879 -0.0010802718 0)
(0.03992674 -0.0014397391 0)
(0.039052717 -0.001938348 0)
(0.037858101 -0.0026168581 0)
(0.03622234 -0.0035086294 0)
(0.033996247 -0.0046552114 0)
(0.030982044 -0.0061184899 0)
(0.026931471 -0.0079426142 0)
(0.021501933 -0.0098808628 0)
(0.01450344 -0.010810796 0)
(0.0074273938 -0.0090653362 0)
(0.00011140817 -0.0045399727 0)
(0.04162247 -0.014636726 0)
(0.042003362 -0.009771976 0)
(0.039939387 -0.0053629006 0)
(0.03865922 -0.0028427474 0)
(0.037663332 -0.0016140603 0)
(0.036979137 -0.0010252569 0)
(0.036479793 -0.00070818767 0)
(0.036101885 -0.00052019139 0)
(0.035796488 -0.00041229039 0)
(0.035525362 -0.0003633801 0)
(0.03525363 -0.00036170102 0)
(0.034951701 -0.00040463087 0)
(0.034583654 -0.00049347316 0)
(0.034112538 -0.00063735322 0)
(0.033485126 -0.00084513832 0)
(0.03264426 -0.0011333264 0)
(0.031504771 -0.0015213044 0)
(0.029959842 -0.0020266179 0)
(0.027890329 -0.0026674327 0)
(0.025139741 -0.0034727347 0)
(0.021523127 -0.0044572831 0)
(0.016811919 -0.0054444501 0)
(0.010937018 -0.005707824 0)
(0.0054628108 -0.0043284561 0)
(-3.005069e-006 -0.001895861 0)
(0.036573085 -0.014818416 0)
(0.034405618 -0.0070920543 0)
(0.028904626 -0.0035375448 0)
(0.026950455 -0.0016978111 0)
(0.025693972 -0.0009051267 0)
(0.024933318 -0.00055101797 0)
(0.024420662 -0.00037135092 0)
(0.02405171 -0.00026671229 0)
(0.023770299 -0.00020582896 0)
(0.023534254 -0.00017623598 0)
(0.023310899 -0.00017068119 0)
(0.023073034 -0.00018640163 0)
(0.02279265 -0.00022420073 0)
(0.02243836 -0.00028685872 0)
(0.021971805 -0.00037846017 0)
(0.021348575 -0.00050639397 0)
(0.020507597 -0.00067248678 0)
(0.01937899 -0.00088724534 0)
(0.017880884 -0.0011553132 0)
(0.015912503 -0.0014826163 0)
(0.013356808 -0.0018725927 0)
(0.010086337 -0.0022329237 0)
(0.0060891914 -0.00220587 0)
(0.0028139795 -0.0014098019 0)
(-0.00023881485 -0.00045600553 0)
(0.021749351 -0.01225486 0)
(0.018372818 -0.002672829 0)
(0.012237054 -0.00056910957 0)
(0.011154227 -0.00025525995 0)
(0.010188002 -9.8436179e-005 0)
(0.0096964782 -5.0664499e-005 0)
(0.0093721672 -3.0035145e-005 0)
(0.0091460584 -1.7913877e-005 0)
(0.0089810159 -9.8024217e-006 0)
(0.008849564 -4.042756e-006 0)
(0.0087323074 3.5631537e-007 0)
(0.0086136384 3.9632677e-006 0)
(0.0084788584 7.4484229e-006 0)
(0.0083120107 1.1252822e-005 0)
(0.008095267 1.5944176e-005 0)
(0.0078071548 2.2392992e-005 0)
(0.007423368 3.1343563e-005 0)
(0.0069156072 4.3254536e-005 0)
(0.0062516153 6.0922874e-005 0)
(0.0053978731 8.5465893e-005 0)
(0.0043152576 0.00011885582 0)
(0.002986851 0.00017465959 0)
(0.0013846773 0.0002556437 0)
(0.00047100394 0.00039453316 0)
(-0.00019480509 0.00024335839 0)
)
;

boundaryField
{
    inlet
    {
        type            fixedValue;
        value           uniform (0.03876 0 0);
    }
    walls
    {
        type            fixedValue;
        value           uniform (0 0 0);
    }
    outlet
    {
        type            zeroGradient;
    }
    centreline
    {
        type            symmetryPlane;
    }
    frontAndBack
    {
        type            empty;
    }
}


// ************************************************************************* //
