/*--------------------------------*- C++ -*----------------------------------*\
| =========                 |                                                 |
| \\      /  F ield         | OpenFOAM: The Open Source CFD Toolbox           |
|  \\    /   O peration     | Version:  5.x                                   |
|   \\  /    A nd           | Web:      www.OpenFOAM.org                      |
|    \\/     M anipulation  |                                                 |
\*---------------------------------------------------------------------------*/
/*   Windows 32 and 64 bit porting by blueCAPE: http://www.bluecape.com.pt   *\
|  Based on Windows porting (2.0.x v4) by Symscape: http://www.symscape.com   |
\*---------------------------------------------------------------------------*/
FoamFile
{
    version     2.0;
    format      ascii;
    class       volVectorField;
    location    "0.09";
    object      U_0;
}
// * * * * * * * * * * * * * * * * * * * * * * * * * * * * * * * * * * * * * //

dimensions      [0 1 -1 0 0 0 0];

internalField   nonuniform List<vector> 
750
(
(0.039077962 -8.3936622e-005 0)
(0.039795763 -9.7662327e-005 0)
(0.040620366 -9.1244131e-005 0)
(0.041268681 -7.4099088e-005 0)
(0.041804107 -6.264426e-005 0)
(0.042268788 -5.2435518e-005 0)
(0.042644128 -4.4469548e-005 0)
(0.042977719 -3.928558e-005 0)
(0.043272276 -3.6845805e-005 0)
(0.043565568 -3.7841255e-005 0)
(0.043876004 -4.2559027e-005 0)
(0.044244502 -5.2247826e-005 0)
(0.044709935 -6.80637e-005 0)
(0.045329719 -9.2311154e-005 0)
(0.046181288 -0.00012886446 0)
(0.047385932 -0.00018292332 0)
(0.049093154 -0.00026452196 0)
(0.051604223 -0.00038754683 0)
(0.055263922 -0.00057435434 0)
(0.060726255 -0.00088151347 0)
(0.06938161 -0.0013732851 0)
(0.082381275 -0.0022806244 0)
(0.1061815 -0.003497927 0)
(0.13696416 -0.0048748827 0)
(0.18467982 -0.0057244365 0)
(0.039078133 -0.00025015335 0)
(0.039796785 -0.00029631168 0)
(0.04062335 -0.00027196299 0)
(0.041273819 -0.00022329083 0)
(0.041808871 -0.00018745914 0)
(0.042273024 -0.00015717939 0)
(0.042647156 -0.00013312034 0)
(0.042979322 -0.00011755551 0)
(0.043272343 -0.00011018791 0)
(0.043563744 -0.00011312491 0)
(0.043871985 -0.00012720508 0)
(0.044237827 -0.00015614214 0)
(0.044699571 -0.00020334315 0)
(0.045313982 -0.00027572537 0)
(0.046158265 -0.00038475739 0)
(0.047351476 -0.0005460638 0)
(0.049041498 -0.0007891004 0)
(0.051524932 -0.0011553828 0)
(0.05513676 -0.0017114276 0)
(0.060529154 -0.0026260867 0)
(0.0690681 -0.0041027404 0)
(0.081916131 -0.0067690068 0)
(0.10536829 -0.010429606 0)
(0.13536422 -0.014343582 0)
(0.1819182 -0.016929089 0)
(0.039077883 -0.00041562845 0)
(0.039799281 -0.00049720853 0)
(0.040630045 -0.00045225939 0)
(0.041284196 -0.00037321069 0)
(0.041818853 -0.00031198373 0)
(0.042281823 -0.0002616363 0)
(0.04265363 -0.00022131399 0)
(0.042982955 -0.00019529964 0)
(0.0432729 -0.00018293302 0)
(0.043560606 -0.00018768827 0)
(0.043864476 -0.00021101861 0)
(0.044224909 -0.00025893407 0)
(0.044679297 -0.00033704363 0)
(0.045283173 -0.0004569105 0)
(0.046112571 -0.00063737636 0)
(0.047283331 -0.00090424709 0)
(0.048938702 -0.0013056727 0)
(0.051366155 -0.0019102495 0)
(0.054886837 -0.002828196 0)
(0.06013139 -0.0043354892 0)
(0.068438918 -0.0067859167 0)
(0.080945267 -0.011152874 0)
(0.10370173 -0.017192435 0)
(0.13217409 -0.023424805 0)
(0.17661326 -0.027641427 0)
(0.039077532 -0.00058157666 0)
(0.039803981 -0.00069913071 0)
(0.040640921 -0.00063395579 0)
(0.041300077 -0.00052351333 0)
(0.041834225 -0.00043638173 0)
(0.042295286 -0.00036550485 0)
(0.042663655 -0.00030873001 0)
(0.042988716 -0.0002721099 0)
(0.043274031 -0.00025462903 0)
(0.043556296 -0.00026099795 0)
(0.043853683 -0.00029330162 0)
(0.044205901 -0.00035971554 0)
(0.044649356 -0.00046795295 0)
(0.04523781 -0.00063411974 0)
(0.046044794 -0.0008841361 0)
(0.04718238 -0.0012535323 0)
(0.048786603 -0.0018080813 0)
(0.051130873 -0.0026423022 0)
(0.054520483 -0.0039073316 0)
(0.059540412 -0.005986993 0)
(0.067514507 -0.0093839589 0)
(0.079474781 -0.015380689 0)
(0.10120428 -0.023617975 0)
(0.12745873 -0.03193052 0)
(0.16910346 -0.037516324 0)
(0.03907802 -0.00074840305 0)
(0.039811749 -0.00090243119 0)
(0.040656397 -0.00081748685 0)
(0.041321809 -0.00067428477 0)
(0.04185506 -0.00056050095 0)
(0.042313443 -0.00046854625 0)
(0.042677225 -0.00039503557 0)
(0.042996571 -0.00034761728 0)
(0.043275714 -0.00032485982 0)
(0.043550781 -0.00033259087 0)
(0.043839656 -0.00037342451 0)
(0.044180939 -0.0004576948 0)
(0.044609986 -0.00059505353 0)
(0.045178312 -0.00080586617 0)
(0.04595578 -0.0011228284 0)
(0.047049908 -0.0015906298 0)
(0.04858774 -0.0022910957 0)
(0.050823753 -0.0033435025 0)
(0.054044296 -0.0049355444 0)
(0.058771045 -0.0075557849 0)
(0.066301337 -0.011845422 0)
(0.077451128 -0.019371327 0)
(0.097827461 -0.029581279 0)
(0.12120204 -0.039703848 0)
(0.15971651 -0.046303283 0)
(0.039080345 -0.00091660368 0)
(0.039823411 -0.001107717 0)
(0.040676968 -0.0010030635 0)
(0.041349841 -0.00082563447 0)
(0.04188156 -0.00068415983 0)
(0.042336454 -0.00057052683 0)
(0.042694453 -0.00047989254 0)
(0.043006605 -0.00042145247 0)
(0.043278051 -0.0003932146 0)
(0.043544188 -0.00040197803 0)
(0.043822561 -0.00045082875 0)
(0.044150322 -0.00055213843 0)
(0.044561609 -0.00071732035 0)
(0.045105226 -0.00097070101 0)
(0.045846621 -0.0013513621 0)
(0.046887522 -0.0019124458 0)
(0.048344773 -0.002750038 0)
(0.050449086 -0.0040058654 0)
(0.053465337 -0.0058996497 0)
(0.057833554 -0.0090203201 0)
(0.064791444 -0.014128857 0)
(0.074873378 -0.023047256 0)
(0.093522954 -0.034960293 0)
(0.1133379 -0.04667104 0)
(0.148749 -0.053819684 0)
(0.039085247 -0.0010869635 0)
(0.039839616 -0.00131537 0)
(0.04070309 -0.001191011 0)
(0.041384633 -0.00097759085 0)
(0.041913912 -0.00080715694 0)
(0.042364451 -0.00067119406 0)
(0.042715403 -0.00056295938 0)
(0.043018853 -0.00049324012 0)
(0.043281094 -0.00045929093 0)
(0.043536596 -0.00046869329 0)
(0.043802571 -0.00052496096 0)
(0.044114325 -0.00064232587 0)
(0.044504622 -0.00083380735 0)
(0.045019202 -0.0011272681 0)
(0.045718342 -0.0015677677 0)
(0.046696969 -0.0022160644 0)
(0.048059809 -0.0031802203 0)
(0.050012694 -0.0046224245 0)
(0.052791112 -0.0067879912 0)
(0.056746718 -0.010357282 0)
(0.063025043 -0.016187152 0)
(0.071813754 -0.02634082 0)
(0.088336363 -0.039621425 0)
(0.10382087 -0.052781494 0)
(0.13699592 -0.060359811 0)
(0.039093451 -0.0012606061 0)
(0.039860796 -0.0015254709 0)
(0.040735041 -0.0013817289 0)
(0.041426517 -0.0011301465 0)
(0.041952221 -0.00092926075 0)
(0.042397448 -0.00077026528 0)
(0.042740002 -0.00064388681 0)
(0.043033218 -0.00056260334 0)
(0.043284772 -0.00052268153 0)
(0.043527868 -0.00053231577 0)
(0.04377975 -0.00059527745 0)
(0.044073194 -0.0007275229 0)
(0.044439407 -0.00094353992 0)
(0.044920762 -0.0012742521 0)
(0.045572032 -0.0017701022 0)
(0.046479718 -0.002498658 0)
(0.047736645 -0.0035778174 0)
(0.049521789 -0.0051871411 0)
(0.05203321 -0.0075907746 0)
(0.055536093 -0.011547491 0)
(0.061030309 -0.017971325 0)
(0.068301268 -0.029173139 0)
(0.082275563 -0.043374383 0)
(0.093028501 -0.057841004 0)
(0.12449874 -0.065141954 0)
(0.039105915 -0.0014389778 0)
(0.039887181 -0.0017378843 0)
(0.040772763 -0.0015758504 0)
(0.041475672 -0.0012831722 0)
(0.041996389 -0.0010503045 0)
(0.042435227 -0.00086739429 0)
(0.042767945 -0.00072232199 0)
(0.04304938 -0.00062914435 0)
(0.043288805 -0.0005829674 0)
(0.043517722 -0.00059242258 0)
(0.043753931 -0.00066126942 0)
(0.044027007 -0.0008070479 0)
(0.044366283 -0.0010456243 0)
(0.044810467 -0.0014104994 0)
(0.045409093 -0.0019567081 0)
(0.046238366 -0.0027576645 0)
(0.047379834 -0.0039397628 0)
(0.048983156 -0.0056949581 0)
(0.051203788 -0.0082979012 0)
(0.054216681 -0.012576754 0)
(0.058866873 -0.019438827 0)
(0.064397025 -0.031427816 0)
(0.075523527 -0.046217455 0)
(0.081274573 -0.062179087 0)
(0.11068903 -0.068396476 0)
(0.039123629 -0.0016221658 0)
(0.039918746 -0.0019551506 0)
(0.040815843 -0.0017721564 0)
(0.041532345 -0.0014370148 0)
(0.042046127 -0.0011698999 0)
(0.042477408 -0.00096225701 0)
(0.042798782 -0.00079787989 0)
(0.043066863 -0.00069250663 0)
(0.043292736 -0.00063979863 0)
(0.043506042 -0.00064854987 0)
(0.043724737 -0.00072255345 0)
(0.043975564 -0.00088045554 0)
(0.044285596 -0.0011394092 0)
(0.044689284 -0.0015351073 0)
(0.045231028 -0.0021264711 0)
(0.045976186 -0.0029919412 0)
(0.046992974 -0.0042631266 0)
(0.048400573 -0.0061416194 0)
(0.050320811 -0.0089069959 0)
(0.052813508 -0.013430568 0)
(0.056583171 -0.020614438 0)
(0.060355274 -0.033058423 0)
(0.068311903 -0.048203359 0)
(0.068391395 -0.065361128 0)
(0.091409616 -0.068781246 0)
(0.22500873 -0.0036531162 0)
(0.24221168 -0.0018096569 0)
(0.2508777 -0.00073204626 0)
(0.25355319 -0.00024660498 0)
(0.25427443 -1.7660969e-005 0)
(0.25386386 4.7236612e-005 0)
(0.25356577 2.8760655e-005 0)
(0.25345798 7.4777625e-006 0)
(0.25345523 -1.332252e-007 0)
(0.25346061 -5.2736377e-007 0)
(0.25346228 -7.3255469e-008 0)
(0.25346175 5.6133966e-008 0)
(0.25346146 2.2653889e-008 0)
(0.25346143 -1.184164e-010 0)
(0.25346146 -2.8396758e-009 0)
(0.25346147 -1.7531682e-009 0)
(0.25346148 -1.2657101e-009 0)
(0.25346149 3.1344923e-010 0)
(0.25346148 1.4365561e-009 0)
(0.25346148 -1.402529e-009 0)
(0.2534615 -1.2305141e-009 0)
(0.25346149 7.6751759e-010 0)
(0.25346148 1.7577027e-009 0)
(0.25346147 1.7243071e-008 0)
(0.25346126 1.6725581e-008 0)
(0.21993025 -0.010252185 0)
(0.23385195 -0.0050025094 0)
(0.24131695 -0.001979865 0)
(0.24327846 -0.00066786525 0)
(0.2438684 -4.3388788e-005 0)
(0.24352206 0.00012290073 0)
(0.24329459 7.6338404e-005 0)
(0.24320973 1.9449673e-005 0)
(0.24320725 -1.6629351e-007 0)
(0.24321107 -1.3757633e-006 0)
(0.24321237 -1.8105332e-007 0)
(0.24321194 1.4064448e-007 0)
(0.24321173 6.0582971e-008 0)
(0.2432117 -3.0591903e-010 0)
(0.24321173 -7.2042738e-009 0)
(0.24321173 -4.6775277e-009 0)
(0.24321175 -2.8395825e-009 0)
(0.24321175 1.1919492e-009 0)
(0.24321174 1.8186892e-009 0)
(0.24321174 -3.2009721e-009 0)
(0.24321175 -2.1136353e-009 0)
(0.24321175 2.3395507e-009 0)
(0.24321174 4.5901492e-009 0)
(0.24321173 3.8081374e-008 0)
(0.24321163 3.7025908e-008 0)
(0.2104176 -0.015834902 0)
(0.21872462 -0.007476731 0)
(0.22413697 -0.0029105976 0)
(0.22476653 -0.00095585035 0)
(0.22510575 -4.3854987e-005 0)
(0.22488395 0.00017368411 0)
(0.22477303 0.0001088044 0)
(0.22472629 2.7598267e-005 0)
(0.22472539 -1.9337613e-008 0)
(0.22472694 -1.9346808e-006 0)
(0.22472764 -2.4395514e-007 0)
(0.22472739 1.9421333e-007 0)
(0.2247273 8.5634618e-008 0)
(0.22472728 -4.9713817e-010 0)
(0.2247273 -1.0228448e-008 0)
(0.2247273 -6.0861264e-009 0)
(0.2247273 -3.7567124e-009 0)
(0.2247273 7.3442389e-010 0)
(0.22472731 1.1068849e-009 0)
(0.22472732 -2.8269951e-009 0)
(0.2247273 -1.0175144e-009 0)
(0.2247273 3.1203802e-009 0)
(0.2247273 5.2540529e-009 0)
(0.22472731 4.2535734e-008 0)
(0.22472735 4.1937481e-008 0)
(0.19735091 -0.019938044 0)
(0.19943419 -0.0089064448 0)
(0.20201126 -0.0032607885 0)
(0.20116841 -0.0010307288 0)
(0.20123789 -2.7266146e-005 0)
(0.20115652 0.00019235585 0)
(0.2011681 0.00011986052 0)
(0.20116182 3.0381372e-005 0)
(0.20116366 1.3703734e-007 0)
(0.20116297 -2.0974132e-006 0)
(0.20116307 -2.532786e-007 0)
(0.20116299 2.1050145e-007 0)
(0.20116303 9.1727178e-008 0)
(0.20116303 -1.4468437e-009 0)
(0.20116304 -1.1220192e-008 0)
(0.20116303 -6.1205627e-009 0)
(0.20116302 -3.6844817e-009 0)
(0.20116303 -6.1679012e-010 0)
(0.20116304 -3.0451994e-010 0)
(0.20116304 -7.7718302e-010 0)
(0.20116302 5.8199782e-010 0)
(0.20116303 2.802219e-009 0)
(0.20116303 3.6036965e-009 0)
(0.20116305 2.6883188e-008 0)
(0.20116319 2.7125693e-008 0)
(0.18146556 -0.022268643 0)
(0.17809754 -0.009332538 0)
(0.17730292 -0.0029637018 0)
(0.17546783 -0.00090059212 0)
(0.17534511 -4.0456539e-006 0)
(0.17535529 0.00018034036 0)
(0.17546601 0.00011137225 0)
(0.17549257 2.7721835e-005 0)
(0.17549715 1.5431712e-007 0)
(0.17549479 -1.9168142e-006 0)
(0.17549446 -2.1547553e-007 0)
(0.17549452 1.9067144e-007 0)
(0.17549465 8.1224842e-008 0)
(0.17549466 -3.1029377e-009 0)
(0.17549466 -1.0382077e-008 0)
(0.17549465 -4.5752163e-009 0)
(0.17549464 -2.9791609e-009 0)
(0.17549465 -2.3605261e-009 0)
(0.17549465 -1.1916595e-009 0)
(0.17549465 1.1674921e-009 0)
(0.17549464 1.7153339e-009 0)
(0.17549465 1.1652367e-009 0)
(0.17549466 -2.5950791e-012 0)
(0.17549467 1.5153801e-009 0)
(0.17549485 2.8831331e-009 0)
(0.16401262 -0.023256547 0)
(0.15430485 -0.0085167206 0)
(0.15156871 -0.0023057145 0)
(0.14929178 -0.00065803199 0)
(0.14910893 3.1181622e-005 0)
(0.14916622 0.00014976465 0)
(0.14933814 8.9335418e-005 0)
(0.14938368 2.1385349e-005 0)
(0.14938986 4.9541332e-008 0)
(0.1493866 -1.5300853e-006 0)
(0.1493861 -1.5338146e-007 0)
(0.14938624 1.4557092e-007 0)
(0.14938642 6.0658536e-008 0)
(0.14938643 -4.590879e-009 0)
(0.14938642 -8.3584539e-009 0)
(0.14938641 -2.8068527e-009 0)
(0.14938641 -1.8992093e-009 0)
(0.14938641 -3.0312632e-009 0)
(0.14938641 -8.8245359e-010 0)
(0.1493864 1.9361143e-009 0)
(0.14938641 9.7646052e-010 0)
(0.14938641 -9.2953039e-010 0)
(0.14938642 -3.8617627e-009 0)
(0.14938643 -2.101906e-008 0)
(0.14938656 -1.8471646e-008 0)
(0.14387375 -0.022559079 0)
(0.12729916 -0.0068152535 0)
(0.12492513 -0.0014722143 0)
(0.12254405 -0.00039276271 0)
(0.12244885 6.1329456e-005 0)
(0.12253132 0.00011037585 0)
(0.12272572 6.1262148e-005 0)
(0.12277401 1.3662364e-005 0)
(0.1227804 -9.3416582e-008 0)
(0.12277687 -1.0734563e-006 0)
(0.12277643 -9.3838978e-008 0)
(0.12277657 9.4241081e-008 0)
(0.12277676 3.7907201e-008 0)
(0.12277676 -5.1125334e-009 0)
(0.12277675 -5.6468116e-009 0)
(0.12277674 -1.3990637e-009 0)
(0.12277674 -1.0851223e-009 0)
(0.12277674 -2.5280465e-009 0)
(0.12277673 -4.8092282e-010 0)
(0.12277673 1.5534668e-009 0)
(0.12277674 -2.9516789e-011 0)
(0.12277674 -2.4813558e-009 0)
(0.12277674 -6.3310526e-009 0)
(0.12277675 -3.1036797e-008 0)
(0.12277677 -2.7526076e-008 0)
(0.11778157 -0.019165238 0)
(0.09715656 -0.0047186725 0)
(0.096026005 -0.00075511097 0)
(0.093835354 -0.00017119366 0)
(0.093956781 7.1286748e-005 0)
(0.094048043 6.8104365e-005 0)
(0.094229814 3.3919335e-005 0)
(0.094266703 6.6494367e-006 0)
(0.094272446 -1.6125853e-007 0)
(0.094269036 -6.4426058e-007 0)
(0.094268784 -4.7528811e-008 0)
(0.094268869 4.7901014e-008 0)
(0.094269035 1.8796941e-008 0)
(0.094269025 -4.3997771e-009 0)
(0.094269016 -3.0674217e-009 0)
(0.09426901 -5.3491653e-010 0)
(0.094269009 -4.5417884e-010 0)
(0.094269006 -1.6636266e-009 0)
(0.094269003 -3.1085137e-010 0)
(0.094269004 9.2462432e-010 0)
(0.094269006 -3.9758168e-010 0)
(0.094269006 -2.9396111e-009 0)
(0.094269004 -6.7911461e-009 0)
(0.094268999 -2.6944638e-008 0)
(0.094268934 -2.3283873e-008 0)
(0.084403316 -0.013472379 0)
(0.062760899 -0.0025175578 0)
(0.062980347 -0.0002318038 0)
(0.061318955 -4.6109444e-005 0)
(0.061660123 5.3840661e-005 0)
(0.061733262 2.861364e-005 0)
(0.061872333 1.3131899e-005 0)
(0.061889601 1.7620298e-006 0)
(0.061894407 -5.8523547e-008 0)
(0.061891403 -2.8609823e-007 0)
(0.061891383 -8.180892e-009 0)
(0.061891382 1.3156027e-008 0)
(0.061891507 6.0044237e-009 0)
(0.061891487 -2.5565062e-009 0)
(0.061891483 -1.0957686e-009 0)
(0.061891478 -1.3004873e-010 0)
(0.061891479 -1.515792e-010 0)
(0.061891476 -7.9275569e-010 0)
(0.061891472 -6.8845411e-011 0)
(0.061891474 4.055326e-010 0)
(0.061891475 -4.0954486e-010 0)
(0.061891473 -2.1301498e-009 0)
(0.061891464 -4.7686019e-009 0)
(0.061891451 -1.439944e-008 0)
(0.061891362 -1.1736101e-008 0)
(0.039278373 -0.0069053313 0)
(0.022990544 -5.2719272e-005 0)
(0.024538309 3.6113715e-005 0)
(0.023550668 3.2373464e-005 0)
(0.023957156 1.6031334e-006 0)
(0.023944015 1.974387e-006 0)
(0.024019424 -1.1171159e-006 0)
(0.024016187 -1.8689792e-007 0)
(0.024020012 -8.0301618e-008 0)
(0.024017961 -1.0015055e-008 0)
(0.02401817 -7.0216261e-009 0)
(0.024018084 -7.7785277e-010 0)
(0.024018149 -9.8765913e-010 0)
(0.024018129 -9.0129531e-011 0)
(0.02401813 6.1409288e-012 0)
(0.024018127 4.8709305e-011 0)
(0.024018128 1.7238009e-011 0)
(0.024018127 -1.0358444e-010 0)
(0.024018125 4.2048147e-012 0)
(0.024018126 3.2904587e-011 0)
(0.024018126 -1.7322619e-010 0)
(0.024018124 -6.8737327e-010 0)
(0.024018115 -8.2080407e-010 0)
(0.024018102 -1.1730457e-009 0)
(0.024018052 -8.3411621e-010 0)
(0.039164567 -0.0019935319 0)
(0.039991401 -0.0024111626 0)
(0.040914411 -0.0021634842 0)
(0.041660896 -0.0017469235 0)
(0.042157499 -0.0014058795 0)
(0.042570248 -0.0011464914 0)
(0.042865972 -0.0009428453 0)
(0.043104048 -0.00081227975 0)
(0.043299961 -0.00074604481 0)
(0.043479307 -0.00075245033 0)
(0.04365982 -0.00083523426 0)
(0.043862325 -0.0010143558 0)
(0.04411001 -0.0013093168 0)
(0.044426688 -0.0017598133 0)
(0.044847207 -0.0024301512 0)
(0.045413795 -0.0034075843 0)
(0.04616633 -0.0048275617 0)
(0.047165387 -0.0069043695 0)
(0.048476068 -0.0099207034 0)
(0.049955123 -0.014743624 0)
(0.051939284 -0.022326793 0)
(0.052692624 -0.034934091 0)
(0.054179392 -0.049729085 0)
(0.042556323 -0.065441297 0)
(0.036596629 -0.052794889 0)
(0.039220707 -0.0025927597 0)
(0.040148899 -0.0031815147 0)
(0.041150971 -0.0027688087 0)
(0.041926734 -0.0022118489 0)
(0.042389309 -0.0017417997 0)
(0.042753495 -0.0013907792 0)
(0.042994803 -0.0011260484 0)
(0.043173625 -0.00095465158 0)
(0.043311606 -0.00086644337 0)
(0.043428656 -0.00086440138 0)
(0.043540122 -0.00095190485 0)
(0.043656534 -0.0011485093 0)
(0.04379544 -0.0014754868 0)
(0.04396357 -0.0019733974 0)
(0.044177551 -0.0027078248 0)
(0.044449765 -0.0037709287 0)
(0.044783295 -0.0052898505 0)
(0.045159445 -0.0074697934 0)
(0.045581639 -0.010552465 0)
(0.045771822 -0.015236008 0)
(0.045623301 -0.02229659 0)
(0.043503027 -0.032935642 0)
(0.039431329 -0.043710406 0)
(0.025754893 -0.049602193 0)
(0.010689993 -0.027055804 0)
(0.039318892 -0.0032868515 0)
(0.04042346 -0.0040409297 0)
(0.041549254 -0.0034200144 0)
(0.042332451 -0.0026642506 0)
(0.042735508 -0.002041389 0)
(0.043022837 -0.0015876907 0)
(0.043189261 -0.0012599802 0)
(0.043294228 -0.001048521 0)
(0.04336227 -0.00093701539 0)
(0.043408955 -0.00092285793 0)
(0.043442098 -0.0010072031 0)
(0.043466713 -0.0012050779 0)
(0.043486673 -0.0015397908 0)
(0.043502456 -0.0020493117 0)
(0.04350326 -0.0027936137 0)
(0.043478976 -0.0038619157 0)
(0.043403774 -0.0053674837 0)
(0.043201735 -0.0074855759 0)
(0.042814495 -0.010418938 0)
(0.041915476 -0.014653872 0)
(0.040204113 -0.020768896 0)
(0.036233407 -0.029233642 0)
(0.029354309 -0.037201538 0)
(0.016390063 -0.039103878 0)
(0.0024029584 -0.020565601 0)
(0.039569564 -0.0041642639 0)
(0.040993086 -0.005048074 0)
(0.042290384 -0.0041162685 0)
(0.04303615 -0.003080551 0)
(0.043328645 -0.0022778225 0)
(0.043500113 -0.0017169374 0)
(0.043566157 -0.0013302857 0)
(0.04358186 -0.0010839997 0)
(0.043570143 -0.00095158839 0)
(0.043539859 -0.00092338113 0)
(0.043490785 -0.00099644963 0)
(0.04342241 -0.001182594 0)
(0.043324614 -0.001501264 0)
(0.043187568 -0.0019871226 0)
(0.042984027 -0.0026928561 0)
(0.042680458 -0.0036947117 0)
(0.042227567 -0.0050915463 0)
(0.04151696 -0.0070173151 0)
(0.040439287 -0.0096301159 0)
(0.038688879 -0.013236565 0)
(0.035921493 -0.018208909 0)
(0.031032739 -0.024574177 0)
(0.023291459 -0.029898347 0)
(0.012226188 -0.029338891 0)
(5.1089339e-005 -0.015090907 0)
(0.040159885 -0.0054657586 0)
(0.042087587 -0.0063073011 0)
(0.043536028 -0.0048407897 0)
(0.044144174 -0.0034164697 0)
(0.044244697 -0.002409048 0)
(0.044248784 -0.0017517903 0)
(0.044185825 -0.0013212222 0)
(0.044097497 -0.0010518537 0)
(0.043999596 -0.00090484733 0)
(0.043888187 -0.00086323865 0)
(0.043758831 -0.00092003024 0)
(0.043598761 -0.001081099 0)
(0.04339166 -0.0013639084 0)
(0.043108403 -0.0017942999 0)
(0.042718878 -0.0024179525 0)
(0.042167597 -0.0032946881 0)
(0.04138306 -0.0045037259 0)
(0.040246825 -0.0061419041 0)
(0.038611032 -0.0083216016 0)
(0.036212625 -0.011233007 0)
(0.032707443 -0.015081166 0)
(0.027350324 -0.019663233 0)
(0.019552082 -0.023040685 0)
(0.010028119 -0.021466283 0)
(-0.00019973229 -0.011265968 0)
(0.0411823 -0.0075964427 0)
(0.043581216 -0.0078594265 0)
(0.044879394 -0.0055032375 0)
(0.045147595 -0.003582595 0)
(0.044950217 -0.0023761397 0)
(0.044732971 -0.0016600628 0)
(0.044515359 -0.0012170155 0)
(0.044314405 -0.00094497029 0)
(0.044128675 -0.00079485399 0)
(0.043939965 -0.00074313144 0)
(0.043737263 -0.00078053627 0)
(0.043495116 -0.00090608112 0)
(0.043190086 -0.0011344512 0)
(0.042784546 -0.0014835502 0)
(0.04223875 -0.0019883926 0)
(0.041483783 -0.0026931522 0)
(0.04043472 -0.003654587 0)
(0.038970446 -0.0049375955 0)
(0.036931421 -0.0066154412 0)
(0.03408626 -0.0088008955 0)
(0.030129466 -0.011593107 0)
(0.024564472 -0.014723667 0)
(0.017019421 -0.016665 0)
(0.0087511594 -0.014815749 0)
(2.130549e-005 -0.007742885 0)
(0.04216164 -0.010865532 0)
(0.044327466 -0.009342695 0)
(0.044622815 -0.0058160385 0)
(0.044238336 -0.003435586 0)
(0.043649177 -0.0021179217 0)
(0.043181987 -0.0014155129 0)
(0.042804113 -0.001008197 0)
(0.042497142 -0.00076222981 0)
(0.042234088 -0.00062460907 0)
(0.041986437 -0.00056969162 0)
(0.041728008 -0.00058613235 0)
(0.041430559 -0.00067119428 0)
(0.04106088 -0.00083099593 0)
(0.040581031 -0.0010810774 0)
(0.039938929 -0.001440797 0)
(0.03906496 -0.0019397036 0)
(0.037870448 -0.0026185992 0)
(0.036234878 -0.0035107655 0)
(0.034009075 -0.0046577426 0)
(0.030995444 -0.0061212313 0)
(0.026945986 -0.0079458862 0)
(0.021517716 -0.009887019 0)
(0.014519498 -0.010823603 0)
(0.0074391482 -0.009083972 0)
(0.00011453419 -0.0045547213 0)
(0.041626943 -0.014617147 0)
(0.042016206 -0.0097599479 0)
(0.039959722 -0.0053531952 0)
(0.038683319 -0.0028368353 0)
(0.03768947 -0.0016111317 0)
(0.037006739 -0.0010239133 0)
(0.036508306 -0.00070752291 0)
(0.036130974 -0.00051985929 0)
(0.035825929 -0.00041218297 0)
(0.035554986 -0.00036345014 0)
(0.035283307 -0.00036192316 0)
(0.034981323 -0.00040500548 0)
(0.034613144 -0.00049401211 0)
(0.034141804 -0.00063808298 0)
(0.03351408 -0.00084608725 0)
(0.032672833 -0.0011345469 0)
(0.031532812 -0.0015228653 0)
(0.02998723 -0.0020285845 0)
(0.027916958 -0.0026698195 0)
(0.025165528 -0.0034754778 0)
(0.021548189 -0.0044606295 0)
(0.016835681 -0.0054499209 0)
(0.010957648 -0.0057175058 0)
(0.0054757214 -0.004341058 0)
(-1.1309744e-006 -0.0019046191 0)
(0.036582833 -0.01480768 0)
(0.034420996 -0.0070861552 0)
(0.028929137 -0.0035317601 0)
(0.026978656 -0.0016944142 0)
(0.025724547 -0.00090352298 0)
(0.024965148 -0.00055040746 0)
(0.024453062 -0.0003711293 0)
(0.024084432 -0.00026663558 0)
(0.023803185 -0.00020584333 0)
(0.023567171 -0.00017633125 0)
(0.023343741 -0.00017084847 0)
(0.023105709 -0.00018665018 0)
(0.022825064 -0.00022454465 0)
(0.022470402 -0.00028731421 0)
(0.022003354 -0.00037905342 0)
(0.02137949 -0.00050715903 0)
(0.02053769 -0.00067344045 0)
(0.019408046 -0.00088848319 0)
(0.01790864 -0.0011568365 0)
(0.015938721 -0.0014843991 0)
(0.013381374 -0.0018747643 0)
(0.010108471 -0.0022361433 0)
(0.0061070323 -0.0022108767 0)
(0.0028243165 -0.0014157397 0)
(-0.00023848635 -0.00046000721 0)
(0.021757726 -0.012254495 0)
(0.018380761 -0.0026743633 0)
(0.01225122 -0.00056900571 0)
(0.011170952 -0.00025510383 0)
(0.010206742 -9.8431146e-005 0)
(0.0097158106 -5.0753815e-005 0)
(0.0093916544 -3.0145152e-005 0)
(0.0091655752 -1.7995738e-005 0)
(0.0090005181 -9.8568621e-006 0)
(0.0088689995 -4.0824463e-006 0)
(0.0087516292 3.2471948e-007 0)
(0.0086327997 3.9377138e-006 0)
(0.0084977969 7.4229245e-006 0)
(0.0083306576 1.1230056e-005 0)
(0.0081135325 1.5917145e-005 0)
(0.0078249296 2.2364039e-005 0)
(0.0074405254 3.1309157e-005 0)
(0.0069319729 4.3215744e-005 0)
(0.0062669698 6.0890987e-005 0)
(0.0054120394 8.5458717e-005 0)
(0.0043281007 0.00011885845 0)
(0.0029978007 0.00017466859 0)
(0.0013928969 0.00025598907 0)
(0.00047592203 0.00039534863 0)
(-0.0001946162 0.00024350578 0)
)
;

boundaryField
{
    inlet
    {
        type            fixedValue;
        value           uniform (0.03876 0 0);
    }
    walls
    {
        type            fixedValue;
        value           uniform (0 0 0);
    }
    outlet
    {
        type            zeroGradient;
    }
    centreline
    {
        type            symmetryPlane;
    }
    frontAndBack
    {
        type            empty;
    }
}


// ************************************************************************* //
