/*--------------------------------*- C++ -*----------------------------------*\
| =========                 |                                                 |
| \\      /  F ield         | OpenFOAM: The Open Source CFD Toolbox           |
|  \\    /   O peration     | Version:  5.x                                   |
|   \\  /    A nd           | Web:      www.OpenFOAM.org                      |
|    \\/     M anipulation  |                                                 |
\*---------------------------------------------------------------------------*/
/*   Windows 32 and 64 bit porting by blueCAPE: http://www.bluecape.com.pt   *\
|  Based on Windows porting (2.0.x v4) by Symscape: http://www.symscape.com   |
\*---------------------------------------------------------------------------*/
FoamFile
{
    version     2.0;
    format      ascii;
    class       volScalarField;
    location    "0.22";
    object      p;
}
// * * * * * * * * * * * * * * * * * * * * * * * * * * * * * * * * * * * * * //

dimensions      [0 2 -2 0 0 0 0];

internalField   nonuniform List<scalar> 
750
(
0.39714397
0.39746423
0.39714192
0.39703837
0.39677363
0.39652518
0.39623564
0.39593699
0.39562834
0.3953117
0.39499152
0.39466777
0.394334
0.39398868
0.39363536
0.39325108
0.39281935
0.39233775
0.39173372
0.39086871
0.3899695
0.38746788
0.38631728
0.37765437
0.37372207
0.39715019
0.39746291
0.39714997
0.39703922
0.39677606
0.39652644
0.39623686
0.39593715
0.39562849
0.39531197
0.39499184
0.39466798
0.39433439
0.3939896
0.39363645
0.39325281
0.39282278
0.39234266
0.39173982
0.39089012
0.38997137
0.38755621
0.38628701
0.37788415
0.37390308
0.39715689
0.39747015
0.39715852
0.39704366
0.39678018
0.39652897
0.3962389
0.3959382
0.39562911
0.39531267
0.39499257
0.39466873
0.3943356
0.39399162
0.39363947
0.39325765
0.39283091
0.39235557
0.3917606
0.39092843
0.39002246
0.38767551
0.38640272
0.37814675
0.37448751
0.39716581
0.39748329
0.3971697
0.39705089
0.39678638
0.39653255
0.39624164
0.39594014
0.39563011
0.39531374
0.39499364
0.3946699
0.39433751
0.39399453
0.39364415
0.39326519
0.39284293
0.39237512
0.39179323
0.39098253
0.39011065
0.38782866
0.38664267
0.37850731
0.37530264
0.39717773
0.39750106
0.39718462
0.39706055
0.39679465
0.39653723
0.39624514
0.39594277
0.39563144
0.39531514
0.39499501
0.39467145
0.39434001
0.39399826
0.39365028
0.39327503
0.39285842
0.39240042
0.39183577
0.39105307
0.39023017
0.38802088
0.38697266
0.37897645
0.37645433
0.39719275
0.39752342
0.39720344
0.39707256
0.39680494
0.39654302
0.39624943
0.3959459
0.39563309
0.39531688
0.39499666
0.39467332
0.39434305
0.3940028
0.39365774
0.39328696
0.39287717
0.39243099
0.39188638
0.39113893
0.39037918
0.38824731
0.38740029
0.3794897
0.37821764
0.39721073
0.39755074
0.39722611
0.39708683
0.39681728
0.39654988
0.39625448
0.39594945
0.39563506
0.39531892
0.39499858
0.39467551
0.39434656
0.39400815
0.39366652
0.39330097
0.39289902
0.39246686
0.3919447
0.39123601
0.39055993
0.38850893
0.38798199
0.3801354
0.38078275
0.39723163
0.39758323
0.39725262
0.39710326
0.39683182
0.39655778
0.39626019
0.39595345
0.39563742
0.39532118
0.39500077
0.39467799
0.39435047
0.39401433
0.3936766
0.39331698
0.39292392
0.39250841
0.39201167
0.3913418
0.39077455
0.38881876
0.38872587
0.38110985
0.38471601
0.39725705
0.39761853
0.39728416
0.39712167
0.39684855
0.39656679
0.39626648
0.39595774
0.39564022
0.39532359
0.39500312
0.39468067
0.3943547
0.39402129
0.3936875
0.39333453
0.39295173
0.39255512
0.39208764
0.39146109
0.391014
0.38922188
0.38959852
0.38236855
0.38955618
0.39729274
0.39764852
0.39732491
0.39714141
0.39686648
0.39657718
0.39627314
0.3959619
0.3956433
0.39532589
0.39500548
0.39468341
0.394359
0.39402864
0.39369869
0.39335274
0.39298121
0.39260309
0.39216823
0.39159693
0.3912232
0.3897537
0.39040468
0.38413805
0.39451093
0.35219412
0.34133325
0.32521399
0.31141119
0.2966929
0.28227729
0.26773935
0.25326807
0.23878694
0.22431615
0.2098434
0.19537157
0.18089939
0.16642743
0.15195546
0.13748351
0.12301157
0.10853962
0.094067668
0.079595718
0.065123768
0.050651819
0.036179868
0.021707922
0.0072359705
0.35206269
0.34117771
0.32516904
0.31136178
0.29666303
0.2822565
0.2677329
0.25326451
0.23878666
0.22431599
0.20984355
0.19537151
0.18089939
0.1664274
0.15195545
0.13748351
0.12301157
0.10853962
0.094067668
0.079595718
0.065123768
0.050651819
0.036179868
0.021707921
0.0072359707
0.35168638
0.341219
0.32496475
0.31129961
0.29661451
0.28222571
0.2677256
0.25326168
0.23878651
0.2243158
0.20984361
0.19537145
0.18089937
0.16642739
0.15195545
0.13748351
0.12301157
0.10853962
0.094067668
0.079595718
0.065123768
0.050651819
0.036179868
0.021707921
0.0072359709
0.35115698
0.34136439
0.32468262
0.31122115
0.29658529
0.28220423
0.2677202
0.25325997
0.23878652
0.22431581
0.20984361
0.19537143
0.18089934
0.16642739
0.15195545
0.13748352
0.12301157
0.10853962
0.094067668
0.079595718
0.065123768
0.050651819
0.036179869
0.02170792
0.0072359712
0.35063639
0.34136102
0.3245385
0.31110649
0.29654934
0.28219322
0.26771592
0.25325885
0.23878661
0.22431595
0.20984357
0.19537142
0.18089931
0.16642738
0.15195545
0.13748352
0.12301157
0.10853962
0.094067668
0.079595718
0.065123768
0.050651819
0.036179869
0.02170792
0.0072359719
0.35000665
0.34132267
0.32444398
0.31100087
0.29649796
0.2821825
0.26771221
0.25325814
0.2387868
0.22431603
0.20984349
0.19537139
0.18089928
0.16642738
0.15195546
0.13748352
0.12301157
0.10853962
0.094067668
0.079595718
0.065123768
0.050651819
0.036179869
0.021707919
0.0072359727
0.3491581
0.34136505
0.32424488
0.31093169
0.29645705
0.28217499
0.2677097
0.25325865
0.23878699
0.22431599
0.20984336
0.19537132
0.18089927
0.16642739
0.15195546
0.13748352
0.12301157
0.10853962
0.094067668
0.079595718
0.065123768
0.050651819
0.036179869
0.021707919
0.0072359733
0.34850969
0.34129933
0.32401744
0.31089769
0.29642873
0.28217156
0.26770829
0.2532604
0.23878727
0.2243159
0.2098432
0.19537121
0.18089926
0.1664274
0.15195547
0.13748352
0.12301157
0.10853962
0.094067668
0.079595718
0.065123768
0.050651819
0.036179869
0.021707918
0.0072359735
0.34745684
0.34123232
0.32390817
0.3108967
0.29641477
0.28217218
0.26770893
0.25326245
0.23878768
0.22431589
0.20984299
0.19537112
0.18089924
0.16642741
0.15195548
0.13748353
0.12301157
0.10853962
0.094067668
0.079595719
0.065123768
0.050651818
0.036179869
0.021707918
0.0072359736
0.34327545
0.34177835
0.32389371
0.31097045
0.29638882
0.28217676
0.26770741
0.25326383
0.23878782
0.22431605
0.20984291
0.19537107
0.18089923
0.16642741
0.15195548
0.13748353
0.12301157
0.10853962
0.094067668
0.079595719
0.065123768
0.050651818
0.036179869
0.021707919
0.007235974
0.39738884
0.39769698
0.39742476
0.39718422
0.3969025
0.39659968
0.39628661
0.39596971
0.39564926
0.39532982
0.39500973
0.39468875
0.39436771
0.39404323
0.39372067
0.39338969
0.39304128
0.39269639
0.39232817
0.39188604
0.3915584
0.39090821
0.3916864
0.38917628
0.40755938
0.39753477
0.39787606
0.39757393
0.3972803
0.39696806
0.39664122
0.39631197
0.3959858
0.39566023
0.39533715
0.39501683
0.39469985
0.39438584
0.39406894
0.39375693
0.39345409
0.39314207
0.39283889
0.39256052
0.39224343
0.39201855
0.39172924
0.39200865
0.3905385
0.39651599
0.39774103
0.39812062
0.39774525
0.39739362
0.39704024
0.39668484
0.3963376
0.39599985
0.39566934
0.39534356
0.39502375
0.39470931
0.39440086
0.39409547
0.39379317
0.39351095
0.39323828
0.39297235
0.39275911
0.39255231
0.39244439
0.39239933
0.39273978
0.39272684
0.39541661
0.39804997
0.39841484
0.39794188
0.39751649
0.39711232
0.3967255
0.39636146
0.39601005
0.39567467
0.3953473
0.39502789
0.39471533
0.39441011
0.3941153
0.39382668
0.39355415
0.39331132
0.39308305
0.39291111
0.39277817
0.39273364
0.39280188
0.3931473
0.39362106
0.39459504
0.39852137
0.39874628
0.39816255
0.39764143
0.39717796
0.39675739
0.39637844
0.39601624
0.39567475
0.39534623
0.39502674
0.39471632
0.3944141
0.39412329
0.3938467
0.39358308
0.39335355
0.39315377
0.39300502
0.39291914
0.39291432
0.39303358
0.39337657
0.3939597
0.39433559
0.39925285
0.3990957
0.3983956
0.39775529
0.39723093
0.39677899
0.39638218
0.39601485
0.3956689
0.39533973
0.39502058
0.39471088
0.39441071
0.39412095
0.39384715
0.39359081
0.39336368
0.39317547
0.39303604
0.39296597
0.3929768
0.39311075
0.39340699
0.39396563
0.39414073
0.40036839
0.39943384
0.3985978
0.39783724
0.39725549
0.39678199
0.39637134
0.39600259
0.39565672
0.39532753
0.39500871
0.39469874
0.39439764
0.39410688
0.39382976
0.39357204
0.39334036
0.39314732
0.39300269
0.39292639
0.39293567
0.39305701
0.39331012
0.393813
0.39393078
0.40224736
0.3996007
0.39870962
0.39784256
0.39722793
0.39675119
0.39634318
0.39597853
0.3956367
0.39530923
0.39499083
0.39467967
0.39437561
0.39408002
0.39379561
0.39352766
0.39328292
0.39307206
0.39290745
0.39280798
0.39279746
0.3928972
0.39312538
0.39357521
0.39369932
0.40576939
0.39930618
0.39869731
0.397714
0.3971162
0.39666612
0.39628453
0.3959362
0.39560447
0.39528202
0.39496485
0.39465177
0.39434263
0.39403814
0.39374087
0.39345445
0.39318514
0.39294218
0.39273945
0.39259801
0.39254863
0.39262747
0.39285234
0.39327956
0.39344817
0.40735628
0.39829933
0.39912781
0.3977742
0.39717209
0.39668518
0.39628964
0.39593485
0.39560084
0.39527734
0.39495945
0.39464545
0.39433485
0.39402821
0.39372788
0.39343717
0.39316188
0.39291095
0.39269763
0.39254404
0.39248108
0.39254814
0.39274909
0.39314385
0.39333835
)
;

boundaryField
{
    inlet
    {
        type            zeroGradient;
    }
    walls
    {
        type            zeroGradient;
    }
    outlet
    {
        type            fixedValue;
        value           uniform 0;
    }
    centreline
    {
        type            symmetryPlane;
    }
    frontAndBack
    {
        type            empty;
    }
}


// ************************************************************************* //
