/*--------------------------------*- C++ -*----------------------------------*\
| =========                 |                                                 |
| \\      /  F ield         | OpenFOAM: The Open Source CFD Toolbox           |
|  \\    /   O peration     | Version:  5.x                                   |
|   \\  /    A nd           | Web:      www.OpenFOAM.org                      |
|    \\/     M anipulation  |                                                 |
\*---------------------------------------------------------------------------*/
/*   Windows 32 and 64 bit porting by blueCAPE: http://www.bluecape.com.pt   *\
|  Based on Windows porting (2.0.x v4) by Symscape: http://www.symscape.com   |
\*---------------------------------------------------------------------------*/
FoamFile
{
    version     2.0;
    format      ascii;
    class       surfaceScalarField;
    location    "0.22";
    object      phi;
}
// * * * * * * * * * * * * * * * * * * * * * * * * * * * * * * * * * * * * * //

dimensions      [0 3 -1 0 0 0 0];

internalField   nonuniform List<scalar> 
1430
(
5.1565981e-006
-1.5531779e-007
5.3528382e-006
-1.9624009e-007
5.5478465e-006
-1.9500835e-007
5.7176056e-006
-1.6975904e-007
5.8606022e-006
-1.4299666e-007
5.9739297e-006
-1.1332752e-007
6.0630714e-006
-8.9141629e-008
6.1333863e-006
-7.0315002e-008
6.1912154e-006
-5.7829069e-008
6.2432141e-006
-5.1998714e-008
6.2957077e-006
-5.2493648e-008
6.3553377e-006
-5.9630004e-008
6.4302157e-006
-7.4878021e-008
6.5311394e-006
-1.0092369e-007
6.6734375e-006
-1.422981e-007
6.878899e-006
-2.0546151e-007
7.183211e-006
-3.0431198e-007
7.6442571e-006
-4.6104607e-007
8.3478662e-006
-7.0360908e-007
9.430911e-006
-1.0830447e-006
1.1036454e-005
-1.6055434e-006
1.3419567e-005
-2.3831128e-006
1.6701294e-005
-3.281727e-006
2.0934416e-005
-4.2331219e-006
-4.8345256e-006
2.5768942e-005
5.155525e-006
-3.095625e-007
5.3557544e-006
-3.9646946e-007
5.5491194e-006
-3.8837339e-007
5.7200089e-006
-3.4064855e-007
5.8624234e-006
-2.8541115e-007
5.9756209e-006
-2.2652505e-007
6.0643398e-006
-1.7786046e-007
6.1342283e-006
-1.4020355e-007
6.1916767e-006
-1.1527747e-007
6.24329e-006
-1.0361204e-007
6.2953372e-006
-1.045409e-007
6.3544268e-006
-1.187196e-007
6.4286031e-006
-1.4905431e-007
6.5285029e-006
-2.0082356e-007
6.6693424e-006
-2.8313755e-007
6.8725917e-006
-4.0871079e-007
7.1732262e-006
-6.049465e-007
7.6282388e-006
-9.1605861e-007
8.322396e-006
-1.3977662e-006
9.3856579e-006
-2.1463066e-006
1.0971569e-005
-3.1914547e-006
1.3292454e-005
-4.7039973e-006
1.6542539e-005
-6.5318121e-006
2.0652732e-005
-8.343315e-006
-9.683134e-006
2.550134e-005
5.1569646e-006
-4.6524678e-007
5.3584849e-006
-5.9798974e-007
5.5531181e-006
-5.8300664e-007
5.7242528e-006
-5.1178324e-007
5.8664021e-006
-4.2756056e-007
5.9789743e-006
-3.3909724e-007
6.0669169e-006
-2.6580304e-007
6.1359928e-006
-2.0927952e-007
6.1926841e-006
-1.7196872e-007
6.2435316e-006
-1.5445961e-007
6.294707e-006
-1.5571631e-007
6.3527082e-006
-1.7672083e-007
6.425461e-006
-2.2180707e-007
6.5234067e-006
-2.9876926e-007
6.6613202e-006
-4.2105108e-007
6.8600837e-006
-6.0747427e-007
7.1535718e-006
-8.9843457e-007
7.5966676e-006
-1.3591543e-006
8.2707503e-006
-2.071849e-006
9.3008292e-006
-3.1763854e-006
1.0831509e-005
-4.7221341e-006
1.3070033e-005
-6.9425214e-006
1.618947e-005
-9.6512495e-006
2.0161621e-005
-1.2315466e-005
-1.437902e-005
2.4857507e-005
5.1591575e-006
-6.2312396e-007
5.362841e-006
-8.016733e-007
5.5592573e-006
-7.7942286e-007
5.7308053e-006
-6.8333135e-007
5.8725584e-006
-5.6931363e-007
5.984158e-006
-4.5069683e-007
6.0708908e-006
-3.5253589e-007
6.1387843e-006
-2.7717306e-007
6.1943507e-006
-2.2753514e-007
6.2440372e-006
-2.0414609e-007
6.2939055e-006
-2.0558464e-007
6.350298e-006
-2.331134e-007
6.4209345e-006
-2.9244357e-007
6.5159606e-006
-3.9379531e-007
6.6495446e-006
-5.5463507e-007
6.8416743e-006
-7.9960402e-007
7.1245849e-006
-1.1813451e-006
7.5502117e-006
-1.7847811e-006
8.1948479e-006
-2.7164852e-006
9.1755454e-006
-4.1570828e-006
1.0625599e-005
-6.1721876e-006
1.2740242e-005
-9.0571646e-006
1.5664025e-005
-1.2575033e-005
1.9420405e-005
-1.6071846e-005
-1.882414e-005
2.3865525e-005
5.1622963e-006
-7.8413998e-007
5.3689463e-006
-1.0083232e-006
5.5677371e-006
-9.7821368e-007
5.7398135e-006
-8.5540783e-007
5.8810191e-006
-7.1051927e-007
5.991284e-006
-5.6096174e-007
6.0763777e-006
-4.3762956e-007
6.1427115e-006
-3.4350687e-007
6.1967812e-006
-2.8160486e-007
6.2449078e-006
-2.522727e-007
6.2930464e-006
-2.5372325e-007
6.3473325e-006
-2.8739958e-007
6.4151809e-006
-3.6029192e-007
6.5063644e-006
-4.8497886e-007
6.6342846e-006
-6.8255525e-007
6.8177556e-006
-9.8307502e-007
7.0868912e-006
-1.4504806e-006
7.489883e-006
-2.1877729e-006
8.096142e-006
-3.3227441e-006
9.0128125e-006
-5.0737533e-006
1.0356461e-005
-7.5158363e-006
1.2306167e-005
-1.100687e-005
1.4974711e-005
-1.5243578e-005
1.8439304e-005
-1.9536438e-005
-2.2899813e-005
2.2514976e-005
5.1665705e-006
-9.4943021e-007
5.37699e-006
-1.2187427e-006
5.5787667e-006
-1.1799904e-006
5.751454e-006
-1.0280951e-006
5.8919133e-006
-8.509786e-007
6.0004623e-006
-6.6951083e-007
6.0834922e-006
-5.2065947e-007
6.1478789e-006
-4.0789354e-007
6.2000763e-006
-3.3380232e-007
6.2462427e-006
-2.9843912e-007
6.2922345e-006
-2.997151e-007
6.3439467e-006
-3.3911175e-007
6.4083669e-006
-4.2471217e-007
6.4948248e-006
-5.7143676e-007
6.6158051e-006
-8.0353554e-007
6.7886972e-006
-1.1559671e-006
7.041051e-006
-1.7028345e-006
7.4166571e-006
-2.5633789e-006
7.9766499e-006
-3.8827369e-006
8.8156099e-006
-5.9127133e-006
1.0028073e-005
-8.7282997e-006
1.1775075e-005
-1.2753872e-005
1.4122098e-005
-1.7590601e-005
1.7206638e-005
-2.2620977e-005
-2.6517053e-005
2.0823878e-005
5.1721897e-006
-1.1203396e-006
5.3871737e-006
-1.4337268e-006
5.5925279e-006
-1.3853446e-006
5.7658711e-006
-1.2014383e-006
5.9053299e-006
-9.9043739e-007
6.0117588e-006
-7.7593972e-007
6.0923052e-006
-6.0120593e-007
6.1543337e-006
-4.6992209e-007
6.204281e-006
-3.8374959e-007
6.2480863e-006
-3.4224445e-007
6.2915272e-006
-3.4315598e-007
6.3402282e-006
-3.8781278e-007
6.4006187e-006
-4.8510272e-007
6.4815242e-006
-6.5234228e-007
6.5943598e-006
-9.1637109e-007
6.7549018e-006
-1.3165091e-006
6.9877689e-006
-1.9357016e-006
7.3317589e-006
-2.9073689e-006
7.838601e-006
-4.3895789e-006
8.5872827e-006
-6.661395e-006
9.6462156e-006
-9.7872326e-006
1.1152504e-005
-1.426016e-005
1.3100474e-005
-1.9538571e-005
1.5746942e-005
-2.5267445e-005
-2.9513188e-005
1.8743076e-005
5.1793994e-006
-1.2984586e-006
5.3996454e-006
-1.6539728e-006
5.6091298e-006
-1.594829e-006
5.7831127e-006
-1.3754212e-006
5.9212376e-006
-1.1285623e-006
6.0251249e-006
-8.7982706e-007
6.1027748e-006
-6.7885588e-007
6.1620223e-006
-5.2916954e-007
6.2093367e-006
-4.3106406e-007
6.25039e-006
-3.8329776e-007
6.2908757e-006
-3.836417e-007
6.3361674e-006
-4.3310448e-007
6.392001e-006
-5.409363e-007
6.4665789e-006
-7.2692025e-007
6.5701563e-006
-1.0199485e-006
6.7167724e-006
-1.4631251e-006
6.9278011e-006
-2.1467303e-006
7.2364762e-006
-3.2160439e-006
7.6842574e-006
-4.8373602e-006
8.3321073e-006
-7.3092447e-006
9.2178939e-006
-1.0673019e-005
1.0448592e-005
-1.5490858e-005
1.1955827e-005
-2.1045805e-005
1.4116918e-005
-2.7428536e-005
-3.1546477e-005
1.6150206e-005
5.1885197e-006
-1.485698e-006
5.4144404e-006
-1.8798936e-006
5.6286099e-006
-1.8089985e-006
5.8030887e-006
-1.5499e-006
5.9394518e-006
-1.2649255e-006
6.0403686e-006
-9.8074379e-007
6.1146976e-006
-7.5318492e-007
6.1707474e-006
-5.8521938e-007
6.215028e-006
-4.7534467e-007
6.2529496e-006
-4.2121937e-007
6.290115e-006
-4.2080706e-007
6.3316189e-006
-4.7460842e-007
6.382436e-006
-5.9175345e-007
6.4500073e-006
-7.9449151e-007
6.5433425e-006
-1.1132837e-006
6.6746448e-006
-1.5944274e-006
6.8619366e-006
-2.334022e-006
7.1322969e-006
-3.4864042e-006
7.5159166e-006
-5.2209799e-006
8.0557852e-006
-7.8491133e-006
8.7536468e-006
-1.1370881e-005
9.68447e-006
-1.6421681e-005
1.0708656e-005
-2.2069992e-005
1.2332244e-005
-2.9052124e-005
-3.2225023e-005
1.3010791e-005
5.1985394e-006
-1.6829571e-006
5.4325431e-006
-2.1138973e-006
5.6506094e-006
-2.0270647e-006
5.8256424e-006
-1.7249331e-006
5.9595468e-006
-1.3988298e-006
6.057079e-006
-1.078276e-006
6.1276893e-006
-8.2379526e-007
6.1801189e-006
-6.3764901e-007
6.2209305e-006
-5.1615625e-007
6.2554215e-006
-4.5571035e-007
6.2889081e-006
-4.5429371e-007
6.3262152e-006
-5.1191557e-007
6.3716616e-006
-6.3719985e-007
6.431658e-006
-8.5448787e-007
6.5138874e-006
-1.1955131e-006
6.6286733e-006
-1.7092133e-006
6.7906853e-006
-2.496034e-006
7.0203394e-006
-3.7160582e-006
7.3367514e-006
-5.5373919e-006
7.7635749e-006
-8.2759368e-006
8.2743598e-006
-1.1881666e-005
8.8688701e-006
-1.7016192e-005
9.3544517e-006
-2.2555573e-005
1.0123356e-005
-2.9821028e-005
8.8149712e-006
-3.0916639e-005
2.8476963e-005
-2.7080211e-006
2.9495724e-005
-1.018761e-006
2.9758244e-005
-2.6252048e-007
2.9838045e-005
-7.9800917e-008
2.9872923e-005
-3.4877608e-008
2.9886994e-005
-1.407095e-008
2.9892733e-005
-5.7389436e-009
2.9892423e-005
3.0967825e-010
2.9890169e-005
2.2537318e-009
2.9888424e-005
1.7454225e-009
2.9887911e-005
5.1285226e-010
2.988802e-005
-1.0932957e-010
2.9888178e-005
-1.5748379e-010
2.9888221e-005
-4.3178461e-011
2.9888207e-005
1.4368868e-011
2.988819e-005
1.6782529e-011
2.9888185e-005
5.2841388e-012
2.9888185e-005
-7.2992347e-013
2.9888186e-005
-1.120696e-012
2.9888187e-005
-2.8239608e-013
2.9888187e-005
2.1053756e-014
2.9888187e-005
-6.1557782e-014
2.9888187e-005
9.522997e-015
2.9888185e-005
1.3231578e-012
1.4264864e-012
2.7983023e-005
-5.1897043e-006
2.8949107e-005
-1.9848446e-006
2.9173175e-005
-4.8658805e-007
2.9246161e-005
-1.5278763e-007
2.9269535e-005
-5.8250735e-008
2.9281413e-005
-2.5948901e-008
2.928541e-005
-9.7365587e-009
2.9284738e-005
9.8208571e-010
2.9282406e-005
4.5857551e-009
2.9280859e-005
3.2918179e-009
2.9280451e-005
9.2129341e-010
2.928058e-005
-2.3887649e-010
2.9280724e-005
-3.0056291e-010
2.9280759e-005
-7.8780116e-011
2.9280744e-005
2.9170853e-011
2.928073e-005
3.1565228e-011
2.9280725e-005
9.3904322e-012
2.9280726e-005
-1.5758152e-012
2.9280727e-005
-2.1108923e-012
2.9280728e-005
-5.1945683e-013
2.9280728e-005
2.2873339e-014
2.9280728e-005
-1.2866368e-013
2.9280727e-005
8.0063382e-014
2.9280726e-005
2.7162009e-012
2.9871873e-012
2.7036248e-005
-7.3684451e-006
2.7837048e-005
-2.7856444e-006
2.8013417e-005
-6.6295705e-007
2.8047159e-005
-1.8652977e-007
2.8057833e-005
-6.8925158e-008
2.8068074e-005
-3.6189428e-008
2.8070551e-005
-1.2213457e-008
2.8069075e-005
2.4577399e-009
2.8066897e-005
6.7633703e-009
2.8065745e-005
4.4444686e-009
2.8065545e-005
1.1207428e-009
2.8065696e-005
-3.8937266e-010
2.8065808e-005
-4.1297711e-010
2.8065829e-005
-9.9961037e-011
2.8065815e-005
4.334635e-011
2.8065804e-005
4.2441333e-011
2.8065802e-005
1.1513607e-011
2.8065803e-005
-2.5491856e-012
2.8065804e-005
-2.8375906e-012
2.8065804e-005
-6.5537701e-013
2.8065804e-005
3.9970687e-014
2.8065804e-005
-1.6662753e-013
2.8065804e-005
2.187477e-013
2.8065802e-005
4.1424585e-012
4.4766434e-012
2.5616671e-005
-9.1195908e-006
2.6171581e-005
-3.3405541e-006
2.6244713e-005
-7.3608921e-007
2.6241567e-005
-1.833838e-007
2.6243969e-005
-7.1327082e-008
2.6249831e-005
-4.2051675e-008
2.6249303e-005
-1.1685529e-008
2.6247144e-005
4.6170753e-009
2.6245519e-005
8.3882142e-009
2.6244987e-005
4.9762397e-009
2.6245039e-005
1.0688499e-009
2.6245182e-005
-5.3172089e-010
2.6245242e-005
-4.7329235e-010
2.6245243e-005
-1.0154173e-010
2.6245232e-005
5.5047089e-011
2.6245227e-005
4.7607902e-011
2.6245227e-005
1.1328029e-011
2.6245228e-005
-3.4896034e-012
2.6245228e-005
-3.1705483e-012
2.6245228e-005
-6.6211113e-013
2.6245228e-005
5.8466278e-014
2.6245228e-005
-1.898619e-013
2.6245228e-005
3.8190732e-013
2.6245227e-005
5.3580838e-012
5.6445413e-012
2.3703828e-005
-1.0308442e-005
2.3907525e-005
-3.5442518e-006
2.3854418e-005
-6.829819e-007
2.383946e-005
-1.684254e-007
2.3833836e-005
-6.5703451e-008
2.3830868e-005
-3.9083479e-008
2.3827216e-005
-8.0334327e-009
2.3825216e-005
6.6168926e-009
2.3824664e-005
8.9397804e-009
2.3824905e-005
4.735831e-009
2.3825165e-005
8.0875482e-010
2.3825249e-005
-6.1584428e-010
2.382524e-005
-4.6435552e-010
2.3825222e-005
-8.2910338e-011
2.3825216e-005
6.1075347e-011
2.3825217e-005
4.5831129e-011
2.382522e-005
9.0991933e-012
2.382522e-005
-4.0967235e-012
2.382522e-005
-3.0359266e-012
2.382522e-005
-5.5066876e-013
2.382522e-005
4.1952691e-014
2.382522e-005
-1.955595e-013
2.382522e-005
5.3345261e-013
2.3825219e-005
6.0106328e-012
6.184096e-012
2.1239442e-005
-1.0724006e-005
2.1006046e-005
-3.3108556e-006
2.0870539e-005
-5.4747545e-007
2.0846257e-005
-1.4414343e-007
2.083069e-005
-5.0136535e-008
2.0820919e-005
-2.9312465e-008
2.0816234e-005
-3.3485453e-009
2.081549e-005
7.3616038e-009
2.081635e-005
8.079729e-009
2.0817301e-005
3.7847374e-009
2.0817652e-005
4.5757615e-010
2.0817632e-005
-5.9620347e-010
2.0817553e-005
-3.8537219e-010
2.0817522e-005
-5.1663863e-011
2.0817525e-005
5.8138881e-011
2.0817534e-005
3.7507316e-011
2.0817537e-005
5.7444794e-012
2.0817537e-005
-4.0541893e-012
2.0817536e-005
-2.4708674e-012
2.0817536e-005
-3.6591196e-013
2.0817536e-005
2.746615e-015
2.0817536e-005
-1.7592544e-013
2.0817536e-005
6.2515784e-013
2.0817536e-005
5.7795502e-012
5.8403258e-012
1.81247e-005
-1.0105629e-005
1.7477994e-005
-2.6641492e-006
1.7310084e-005
-3.7956537e-007
1.727147e-005
-1.0552924e-007
1.7248829e-005
-2.7495734e-008
1.7236588e-005
-1.7071799e-008
1.7232943e-005
2.9692697e-010
1.7233982e-005
6.3219057e-009
1.7236116e-005
5.946439e-009
1.7237458e-005
2.4423409e-009
1.7237758e-005
1.5800617e-010
1.7237626e-005
-4.6414089e-010
1.72375e-005
-2.5953214e-010
1.7237469e-005
-2.0937422e-011
1.7237482e-005
4.5347371e-011
1.7237494e-005
2.505522e-011
1.7237498e-005
2.5230776e-012
1.7237497e-005
-3.2534611e-012
1.7237496e-005
-1.6453686e-012
1.7237496e-005
-1.7349271e-013
1.7237496e-005
-2.5579133e-014
1.7237496e-005
-1.3378224e-013
1.7237496e-005
5.798209e-013
1.7237497e-005
4.5768402e-012
4.5835026e-012
1.4261504e-005
-8.2169275e-006
1.3343987e-005
-1.7466317e-006
1.3172485e-005
-2.0806401e-007
1.3124394e-005
-5.7437865e-008
1.3104464e-005
-7.5661493e-009
1.3094355e-005
-6.9621541e-009
1.3092981e-005
1.6702422e-009
1.3095443e-005
3.8604176e-009
1.309816e-005
3.2292886e-009
1.3099451e-005
1.1518995e-009
1.309961e-005
-1.1758485e-012
1.309941e-005
-2.644542e-010
1.3099278e-005
-1.2790914e-010
1.3099259e-005
-1.9404681e-012
1.3099279e-005
2.6125473e-011
1.3099291e-005
1.2302227e-011
1.3099293e-005
4.6474816e-013
1.3099292e-005
-1.9213891e-012
1.3099291e-005
-8.1248141e-013
1.3099291e-005
-4.9196731e-014
1.3099291e-005
-3.5715963e-014
1.3099291e-005
-7.6901926e-014
1.3099291e-005
3.8264426e-013
1.3099293e-005
2.6998247e-012
2.7182094e-012
9.6296018e-006
-4.8357387e-006
8.6081684e-006
-7.2519825e-007
8.4591411e-006
-5.9036636e-008
8.4202363e-006
-1.8533055e-008
8.4109598e-006
1.7103849e-009
8.4057099e-006
-1.7122808e-009
8.4063152e-006
1.0649597e-009
8.4089657e-006
1.2098626e-009
8.4112407e-006
9.5435269e-010
8.4121139e-006
2.7864973e-010
8.412136e-006
-2.3264621e-011
8.4119521e-006
-8.0523696e-011
8.411857e-006
-3.2793859e-011
8.4118525e-006
2.5497347e-012
8.4118705e-006
8.1286744e-012
8.4118797e-006
3.1538289e-012
8.4118803e-006
-1.655141e-013
8.411879e-006
-6.1457791e-013
8.4118784e-006
-2.1232365e-013
8.4118784e-006
-3.0977322e-015
8.4118783e-006
-2.9910643e-014
8.4118783e-006
-3.957408e-014
8.4118785e-006
1.1530634e-013
8.4118803e-006
8.6948479e-013
9.0831438e-013
3.9792325e-006
3.2540342e-006
3.1949976e-006
3.1764646e-006
3.1781749e-006
3.1764627e-006
3.1775276e-006
3.1787375e-006
3.1796919e-006
3.1799705e-006
3.1799472e-006
3.1798667e-006
3.1798339e-006
3.1798365e-006
3.1798446e-006
3.1798478e-006
3.1798476e-006
3.179847e-006
3.1798468e-006
3.1798468e-006
3.1798467e-006
3.1798467e-006
3.1798468e-006
3.1798477e-006
1.564322e-005
-2.3223363e-006
1.6438382e-005
-2.9090595e-006
1.7097688e-005
-2.6863705e-006
1.7623848e-005
-2.2510926e-006
1.8007016e-005
-1.7819977e-006
1.8276247e-005
-1.347507e-006
1.8462845e-005
-1.0103937e-006
1.8595692e-005
-7.7049602e-007
1.8694844e-005
-6.1530817e-007
1.8776334e-005
-5.3720022e-007
1.885303e-005
-5.3099024e-007
1.8936992e-005
-5.9587707e-007
1.9039024e-005
-7.3923176e-007
1.9170083e-005
-9.8554724e-007
1.9346404e-005
-1.371834e-006
1.9587568e-005
-1.9503775e-006
1.9912577e-005
-2.8210429e-006
2.0348046e-005
-4.1515273e-006
2.0900255e-005
-6.0896008e-006
2.1501258e-005
-8.8769398e-006
2.2032457e-005
-1.2412865e-005
2.1817816e-005
-1.6801551e-005
2.0098905e-005
-2.0836662e-005
1.4759751e-005
-2.4481874e-005
-1.6156888e-005
1.5792057e-005
-3.1105522e-006
1.6673847e-005
-3.79085e-006
1.7360032e-005
-3.3725555e-006
1.7858871e-005
-2.7499317e-006
1.8195117e-005
-2.1182435e-006
1.8411758e-005
-1.5641479e-006
1.8545588e-005
-1.1442234e-006
1.8629992e-005
-8.5489997e-007
1.868634e-005
-6.7165607e-007
1.8728013e-005
-5.7887356e-007
1.8763614e-005
-5.66591e-007
1.8798881e-005
-6.3114474e-007
1.8839889e-005
-7.8023934e-007
1.8889466e-005
-1.0351239e-006
1.8950278e-005
-1.4326461e-006
1.9024569e-005
-2.0246692e-006
1.910203e-005
-2.8985039e-006
1.9161508e-005
-4.2110046e-006
1.9148563e-005
-6.0766565e-006
1.8922615e-005
-8.6509911e-006
1.8263062e-005
-1.1753312e-005
1.6555881e-005
-1.5094369e-005
1.3227574e-005
-1.7508355e-005
6.8874996e-006
-1.8141799e-005
-9.2693884e-006
1.5974425e-005
-4.0811365e-006
1.691883e-005
-4.7352551e-006
1.758192e-005
-4.035645e-006
1.8011084e-005
-3.1790956e-006
1.826614e-005
-2.3733003e-006
1.8405147e-005
-1.7031546e-006
1.8470969e-005
-1.210045e-006
1.8497705e-005
-8.8163649e-007
1.8505507e-005
-6.7945836e-007
1.8503197e-005
-5.7656358e-007
1.8494375e-005
-5.5776827e-007
1.8479569e-005
-6.1633873e-007
1.8457839e-005
-7.5850984e-007
1.8424825e-005
-1.0021101e-006
1.8370965e-005
-1.3787856e-006
1.828459e-005
-1.9382946e-006
1.8135091e-005
-2.7490046e-006
1.7867035e-005
-3.9429485e-006
1.7396034e-005
-5.6056552e-006
1.6536408e-005
-7.7913649e-006
1.5066137e-005
-1.0283042e-005
1.2566921e-005
-1.2595153e-005
8.7962172e-006
-1.3737651e-005
3.4519163e-006
-1.2797498e-005
-5.817472e-006
1.6161245e-005
-5.2385404e-006
1.7085828e-005
-5.6598385e-006
1.7633795e-005
-4.5836116e-006
1.7921148e-005
-3.4664493e-006
1.8046217e-005
-2.4983693e-006
1.8077745e-005
-1.7346818e-006
1.806172e-005
-1.1940203e-006
1.8024905e-005
-8.4482168e-007
1.7981862e-005
-6.3641494e-007
1.793551e-005
-5.3021241e-007
1.7884125e-005
-5.0638298e-007
1.7822931e-005
-5.5514483e-007
1.7744225e-005
-6.7980339e-007
1.7637137e-005
-8.9502239e-007
1.7483601e-005
-1.2252494e-006
1.7259019e-005
-1.7137129e-006
1.692423e-005
-2.4142151e-006
1.6401537e-005
-3.4202559e-006
1.5594723e-005
-4.7988416e-006
1.4333716e-005
-6.530357e-006
1.244628e-005
-8.3956064e-006
9.7398594e-006
-9.8887331e-006
6.2342639e-006
-1.0232055e-005
2.1340663e-006
-8.6973008e-006
-3.6834057e-006
1.6302069e-005
-6.5367681e-006
1.7052616e-005
-6.4103857e-006
1.7351959e-005
-4.8829551e-006
1.7404458e-005
-3.5189479e-006
1.734525e-005
-2.4391611e-006
1.724351e-005
-1.6329422e-006
1.7136041e-005
-1.0865518e-006
1.7035401e-005
-7.4418105e-007
1.6945072e-005
-5.4608626e-007
1.6860806e-005
-4.4594682e-007
1.6774614e-005
-4.2019018e-007
1.6676451e-005
-4.5698222e-007
1.6553947e-005
-5.5729948e-007
1.639019e-005
-7.3126521e-007
1.6163373e-005
-9.984323e-007
1.583896e-005
-1.3893003e-006
1.5372976e-005
-1.9482307e-006
1.4685491e-005
-2.7327709e-006
1.3676295e-005
-3.7896454e-006
1.2214887e-005
-5.0689487e-006
1.0189433e-005
-6.3701532e-006
7.5667653e-006
-7.2660648e-006
4.5131327e-006
-7.1784224e-006
1.459243e-006
-5.6434111e-006
-2.2241626e-006
1.6313594e-005
-7.8465209e-006
1.6667306e-005
-6.7640976e-006
1.6563039e-005
-4.7786881e-006
1.6293818e-005
-3.2497269e-006
1.6008369e-005
-2.1537121e-006
1.576183e-005
-1.3864036e-006
1.5565513e-005
-8.9023532e-007
1.5410287e-005
-5.889546e-007
1.5284045e-005
-4.1984422e-007
1.5173682e-005
-3.3558391e-007
1.5065296e-005
-3.1180451e-007
1.4945042e-005
-3.3672831e-007
1.4797157e-005
-4.094139e-007
1.460197e-005
-5.3607891e-007
1.4334887e-005
-7.3134884e-007
1.3960048e-005
-1.0144612e-006
1.3429635e-005
-1.4178181e-006
1.2672917e-005
-1.9760528e-006
1.1597281e-005
-2.7140087e-006
1.0111673e-005
-3.5833414e-006
8.1610214e-006
-4.4195011e-006
5.8061264e-006
-4.9111698e-006
3.2852496e-006
-4.6575456e-006
1.0332351e-006
-3.3913965e-006
-1.1909275e-006
1.607203e-005
-8.9147099e-006
1.5720652e-005
-6.4127197e-006
1.5076107e-005
-4.1341432e-006
1.4443204e-005
-2.6168236e-006
1.3933472e-005
-1.6439797e-006
1.3561792e-005
-1.0147242e-006
1.3299547e-005
-6.2798998e-007
1.3111152e-005
-4.0056008e-007
1.2967967e-005
-2.7665888e-007
1.2848533e-005
-2.161501e-007
1.2734848e-005
-1.9811954e-007
1.2610932e-005
-2.1281273e-007
1.2459852e-005
-2.5833337e-007
1.2262397e-005
-3.3862393e-007
1.1993011e-005
-4.6196319e-007
1.1619357e-005
-6.4080663e-007
1.109575e-005
-8.9421127e-007
1.0362328e-005
-1.2426313e-006
9.3444705e-006
-1.6961508e-006
7.9807979e-006
-2.2196687e-006
6.2598205e-006
-2.6985237e-006
4.2834084e-006
-2.9347577e-006
2.3030935e-006
-2.6772305e-006
6.9173758e-007
-1.7800406e-006
-4.9918988e-007
1.5252815e-005
-9.1636842e-006
1.3863269e-005
-5.023173e-006
1.264198e-005
-2.912855e-006
1.1707781e-005
-1.6826242e-006
1.1057483e-005
-9.9368223e-007
1.0627659e-005
-5.8490031e-007
1.0347262e-005
-3.475926e-007
1.0159648e-005
-2.1294635e-007
1.0025014e-005
-1.4202498e-007
9.917016e-006
-1.0815176e-007
9.8167416e-006
-9.7845127e-008
9.708575e-006
-1.0464619e-007
9.5774094e-006
-1.2716773e-007
9.4062751e-006
-1.6748964e-007
9.1732864e-006
-2.2897453e-007
8.8510146e-006
-3.1853477e-007
8.4018193e-006
-4.4501595e-007
7.7774697e-006
-6.182817e-007
6.923559e-006
-8.4224005e-007
5.801646e-006
-1.0977556e-006
4.4259945e-006
-1.3228722e-006
2.9029237e-006
-1.4116868e-006
1.4614345e-006
-1.2357413e-006
3.997095e-007
-7.1831555e-007
-9.9480354e-008
1.3153484e-005
-7.3133268e-006
1.0650336e-005
-2.5200253e-006
9.000749e-006
-1.2632682e-006
7.977209e-006
-6.5908414e-007
7.3511431e-006
-3.6761643e-007
6.9720961e-006
-2.0585327e-007
6.7414059e-006
-1.1690244e-007
6.5966989e-006
-6.8239342e-008
6.4980905e-006
-4.3416632e-008
6.4217386e-006
-3.1799931e-008
6.3521082e-006
-2.8214726e-008
6.2774813e-006
-3.001929e-008
6.1869836e-006
-3.6670046e-008
6.0682082e-006
-4.8714262e-008
5.9062065e-006
-6.6972778e-008
5.6813166e-006
-9.364486e-008
5.3675516e-006
-1.3125094e-007
4.9317487e-006
-1.8247876e-007
4.3380495e-006
-2.4854078e-007
3.5633813e-006
-3.2308737e-007
2.6271162e-006
-3.8660702e-007
1.6178367e-006
-4.0240733e-007
7.1464101e-007
-3.3254554e-007
1.4142499e-007
-1.4509948e-007
4.1944665e-008
7.6905141e-006
5.1704889e-006
3.9072206e-006
3.2481365e-006
2.88052e-006
2.6746667e-006
2.5577643e-006
2.4895249e-006
2.4461083e-006
2.4143084e-006
2.3860936e-006
2.3560743e-006
2.3194043e-006
2.27069e-006
2.2037172e-006
2.1100724e-006
1.9788215e-006
1.7963427e-006
1.547802e-006
1.2247146e-006
8.381076e-007
4.3570029e-007
1.0315478e-007
-4.1944664e-008
)
;

boundaryField
{
    inlet
    {
        type            calculated;
        value           nonuniform List<scalar> 
20
(
-5.0012803e-006
-5.0012803e-006
-5.0012803e-006
-5.0012803e-006
-5.0012803e-006
-5.0012803e-006
-5.0012803e-006
-5.0012803e-006
-5.0012803e-006
-5.0012803e-006
-1.5003841e-005
-1.5003841e-005
-1.5003841e-005
-1.5003841e-005
-1.5003841e-005
-1.5003841e-005
-1.5003841e-005
-1.5003841e-005
-1.5003841e-005
-1.5003841e-005
)
;
    }
    walls
    {
        type            calculated;
        value           uniform 0;
    }
    outlet
    {
        type            calculated;
        value           nonuniform List<scalar> 10(2.9888184e-005 2.9280725e-005 2.8065801e-005 2.6245225e-005 2.3825219e-005 2.0817537e-005 1.7237498e-005 1.3099295e-005 8.4118821e-006 3.1798486e-006);
    }
    centreline
    {
        type            symmetryPlane;
        value           uniform 0;
    }
    frontAndBack
    {
        type            empty;
        value           nonuniform 0();
    }
}


// ************************************************************************* //
