/*--------------------------------*- C++ -*----------------------------------*\
| =========                 |                                                 |
| \\      /  F ield         | OpenFOAM: The Open Source CFD Toolbox           |
|  \\    /   O peration     | Version:  5.x                                   |
|   \\  /    A nd           | Web:      www.OpenFOAM.org                      |
|    \\/     M anipulation  |                                                 |
\*---------------------------------------------------------------------------*/
/*   Windows 32 and 64 bit porting by blueCAPE: http://www.bluecape.com.pt   *\
|  Based on Windows porting (2.0.x v4) by Symscape: http://www.symscape.com   |
\*---------------------------------------------------------------------------*/
FoamFile
{
    version     2.0;
    format      ascii;
    class       surfaceScalarField;
    location    "0.22";
    object      phi_0;
}
// * * * * * * * * * * * * * * * * * * * * * * * * * * * * * * * * * * * * * //

dimensions      [0 3 -1 0 0 0 0];

internalField   nonuniform List<scalar> 
1430
(
5.1565108e-006
-1.5523047e-007
5.3526334e-006
-1.9612258e-007
5.5475186e-006
-1.9488522e-007
5.7171639e-006
-1.6964536e-007
5.8600607e-006
-1.4289673e-007
5.9733081e-006
-1.1324743e-007
6.0623899e-006
-8.9081811e-008
6.1326646e-006
-7.0274755e-008
6.1904681e-006
-5.7803513e-008
6.2424502e-006
-5.1982067e-008
6.2949336e-006
-5.2483461e-008
6.3545581e-006
-5.9624494e-008
6.4294318e-006
-7.4873696e-008
6.5303496e-006
-1.0091785e-007
6.6726368e-006
-1.4228722e-007
6.878075e-006
-2.0543819e-007
7.1823387e-006
-3.0426361e-007
7.643306e-006
-4.6096732e-007
8.3468284e-006
-7.0352234e-007
9.4298421e-006
-1.0830137e-006
1.1035487e-005
-1.6056451e-006
1.3418872e-005
-2.3833844e-006
1.6700949e-005
-3.282077e-006
2.093433e-005
-4.233381e-006
-4.834537e-006
2.5768867e-005
5.1554374e-006
-3.0938759e-007
5.3555455e-006
-3.9623064e-007
5.5487879e-006
-3.8812767e-007
5.7195626e-006
-3.4042005e-007
5.8618776e-006
-2.8521174e-007
5.9749951e-006
-2.2636496e-007
6.0636547e-006
-1.7774136e-007
6.1335033e-006
-1.4012341e-007
6.1909264e-006
-1.1522659e-007
6.2425233e-006
-1.0357902e-007
6.2945605e-006
-1.045207e-007
6.3536447e-006
-1.1870872e-007
6.4278169e-006
-1.4904587e-007
6.5277111e-006
-2.0081204e-007
6.6685399e-006
-2.8311606e-007
6.8717666e-006
-4.0866482e-007
7.1723537e-006
-6.0485072e-007
7.627289e-006
-9.1590255e-007
8.3213607e-006
-1.3975941e-006
9.3845914e-006
-2.1462444e-006
1.0970605e-005
-3.1916583e-006
1.3291757e-005
-4.7045364e-006
1.6542191e-005
-6.5325115e-006
2.0652642e-005
-8.3438324e-006
-9.6831664e-006
2.5501272e-005
5.1568739e-006
-4.6498118e-007
5.35827e-006
-5.9762676e-007
5.5527786e-006
-5.8263627e-007
5.7237978e-006
-5.1143929e-007
5.8658478e-006
-4.2726173e-007
5.9783406e-006
-3.3885778e-007
6.0662247e-006
-2.656255e-007
6.1352615e-006
-2.0916024e-007
6.191928e-006
-1.7189306e-007
6.2427596e-006
-1.5441063e-007
6.2939253e-006
-1.5568651e-007
6.3519215e-006
-1.7670493e-007
6.4246704e-006
-2.2179477e-007
6.5226108e-006
-2.9875244e-007
6.6605144e-006
-4.2101965e-007
6.8592564e-006
-6.0740676e-007
7.1526992e-006
-8.9829345e-007
7.5957204e-006
-1.3589238e-006
8.2697206e-006
-2.0715942e-006
9.2997692e-006
-3.1762929e-006
1.0830547e-005
-4.7224364e-006
1.3069332e-005
-6.9433212e-006
1.6189125e-005
-9.6523045e-006
2.0161539e-005
-1.2316246e-005
-1.4379085e-005
2.4857458e-005
5.1590621e-006
-6.2276297e-007
5.3626174e-006
-8.0118206e-007
5.5589062e-006
-7.789251e-007
5.730338e-006
-6.8287107e-007
5.8719918e-006
-5.6891554e-007
5.9835129e-006
-4.5037892e-007
6.0701885e-006
-3.5230114e-007
6.1380441e-006
-2.7701584e-007
6.1935864e-006
-2.2743544e-007
6.2432575e-006
-2.0408175e-007
6.2931169e-006
-2.0554588e-007
6.3495049e-006
-2.3309301e-007
6.420138e-006
-2.9242787e-007
6.5151593e-006
-3.9377371e-007
6.6487344e-006
-5.5459471e-007
6.8408443e-006
-7.9951672e-007
7.1237126e-006
-1.1811617e-006
7.5492693e-006
-1.7844805e-006
8.1938272e-006
-2.7161521e-006
9.1744956e-006
-4.1569612e-006
1.0624643e-005
-6.172584e-006
1.2739537e-005
-9.0582154e-006
1.5663671e-005
-1.2576438e-005
1.9420311e-005
-1.6072886e-005
-1.8824263e-005
2.3865489e-005
5.1621945e-006
-7.836772e-007
5.3687113e-006
-1.0076988e-006
5.5673715e-006
-9.7758534e-007
5.7393307e-006
-8.5483032e-007
5.8804374e-006
-7.1002222e-007
5.990625e-006
-5.6056655e-007
6.0756631e-006
-4.3733922e-007
6.1419604e-006
-3.4331323e-007
6.1960071e-006
-2.8148207e-007
6.2441191e-006
-2.5219385e-007
6.2922496e-006
-2.5367637e-007
6.3465319e-006
-2.8737537e-007
6.4143775e-006
-3.6027347e-007
6.505557e-006
-4.8495318e-007
6.6334696e-006
-6.8250732e-007
6.8169231e-006
-9.8297023e-007
7.0860204e-006
-1.4502589e-006
7.4889477e-006
-2.1874077e-006
8.0951341e-006
-3.3223385e-006
9.0117785e-006
-5.0736056e-006
1.0355516e-005
-7.516321e-006
1.2305456e-005
-1.1008155e-005
1.4974326e-005
-1.5245308e-005
1.8439174e-005
-1.9537735e-005
-2.2900031e-005
2.2514942e-005
5.1664607e-006
-9.4885756e-007
5.3767417e-006
-1.2179798e-006
5.5783846e-006
-1.1792282e-006
5.7509538e-006
-1.0273996e-006
5.8913147e-006
-8.5038312e-007
5.999788e-006
-6.6903985e-007
6.0827643e-006
-5.2031553e-007
6.1471163e-006
-4.0766524e-007
6.1992918e-006
-3.3365763e-007
6.2454449e-006
-2.9834695e-007
6.2914296e-006
-2.9966112e-007
6.3431387e-006
-3.3908447e-007
6.407557e-006
-4.2469178e-007
6.4940118e-006
-5.7140804e-007
6.6149862e-006
-8.0348166e-007
6.7878635e-006
-1.1558475e-006
7.040184e-006
-1.7025794e-006
7.4157328e-006
-2.5629565e-006
7.9756608e-006
-3.8822664e-006
8.8146e-006
-5.9125448e-006
1.0027145e-005
-8.7288661e-006
1.1774358e-005
-1.2755368e-005
1.412167e-005
-1.7592621e-005
1.720647e-005
-2.2622534e-005
-2.6517434e-005
2.0823873e-005
5.1720703e-006
-1.1196475e-006
5.3869109e-006
-1.4328205e-006
5.5921284e-006
-1.3844457e-006
5.7653533e-006
-1.2006245e-006
5.9047145e-006
-9.8974434e-007
6.0110695e-006
-7.7539485e-007
6.0915647e-006
-6.0081074e-007
6.1535605e-006
-4.6966103e-007
6.2034873e-006
-3.8358449e-007
6.2472809e-006
-3.421405e-007
6.2907157e-006
-3.4309601e-007
6.3394145e-006
-3.8778321e-007
6.3998041e-006
-4.850814e-007
6.4807078e-006
-6.523118e-007
6.5935393e-006
-9.1631309e-007
6.7540699e-006
-1.3163782e-006
6.9869098e-006
-1.9354192e-006
7.3308515e-006
-2.9068983e-006
7.8376398e-006
-4.3890546e-006
8.5863087e-006
-6.6612137e-006
9.6453157e-006
-9.7878731e-006
1.1151788e-005
-1.4261841e-005
1.3100025e-005
-1.9540858e-005
1.5746781e-005
-2.526929e-005
-2.9513786e-005
1.8743133e-005
5.1792694e-006
-1.2976366e-006
5.3993682e-006
-1.6529192e-006
5.6087139e-006
-1.5937915e-006
5.782579e-006
-1.3744896e-006
5.9206076e-006
-1.127773e-006
6.0244233e-006
-8.7921057e-007
6.1020247e-006
-6.7841208e-007
6.1612414e-006
-5.2887782e-007
6.2085373e-006
-4.308804e-007
6.2495806e-006
-3.831838e-007
6.2900615e-006
-3.8357696e-007
6.3353519e-006
-4.3307356e-007
6.3911856e-006
-5.4091515e-007
6.4657632e-006
-7.2688938e-007
6.5693387e-006
-1.0198886e-006
6.7159473e-006
-1.4629867e-006
6.9269555e-006
-2.1464274e-006
7.235593e-006
-3.2155357e-006
7.6833356e-006
-4.8367972e-006
8.3311802e-006
-7.3090583e-006
9.2170333e-006
-1.0673726e-005
1.0447895e-005
-1.5492703e-005
1.1955386e-005
-2.1048348e-005
1.4116781e-005
-2.7430686e-005
-3.154731e-005
1.6150305e-005
5.1883787e-006
-1.4847349e-006
5.4141503e-006
-1.8786909e-006
5.6281807e-006
-1.8078219e-006
5.8025432e-006
-1.5488521e-006
5.938812e-006
-1.2640419e-006
6.0396599e-006
-9.8005842e-007
6.1139432e-006
-7.5269539e-007
6.1699646e-006
-5.8489925e-007
6.2142288e-006
-4.7514465e-007
6.2521424e-006
-4.2109739e-007
6.2893042e-006
-4.2073881e-007
6.3308078e-006
-4.7457711e-007
6.3816263e-006
-5.9173367e-007
6.4491988e-006
-7.9446191e-007
6.5425345e-006
-1.1132243e-006
6.6738333e-006
-1.5942855e-006
6.8611116e-006
-2.3337057e-006
7.131446e-006
-3.4858701e-006
7.515042e-006
-5.2203932e-006
8.0549123e-006
-7.8489285e-006
8.7528373e-006
-1.1371651e-005
9.6838054e-006
-1.6423671e-005
1.0708212e-005
-2.2072755e-005
1.2332093e-005
-2.9054567e-005
-3.2226101e-005
1.3010884e-005
5.1983886e-006
-1.6818432e-006
5.4322424e-006
-2.1125447e-006
5.6501721e-006
-2.0257516e-006
5.8250915e-006
-1.7237715e-006
5.9589045e-006
-1.3978548e-006
6.056371e-006
-1.0775249e-006
6.1269387e-006
-8.2326315e-007
6.1793424e-006
-6.3730291e-007
6.22014e-006
-5.1594226e-007
6.2546251e-006
-4.5558246e-007
6.2881095e-006
-4.542233e-007
6.3254173e-006
-5.1188487e-007
6.3708663e-006
-6.371827e-007
6.4308658e-006
-8.5446141e-007
6.5130981e-006
-1.1954566e-006
6.6278837e-006
-1.7090711e-006
6.7898889e-006
-2.4957108e-006
7.0195291e-006
-3.7155103e-006
7.3359307e-006
-5.5367947e-006
7.7627668e-006
-8.2757647e-006
8.2736195e-006
-1.1882504e-005
8.8682623e-006
-1.7018314e-005
9.3540281e-006
-2.255852e-005
1.0123175e-005
-2.9823714e-005
8.8149903e-006
-3.0917917e-005
2.8476645e-005
-2.7077785e-006
2.9495201e-005
-1.0185563e-006
2.9757678e-005
-2.624764e-007
2.9837518e-005
-7.9840133e-008
2.9872434e-005
-3.4915735e-008
2.9886475e-005
-1.4041295e-008
2.9892142e-005
-5.6666316e-009
2.989178e-005
3.6178691e-010
2.988951e-005
2.2701588e-009
2.988777e-005
1.7397027e-009
2.9887267e-005
5.0324296e-010
2.9887381e-005
-1.1397855e-010
2.9887538e-005
-1.5767127e-010
2.9887581e-005
-4.2235101e-011
2.9887566e-005
1.4820309e-011
2.9887549e-005
1.6797781e-011
2.9887544e-005
5.2022923e-012
2.9887545e-005
-7.6363113e-013
2.9887546e-005
-1.1181504e-012
2.9887546e-005
-2.7528703e-013
2.9887546e-005
2.3837583e-014
2.9887546e-005
-6.213349e-014
2.9887546e-005
6.7775445e-015
2.9887545e-005
1.3184133e-012
1.4238354e-012
2.7982749e-005
-5.1892562e-006
2.8948668e-005
-1.9844751e-006
2.9172703e-005
-4.8651075e-007
2.9245744e-005
-1.5288114e-007
2.9269159e-005
-5.8330848e-008
2.9281001e-005
-2.588326e-008
2.9284929e-005
-9.5945144e-009
2.9284206e-005
1.0849968e-009
2.9281858e-005
4.617392e-009
2.9280318e-005
3.2799921e-009
2.9279919e-005
9.0243398e-010
2.9280052e-005
-2.4758822e-010
2.9280196e-005
-3.0073307e-010
2.928023e-005
-7.6986622e-011
2.9280215e-005
3.0011881e-011
2.92802e-005
3.158424e-011
2.9280196e-005
9.2335358e-012
2.9280197e-005
-1.637812e-012
2.9280198e-005
-2.1053477e-012
2.9280198e-005
-5.0581953e-013
2.9280198e-005
2.7747281e-014
2.9280198e-005
-1.3029852e-013
2.9280198e-005
7.4624172e-014
2.9280197e-005
2.7093594e-012
2.9844263e-012
2.7036059e-005
-7.3678574e-006
2.7836746e-005
-2.7851627e-006
2.8013116e-005
-6.6288044e-007
2.8046944e-005
-1.8670913e-007
2.8057653e-005
-6.903949e-008
2.806785e-005
-3.6080593e-008
2.8070261e-005
-1.2005408e-008
2.8068741e-005
2.6047146e-009
2.8066553e-005
6.8053747e-009
2.8065408e-005
4.4254748e-009
2.8065216e-005
1.0938976e-009
2.806537e-005
-4.008793e-010
2.8065482e-005
-4.1286032e-010
2.8065502e-005
-9.7465017e-011
2.8065488e-005
4.4460862e-011
2.8065477e-005
4.2439082e-011
2.8065475e-005
1.1295817e-011
2.8065476e-005
-2.6293803e-012
2.8065477e-005
-2.827946e-012
2.8065477e-005
-6.3633586e-013
2.8065477e-005
4.5984929e-014
2.8065477e-005
-1.6962182e-013
2.8065477e-005
2.1096899e-013
2.8065475e-005
4.1366771e-012
4.476563e-012
2.5616574e-005
-9.1189426e-006
2.617146e-005
-3.3400493e-006
2.6244648e-005
-7.3606807e-007
2.6241588e-005
-1.8364886e-007
2.6244003e-005
-7.1455142e-008
2.6249822e-005
-4.18992e-008
2.6249243e-005
-1.1426708e-008
2.6247058e-005
4.7904487e-009
2.6245431e-005
8.4322578e-009
2.6244907e-005
4.949684e-009
2.6244964e-005
1.0369587e-009
2.6245107e-005
-5.4418382e-010
2.6245167e-005
-4.7264146e-010
2.6245168e-005
-9.8584004e-011
2.6245156e-005
5.6264073e-011
2.6245151e-005
4.7557128e-011
2.6245151e-005
1.1073392e-011
2.6245152e-005
-3.5741194e-012
2.6245152e-005
-3.1557931e-012
2.6245152e-005
-6.3994015e-013
2.6245152e-005
6.4370621e-014
2.6245152e-005
-1.9457447e-013
2.6245152e-005
3.7191105e-013
2.6245151e-005
5.3557034e-012
5.649153e-012
2.3703832e-005
-1.0307832e-005
2.3907614e-005
-3.5438311e-006
2.3854584e-005
-6.8303875e-007
2.3839669e-005
-1.6873344e-007
2.3834038e-005
-6.5823952e-008
2.3831042e-005
-3.8903821e-008
2.3827374e-005
-7.7582434e-009
2.3825374e-005
6.7902708e-009
2.382483e-005
8.9766323e-009
2.3825075e-005
4.7040213e-009
2.3825336e-005
7.7631973e-010
2.3825419e-005
-6.272256e-010
2.382541e-005
-4.6306547e-010
2.3825391e-005
-7.986797e-011
2.3825385e-005
6.2199649e-011
2.3825387e-005
4.5720233e-011
2.3825389e-005
8.8415934e-012
2.382539e-005
-4.1709273e-012
2.3825389e-005
-3.0163893e-012
2.3825389e-005
-5.2862877e-013
2.3825389e-005
4.6567572e-014
2.3825389e-005
-2.0202226e-013
2.3825389e-005
5.2134046e-013
2.3825389e-005
6.0123078e-012
6.1937917e-012
2.1239563e-005
-1.0723521e-005
2.1006299e-005
-3.3105677e-006
2.0870853e-005
-5.4759226e-007
2.0846563e-005
-1.4444355e-007
2.0830972e-005
-5.023321e-008
2.0821205e-005
-2.9136773e-008
2.0816549e-005
-3.1020163e-009
2.0815832e-005
7.5069781e-009
2.0816706e-005
8.1033413e-009
2.0817657e-005
3.7528742e-009
2.0818003e-005
4.2962118e-010
2.0817981e-005
-6.048664e-010
2.0817902e-005
-3.8362982e-010
2.0817871e-005
-4.8982806e-011
2.0817874e-005
5.9005793e-011
2.0817882e-005
3.7354028e-011
2.0817886e-005
5.5215968e-012
2.0817886e-005
-4.1074594e-012
2.0817885e-005
-2.4494829e-012
2.0817885e-005
-3.4735494e-013
2.0817885e-005
5.3415356e-015
2.0817885e-005
-1.8319803e-013
2.0817885e-005
6.1204873e-013
2.0817885e-005
5.7837548e-012
5.8531338e-012
1.8124909e-005
-1.0105298e-005
1.7478327e-005
-2.6639857e-006
1.7310436e-005
-3.7970147e-007
1.7271763e-005
-1.0576987e-007
1.7249092e-005
-2.7562459e-008
1.7236891e-005
-1.6935375e-008
1.7233313e-005
4.7520264e-010
1.7234401e-005
6.4197845e-009
1.7236547e-005
5.9566497e-009
1.7237883e-005
2.4167032e-009
1.7238175e-005
1.3838814e-010
1.7238039e-005
-4.6940422e-010
1.7237913e-005
-2.5781101e-010
1.7237883e-005
-1.899711e-011
1.7237897e-005
4.5879123e-011
1.7237909e-005
2.4903421e-011
1.7237912e-005
2.3648952e-012
1.7237911e-005
-3.2827217e-012
1.7237911e-005
-1.6268454e-012
1.723791e-005
-1.6072475e-013
1.723791e-005
-2.4930679e-014
1.723791e-005
-1.4038599e-013
1.723791e-005
5.6774278e-013
1.7237912e-005
4.58086e-012
4.5956845e-012
1.4261741e-005
-8.2167336e-006
1.3344311e-005
-1.7465555e-006
1.3172775e-005
-2.0816602e-007
1.3124591e-005
-5.758587e-008
1.3104635e-005
-7.6056992e-009
1.3094586e-005
-6.8864298e-009
1.3093297e-005
1.7637203e-009
1.3095809e-005
3.9081021e-009
1.3098534e-005
3.231026e-009
1.3099814e-005
1.136768e-009
1.3099964e-005
-1.1279747e-011
1.3099761e-005
-2.6673755e-010
1.309963e-005
-1.2672889e-010
1.3099612e-005
-9.0110186e-013
1.3099632e-005
2.6357537e-011
1.3099644e-005
1.2198823e-011
1.3099646e-005
3.8158774e-013
1.3099645e-005
-1.9317792e-012
1.3099644e-005
-8.0086219e-013
1.3099644e-005
-4.2572708e-014
1.3099644e-005
-3.6158966e-014
1.3099644e-005
-8.1380874e-014
1.3099644e-005
3.737676e-013
1.3099646e-005
2.7015002e-012
2.7260622e-012
9.6298061e-006
-4.8356552e-006
8.6084179e-006
-7.2516732e-007
8.4593249e-006
-5.9073013e-008
8.420325e-006
-1.8585854e-008
8.4110247e-006
1.6945537e-009
8.4058298e-006
-1.6914704e-009
8.4065034e-006
1.0900539e-009
8.40919e-006
1.2215067e-009
8.4114674e-006
9.5361652e-010
8.4123304e-006
2.7384105e-010
8.4123451e-006
-2.6030384e-011
8.4121594e-006
-8.0988182e-011
8.412065e-006
-3.236946e-011
8.4120613e-006
2.8524334e-012
8.4120795e-006
8.1760991e-012
8.4120886e-006
3.1169588e-012
8.4120892e-006
-1.888804e-013
8.4120879e-006
-6.1567938e-013
8.4120872e-006
-2.0837133e-013
8.4120872e-006
-1.2083729e-015
8.4120872e-006
-3.0378835e-014
8.4120871e-006
-4.1388318e-014
8.4120874e-006
1.1125681e-013
8.4120892e-006
8.6906624e-013
9.1078527e-013
3.9793351e-006
3.2541678e-006
3.1950948e-006
3.1765089e-006
3.1782035e-006
3.176512e-006
3.1776021e-006
3.1788236e-006
3.1797772e-006
3.1800511e-006
3.180025e-006
3.1799441e-006
3.1799117e-006
3.1799145e-006
3.1799227e-006
3.1799258e-006
3.1799257e-006
3.179925e-006
3.1799248e-006
3.1799248e-006
3.1799248e-006
3.1799247e-006
3.1799248e-006
3.1799257e-006
1.5642733e-005
-2.3207355e-006
1.6437431e-005
-2.9072429e-006
1.7096373e-005
-2.6846932e-006
1.7622215e-005
-2.2496134e-006
1.8005133e-005
-1.7807729e-006
1.827419e-005
-1.3465823e-006
1.846068e-005
-1.0097528e-006
1.8593466e-005
-7.7008893e-007
1.8692591e-005
-6.15067e-007
1.8774075e-005
-5.3706653e-007
1.8850774e-005
-5.3092271e-007
1.8934745e-005
-5.9585539e-007
1.9036792e-005
-7.3923026e-007
1.9167872e-005
-9.8554101e-007
1.9344214e-005
-1.3717991e-006
1.9585397e-005
-1.9502541e-006
1.9910425e-005
-2.8207381e-006
2.0345921e-005
-4.1510066e-006
2.0898176e-005
-6.0890502e-006
2.1499298e-005
-8.8768862e-006
2.2030749e-005
-1.2413955e-005
2.1816475e-005
-1.6804039e-005
2.0097982e-005
-2.0840028e-005
1.4759285e-005
-2.4485017e-005
-1.6158632e-005
1.5791579e-005
-3.1084739e-006
1.6673036e-005
-3.7886998e-006
1.7358978e-005
-3.3706347e-006
1.7857603e-005
-2.7482391e-006
1.8193676e-005
-2.1168457e-006
1.8410193e-005
-1.5630986e-006
1.854395e-005
-1.1435098e-006
1.8628325e-005
-8.5446399e-007
1.868467e-005
-6.7141272e-007
1.8726356e-005
-5.7875218e-007
1.8761974e-005
-5.6654099e-007
1.8797262e-005
-6.3114346e-007
1.8838294e-005
-7.8026248e-007
1.8887905e-005
-1.0351512e-006
1.8948756e-005
-1.4326502e-006
1.9023096e-005
-2.0245941e-006
1.9100625e-005
-2.8982671e-006
1.9160204e-005
-4.2105855e-006
1.9147406e-005
-6.076252e-006
1.8921647e-005
-8.6511275e-006
1.8262325e-005
-1.1754633e-005
1.6555394e-005
-1.5097108e-005
1.3227278e-005
-1.7511912e-005
6.8873133e-006
-1.8145052e-005
-9.2713186e-006
1.5974108e-005
-4.0787407e-006
1.6918426e-005
-4.7330178e-006
1.7581478e-005
-4.0336868e-006
1.8010594e-005
-3.1773552e-006
1.8265596e-005
-2.371848e-006
1.8404555e-005
-1.702057e-006
1.8470354e-005
-1.2093091e-006
1.8497096e-005
-8.8120621e-007
1.850492e-005
-6.7923644e-007
1.8502637e-005
-5.7646966e-007
1.8493841e-005
-5.5774504e-007
1.8479062e-005
-6.163647e-007
1.8457362e-005
-7.5856202e-007
1.8424384e-005
-1.0021731e-006
1.8370569e-005
-1.3788355e-006
1.828426e-005
-1.9382849e-006
1.813486e-005
-2.7488667e-006
1.7866937e-005
-3.9426625e-006
1.73961e-005
-5.6054155e-006
1.6536657e-005
-7.7916843e-006
1.5066518e-005
-1.0284495e-005
1.2567318e-005
-1.2597908e-005
8.7965087e-006
-1.3741102e-005
3.4520286e-006
-1.2800572e-005
-5.8192899e-006
1.6161224e-005
-5.2361242e-006
1.7086016e-005
-5.6578096e-006
1.7634181e-005
-4.5818512e-006
1.7921681e-005
-3.4648555e-006
1.8046844e-005
-2.4970111e-006
1.8078428e-005
-1.7336406e-006
1.8062443e-005
-1.1933247e-006
1.802567e-005
-8.4443295e-007
1.7982666e-005
-6.3623226e-007
1.7936348e-005
-5.3015239e-007
1.7884992e-005
-5.0638842e-007
1.7823821e-005
-5.5519444e-007
1.7745136e-005
-6.7987678e-007
1.7638073e-005
-8.951102e-007
1.7484575e-005
-1.2253373e-006
1.7260051e-005
-1.7137605e-006
1.6925351e-005
-2.4141667e-006
1.6402785e-005
-3.4200967e-006
1.5596107e-005
-4.7987372e-006
1.4335186e-005
-6.5307638e-006
1.2447711e-005
-8.3970199e-006
9.7410449e-006
-9.8912412e-006
6.23504e-006
-1.0235097e-005
2.1343954e-006
-8.6999276e-006
-3.6848945e-006
1.6302381e-005
-6.5346638e-006
1.7053356e-005
-6.4087847e-006
1.735307e-005
-4.8815657e-006
1.7405881e-005
-3.5176666e-006
1.734691e-005
-2.4380402e-006
1.7245335e-005
-1.6320651e-006
1.7137973e-005
-1.0859629e-006
1.7037402e-005
-7.4386234e-007
1.6947122e-005
-5.4595136e-007
1.6862889e-005
-4.4591957e-007
1.6776718e-005
-4.2021753e-007
1.6678566e-005
-4.5704265e-007
1.655607e-005
-5.5738078e-007
1.6392321e-005
-7.3136123e-007
1.6165518e-005
-9.9853423e-007
1.5841134e-005
-1.3893767e-006
1.5375205e-005
-1.948237e-006
1.4687808e-005
-2.7327005e-006
1.3678698e-005
-3.7896273e-006
1.2217264e-005
-5.0693297e-006
1.0191579e-005
-6.3713345e-006
7.5684387e-006
-7.2681008e-006
4.5141775e-006
-7.1808356e-006
1.4596708e-006
-5.6454208e-006
-2.2252237e-006
1.6314134e-005
-7.8449574e-006
1.6668341e-005
-6.7629913e-006
1.6564501e-005
-4.777726e-006
1.629567e-005
-3.2488353e-006
1.601055e-005
-2.1529198e-006
1.576425e-005
-1.3857657e-006
1.5568086e-005
-8.8979897e-007
1.5412947e-005
-5.8872343e-007
1.5286754e-005
-4.197578e-007
1.5176415e-005
-3.3558118e-007
1.506804e-005
-3.1184233e-007
1.4947784e-005
-3.3678695e-007
1.4799891e-005
-4.0948757e-007
1.4604695e-005
-5.3616477e-007
1.4337599e-005
-7.3143865e-007
1.3962758e-005
-1.0145354e-006
1.3432366e-005
-1.4178452e-006
1.2675693e-005
-1.9760273e-006
1.1600088e-005
-2.7140221e-006
1.0114382e-005
-3.5836246e-006
8.1633833e-006
-4.4203353e-006
5.8078906e-006
-4.912608e-006
3.2862961e-006
-4.6592411e-006
1.0336276e-006
-3.3927523e-006
-1.191596e-006
1.6072632e-005
-8.9137487e-006
1.5721691e-005
-6.41205e-006
1.5077521e-005
-4.1335559e-006
1.4444986e-005
-2.6163004e-006
1.3935584e-005
-1.6435183e-006
1.3564159e-005
-1.0143405e-006
1.330208e-005
-6.277201e-007
1.3113776e-005
-4.0041923e-007
1.2970632e-005
-2.7661396e-007
1.2851211e-005
-2.1616032e-007
1.2737524e-005
-1.9815498e-007
1.2613596e-005
-2.1285937e-007
1.2462497e-005
-2.5838798e-007
1.2265018e-005
-3.386864e-007
1.1995607e-005
-4.6202712e-007
1.1621931e-005
-6.4085993e-007
1.1098322e-005
-8.9423597e-007
1.0364915e-005
-1.2426204e-006
9.3470555e-006
-1.6961622e-006
7.9832666e-006
-2.2198357e-006
6.2619415e-006
-2.6990101e-006
4.2849513e-006
-2.9356178e-006
2.3039642e-006
-2.6782539e-006
6.920366e-007
-1.7808246e-006
-4.9955936e-007
1.5253327e-005
-9.1632346e-006
1.3864106e-005
-5.0228288e-006
1.2643115e-005
-2.9125652e-006
1.1709203e-005
-1.6823883e-006
1.1059165e-005
-9.9348067e-007
1.0629552e-005
-5.8472725e-007
1.0349299e-005
-3.4746732e-007
1.0161763e-005
-2.1288304e-007
1.0027159e-005
-1.4200966e-007
9.9191623e-006
-1.0816399e-007
9.8188764e-006
-9.7869147e-008
9.7106916e-006
-1.0467454e-007
9.5795028e-006
-1.2719916e-007
9.408341e-006
-1.6752461e-007
9.1753235e-006
-2.2900966e-007
8.8530271e-006
-3.1856351e-007
8.4038204e-006
-4.4502928e-007
7.7794748e-006
-6.1827467e-007
6.925552e-006
-8.4223945e-007
5.80354e-006
-1.0978236e-006
4.4276189e-006
-1.3230889e-006
2.9040883e-006
-1.4120872e-006
1.4620681e-006
-1.2362336e-006
3.9991739e-007
-7.1867388e-007
-9.9641946e-008
1.3153816e-005
-7.3132097e-006
1.0650899e-005
-2.5199116e-006
9.0015157e-006
-1.2631821e-006
7.9781547e-006
-6.5902736e-007
7.3522436e-006
-3.6756958e-007
6.973329e-006
-2.0581261e-007
6.7427342e-006
-1.1687256e-007
6.5980768e-006
-6.8225726e-008
6.4994832e-006
-4.3416005e-008
6.4231261e-006
-3.1806916e-008
6.3534817e-006
-2.8224798e-008
6.2788372e-006
-3.0030103e-008
6.1883196e-006
-3.6681496e-008
6.0695216e-006
-4.8726684e-008
5.9074969e-006
-6.6984887e-008
5.6825882e-006
-9.3654834e-008
5.3688142e-006
-1.3125528e-007
4.933015e-006
-1.8247543e-007
4.3393116e-006
-2.4853603e-007
3.5645863e-006
-3.2309823e-007
2.628158e-006
-3.8666066e-007
1.6185834e-006
-4.0251254e-007
7.1503532e-007
-3.3268544e-007
1.4154882e-007
-1.4518733e-007
4.1906906e-008
7.6906312e-006
5.1707196e-006
3.9075375e-006
3.2485101e-006
2.8809405e-006
2.6751279e-006
2.5582553e-006
2.4900296e-006
2.4466136e-006
2.4148067e-006
2.3865818e-006
2.3565517e-006
2.3198702e-006
2.2711436e-006
2.2041587e-006
2.1105039e-006
1.9792486e-006
1.7967732e-006
1.5482372e-006
1.225139e-006
8.3847833e-007
4.3596582e-007
1.032804e-007
-4.1906905e-008
)
;

boundaryField
{
    inlet
    {
        type            calculated;
        value           nonuniform List<scalar> 
20
(
-5.0012803e-006
-5.0012803e-006
-5.0012803e-006
-5.0012803e-006
-5.0012803e-006
-5.0012803e-006
-5.0012803e-006
-5.0012803e-006
-5.0012803e-006
-5.0012803e-006
-1.5003841e-005
-1.5003841e-005
-1.5003841e-005
-1.5003841e-005
-1.5003841e-005
-1.5003841e-005
-1.5003841e-005
-1.5003841e-005
-1.5003841e-005
-1.5003841e-005
)
;
    }
    walls
    {
        type            calculated;
        value           uniform 0;
    }
    outlet
    {
        type            calculated;
        value           nonuniform List<scalar> 10(2.9887543e-005 2.9280195e-005 2.8065474e-005 2.624515e-005 2.3825388e-005 2.0817885e-005 1.7237913e-005 1.3099648e-005 8.412091e-006 3.1799266e-006);
    }
    centreline
    {
        type            symmetryPlane;
        value           uniform 0;
    }
    frontAndBack
    {
        type            empty;
        value           nonuniform 0();
    }
}


// ************************************************************************* //
