/*--------------------------------*- C++ -*----------------------------------*\
| =========                 |                                                 |
| \\      /  F ield         | OpenFOAM: The Open Source CFD Toolbox           |
|  \\    /   O peration     | Version:  5.x                                   |
|   \\  /    A nd           | Web:      www.OpenFOAM.org                      |
|    \\/     M anipulation  |                                                 |
\*---------------------------------------------------------------------------*/
/*   Windows 32 and 64 bit porting by blueCAPE: http://www.bluecape.com.pt   *\
|  Based on Windows porting (2.0.x v4) by Symscape: http://www.symscape.com   |
\*---------------------------------------------------------------------------*/
FoamFile
{
    version     2.0;
    format      ascii;
    class       volSymmTensorField;
    location    "0.22";
    object      sigma_0;
}
// * * * * * * * * * * * * * * * * * * * * * * * * * * * * * * * * * * * * * //

dimensions      [0 2 -2 0 0 0 0];

internalField   nonuniform List<symmTensor> 
750
(
(-0.00039779214 2.6643866e-005 0 0.00038655728 0 0)
(-0.00052039903 3.2585333e-006 0 0.00052561169 0 0)
(-0.00054565499 -5.6182636e-006 0 0.00053011083 0 0)
(-0.00047089172 -9.5742278e-006 0 0.00046840137 0 0)
(-0.00039586719 -9.7805551e-006 0 0.00039037474 0 0)
(-0.00032037537 -9.0900844e-006 0 0.00031802206 0 0)
(-0.00024975482 -7.1663667e-006 0 0.00024785779 0 0)
(-0.00020125219 -5.2145809e-006 0 0.00020023857 0 0)
(-0.00016674676 -2.9741874e-006 0 0.00016600714 0 0)
(-0.00015149681 -7.1955406e-007 0 0.00015088288 0 0)
(-0.00015318094 1.3042406e-006 0 0.00015247619 0 0)
(-0.00017542203 4.091349e-006 0 0.00017459758 0 0)
(-0.00021988495 7.5298637e-006 0 0.00021865456 0 0)
(-0.00029157835 1.1943262e-005 0 0.00028905074 0 0)
(-0.00041181414 1.8619123e-005 0 0.00040715336 0 0)
(-0.00059231296 2.8693409e-005 0 0.00058297344 0 0)
(-0.00086705629 4.4217193e-005 0 0.00084624727 0 0)
(-0.0013093104 6.9413207e-005 0 0.0012633778 0 0)
(-0.0020139694 0.00011237413 0 0.0019120044 0 0)
(-0.0031240673 0.00017408119 0 0.0028653699 0 0)
(-0.0048216161 0.00027543902 0 0.0042882528 0 0)
(-0.0073272324 0.00041034763 0 0.0060212055 0 0)
(-0.010612809 0.00056314112 0 0.0083124329 0 0)
(-0.014428692 0.00080738337 0 0.010105599 0 0)
(-0.017788293 0.00058420163 0 0.011904322 0 0)
(-0.00040000959 8.0362359e-005 0 0.00038595285 0 0)
(-0.0005213738 9.8909291e-006 0 0.00053135345 0 0)
(-0.00054730293 -1.7396403e-005 0 0.00052892354 0 0)
(-0.00047100177 -2.8580323e-005 0 0.00046972613 0 0)
(-0.00039622557 -2.9581322e-005 0 0.00039003421 0 0)
(-0.00031900959 -2.7266357e-005 0 0.00031689165 0 0)
(-0.00024836183 -2.1389073e-005 0 0.00024645347 0 0)
(-0.00020076653 -1.55844e-005 0 0.00019951129 0 0)
(-0.00016576848 -8.9225515e-006 0 0.00016494186 0 0)
(-0.00015040579 -2.1099119e-006 0 0.00014971851 0 0)
(-0.00015190074 3.9274484e-006 0 0.00015110856 0 0)
(-0.0001739019 1.2295791e-005 0 0.0001729762 0 0)
(-0.00021791997 2.2524762e-005 0 0.00021656184 0 0)
(-0.00028861071 3.567085e-005 0 0.00028584674 0 0)
(-0.00040779649 5.5626488e-005 0 0.00040282759 0 0)
(-0.00058618428 8.5476333e-005 0 0.00057638146 0 0)
(-0.00085687246 0.00013137565 0 0.00083515778 0 0)
(-0.001292893 0.00020606474 0 0.0012456142 0 0)
(-0.0019871889 0.00033217876 0 0.0018834946 0 0)
(-0.0030727398 0.00050426424 0 0.0028097677 0 0)
(-0.0047516172 0.00082642832 0 0.0042198777 0 0)
(-0.0071787729 0.0011671886 0 0.0058606663 0 0)
(-0.010462086 0.0016809986 0 0.0081966751 0 0)
(-0.014223039 0.0024965564 0 0.0097835508 0 0)
(-0.01740235 0.0018017196 0 0.011777558 0 0)
(-0.0004033463 0.00013463073 0 0.00038774461 0 0)
(-0.0005244957 1.6025133e-005 0 0.00053620116 0 0)
(-0.00055032895 -2.9979003e-005 0 0.00053067026 0 0)
(-0.00047193079 -4.7816128e-005 0 0.00047095689 0 0)
(-0.0003956144 -4.9957336e-005 0 0.00038928682 0 0)
(-0.00031745178 -4.5974477e-005 0 0.00031537408 0 0)
(-0.0002463024 -3.5867111e-005 0 0.00024443132 0 0)
(-0.00019873855 -2.6193867e-005 0 0.0001975609 0 0)
(-0.00016364033 -1.5205898e-005 0 0.00016288231 0 0)
(-0.00014822341 -3.8872843e-006 0 0.0001476115 0 0)
(-0.00014942625 6.2225315e-006 0 0.00014871322 0 0)
(-0.00017087122 2.0108606e-005 0 0.00017004216 0 0)
(-0.00021401543 3.6995604e-005 0 0.00021278137 0 0)
(-0.00028291004 5.8694032e-005 0 0.00028029789 0 0)
(-0.0003996716 9.1778344e-005 0 0.00039493595 0 0)
(-0.00057384803 0.00014088035 0 0.00056443444 0 0)
(-0.00083705305 0.00021628605 0 0.00081590515 0 0)
(-0.0012607662 0.00033909188 0 0.0012145859 0 0)
(-0.0019330941 0.00054335389 0 0.0018316105 0 0)
(-0.002976195 0.00083793255 0 0.0027167453 0 0)
(-0.0045991551 0.0013436505 0 0.0040796229 0 0)
(-0.0069215879 0.0019518066 0 0.00561941 0 0)
(-0.010085406 0.0027916229 0 0.0078787469 0 0)
(-0.014007873 0.0040692196 0 0.0093616912 0 0)
(-0.016591289 0.0029403111 0 0.011393679 0 0)
(-0.00040832386 0.00018933965 0 0.00039208051 0 0)
(-0.00052968179 2.1574067e-005 0 0.00054133236 0 0)
(-0.00055487533 -4.3568104e-005 0 0.00053512089 0 0)
(-0.00047344239 -6.8337006e-005 0 0.00047222192 0 0)
(-0.00039448553 -7.1401329e-005 0 0.00038825717 0 0)
(-0.00031527376 -6.5564967e-005 0 0.00031307368 0 0)
(-0.00024344719 -5.1043487e-005 0 0.00024154903 0 0)
(-0.00019536981 -3.7348035e-005 0 0.00019427433 0 0)
(-0.00016045397 -2.2067066e-005 0 0.00015969977 0 0)
(-0.00014495103 -6.4087364e-006 0 0.00014436649 0 0)
(-0.00014581023 7.866193e-006 0 0.00014512235 0 0)
(-0.00016623206 2.7041006e-005 0 0.00016541984 0 0)
(-0.0002081058 5.052671e-005 0 0.00020691641 0 0)
(-0.00027456333 8.0536699e-005 0 0.00027197695 0 0)
(-0.00038748965 0.00012637953 0 0.00038281088 0 0)
(-0.00055528505 0.00019407109 0 0.00054597806 0 0)
(-0.00080766998 0.00029830473 0 0.00078665043 0 0)
(-0.0012123862 0.00046823084 0 0.0011665138 0 0)
(-0.001849484 0.00074987598 0 0.001748826 0 0)
(-0.0028393766 0.0011503172 0 0.002582829 0 0)
(-0.0043588263 0.0018473846 0 0.0038482308 0 0)
(-0.0065541948 0.0026881685 0 0.0052715538 0 0)
(-0.0094782061 0.0038846166 0 0.0073490507 0 0)
(-0.013572344 0.0055461039 0 0.0087962833 0 0)
(-0.015763686 0.0041371468 0 0.010879087 0 0)
(-0.00041535867 0.0002440923 0 0.00039824781 0 0)
(-0.00053677709 2.6220673e-005 0 0.00054824443 0 0)
(-0.0005610467 -5.8501466e-005 0 0.00054122018 0 0)
(-0.0004754358 -9.0268616e-005 0 0.00047388183 0 0)
(-0.00039289758 -9.3994943e-005 0 0.00038673915 0 0)
(-0.00031230796 -8.6086722e-005 0 0.00031000038 0 0)
(-0.00023957333 -6.7134853e-005 0 0.00023768494 0 0)
(-0.00019083311 -4.9120578e-005 0 0.00018979622 0 0)
(-0.00015624177 -2.9484966e-005 0 0.00015548499 0 0)
(-0.00014060552 -9.7142339e-006 0 0.00014006818 0 0)
(-0.00014096165 8.7361784e-006 0 0.00014030655 0 0)
(-0.00016026045 3.3097005e-005 0 0.0001594871 0 0)
(-0.00020026229 6.2904646e-005 0 0.00019912984 0 0)
(-0.00026369645 0.00010082166 0 0.00026116392 0 0)
(-0.00037144561 0.00015880324 0 0.0003668503 0 0)
(-0.00053092922 0.00024429319 0 0.00052173584 0 0)
(-0.00076956089 0.00037510212 0 0.00074872263 0 0)
(-0.00115022 0.00058753865 0 0.0011048076 0 0)
(-0.0017435781 0.00093764968 0 0.0016445154 0 0)
(-0.0026601215 0.0014402422 0 0.002407276 0 0)
(-0.0040442957 0.0023080301 0 0.003546788 0 0)
(-0.0060862166 0.0033583072 0 0.0048307697 0 0)
(-0.0086778191 0.0049028064 0 0.0066368707 0 0)
(-0.012819088 0.0071961712 0 0.0079310271 0 0)
(-0.014800924 0.0053176603 0 0.010326714 0 0)
(-0.00042486762 0.00029896055 0 0.0004065935 0 0)
(-0.00054596892 2.9813325e-005 0 0.0005572765 0 0)
(-0.00056886479 -7.4931685e-005 0 0.0005488368 0 0)
(-0.00047791596 -0.00011405421 0 0.00047598037 0 0)
(-0.00039077147 -0.00011799207 0 0.00038467746 0 0)
(-0.00030848136 -0.00010766842 0 0.00030604985 0 0)
(-0.00023462171 -8.4232316e-005 0 0.00023275299 0 0)
(-0.00018520004 -6.1564619e-005 0 0.0001842014 0 0)
(-0.00015101091 -3.7493661e-005 0 0.00015025665 0 0)
(-0.00013517918 -1.3938138e-005 0 0.00013469949 0 0)
(-0.00013505664 8.9310807e-006 0 0.0001344513 0 0)
(-0.00015262422 3.777861e-005 0 0.00015187825 0 0)
(-0.00019082522 7.4142189e-005 0 0.00018976463 0 0)
(-0.00025038131 0.00011924812 0 0.00024792093 0 0)
(-0.00035182866 0.00018860977 0 0.00034730347 0 0)
(-0.00050143898 0.00029066833 0 0.00049240482 0 0)
(-0.00072317428 0.00044617754 0 0.00070260291 0 0)
(-0.0010746272 0.0006978308 0 0.0010297589 0 0)
(-0.0016133772 0.0011121541 0 0.0015159862 0 0)
(-0.0024407975 0.0017027867 0 0.002193402 0 0)
(-0.0036551221 0.0027257556 0 0.0031742443 0 0)
(-0.0055117657 0.0039687097 0 0.0042848017 0 0)
(-0.0076196238 0.0059025203 0 0.0056747354 0 0)
(-0.012026033 0.0085180117 0 0.0069897785 0 0)
(-0.012764476 0.0061398516 0 0.0091657521 0 0)
(-0.00043734441 0.00035390236 0 0.00041785392 0 0)
(-0.00055731451 3.2037164e-005 0 0.00056816954 0 0)
(-0.00057841772 -9.3117338e-005 0 0.00055824871 0 0)
(-0.00048087341 -0.00013991235 0 0.00047844488 0 0)
(-0.00038796936 -0.0001431906 0 0.00038190023 0 0)
(-0.00030375777 -0.00013027549 0 0.00030117362 0 0)
(-0.00022855945 -0.00010205936 0 0.00022671501 0 0)
(-0.00017852499 -7.4589276e-005 0 0.00017753351 0 0)
(-0.00014473512 -4.6144426e-005 0 0.000143972 0 0)
(-0.00012870939 -1.8919097e-005 0 0.00012829007 0 0)
(-0.00012789644 8.1734025e-006 0 0.00012732612 0 0)
(-0.00014405142 4.1743874e-005 0 0.00014335096 0 0)
(-0.00017940279 8.3764826e-005 0 0.00017842045 0 0)
(-0.00023477152 0.0001357641 0 0.0002323529 0 0)
(-0.00032885701 0.00021564875 0 0.0003243863 0 0)
(-0.00046678456 0.00033316788 0 0.00045789572 0 0)
(-0.00066960398 0.00051041435 0 0.00064931119 0 0)
(-0.00098757248 0.00079624999 0 0.00094333764 0 0)
(-0.0014671903 0.0012630994 0 0.0013716851 0 0)
(-0.0021923972 0.0019265425 0 0.0019527723 0 0)
(-0.003201683 0.0030856443 0 0.0027413496 0 0)
(-0.0048565961 0.0044717864 0 0.0036618831 0 0)
(-0.0064069547 0.006747395 0 0.0045756122 0 0)
(-0.011164575 0.0094772808 0 0.0060419105 0 0)
(-0.0095196175 0.0075472904 0 0.0065417441 0 0)
(-0.00045355913 0.00040915082 0 0.00043273584 0 0)
(-0.00057054425 3.2649719e-005 0 0.0005808599 0 0)
(-0.00058981133 -0.00011310795 0 0.00056952643 0 0)
(-0.00048423333 -0.00016798555 0 0.00048116329 0 0)
(-0.00038423241 -0.00016985363 0 0.00037812469 0 0)
(-0.00029800235 -0.00015385442 0 0.00029519846 0 0)
(-0.00022120911 -0.00012056878 0 0.0002193472 0 0)
(-0.00017076965 -8.801632e-005 0 0.00016978362 0 0)
(-0.00013746485 -5.5008439e-005 0 0.00013666792 0 0)
(-0.00012123852 -2.460954e-005 0 0.00012085808 0 0)
(-0.00011982862 7.4627707e-006 0 0.00011933215 0 0)
(-0.00013364593 4.3922983e-005 0 0.00013298072 0 0)
(-0.00016686246 9.2687369e-005 0 0.00016593841 0 0)
(-0.00021704354 0.0001504011 0 0.00021471056 0 0)
(-0.00030257207 0.00023964776 0 0.00029824774 0 0)
(-0.00042776191 0.00037119714 0 0.00041907225 0 0)
(-0.00060881826 0.0005680549 0 0.00058876423 0 0)
(-0.00088899191 0.0008834971 0 0.00084545377 0 0)
(-0.0012998107 0.0013967385 0 0.0012062425 0 0)
(-0.0019194181 0.0021097505 0 0.0016849528 0 0)
(-0.0026732174 0.0033909877 0 0.0022359268 0 0)
(-0.0040941161 0.0048663243 0 0.0029315379 0 0)
(-0.0048969687 0.0075140487 0 0.0031751229 0 0)
(-0.0093680272 0.010708816 0 0.0043188736 0 0)
(-0.0070008037 0.0084390054 0 0.0044203068 0 0)
(-0.00047452486 0.00046463567 0 0.00045024703 0 0)
(-0.00058573665 3.1865817e-005 0 0.00059819895 0 0)
(-0.00060321145 -0.00013481849 0 0.00058142132 0 0)
(-0.0004878662 -0.0001979385 0 0.00048417564 0 0)
(-0.00037922427 -0.00019757086 0 0.00037336647 0 0)
(-0.00029110055 -0.00017695902 0 0.0002878597 0 0)
(-0.00021279323 -0.00013932785 0 0.00021097234 0 0)
(-0.00016169304 -0.00010117853 0 0.00016083359 0 0)
(-0.00012898564 -6.3630001e-005 0 0.00012819512 0 0)
(-0.00011286047 -3.0407264e-005 0 0.00011254516 0 0)
(-0.00011046151 6.0175207e-006 0 0.00011003158 0 0)
(-0.00012276537 4.6788374e-005 0 0.00012219703 0 0)
(-0.00015236934 0.00010025337 0 0.00015162014 0 0)
(-0.00019719222 0.00016345974 0 0.00019503715 0 0)
(-0.00027322475 0.00026092088 0 0.00026910747 0 0)
(-0.00038397902 0.00040589156 0 0.00037576151 0 0)
(-0.00054251875 0.00061748797 0 0.00052299069 0 0)
(-0.00078143101 0.00095748244 0 0.00073942843 0 0)
(-0.0011203982 0.0015077052 0 0.0010307825 0 0)
(-0.0016348464 0.0022366096 0 0.0014040433 0 0)
(-0.0021167912 0.0036184533 0 0.0017207296 0 0)
(-0.0032499504 0.0050674799 0 0.0021286687 0 0)
(-0.0030877318 0.0080200249 0 0.0015828383 0 0)
(-0.0072080149 0.011176906 0 0.002357225 0 0)
(-0.00089622019 0.011395291 0 -0.0021116545 0 0)
(-0.00050078827 0.00052103758 0 0.00046605327 0 0)
(-0.00060306601 3.0208005e-005 0 0.00062619084 0 0)
(-0.00061832312 -0.00015817314 0 0.00059087328 0 0)
(-0.00049146585 -0.00022954894 0 0.00048748587 0 0)
(-0.00037240363 -0.00022520881 0 0.00036716445 0 0)
(-0.00028256448 -0.00020028518 0 0.00027941559 0 0)
(-0.00020302582 -0.0001570689 0 0.00020147419 0 0)
(-0.00015159537 -0.00011290719 0 0.00015113361 0 0)
(-0.00011942614 -7.09292e-005 0 0.0001189374 0 0)
(-0.00010354082 -3.5203413e-005 0 0.00010354293 0 0)
(-0.0001004499 7.0299278e-006 0 0.00010039371 0 0)
(-0.0001100672 4.8417737e-005 0 0.00010980876 0 0)
(-0.0001369654 0.00010835483 0 0.00013647148 0 0)
(-0.0001757719 0.00017625011 0 0.00017398178 0 0)
(-0.00024237824 0.00028129219 0 0.00023891794 0 0)
(-0.00033788764 0.00043560531 0 0.00033056175 0 0)
(-0.00046985143 0.00066025412 0 0.00045081825 0 0)
(-0.00066437814 0.0010187936 0 0.00062370892 0 0)
(-0.00092819932 0.0015974553 0 0.00084367133 0 0)
(-0.0013083991 0.0023217149 0 0.0010806873 0 0)
(-0.0015040434 0.0037354153 0 0.0011538665 0 0)
(-0.002166548 0.0051210762 0 0.0011036708 0 0)
(-0.00091981529 0.0078196522 0 -0.0002167218 0 0)
(-0.0030327675 0.010194699 0 -0.0010270701 0 0)
(0.0029298272 0.012130913 0 -0.0076435292 0 0)
(-0.013860646 0.00052506143 0 0.0092512695 0 0)
(-0.0078925999 0.00093797141 0 0.0058002087 0 0)
(-0.0030302125 0.0013524791 0 0.0022211868 0 0)
(-0.00092829941 0.0016000365 0 0.00070088295 0 0)
(-0.00034250889 0.001717303 0 0.00019937835 0 0)
(-0.00010675266 0.0017636402 0 8.6682811e-006 0 0)
(-7.30002e-005 0.0017712236 0 -2.2971971e-005 0 0)
(-7.0630859e-005 0.0017706791 0 -2.2071029e-005 0 0)
(-8.3509751e-005 0.0017685804 0 -9.0175849e-006 0 0)
(-8.9963763e-005 0.001767358 0 -2.2575123e-006 0 0)
(-9.2951014e-005 0.0017668706 0 7.8091403e-007 0 0)
(-9.2802041e-005 0.0017668769 0 6.9679808e-007 0 0)
(-9.2388697e-005 0.0017669411 0 2.6759565e-007 0 0)
(-9.2065603e-005 0.001766972 0 -5.7099059e-008 0 0)
(-9.2039607e-005 0.0017669712 0 -8.5071039e-008 0 0)
(-9.2096121e-005 0.0017669617 0 -2.9039362e-008 0 0)
(-9.2126403e-005 0.0017669567 0 1.0158701e-009 0 0)
(-9.2128903e-005 0.0017669561 0 3.6144402e-009 0 0)
(-9.2126959e-005 0.0017669562 0 1.5963417e-009 0 0)
(-9.2125018e-005 0.0017669565 0 -3.761233e-010 0 0)
(-9.2125097e-005 0.0017669564 0 -3.239904e-010 0 0)
(-9.2125945e-005 0.0017669564 0 4.6391958e-010 0 0)
(-9.2126267e-005 0.0017669563 0 1.2823747e-009 0 0)
(-9.2127007e-005 0.0017669564 0 1.6722156e-009 0 0)
(-9.2128268e-005 0.0017669565 0 1.6907269e-009 0 0)
(-0.013388042 0.0016680213 0 0.008894429 0 0)
(-0.0076346794 0.0028558018 0 0.0055054759 0 0)
(-0.0032521259 0.0040361408 0 0.0020941155 0 0)
(-0.0014069997 0.0048772839 0 0.00061828695 0 0)
(-0.00099739478 0.0051927173 0 0.00017110981 0 0)
(-0.00084091291 0.0052951563 0 1.5879555e-005 0 0)
(-0.00081668368 0.0053143659 0 -1.5365709e-005 0 0)
(-0.00081350837 0.0053143863 0 -1.7926771e-005 0 0)
(-0.00082389062 0.0053088301 0 -7.2751282e-006 0 0)
(-0.00082877198 0.0053059904 0 -1.671479e-006 0 0)
(-0.00083113494 0.0053048724 0 7.3913834e-007 0 0)
(-0.0008310861 0.0053048988 0 6.8320538e-007 0 0)
(-0.00083061578 0.0053051193 0 1.990854e-007 0 0)
(-0.00083037815 0.0053051961 0 -3.0631918e-008 0 0)
(-0.00083033519 0.0053052001 0 -6.4289762e-008 0 0)
(-0.00083037192 0.0053051807 0 -2.0626477e-008 0 0)
(-0.00083039285 0.0053051708 0 1.986043e-009 0 0)
(-0.00083039474 0.0053051695 0 3.9220342e-009 0 0)
(-0.00083039211 0.0053051704 0 1.1970724e-009 0 0)
(-0.00083039065 0.0053051708 0 -3.5309502e-010 0 0)
(-0.00083039073 0.005305171 0 -3.338168e-010 0 0)
(-0.00083039159 0.005305171 0 4.2989501e-010 0 0)
(-0.00083039182 0.0053051706 0 1.0832357e-009 0 0)
(-0.0008303926 0.0053051705 0 1.4676977e-009 0 0)
(-0.00083039443 0.0053051724 0 1.5274926e-009 0 0)
(-0.01259317 0.0028909487 0 0.0083708595 0 0)
(-0.0070249522 0.0048816331 0 0.0049172617 0 0)
(-0.0036604974 0.0071010314 0 0.0016971064 0 0)
(-0.0026278321 0.0081728072 0 0.00059878105 0 0)
(-0.0024056944 0.0086222878 0 0.00020167528 0 0)
(-0.0023116767 0.0088342028 0 2.5564711e-005 0 0)
(-0.002307827 0.0088700075 0 -1.124835e-005 0 0)
(-0.0023063 0.0088677629 0 -1.196297e-005 0 0)
(-0.0023110019 0.0088604659 0 -5.3524828e-006 0 0)
(-0.0023140006 0.0088560797 0 -6.4611363e-007 0 0)
(-0.002315007 0.0088550513 0 6.4549435e-007 0 0)
(-0.0023148948 0.0088551608 0 5.3627441e-007 0 0)
(-0.0023145279 0.0088554666 0 1.3910861e-007 0 0)
(-0.0023143505 0.0088555796 0 -3.7194625e-008 0 0)
(-0.0023143244 0.0088555759 0 -4.7655049e-008 0 0)
(-0.0023143466 0.0088555463 0 -1.2840072e-008 0 0)
(-0.0023143591 0.0088555341 0 2.630866e-009 0 0)
(-0.0023143595 0.008855533 0 3.1104167e-009 0 0)
(-0.0023143578 0.0088555344 0 7.9902327e-010 0 0)
(-0.002314357 0.0088555353 0 -3.18918e-010 0 0)
(-0.0023143572 0.0088555354 0 -1.6047814e-010 0 0)
(-0.0023143575 0.0088555349 0 2.5556158e-010 0 0)
(-0.0023143579 0.0088555349 0 8.2200106e-010 0 0)
(-0.0023143582 0.0088555345 0 9.457518e-010 0 0)
(-0.0023143607 0.0088555376 0 9.9492869e-010 0 0)
(-0.011413723 0.0042381873 0 0.0074475292 0 0)
(-0.0060858113 0.0078245336 0 0.0035548975 0 0)
(-0.0048791411 0.0099694904 0 0.0015978973 0 0)
(-0.0043174868 0.011689269 0 0.00041973929 0 0)
(-0.0044736773 0.012265677 0 8.7786071e-005 0 0)
(-0.0045437002 0.012423221 0 1.4120393e-005 0 0)
(-0.0045641354 0.012445624 0 -5.7168641e-006 0 0)
(-0.0045617165 0.012439429 0 -6.0659682e-006 0 0)
(-0.0045617108 0.012430446 0 -2.4941241e-006 0 0)
(-0.0045619542 0.01242602 0 -4.4801236e-008 0 0)
(-0.0045621127 0.012425271 0 4.3560999e-007 0 0)
(-0.0045619962 0.012425519 0 2.8574076e-007 0 0)
(-0.0045618242 0.01242587 0 4.3598559e-008 0 0)
(-0.004561755 0.012425974 0 -3.0486045e-008 0 0)
(-0.0045617419 0.01242596 0 -2.3518845e-008 0 0)
(-0.0045617464 0.012425928 0 -3.676079e-009 0 0)
(-0.0045617496 0.012425917 0 2.5017967e-009 0 0)
(-0.0045617497 0.012425917 0 1.9072129e-009 0 0)
(-0.0045617491 0.012425919 0 2.0234213e-010 0 0)
(-0.0045617487 0.012425919 0 -2.2973578e-010 0 0)
(-0.0045617488 0.012425919 0 -7.864992e-011 0 0)
(-0.004561749 0.012425919 0 1.4218777e-010 0 0)
(-0.0045617492 0.01242592 0 2.7597419e-010 0 0)
(-0.0045617499 0.01242592 0 3.9756697e-010 0 0)
(-0.0045617531 0.012425923 0 4.3832713e-010 0 0)
(-0.0095040751 0.0057093029 0 0.005974307 0 0)
(-0.0062717092 0.010825247 0 0.0024540364 0 0)
(-0.0063825006 0.013455291 0 0.0010161357 0 0)
(-0.0069284604 0.015304133 0 0.00026152086 0 0)
(-0.0074474189 0.01588104 0 6.0013796e-005 0 0)
(-0.0075868194 0.01602568 0 1.767812e-005 0 0)
(-0.0076147281 0.016041672 0 2.5402268e-006 0 0)
(-0.0076088983 0.016034195 0 7.1669045e-007 0 0)
(-0.0076037441 0.01602606 0 2.3298378e-007 0 0)
(-0.0076014345 0.016022817 0 2.7166654e-007 0 0)
(-0.0076009695 0.016022526 0 7.0909981e-008 0 0)
(-0.0076009567 0.016022835 0 -3.1338336e-008 0 0)
(-0.0076010564 0.016023118 0 -3.3130453e-008 0 0)
(-0.0076010842 0.01602318 0 -1.0032885e-008 0 0)
(-0.0076010744 0.016023159 0 2.2363169e-009 0 0)
(-0.0076010604 0.016023134 0 3.3473683e-009 0 0)
(-0.007601056 0.016023127 0 1.2589626e-009 0 0)
(-0.0076010556 0.016023127 0 1.481343e-010 0 0)
(-0.0076010563 0.016023129 0 -1.464081e-010 0 0)
(-0.0076010568 0.016023129 0 -3.8580153e-011 0 0)
(-0.0076010569 0.016023129 0 1.4875216e-011 0 0)
(-0.0076010569 0.016023129 0 -3.9582835e-011 0 0)
(-0.0076010571 0.016023129 0 -3.5280534e-011 0 0)
(-0.0076010575 0.01602313 0 -3.0894473e-010 0 0)
(-0.0076010607 0.016023132 0 -3.2606467e-010 0 0)
(-0.0074901448 0.0087985688 0 0.0036054791 0 0)
(-0.0068562539 0.014138675 0 0.0012077912 0 0)
(-0.0090508143 0.017457046 0 0.00035548584 0 0)
(-0.010655521 0.019134063 0 0.00010641375 0 0)
(-0.011338366 0.019566085 0 2.9437903e-005 0 0)
(-0.011472096 0.019660553 0 1.6852476e-005 0 0)
(-0.011488377 0.019662321 0 9.5597007e-006 0 0)
(-0.011478635 0.019655877 0 6.7869026e-006 0 0)
(-0.011468052 0.019650332 0 2.1443731e-006 0 0)
(-0.011463751 0.019648781 0 2.0923698e-007 0 0)
(-0.01146301 0.019648781 0 -3.5308907e-007 0 0)
(-0.01146318 0.019648994 0 -2.9449408e-007 0 0)
(-0.011463522 0.019649122 0 -6.3061206e-008 0 0)
(-0.011463617 0.019649141 0 2.3778768e-008 0 0)
(-0.011463604 0.019649129 0 2.521664e-008 0 0)
(-0.011463575 0.019649119 0 7.0792232e-009 0 0)
(-0.011463565 0.019649115 0 -9.1660974e-010 0 0)
(-0.011463565 0.019649115 0 -1.3886983e-009 0 0)
(-0.011463567 0.019649116 0 -2.4644836e-010 0 0)
(-0.011463568 0.019649116 0 1.3593153e-010 0 0)
(-0.011463567 0.019649115 0 8.2556157e-011 0 0)
(-0.011463567 0.019649116 0 -2.2942002e-010 0 0)
(-0.011463568 0.019649117 0 -2.3037273e-010 0 0)
(-0.011463568 0.019649117 0 -1.0377064e-009 0 0)
(-0.011463571 0.019649119 0 -1.03121e-009 0 0)
(-0.006515791 0.011461335 0 0.0014377159 0 0)
(-0.0089005189 0.018792786 0 -0.00035469508 0 0)
(-0.013587277 0.021782558 0 -0.00011971839 0 0)
(-0.015490472 0.023006277 0 1.2762296e-005 0 0)
(-0.016102327 0.023247132 0 2.5301157e-005 0 0)
(-0.016187113 0.023298155 0 2.3585207e-005 0 0)
(-0.016195143 0.023298706 0 1.6593135e-005 0 0)
(-0.016184404 0.023297984 0 1.0680603e-005 0 0)
(-0.016173143 0.023297539 0 2.9633363e-006 0 0)
(-0.016168366 0.023297726 0 -1.3045158e-007 0 0)
(-0.016167585 0.023297676 0 -6.851452e-007 0 0)
(-0.016167835 0.023297619 0 -4.2927602e-007 0 0)
(-0.01616826 0.02329756 0 -7.2964975e-008 0 0)
(-0.016168416 0.023297556 0 5.4267107e-008 0 0)
(-0.016168404 0.023297566 0 3.8692918e-008 0 0)
(-0.01616837 0.023297572 0 9.3732137e-009 0 0)
(-0.016168354 0.023297571 0 -3.0463797e-009 0 0)
(-0.016168354 0.02329757 0 -2.1658436e-009 0 0)
(-0.016168356 0.023297569 0 -2.6883123e-010 0 0)
(-0.016168357 0.023297569 0 3.2009984e-010 0 0)
(-0.016168356 0.023297569 0 8.535691e-011 0 0)
(-0.016168356 0.02329757 0 -4.4167432e-010 0 0)
(-0.016168357 0.02329757 0 -5.5766058e-010 0 0)
(-0.016168357 0.023297572 0 -1.4875644e-009 0 0)
(-0.016168358 0.023297572 0 -1.3383519e-009 0 0)
(-0.0065178983 0.016170601 0 -0.0017793075 0 0)
(-0.013513931 0.024158698 0 -0.0017360204 0 0)
(-0.019844917 0.026178606 0 -0.0003482277 0 0)
(-0.021209873 0.026818457 0 -3.6296096e-005 0 0)
(-0.021671752 0.026898056 0 2.7820326e-005 0 0)
(-0.021704189 0.026926327 0 2.7368721e-005 0 0)
(-0.021724893 0.026937684 0 1.9560991e-005 0 0)
(-0.021717916 0.026947256 0 9.6459484e-006 0 0)
(-0.021711759 0.026950512 0 2.6306931e-006 0 0)
(-0.021707784 0.02695148 0 -3.078733e-007 0 0)
(-0.021706526 0.026951035 0 -8.269227e-007 0 0)
(-0.021706743 0.0269506 0 -3.7797288e-007 0 0)
(-0.021707142 0.026950456 0 -3.335818e-008 0 0)
(-0.021707315 0.026950471 0 6.9002814e-008 0 0)
(-0.021707309 0.026950511 0 3.71799e-008 0 0)
(-0.021707275 0.026950525 0 5.7556895e-009 0 0)
(-0.021707259 0.026950524 0 -4.003695e-009 0 0)
(-0.021707259 0.026950521 0 -2.0880511e-009 0 0)
(-0.021707261 0.02695052 0 -3.6751413e-012 0 0)
(-0.021707262 0.02695052 0 3.9802509e-010 0 0)
(-0.021707262 0.026950521 0 1.1960786e-011 0 0)
(-0.021707261 0.026950521 0 -6.3740094e-010 0 0)
(-0.021707262 0.026950522 0 -1.1326889e-009 0 0)
(-0.021707262 0.026950523 0 -1.4751107e-009 0 0)
(-0.02170726 0.026950522 0 -1.147363e-009 0 0)
(-0.01183984 0.025109528 0 -0.0053140551 0 0)
(-0.021849524 0.030256261 0 -0.0027759967 0 0)
(-0.027333491 0.030461974 0 -0.00035006854 0 0)
(-0.027658607 0.030502894 0 -5.2211785e-005 0 0)
(-0.027948841 0.030492049 0 4.163158e-005 0 0)
(-0.027993881 0.03053638 0 2.3796003e-005 0 0)
(-0.028047778 0.030563729 0 1.6759247e-005 0 0)
(-0.028052438 0.030580652 0 6.5500252e-006 0 0)
(-0.028052205 0.030586244 0 1.5216492e-006 0 0)
(-0.028048485 0.030586907 0 -6.3870162e-007 0 0)
(-0.028046891 0.030585753 0 -6.5580639e-007 0 0)
(-0.028046759 0.030585072 0 -2.4965378e-007 0 0)
(-0.028047065 0.030584915 0 1.1356342e-008 0 0)
(-0.028047234 0.030584978 0 5.9835487e-008 0 0)
(-0.02804725 0.03058504 0 2.6722001e-008 0 0)
(-0.028047224 0.030585057 0 1.7996208e-009 0 0)
(-0.028047209 0.030585053 0 -3.5765871e-009 0 0)
(-0.028047208 0.030585049 0 -1.4228283e-009 0 0)
(-0.02804721 0.030585048 0 1.7197599e-010 0 0)
(-0.028047211 0.030585048 0 3.2526033e-010 0 0)
(-0.02804721 0.030585049 0 -5.1251447e-011 0 0)
(-0.02804721 0.030585049 0 -7.0865414e-010 0 0)
(-0.028047209 0.03058505 0 -1.5214261e-009 0 0)
(-0.028047209 0.03058505 0 -1.6190828e-009 0 0)
(-0.028047202 0.030585047 0 -8.5135908e-010 0 0)
(-0.035232941 0.042436469 0 -0.009856177 0 0)
(-0.03351448 0.035664953 0 -0.0018456694 0 0)
(-0.039626115 0.03652519 0 -0.00020503468 0 0)
(-0.038063126 0.035681516 0 -1.7687222e-005 0 0)
(-0.038859912 0.035930487 0 2.5716293e-005 0 0)
(-0.038807982 0.035920451 0 8.673955e-006 0 0)
(-0.038932733 0.035975469 0 6.1412497e-006 0 0)
(-0.038933672 0.035984965 0 2.0592116e-006 0 0)
(-0.038943065 0.035992765 0 4.8849072e-007 0 0)
(-0.038937595 0.035991722 0 -3.232764e-007 0 0)
(-0.038936076 0.035990565 0 -2.3884327e-007 0 0)
(-0.038935377 0.035989823 0 -7.8184742e-008 0 0)
(-0.038935631 0.035989774 0 1.5308541e-008 0 0)
(-0.038935812 0.035989878 0 2.5752978e-008 0 0)
(-0.038935877 0.035989951 0 9.7016348e-009 0 0)
(-0.038935865 0.035989963 0 -6.5490155e-011 0 0)
(-0.038935851 0.035989956 0 -1.5629909e-009 0 0)
(-0.038935848 0.035989952 0 -5.1689708e-010 0 0)
(-0.03893585 0.035989952 0 1.1653501e-010 0 0)
(-0.038935851 0.035989953 0 1.1141609e-010 0 0)
(-0.038935851 0.035989953 0 -1.1715708e-010 0 0)
(-0.03893585 0.035989953 0 -4.9328743e-010 0 0)
(-0.038935847 0.035989951 0 -1.2743572e-009 0 0)
(-0.038935843 0.035989949 0 -8.8914645e-010 0 0)
(-0.038935831 0.035989945 0 2.8228709e-011 0 0)
(-0.00056428721 0.00064469081 0 0.0005108179 0 0)
(-0.00064109453 2.5974072e-005 0 0.00069182242 0 0)
(-0.00065066391 -0.00020941516 0 0.00061302189 0 0)
(-0.00049657735 -0.00028686435 0 0.00048914877 0 0)
(-0.00036179184 -0.00027463952 0 0.00035527896 0 0)
(-0.00025873236 -0.00023501753 0 0.00025424968 0 0)
(-0.00018083031 -0.00018034342 0 0.00017782131 0 0)
(-0.00013007688 -0.00012661502 0 0.00012868828 0 0)
(-9.8697861e-005 -7.5471108e-005 0 9.7263214e-005 0 0)
(-8.3201634e-005 -3.3723188e-005 0 8.2634498e-005 0 0)
(-7.8290941e-005 1.596406e-005 0 7.7763467e-005 0 0)
(-8.5360894e-005 6.471715e-005 0 8.4013215e-005 0 0)
(-0.00010301516 0.00012902564 0 0.00010200056 0 0)
(-0.00013030319 0.00020365312 0 0.00012733446 0 0)
(-0.00017619248 0.00032014417 0 0.00017137976 0 0)
(-0.00024133699 0.00049376149 0 0.00023319111 0 0)
(-0.00032398816 0.00072869817 0 0.00030202939 0 0)
(-0.00044261172 0.0011013586 0 0.00039964236 0 0)
(-0.00055114981 0.0017042351 0 0.00047526541 0 0)
(-0.00070390377 0.0023998714 0 0.00049924538 0 0)
(-0.00062497167 0.0037016026 0 0.00033495302 0 0)
(-0.00051706289 0.0048832785 0 -0.00035556282 0 0)
(0.0013412557 0.0069498205 0 -0.0019971119 0 0)
(0.0019053434 0.0076537799 0 -0.0043716829 0 0)
(0.0098248157 0.0073470554 0 -0.012938876 0 0)
(-0.00070067154 0.00086563301 0 0.00061791399 0 0)
(-0.00072536905 1.0849095e-005 0 0.00079318273 0 0)
(-0.00069881336 -0.00029561261 0 0.00065014341 0 0)
(-0.00049051009 -0.00036210432 0 0.0004793001 0 0)
(-0.00032573059 -0.00032884262 0 0.00032001786 0 0)
(-0.0002094852 -0.00025946851 0 0.00020566036 0 0)
(-0.00013447818 -0.00018515566 0 0.00013258064 0 0)
(-8.5533736e-005 -0.00011258341 0 8.5585841e-005 0 0)
(-5.9326388e-005 -5.0870655e-005 0 5.8965881e-005 0 0)
(-4.5745289e-005 -4.0145597e-007 0 4.570518e-005 0 0)
(-3.9084091e-005 5.7240326e-005 0 3.8901172e-005 0 0)
(-3.9495884e-005 0.00011232744 0 3.9082809e-005 0 0)
(-4.4560766e-005 0.0001811922 0 4.4881854e-005 0 0)
(-5.4246127e-005 0.00026681476 0 5.2455316e-005 0 0)
(-6.8832713e-005 0.00038412223 0 6.2580783e-005 0 0)
(-8.4151603e-005 0.00057080904 0 7.8273177e-005 0 0)
(-9.5514778e-005 0.00080770451 0 7.9016322e-005 0 0)
(-0.00010251558 0.0011568567 0 5.9875457e-005 0 0)
(-3.8789675e-005 0.0017288814 0 -2.8849415e-005 0 0)
(8.9140382e-005 0.0023312822 0 -0.00026634777 0 0)
(0.00058069701 0.0032144629 0 -0.00084987887 0 0)
(0.001195556 0.0037823283 0 -0.0019011219 0 0)
(0.0031733497 0.0042720325 0 -0.0039108815 0 0)
(0.005206871 0.0019780431 0 -0.0074056913 0 0)
(0.0063153602 -0.0011421886 0 -0.0092195571 0 0)
(-0.00088575324 0.0011321865 0 0.0007765746 0 0)
(-0.0008124965 -9.6542318e-006 0 0.00088825295 0 0)
(-0.00071931275 -0.00036182214 0 0.00066328962 0 0)
(-0.00044900959 -0.00038878616 0 0.00043599263 0 0)
(-0.00025713973 -0.00030920521 0 0.0002530423 0 0)
(-0.00013889092 -0.00020023206 0 0.00013561334 0 0)
(-7.3234109e-005 -0.0001047315 0 7.199473e-005 0 0)
(-3.2267157e-005 -1.3885545e-005 0 3.2364071e-005 0 0)
(-1.3123e-005 5.9043239e-005 0 1.3120045e-005 0 0)
(-3.5120889e-006 0.0001166437 0 3.0719623e-006 0 0)
(3.372313e-006 0.00017393625 0 -3.7265487e-006 0 0)
(8.2452993e-006 0.00022881305 0 -9.4481161e-006 0 0)
(1.4195019e-005 0.00030290881 0 -1.6805747e-005 0 0)
(2.5040152e-005 0.000389691 0 -2.6780291e-005 0 0)
(3.702152e-005 0.00049608039 0 -4.5074363e-005 0 0)
(6.504239e-005 0.00066720782 0 -7.6572133e-005 0 0)
(0.00012229409 0.00090884353 0 -0.00013963348 0 0)
(0.0001991092 0.0012041609 0 -0.00024516924 0 0)
(0.00040063814 0.0016821881 0 -0.00047296786 0 0)
(0.00068667716 0.0021607122 0 -0.00083822217 0 0)
(0.0012776602 0.0027380386 0 -0.0015057275 0 0)
(0.0020965775 0.0029644543 0 -0.0025413863 0 0)
(0.0034932014 0.0027841777 0 -0.0038773278 0 0)
(0.0046640485 0.00069333636 0 -0.0054108115 0 0)
(0.0035697514 -0.0026962716 0 -0.0037226812 0 0)
(-0.0011023845 0.0014687175 0 0.00095449361 0 0)
(-0.00084681839 -2.3635291e-005 0 0.00092904551 0 0)
(-0.00066084128 -0.00036750696 0 0.00059851851 0 0)