/*--------------------------------*- C++ -*----------------------------------*\
| =========                 |                                                 |
| \\      /  F ield         | OpenFOAM: The Open Source CFD Toolbox           |
|  \\    /   O peration     | Version:  5.x                                   |
|   \\  /    A nd           | Web:      www.OpenFOAM.org                      |
|    \\/     M anipulation  |                                                 |
\*---------------------------------------------------------------------------*/
/*   Windows 32 and 64 bit porting by blueCAPE: http://www.bluecape.com.pt   *\
|  Based on Windows porting (2.0.x v4) by Symscape: http://www.symscape.com   |
\*---------------------------------------------------------------------------*/
FoamFile
{
    version     2.0;
    format      ascii;
    class       volSymmTensorField;
    location    "0.22";
    object      sigma;
}
// * * * * * * * * * * * * * * * * * * * * * * * * * * * * * * * * * * * * * //

dimensions      [0 2 -2 0 0 0 0];

internalField   nonuniform List<symmTensor> 
750
(
(-0.00039805645 2.6661556e-005 0 0.00038680866 0 0)
(-0.00052076378 3.2601705e-006 0 0.00052597668 0 0)
(-0.00054606808 -5.6244241e-006 0 0.00053050421 0 0)
(-0.0004712756 -9.5849143e-006 0 0.00046877828 0 0)
(-0.00039620529 -9.7930981e-006 0 0.00039070341 0 0)
(-0.00032065338 -9.103005e-006 0 0.00031829563 0 0)
(-0.00024995235 -7.1776581e-006 0 0.00024805185 0 0)
(-0.00020139429 -5.2244882e-006 0 0.00020037912 0 0)
(-0.0001668353 -2.9817987e-006 0 0.00016609506 0 0)
(-0.00015155237 -7.256232e-007 0 0.00015093766 0 0)
(-0.00015321955 1.2993111e-006 0 0.00015251451 0 0)
(-0.00017544837 4.0875439e-006 0 0.00017462384 0 0)
(-0.00021989811 7.5266642e-006 0 0.00021866725 0 0)
(-0.00029159772 1.1941275e-005 0 0.00028906968 0 0)
(-0.0004118529 1.8619234e-005 0 0.00040719163 0 0)
(-0.00059237503 2.8695908e-005 0 0.00058303286 0 0)
(-0.00086719827 4.4224965e-005 0 0.0008463829 0 0)
(-0.0013095717 6.9426526e-005 0 0.0012636202 0 0)
(-0.0020143595 0.00011238936 0 0.0019123501 0 0)
(-0.0031244627 0.00017409028 0 0.0028656887 0 0)
(-0.0048217143 0.00027543115 0 0.004288281 0 0)
(-0.007326658 0.00041031975 0 0.0060207325 0 0)
(-0.010611456 0.00056311661 0 0.0083115611 0 0)
(-0.014426733 0.00080735896 0 0.010104596 0 0)
(-0.017786956 0.00058424 0 0.01190395 0 0)
(-0.00040027699 8.0415553e-005 0 0.00038620497 0 0)
(-0.00052174076 9.8955881e-006 0 0.00053172455 0 0)
(-0.00054771876 -1.7415821e-005 0 0.00052931739 0 0)
(-0.00047138633 -2.8612777e-005 0 0.00047010498 0 0)
(-0.00039656448 -2.9619632e-005 0 0.00039036282 0 0)
(-0.000319286 -2.7305564e-005 0 0.00031716404 0 0)
(-0.00024855797 -2.142348e-005 0 0.00024664611 0 0)
(-0.00020090765 -1.561423e-005 0 0.00019965058 0 0)
(-0.00016585643 -8.945785e-006 0 0.00016502909 0 0)
(-0.00015046104 -2.1287179e-006 0 0.00014977287 0 0)
(-0.00015193901 3.9123727e-006 0 0.00015114658 0 0)
(-0.0001739272 1.2283796e-005 0 0.00017300141 0 0)
(-0.00021793287 2.2514794e-005 0 0.00021657421 0 0)
(-0.00028862915 3.5664486e-005 0 0.00028586473 0 0)
(-0.00040783486 5.5626344e-005 0 0.00040286546 0 0)
(-0.00058624442 8.5483118e-005 0 0.0005764388 0 0)
(-0.00085701166 0.00013139817 0 0.00083529053 0 0)
(-0.0012931489 0.00020610255 0 0.001245851 0 0)
(-0.0019875713 0.00033222358 0 0.0018838322 0 0)
(-0.0030731273 0.00050429567 0 0.0028100802 0 0)
(-0.0047517139 0.00082640601 0 0.0042199075 0 0)
(-0.0071782149 0.0011671071 0 0.0058602094 0 0)
(-0.010460774 0.0016809276 0 0.0081958087 0 0)
(-0.014221165 0.0024965374 0 0.0097825483 0 0)
(-0.017401089 0.0018018433 0 0.011777183 0 0)
(-0.000403619 0.00013471937 0 0.0003880003 0 0)
(-0.00052486845 1.6031353e-005 0 0.00053657937 0 0)
(-0.00055075011 -3.0013272e-005 0 0.00053106806 0 0)
(-0.00047231761 -4.7871293e-005 0 0.00047133818 0 0)
(-0.00039595322 -5.0022469e-005 0 0.00038961508 0 0)
(-0.00031772643 -4.6041176e-005 0 0.00031564477 0 0)
(-0.00024649585 -3.5925431e-005 0 0.00024462134 0 0)
(-0.00019887765 -2.6244353e-005 0 0.00019769814 0 0)
(-0.00016372684 -1.5245883e-005 0 0.00016296819 0 0)
(-0.00014827749 -3.9197595e-006 0 0.00014766474 0 0)
(-0.00014946307 6.1963877e-006 0 0.00014874981 0 0)
(-0.00017089621 2.0087948e-005 0 0.00017006717 0 0)
(-0.0002140263 3.6977708e-005 0 0.00021279175 0 0)
(-0.00028292771 5.8682574e-005 0 0.00028031519 0 0)
(-0.00039970805 9.1776824e-005 0 0.00039497207 0 0)
(-0.00057390497 0.00014089057 0 0.00056448856 0 0)
(-0.00083718646 0.00021632216 0 0.00081603241 0 0)
(-0.0012610104 0.00033915442 0 0.0012148116 0 0)
(-0.0019334611 0.00054342823 0 0.0018319344 0 0)
(-0.0029765706 0.00083797204 0 0.0027170491 0 0)
(-0.004599249 0.0013436177 0 0.0040796529 0 0)
(-0.0069210544 0.0019516845 0 0.005618972 0 0)
(-0.010084119 0.0027915519 0 0.0078778954 0 0)
(-0.014006098 0.0040689453 0 0.0093607956 0 0)
(-0.016590265 0.0029404141 0 0.011393304 0 0)
(-0.00040860514 0.00018946354 0 0.00039234362 0 0)
(-0.00053006393 2.1580097e-005 0 0.00054171993 0 0)
(-0.00055530446 -4.361933e-005 0 0.00053552614 0 0)
(-0.00047383261 -6.841686e-005 0 0.00047260626 0 0)
(-0.00039482392 -7.1494734e-005 0 0.00038858498 0 0)
(-0.00031554602 -6.5660304e-005 0 0.00031334178 0 0)
(-0.00024363686 -5.1126173e-005 0 0.00024173521 0 0)
(-0.00019550574 -3.7419915e-005 0 0.00019440844 0 0)
(-0.0001605384 -2.2124779e-005 0 0.00015978355 0 0)
(-0.0001450031 -6.4555396e-006 0 0.0001444178 0 0)
(-0.0001458454 7.8289115e-006 0 0.00014515735 0 0)
(-0.00016625443 2.701004e-005 0 0.00016544222 0 0)
(-0.00020811618 5.0500689e-005 0 0.00020692638 0 0)
(-0.00027457829 8.0518877e-005 0 0.00027199164 0 0)
(-0.00038752362 0.00012637649 0 0.00038284459 0 0)
(-0.00055533733 0.00019408347 0 0.00054602769 0 0)
(-0.00080779433 0.0002983521 0 0.00078676881 0 0)
(-0.0012126158 0.00046831276 0 0.0011667256 0 0)
(-0.0018498288 0.00074997261 0 0.0017491296 0 0)
(-0.0028397221 0.0011503852 0 0.0025831053 0 0)
(-0.0043589118 0.0018473482 0 0.0038482569 0 0)
(-0.0065536963 0.002687999 0 0.0052711489 0 0)
(-0.0094770312 0.0038844454 0 0.0073482686 0 0)
(-0.013570487 0.0055462455 0 0.0087952788 0 0)
(-0.015762523 0.0041374431 0 0.010878493 0 0)
(-0.00041565285 0.00024425097 0 0.00039852229 0 0)
(-0.00053717183 2.6224653e-005 0 0.00054864441 0 0)
(-0.00056148629 -5.8571343e-005 0 0.00054163524 0 0)
(-0.00047583024 -9.0374312e-005 0 0.00047426994 0 0)
(-0.00039323518 -9.4117334e-005 0 0.00038706608 0 0)
(-0.00031257705 -8.6210923e-005 0 0.00031026507 0 0)
(-0.000239758 -6.7242249e-005 0 0.00023786606 0 0)
(-0.00019096422 -4.9213835e-005 0 0.0001899257 0 0)
(-0.00015632346 -2.9560059e-005 0 0.00015556589 0 0)
(-0.0001406553 -9.7756761e-006 0 0.00014011723 0 0)
(-0.00014099371 8.6872424e-006 0 0.00014033848 0 0)
(-0.00016028157 3.3057128e-005 0 0.00015950827 0 0)
(-0.0002002702 6.2869846e-005 0 0.00019913743 0 0)
(-0.00026370853 0.00010079779 0 0.00026117564 0 0)
(-0.00037147686 0.00015879789 0 0.00036688145 0 0)
(-0.00053097497 0.00024430662 0 0.00052177927 0 0)
(-0.00076967318 0.00037516136 0 0.00074882921 0 0)
(-0.0011504283 0.00058764274 0 0.0011049986 0 0)
(-0.0017438907 0.00093777279 0 0.001644789 0 0)
(-0.0026604354 0.0014403187 0 0.0024075293 0 0)
(-0.0040443698 0.0023079865 0 0.0035468133 0 0)
(-0.0060857604 0.003358123 0 0.0048304074 0 0)
(-0.0086767786 0.0049026314 0 0.0066361596 0 0)
(-0.01281759 0.0071960517 0 0.007930209 0 0)
(-0.014799903 0.0053180844 0 0.010326116 0 0)
(-0.00042517981 0.00029915399 0 0.00040688408 0 0)
(-0.00054637938 2.981399e-005 0 0.00055769199 0 0)
(-0.00056931674 -7.5020524e-005 0 0.00054926337 0 0)
(-0.00047831514 -0.00011418552 0 0.00047637265 0 0)
(-0.00039110776 -0.00011814163 0 0.00038500293 0 0)
(-0.00030874636 -0.0001078199 0 0.00030631019 0 0)
(-0.00023480024 -8.436298e-005 0 0.00023292783 0 0)
(-0.00018532534 -6.1677024e-005 0 0.00018432518 0 0)
(-0.00015108853 -3.758387e-005 0 0.00015033337 0 0)
(-0.00013522624 -1.4013123e-005 0 0.00013474587 0 0)
(-0.00013508591 8.8737446e-006 0 0.00013448054 0 0)
(-0.00015264161 3.7729806e-005 0 0.00015189574 0 0)
(-0.00019083148 7.4101571e-005 0 0.00018977055 0 0)
(-0.00025039056 0.00011921927 0 0.00024793002 0 0)
(-0.00035185467 0.00018860304 0 0.00034732958 0 0)
(-0.00050147791 0.00029068501 0 0.00049244131 0 0)
(-0.00072327234 0.00044624858 0 0.00070269566 0 0)
(-0.0010748118 0.0006979538 0 0.0010299275 0 0)
(-0.0016136601 0.0011122905 0 0.0015162323 0 0)
(-0.0024410612 0.0017028896 0 0.0021936177 0 0)
(-0.0036551679 0.0027257264 0 0.0031742537 0 0)
(-0.0055113748 0.0039685088 0 0.0042844994 0 0)
(-0.0076187524 0.0059023472 0 0.0056741191 0 0)
(-0.012024561 0.0085183848 0 0.0069887273 0 0)
(-0.012763735 0.0061404799 0 0.0091650839 0 0)
(-0.00043768037 0.0003541316 0 0.00041816592 0 0)
(-0.00055774319 3.203413e-005 0 0.00056860267 0 0)
(-0.00057888364 -9.3224427e-005 0 0.00055868835 0 0)
(-0.00048127739 -0.00014006675 0 0.00047884123 0 0)
(-0.00038830338 -0.00014336426 0 0.00038222319 0 0)
(-0.0003040178 -0.00013044959 0 0.00030142861 0 0)
(-0.00022873169 -0.00010220879 0 0.0002268835 0 0)
(-0.00017864257 -7.471655e-005 0 0.00017764955 0 0)
(-0.00014480738 -4.6244967e-005 0 0.00014404323 0 0)
(-0.00012875277 -1.9002585e-005 0 0.00012833293 0 0)
(-0.00012792133 8.1096591e-006 0 0.00012735095 0 0)
(-0.00014406677 4.1693407e-005 0 0.00014336636 0 0)
(-0.00017940661 8.3721989e-005 0 0.00017842426 0 0)
(-0.00023477563 0.00013573386 0 0.00023235702 0 0)
(-0.00032887692 0.00021564645 0 0.00032440631 0 0)
(-0.00046681514 0.00033319148 0 0.00045792388 0 0)
(-0.00066968671 0.00051049856 0 0.00064938869 0 0)
(-0.00098773153 0.00079639445 0 0.0009434807 0 0)
(-0.0014674245 0.0012632665 0 0.0013718838 0 0)
(-0.0021926641 0.0019266353 0 0.0019529864 0 0)
(-0.003201725 0.0030856112 0 0.0027413627 0 0)
(-0.0048562624 0.0044716056 0 0.0036616236 0 0)
(-0.0064062445 0.0067472486 0 0.0045750876 0 0)
(-0.01116391 0.0094771017 0 0.0060415224 0 0)
(-0.0095193437 0.0075479791 0 0.0065412777 0 0)
(-0.00045392487 0.0004094175 0 0.00043307437 0 0)
(-0.00057099201 3.2643943e-005 0 0.00058131145 0 0)
(-0.00059029143 -0.00011322903 0 0.00056997908 0 0)
(-0.0004846417 -0.0001681583 0 0.00048156295 0 0)
(-0.00038456264 -0.00017004347 0 0.00037844349 0 0)
(-0.00029825629 -0.00015404462 0 0.00029544688 0 0)
(-0.00022137369 -0.00012072921 0 0.00021950805 0 0)
(-0.00017087915 -8.8150334e-005 0 0.00016989166 0 0)
(-0.00013753121 -5.5110937e-005 0 0.00013673313 0 0)
(-0.00012127735 -2.4694912e-005 0 0.00012089631 0 0)
(-0.00011985029 7.4049681e-006 0 0.00011935383 0 0)
(-0.00013365748 4.3875271e-005 0 0.00013299262 0 0)
(-0.00016686208 9.2648458e-005 0 0.00016593786 0 0)
(-0.00021704367 0.00015037708 0 0.00021471048 0 0)
(-0.00030258738 0.00023965737 0 0.00029826381 0 0)
(-0.00042778086 0.00037123249 0 0.00041908936 0 0)
(-0.00060888084 0.00056815921 0 0.00058882103 0 0)
(-0.00088912026 0.00088366746 0 0.00084556477 0 0)
(-0.0012999964 0.0013969368 0 0.0012063964 0 0)
(-0.0019196317 0.0021098765 0 0.0016851083 0 0)
(-0.0026732327 0.0033909806 0 0.0022359099 0 0)
(-0.0040938209 0.004866172 0 0.0029313072 0 0)
(-0.0048963882 0.0075139822 0 0.0031746577 0 0)
(-0.0093672417 0.010709252 0 0.0043180873 0 0)
(-0.0070003053 0.0084398729 0 0.0044196116 0 0)
(-0.0004749263 0.00046494292 0 0.00045061622 0 0)
(-0.00058620316 3.186027e-005 0 0.00059867128 0 0)
(-0.00060370484 -0.00013494689 0 0.00058188493 0 0)
(-0.00048827751 -0.00019811911 0 0.00048457756 0 0)
(-0.0003795485 -0.00019776784 0 0.00037367969 0 0)
(-0.00029134753 -0.0001771524 0 0.00028810084 0 0)
(-0.00021294904 -0.00013948851 0 0.00021112414 0 0)
(-0.00016179305 -0.00010130792 0 0.00016093251 0 0)
(-0.00012904453 -6.372351e-005 0 0.00012825295 0 0)
(-0.00011289401 -3.0481866e-005 0 0.00011257829 0 0)
(-0.00011047773 5.9693796e-006 0 0.00011004777 0 0)
(-0.00012277322 4.6756338e-005 0 0.00012220498 0 0)
(-0.00015236779 0.00010023344 0 0.00015161858 0 0)
(-0.00019718686 0.00016345091 0 0.00019503173 0 0)
(-0.00027323153 0.00026095025 0 0.00026911488 0 0)
(-0.00038398764 0.00040595001 0 0.0003757682 0 0)
(-0.00054255956 0.00061761939 0 0.00052302651 0 0)
(-0.00078151719 0.00095768745 0 0.00073950003 0 0)
(-0.0011205249 0.001507938 0 0.00103088 0 0)
(-0.0016349224 0.0022367899 0 0.0014040816 0 0)
(-0.0021167362 0.0036184637 0 0.0017206521 0 0)
(-0.0032496652 0.0050673729 0 0.0021284412 0 0)
(-0.0030873118 0.0080200837 0 0.0015824162 0 0)
(-0.0072079751 0.011177317 0 0.0023568801 0 0)
(-0.00089661149 0.011396416 0 -0.0021121334 0 0)
(-0.00050122949 0.00052138933 0 0.00046645342 0 0)
(-0.00060354914 3.0208813e-005 0 0.00062669101 0 0)
(-0.00061882782 -0.00015830075 0 0.00059134381 0 0)
(-0.00049187784 -0.00022972909 0 0.00048788993 0 0)
(-0.00037271978 -0.00022539824 0 0.00036747138 0 0)
(-0.00028280005 -0.00020046747 0 0.00027964544 0 0)
(-0.00020317256 -0.00015721526 0 0.00020161724 0 0)
(-0.00015168665 -0.00011301731 0 0.00015122399 0 0)
(-0.00011947686 -7.0999193e-005 0 0.00011898756 0 0)
(-0.00010356769 -3.5250962e-005 0 0.00010356977 0 0)
(-0.00010046099 7.009854e-006 0 0.00010040456 0 0)
(-0.00011007223 4.8417608e-005 0 0.00010981415 0 0)
(-0.00013695801 0.00010836162 0 0.00013646452 0 0)
(-0.00017576102 0.00017627418 0 0.00017397093 0 0)
(-0.00024238176 0.00028135354 0 0.00023892104 0 0)
(-0.00033788426 0.00043569862 0 0.00033055503 0 0)
(-0.00046986315 0.00066042882 0 0.00045082638 0 0)
(-0.00066442952 0.0010190391 0 0.00062374867 0 0)
(-0.00092827095 0.0015977213 0 0.00084371573 0 0)
(-0.0013084042 0.0023219179 0 0.0010806718 0 0)
(-0.0015038823 0.0037354379 0 0.0011537027 0 0)
(-0.0021662485 0.0051209914 0 0.0011034166 0 0)
(-0.00091941588 0.0078198421 0 -0.00021717077 0 0)
(-0.0030326896 0.010195372 0 -0.0010275452 0 0)
(0.0029287239 0.01213256 0 -0.0076436279 0 0)
(-0.013860107 0.00052511601 0 0.0092513019 0 0)
(-0.0078931886 0.00093809512 0 0.005800855 0 0)
(-0.00303119 0.0013526497 0 0.0022220665 0 0)
(-0.00092937343 0.0016003092 0 0.00070187475 0 0)
(-0.00034346806 0.0017176384 0 0.00020028751 0 0)
(-0.00010745758 0.0017640636 0 9.3305026e-006 0 0)
(-7.3376649e-005 0.0017717367 0 -2.2631297e-005 0 0)
(-7.078001e-005 0.0017712337 0 -2.1962514e-005 0 0)
(-8.3526715e-005 0.0017691576 0 -9.0415216e-006 0 0)
(-8.9955669e-005 0.0017679382 0 -2.3059536e-006 0 0)
(-9.2970328e-005 0.0017674466 0 7.5932908e-007 0 0)
(-9.2841173e-005 0.0017674499 0 6.9536545e-007 0 0)
(-9.2432667e-005 0.0017675135 0 2.7105749e-007 0 0)
(-9.2108065e-005 0.0017675445 0 -5.5085879e-008 0 0)
(-9.208029e-005 0.001767544 0 -8.4863696e-008 0 0)
(-9.213627e-005 0.0017675346 0 -2.9371124e-008 0 0)
(-9.2166713e-005 0.0017675296 0 8.4430099e-010 0 0)
(-9.2169368e-005 0.0017675289 0 3.5974746e-009 0 0)
(-9.2167466e-005 0.001767529 0 1.6223656e-009 0 0)
(-9.2165511e-005 0.0017675293 0 -3.6419781e-010 0 0)
(-9.2165579e-005 0.0017675292 0 -3.2288875e-010 0 0)
(-9.2166422e-005 0.0017675292 0 4.6043039e-010 0 0)
(-9.2166741e-005 0.0017675291 0 1.2719907e-009 0 0)
(-9.2167455e-005 0.0017675292 0 1.6418099e-009 0 0)
(-9.2168709e-005 0.0017675293 0 1.6575697e-009 0 0)
(-0.013387491 0.0016682297 0 0.0088944195 0 0)
(-0.0076352411 0.0028560274 0 0.0055060594 0 0)
(-0.0032530643 0.0040366421 0 0.0020949188 0 0)
(-0.001408095 0.0048780669 0 0.00061914956 0 0)
(-0.00099847685 0.0051937374 0 0.00017193657 0 0)
(-0.00084172029 0.0052965161 0 1.6382467e-005 0 0)
(-0.00081736992 0.005315867 0 -1.5024706e-005 0 0)
(-0.00081395223 0.0053160405 0 -1.7842543e-005 0 0)
(-0.00082423356 0.005310535 0 -7.2985397e-006 0 0)
(-0.00082909086 0.0053077026 0 -1.7168947e-006 0 0)
(-0.00083147783 0.0053065723 0 7.2075667e-007 0 0)
(-0.00083144537 0.0053065911 0 6.8193279e-007 0 0)
(-0.00083097972 0.0053068099 0 2.0231664e-007 0 0)
(-0.000830741 0.0053068871 0 -2.8767539e-008 0 0)
(-0.00083069634 0.0053068918 0 -6.4189517e-008 0 0)
(-0.00083073266 0.0053068725 0 -2.093847e-008 0 0)
(-0.00083075372 0.0053068625 0 1.8401606e-009 0 0)
(-0.00083075573 0.0053068611 0 3.9055709e-009 0 0)
(-0.00083075315 0.005306862 0 1.226399e-009 0 0)
(-0.00083075167 0.0053068625 0 -3.4242021e-010 0 0)
(-0.00083075174 0.0053068626 0 -3.327631e-010 0 0)
(-0.0008307526 0.0053068627 0 4.2672112e-010 0 0)
(-0.00083075283 0.0053068623 0 1.0734342e-009 0 0)
(-0.00083075358 0.0053068622 0 1.4362739e-009 0 0)
(-0.00083075539 0.005306864 0 1.4923818e-009 0 0)
(-0.012592758 0.002891147 0 0.0083708229 0 0)
(-0.007025477 0.0048820461 0 0.0049176744 0 0)
(-0.0036611933 0.0071021772 0 0.0016974907 0 0)
(-0.0026291068 0.0081739056 0 0.0005996288 0 0)
(-0.0024069478 0.0086239363 0 0.00020228979 0 0)
(-0.0023129213 0.008836352 0 2.599601e-005 0 0)
(-0.0023089446 0.0088725098 0 -1.1053154e-005 0 0)
(-0.0023073152 0.0088704197 0 -1.1915098e-005 0 0)
(-0.0023119453 0.008863201 0 -5.3918581e-006 0 0)
(-0.0023149411 0.0088588019 0 -6.7979504e-007 0 0)
(-0.0023159634 0.0088577549 0 6.3362972e-007 0 0)
(-0.0023158607 0.0088578562 0 5.3540484e-007 0 0)
(-0.0023154984 0.0088581589 0 1.4264068e-007 0 0)
(-0.0023153192 0.0088582735 0 -3.5994891e-008 0 0)
(-0.0023152921 0.0088582706 0 -4.7627346e-008 0 0)
(-0.002315314 0.0088582412 0 -1.3092869e-008 0 0)
(-0.0023153265 0.0088582288 0 2.5280842e-009 0 0)
(-0.002315327 0.0088582276 0 3.1035083e-009 0 0)
(-0.0023153254 0.0088582291 0 8.2195126e-010 0 0)
(-0.0023153246 0.00885823 0 -3.1169657e-010 0 0)
(-0.0023153248 0.00885823 0 -1.599151e-010 0 0)
(-0.0023153251 0.0088582295 0 2.5240554e-010 0 0)
(-0.0023153255 0.0088582296 0 8.1410812e-010 0 0)
(-0.0023153258 0.0088582292 0 9.1612446e-010 0 0)
(-0.0023153282 0.0088582322 0 9.618196e-010 0 0)
(-0.011413417 0.0042386815 0 0.0074473878 0 0)
(-0.0060862125 0.0078251981 0 0.0035550848 0 0)
(-0.0048799415 0.0099703943 0 0.0015983088 0 0)
(-0.0043187368 0.011690922 0 0.00042014182 0 0)
(-0.0044752155 0.012267986 0 8.8111718e-005 0 0)
(-0.0045454131 0.012426088 0 1.4322922e-005 0 0)
(-0.0045658956 0.012448861 0 -5.6365674e-006 0 0)
(-0.004563464 0.012442825 0 -6.0637503e-006 0 0)
(-0.004563437 0.012433902 0 -2.524875e-006 0 0)
(-0.004563675 0.012429451 0 -6.3619215e-008 0 0)
(-0.0045638393 0.012428681 0 4.3064069e-007 0 0)
(-0.0045637269 0.012428921 0 2.8658088e-007 0 0)
(-0.0045635565 0.01242927 0 4.5543384e-008 0 0)
(-0.0045634868 0.012429376 0 -2.9859109e-008 0 0)
(-0.0045634733 0.012429362 0 -2.3597268e-008 0 0)
(-0.0045634776 0.01242933 0 -3.8231124e-009 0 0)
(-0.0045634809 0.01242932 0 2.4558607e-009 0 0)
(-0.004563481 0.012429319 0 1.9105839e-009 0 0)
(-0.0045634805 0.012429321 0 2.1406972e-010 0 0)
(-0.00456348 0.012429321 0 -2.2582973e-010 0 0)
(-0.0045634801 0.012429322 0 -7.897677e-011 0 0)
(-0.0045634803 0.012429321 0 1.4118176e-010 0 0)
(-0.0045634805 0.012429322 0 2.7284963e-010 0 0)
(-0.0045634812 0.012429322 0 3.7254116e-010 0 0)
(-0.0045634844 0.012429325 0 4.1185171e-010 0 0)
(-0.0095036484 0.0057100055 0 0.0059739313 0 0)
(-0.0062719874 0.010825738 0 0.0024540874 0 0)
(-0.0063831284 0.013456571 0 0.0010160641 0 0)
(-0.0069296793 0.015306041 0 0.00026152558 0 0)
(-0.0074491238 0.015883627 0 6.0013656e-005 0 0)
(-0.0075889177 0.016028827 0 1.7651107e-005 0 0)
(-0.0076170424 0.016045151 0 2.5063892e-006 0 0)
(-0.0076112828 0.016037794 0 6.8900702e-007 0 0)
(-0.0076061429 0.016029681 0 2.2057962e-007 0 0)
(-0.0076038227 0.016026408 0 2.7036504e-007 0 0)
(-0.0076033523 0.016026098 0 7.2748802e-008 0 0)
(-0.0076033376 0.016026401 0 -3.0036361e-008 0 0)
(-0.0076034374 0.016026685 0 -3.2833897e-008 0 0)
(-0.0076034656 0.016026748 0 -1.0044883e-008 0 0)
(-0.007603456 0.016026727 0 2.1406888e-009 0 0)
(-0.007603442 0.016026703 0 3.3359833e-009 0 0)
(-0.0076034375 0.016026696 0 1.2683781e-009 0 0)
(-0.0076034372 0.016026696 0 1.5428338e-010 0 0)
(-0.0076034379 0.016026697 0 -1.4590861e-010 0 0)
(-0.0076034383 0.016026697 0 -3.8972673e-011 0 0)
(-0.0076034384 0.016026698 0 1.5260002e-011 0 0)
(-0.0076034384 0.016026698 0 -3.9047908e-011 0 0)
(-0.0076034386 0.016026698 0 -3.4865873e-011 0 0)
(-0.007603439 0.016026698 0 -3.195521e-010 0 0)
(-0.0076034422 0.016026701 0 -3.3763604e-010 0 0)
(-0.0074901186 0.0087990416 0 0.0036052687 0 0)
(-0.0068563006 0.014139481 0 0.0012073658 0 0)
(-0.0090512456 0.017458221 0 0.00035512943 0 0)
(-0.010656556 0.019135878 0 0.00010605955 0 0)
(-0.011340021 0.019568495 0 2.9110463e-005 0 0)
(-0.011474231 0.019663358 0 1.6610917e-005 0 0)
(-0.011490813 0.019665315 0 9.4454354e-006 0 0)
(-0.011481187 0.019658919 0 6.7504287e-006 0 0)
(-0.01147064 0.019653362 0 2.1561991e-006 0 0)
(-0.011466324 0.019651788 0 2.2448373e-007 0 0)
(-0.011465567 0.019651778 0 -3.4663026e-007 0 0)
(-0.011465729 0.019651988 0 -2.9423905e-007 0 0)
(-0.011466071 0.019652116 0 -6.4356808e-008 0 0)
(-0.011466167 0.019652137 0 2.3235098e-008 0 0)
(-0.011466155 0.019652125 0 2.5220001e-008 0 0)
(-0.011466126 0.019652114 0 7.2032353e-009 0 0)
(-0.011466116 0.019652111 0 -8.6633164e-010 0 0)
(-0.011466116 0.019652111 0 -1.3883305e-009 0 0)
(-0.011466118 0.019652111 0 -2.5674716e-010 0 0)
(-0.011466119 0.019652112 0 1.3284582e-010 0 0)
(-0.011466118 0.019652111 0 8.3044571e-011 0 0)
(-0.011466118 0.019652112 0 -2.2732627e-010 0 0)
(-0.011466119 0.019652112 0 -2.2610971e-010 0 0)
(-0.011466119 0.019652113 0 -1.026717e-009 0 0)
(-0.011466122 0.019652115 0 -1.0220193e-009 0 0)
(-0.0065157016 0.011461986 0 0.0014372925 0 0)
(-0.0089004705 0.018793443 0 -0.000355293 0 0)
(-0.013587352 0.02178351 0 -0.00012038921 0 0)
(-0.015491069 0.023007603 0 1.2115901e-005 0 0)
(-0.016103425 0.023248737 0 2.475581e-005 0 0)
(-0.016188604 0.023299869 0 2.3225805e-005 0 0)
(-0.016196932 0.023300426 0 1.6450201e-005 0 0)
(-0.016186329 0.023299685 0 1.0659129e-005 0 0)
(-0.016175118 0.023299218 0 2.9968932e-006 0 0)
(-0.016170328 0.023299401 0 -1.0445301e-007 0 0)
(-0.016169525 0.023299352 0 -6.7757721e-007 0 0)
(-0.016169765 0.023299296 0 -4.2991218e-007 0 0)
(-0.016170188 0.023299237 0 -7.5723614e-008 0 0)
(-0.016170346 0.023299232 0 5.3518408e-008 0 0)
(-0.016170335 0.023299242 0 3.8766526e-008 0 0)
(-0.016170301 0.023299248 0 9.6164004e-009 0 0)
(-0.016170285 0.023299247 0 -2.9801955e-009 0 0)
(-0.016170285 0.023299246 0 -2.1756876e-009 0 0)
(-0.016170287 0.023299245 0 -2.8455394e-010 0 0)
(-0.016170288 0.023299245 0 3.1534981e-010 0 0)
(-0.016170288 0.023299246 0 8.5709395e-011 0 0)
(-0.016170287 0.023299246 0 -4.3810943e-010 0 0)
(-0.016170288 0.023299246 0 -5.4841796e-010 0 0)
(-0.016170288 0.023299248 0 -1.4542997e-009 0 0)
(-0.016170289 0.023299248 0 -1.3089229e-009 0 0)
(-0.0065178625 0.016171315 0 -0.0017799049 0 0)
(-0.013513837 0.024159196 0 -0.0017367268 0 0)
(-0.019844632 0.026179067 0 -0.00034902408 0 0)
(-0.021209757 0.026818891 0 -3.7035222e-005 0 0)
(-0.021671709 0.026898323 0 2.7233421e-005 0 0)
(-0.021704265 0.026926378 0 2.7008607e-005 0 0)
(-0.021725158 0.026937571 0 1.9434629e-005 0 0)
(-0.021718327 0.026947085 0 9.6527082e-006 0 0)
(-0.021712224 0.026950343 0 2.6692969e-006 0 0)
(-0.021708253 0.026951327 0 -2.7780078e-007 0 0)
(-0.021706972 0.026950894 0 -8.2045389e-007 0 0)
(-0.021707176 0.026950459 0 -3.8036838e-007 0 0)
(-0.021707573 0.026950314 0 -3.5934461e-008 0 0)
(-0.021707748 0.026950328 0 6.8316423e-008 0 0)
(-0.021707743 0.026950368 0 3.7399769e-008 0 0)
(-0.021707709 0.026950382 0 5.9769388e-009 0 0)
(-0.021707693 0.026950381 0 -3.9454768e-009 0 0)
(-0.021707693 0.026950378 0 -2.1070013e-009 0 0)
(-0.021707695 0.026950377 0 -2.016764e-011 0 0)
(-0.021707696 0.026950377 0 3.9368426e-010 0 0)
(-0.021707696 0.026950378 0 1.2870339e-011 0 0)
(-0.021707695 0.026950378 0 -6.3306141e-010 0 0)
(-0.021707696 0.026950379 0 -1.1169455e-009 0 0)
(-0.021707696 0.02695038 0 -1.4285202e-009 0 0)
(-0.021707694 0.026950379 0 -1.1061963e-009 0 0)
(-0.011840545 0.025110332 0 -0.0053146716 0 0)
(-0.021849516 0.03025638 0 -0.0027767245 0 0)
(-0.027332814 0.030461633 0 -0.00035081326 0 0)
(-0.027657368 0.030502011 0 -5.2834205e-005 0 0)
(-0.027946991 0.030490641 0 4.1138123e-005 0 0)
(-0.027991832 0.030534481 0 2.3541415e-005 0 0)
(-0.028045757 0.030561581 0 1.6684856e-005 0 0)
(-0.028050541 0.030578453 0 6.5701625e-006 0 0)
(-0.028050388 0.03058408 0 1.5595616e-006 0 0)
(-0.028046684 0.03058478 0 -6.176233e-007 0 0)
(-0.028045076 0.030583642 0 -6.523125e-007 0 0)
(-0.028044932 0.03058296 0 -2.521837e-007 0 0)
(-0.028045235 0.0305828 0 9.3747699e-009 0 0)
(-0.028045405 0.030582861 0 5.9438045e-008 0 0)
(-0.028045422 0.030582924 0 2.6951656e-008 0 0)
(-0.028045396 0.03058294 0 1.9710189e-009 0 0)
(-0.028045381 0.030582937 0 -3.5455154e-009 0 0)
(-0.02804538 0.030582933 0 -1.4422418e-009 0 0)
(-0.028045382 0.030582932 0 1.5915489e-010 0 0)
(-0.028045383 0.030582932 0 3.227755e-010 0 0)
(-0.028045382 0.030582933 0 -5.0769354e-011 0 0)
(-0.028045382 0.030582933 0 -7.0450779e-010 0 0)
(-0.028045381 0.030582933 0 -1.5052971e-009 0 0)
(-0.028045381 0.030582934 0 -1.5738916e-009 0 0)
(-0.028045374 0.03058293 0 -8.1278852e-010 0 0)
(-0.035234672 0.042437289 0 -0.0098566354 0 0)
(-0.03351494 0.035664443 0 -0.0018460722 0 0)
(-0.039624605 0.036523504 0 -0.00020535498 0 0)
(-0.038059989 0.03567885 0 -1.79512e-005 0 0)
(-0.038855486 0.035927009 0 2.5547453e-005 0 0)
(-0.038802922 0.035916435 0 8.5905474e-006 0 0)
(-0.038927523 0.035971229 0 6.1224073e-006 0 0)
(-0.038928572 0.035980719 0 2.0723069e-006 0 0)
(-0.038938077 0.035988583 0 5.0504541e-007 0 0)
(-0.038932654 0.03598759 0 -3.1499254e-007 0 0)
(-0.038931135 0.035986448 0 -2.3783335e-007 0 0)
(-0.038930425 0.035985702 0 -7.9352357e-008 0 0)
(-0.038930674 0.035985649 0 1.4498987e-008 0 0)
(-0.038930856 0.035985752 0 2.5635293e-008 0 0)
(-0.038930922 0.035985825 0 9.8076205e-009 0 0)
(-0.03893091 0.035985837 0 1.3670502e-012 0 0)
(-0.038930896 0.035985831 0 -1.5559279e-009 0 0)
(-0.038930893 0.035985826 0 -5.264806e-010 0 0)
(-0.038930895 0.035985826 0 1.1129258e-010 0 0)
(-0.038930896 0.035985827 0 1.1065743e-010 0 0)
(-0.038930896 0.035985827 0 -1.1677136e-010 0 0)
(-0.038930895 0.035985827 0 -4.9059392e-010 0 0)
(-0.038930892 0.035985826 0 -1.2632791e-009 0 0)
(-0.038930888 0.035985824 0 -8.6381528e-010 0 0)
(-0.038930876 0.03598582 0 4.8026966e-011 0 0)
(-0.00056481142 0.00064516061 0 0.00051127543 0 0)
(-0.00064160025 2.6010247e-005 0 0.00069236158 0 0)
(-0.00065117908 -0.00020950177 0 0.00061348774 0 0)
(-0.00049698101 -0.00028698566 0 0.00048954099 0 0)
(-0.00036208532 -0.00027475285 0 0.00035556145 0 0)
(-0.00025895464 -0.00023512244 0 0.00025446673 0 0)
(-0.0001809514 -0.00018039515 0 0.00017793972 0 0)
(-0.00013014842 -0.00012662419 0 0.00012875779 0 0)
(-9.8730766e-005 -7.5432641e-005 0 9.7295422e-005 0 0)
(-8.321564e-005 -3.3661131e-005 0 8.2648339e-005 0 0)
(-7.829066e-005 1.6065706e-005 0 7.7764457e-005 0 0)
(-8.5352387e-005 6.4818356e-005 0 8.4004577e-005 0 0)
(-0.00010300584 0.0001291612 0 0.00010198892 0 0)
(-0.00013028323 0.0002037918 0 0.00012731269 0 0)
(-0.00017618032 0.00032034348 0 0.00017136819 0 0)
(-0.00024131253 0.00049396405 0 0.00023316045 0 0)
(-0.00032397315 0.00072898451 0 0.00030200271 0 0)
(-0.00044262607 0.001101735 0 0.00039963744 0 0)
(-0.00055112198 0.0017046055 0 0.00047519997 0 0)
(-0.00070385224 0.0024001508 0 0.00049915091 0 0)
(-0.00062480626 0.0037016857 0 0.00033477099 0 0)
(-0.00051677357 0.0048832701 0 -0.00035584644 0 0)
(0.001341644 0.0069500233 0 -0.0019975623 0 0)
(0.0019055233 0.0076544176 0 -0.0043721992 0 0)
(0.0098251315 0.0073484302 0 -0.012939889 0 0)
(-0.00070128222 0.00086633767 0 0.00061842185 0 0)
(-0.00072584131 1.0968786e-005 0 0.00079370273 0 0)
(-0.00069927077 -0.00029558286 0 0.0006505501 0 0)
(-0.00049084562 -0.00036205184 0 0.00047962995 0 0)
(-0.00032597663 -0.00032876207 0 0.00032025864 0 0)
(-0.00020964267 -0.00025934715 0 0.00020581672 0 0)
(-0.00013455164 -0.00018496032 0 0.00013265388 0 0)
(-8.5564705e-005 -0.00011233704 0 8.5618843e-005 0 0)
(-5.9329209e-005 -5.0567601e-005 0 5.8971033e-005 0 0)
(-4.5735807e-005 -5.3060337e-008 0 4.5696089e-005 0 0)
(-3.907127e-005 5.7576684e-005 0 3.8885719e-005 0 0)
(-3.9477584e-005 0.00011273555 0 3.906284e-005 0 0)
(-4.453549e-005 0.00018159004 0 4.4855761e-005 0 0)
(-5.4217204e-005 0.0002672176 0 5.241786e-005 0 0)
(-6.8798396e-005 0.00038457651 0 6.2539629e-005 0 0)
(-8.4100157e-005 0.00057129962 0 7.8212483e-005 0 0)
(-9.546034e-005 0.0008082379 0 7.8934148e-005 0 0)
(-0.00010241254 0.0011574764 0 5.9732528e-005 0 0)
(-3.868544e-005 0.0017294739 0 -2.9007779e-005 0 0)
(8.9330993e-005 0.0023317405 0 -0.0002666101 0 0)
(0.00058097091 0.0032146696 0 -0.0008502158 0 0)
(0.0011958177 0.0037824133 0 -0.0019014309 0 0)
(0.0031735215 0.0042724067 0 -0.0039111839 0 0)
(0.0052069311 0.0019786864 0 -0.00740592 0 0)
(0.0063152843 -0.0011408496 0 -0.0092191995 0 0)
(-0.00088632473 0.0011331663 0 0.00077701108 0 0)
(-0.00081280261 -9.4127901e-006 0 0.00088860113 0 0)
(-0.00071958315 -0.00036159276 0 0.00066351993 0 0)
(-0.00044919972 -0.00038846602 0 0.00043618611 0 0)
(-0.00025727067 -0.00030880314 0 0.00025317555 0 0)
(-0.00013896605 -0.00019976462 0 0.0001356937 0 0)
(-7.3254513e-005 -0.0001041784 0 7.2016469e-005 0 0)
(-3.225521e-005 -1.3262776e-005 0 3.2352842e-005 0 0)
(-1.3099304e-005 5.9719558e-005 0 1.3096384e-005 0 0)
(-3.4891838e-006 0.0001173458 0 3.0452328e-006 0 0)
(3.3978366e-006 0.0001746927 0 -3.7589029e-006 0 0)
(8.2693745e-006 0.00022956791 0 -9.4803259e-006 0 0)
(1.4223824e-005 0.00030366986 0 -1.6839979e-005 0 0)
(2.5072166e-005 0.00039047732 0 -2.6828991e-005 0 0)
(3.7059112e-005 0.00049686925 0 -4.5136537e-005 0 0)
(6.5109405e-005 0.00066806138 0 -7.6662121e-005 0 0)
(0.00012238357 0.00090969361 0 -0.00013976054 0 0)
(0.00019924381 0.0012050661 0 -0.00024536739 0 0)
(0.00040084394 0.001683029 0 -0.0004732567 0 0)
(0.00068687437 0.0021614023 0 -0.00083851032 0 0)
(0.0012778838 0.0027383925 0 -0.001506034 0 0)
(0.0020967037 0.0029646614 0 -0.0025415988 0 0)
(0.0034931925 0.0027845038 0 -0.0038773616 0 0)
(0.0046639409 0.00069388969 0 -0.0054106702 0 0)
(0.0035695381 -0.0026948766 0 -0.0037221086 0 0)
(-0.001102716 0.0014699393 0 0.00095466564 0 0)
(-0.00084681541 -2.3294442e-005 0 0.00092907142 0 0)
(-0.00066081654 -0.00036709684 0 0.0005984759 0 0)