/*--------------------------------*- C++ -*----------------------------------*\
| =========                 |                                                 |
| \\      /  F ield         | OpenFOAM: The Open Source CFD Toolbox           |
|  \\    /   O peration     | Version:  5.x                                   |
|   \\  /    A nd           | Web:      www.OpenFOAM.org                      |
|    \\/     M anipulation  |                                                 |
\*---------------------------------------------------------------------------*/
/*   Windows 32 and 64 bit porting by blueCAPE: http://www.bluecape.com.pt   *\
|  Based on Windows porting (2.0.x v4) by Symscape: http://www.symscape.com   |
\*---------------------------------------------------------------------------*/
FoamFile
{
    version     2.0;
    format      ascii;
    class       volVectorField;
    location    "0.22";
    object      U;
}
// * * * * * * * * * * * * * * * * * * * * * * * * * * * * * * * * * * * * * //

dimensions      [0 1 -1 0 0 0 0];

internalField   nonuniform List<vector> 
750
(
(0.039357879 -0.00015059918 0)
(0.04060898 -0.0001891931 0)
(0.042324622 -0.00018912265 0)
(0.043682873 -0.00016418676 0)
(0.044932853 -0.00013876418 0)
(0.045909031 -0.00010978837 0)
(0.046685745 -8.6460782e-005 0)
(0.047292084 -6.8363029e-005 0)
(0.04777551 -5.6189921e-005 0)
(0.048188338 -5.0523591e-005 0)
(0.048581672 -5.1019668e-005 0)
(0.049002262 -5.7984512e-005 0)
(0.049505735 -7.281888e-005 0)
(0.050162657 -9.8152551e-005 0)
(0.051071158 -0.00013844608 0)
(0.05236802 -0.00019994865 0)
(0.054255221 -0.00029622288 0)
(0.057087783 -0.00044904409 0)
(0.061404182 -0.00068583078 0)
(0.067978599 -0.0010560381 0)
(0.078265569 -0.0015662382 0)
(0.092678227 -0.0023281549 0)
(0.11568726 -0.0032005503 0)
(0.14268534 -0.0041283259 0)
(0.18269928 -0.0046965026 0)
(0.039362067 -0.00045011875 0)
(0.040616104 -0.00057334881 0)
(0.042337924 -0.00056500686 0)
(0.043699544 -0.00049424061 0)
(0.044948612 -0.00041521929 0)
(0.045923038 -0.00032938011 0)
(0.046697093 -0.00025889 0)
(0.047300266 -0.00020427226 0)
(0.047780381 -0.00016796653 0)
(0.048190489 -0.00015101011 0)
(0.048580699 -0.00015242041 0)
(0.048997669 -0.00017315703 0)
(0.049496259 -0.00021743183 0)
(0.050147065 -0.00029298086 0)
(0.051046562 -0.0004131607 0)
(0.052329639 -0.00059654774 0)
(0.054196002 -0.00088330711 0)
(0.056994578 -0.0013382566 0)
(0.061252499 -0.0020426167 0)
(0.067731803 -0.0031400525 0)
(0.077850164 -0.0046655609 0)
(0.092018466 -0.0068951049 0)
(0.1145998 -0.0095534301 0)
(0.14100072 -0.012235817 0)
(0.18064232 -0.014086761 0)
(0.039369218 -0.00074993215 0)
(0.040631233 -0.00096219922 0)
(0.04236558 -0.00094056851 0)
(0.043733189 -0.0008255385 0)
(0.044981119 -0.00069086277 0)
(0.045952028 -0.00054833627 0)
(0.046720196 -0.00043028947 0)
(0.047317034 -0.00033901684 0)
(0.047790965 -0.00027871373 0)
(0.048195562 -0.00025046802 0)
(0.04857937 -0.0002526498 0)
(0.048989194 -0.00028684971 0)
(0.049478105 -0.00036012047 0)
(0.050116529 -0.00048514818 0)
(0.050998059 -0.0006839178 0)
(0.052253751 -0.00098708116 0)
(0.054078013 -0.0014606314 0)
(0.056807803 -0.0022110816 0)
(0.060949428 -0.0033729132 0)
(0.067235433 -0.0051765718 0)
(0.077027193 -0.0076977968 0)
(0.090679992 -0.011333752 0)
(0.11247363 -0.015751192 0)
(0.13765604 -0.020113251 0)
(0.17646119 -0.02338659 0)
(0.03937985 -0.0010531265 0)
(0.040655313 -0.0013546395 0)
(0.042408737 -0.0013189052 0)
(0.043784822 -0.0011575226 0)
(0.045031386 -0.00096593596 0)
(0.045996936 -0.00076568238 0)
(0.046755761 -0.00059971693 0)
(0.047343079 -0.00047188109 0)
(0.047808104 -0.00038764903 0)
(0.048204334 -0.00034805797 0)
(0.048578423 -0.00035074235 0)
(0.048977679 -0.00039792995 0)
(0.049452289 -0.00049935257 0)
(0.050072148 -0.00067256374 0)
(0.050927002 -0.00094759821 0)
(0.052142245 -0.0013667743 0)
(0.053904067 -0.0020206876 0)
(0.056532267 -0.0030553831 0)
(0.060504683 -0.0046549496 0)
(0.066503386 -0.0071321465 0)
(0.075815886 -0.010598829 0)
(0.08870072 -0.015570101 0)
(0.10933853 -0.021637635 0)
(0.13262994 -0.027612406 0)
(0.17012565 -0.03236246 0)
(0.03939528 -0.0013615097 0)
(0.040689549 -0.0017518413 0)
(0.042468697 -0.001701417 0)
(0.043855834 -0.0014903677 0)
(0.045100448 -0.0012401441 0)
(0.046058676 -0.00098077804 0)
(0.046804632 -0.00076636827 0)
(0.047379309 -0.00060211127 0)
(0.047832614 -0.00049404732 0)
(0.048217605 -0.00044300677 0)
(0.04857862 -0.00044589736 0)
(0.048964124 -0.00050537068 0)
(0.049419915 -0.00063385054 0)
(0.050015273 -0.00085339703 0)
(0.050835126 -0.0012015794 0)
(0.051997545 -0.0017316357 0)
(0.053677863 -0.0025569708 0)
(0.056173972 -0.0038605224 0)
(0.059927638 -0.0058709096 0)
(0.065549742 -0.008976289 0)
(0.07424684 -0.013317922 0)
(0.086095539 -0.019525079 0)
(0.10521812 -0.027092875 0)
(0.12603327 -0.034647948 0)
(0.16168645 -0.040658504 0)
(0.039416973 -0.0016770001 0)
(0.040735378 -0.0021555288 0)
(0.042547018 -0.0020891536 0)
(0.043947855 -0.0018243176 0)
(0.045189432 -0.0015131334 0)
(0.046138127 -0.0011929413 0)
(0.04686764 -0.00092944218 0)
(0.047426624 -0.00072896125 0)
(0.047865256 -0.00059717683 0)
(0.048236165 -0.00053454277 0)
(0.048580716 -0.00053727625 0)
(0.048949398 -0.00060830335 0)
(0.049382205 -0.00076226914 0)
(0.04994729 -0.0010258935 0)
(0.050724232 -0.001443326 0)
(0.05182195 -0.0020777775 0)
(0.053402854 -0.0030636043 0)
(0.055738219 -0.0046171188 0)
(0.059227868 -0.0070046285 0)
(0.064396481 -0.010683333 0)
(0.072344298 -0.015806663 0)
(0.08290064 -0.02312689 0)
(0.1001955 -0.031992174 0)
(0.11775995 -0.04108091 0)
(0.15113343 -0.048131799 0)
(0.039446773 -0.002002036 0)
(0.040794308 -0.0025671683 0)
(0.042645219 -0.0024833145 0)
(0.044062197 -0.0021595309 0)
(0.045299293 -0.0017844579 0)
(0.046235696 -0.001401406 0)
(0.04694541 -0.0010880921 0)
(0.047485485 -0.00085163381 0)
(0.047906319 -0.00069632522 0)
(0.04826041 -0.00062188847 0)
(0.048585006 -0.00062412394 0)
(0.048934094 -0.00070574976 0)
(0.049339914 -0.00088346395 0)
(0.049869401 -0.0011884399 0)
(0.050595947 -0.0016703748 0)
(0.051617772 -0.0024015857 0)
(0.053082941 -0.0035348744 0)
(0.055232091 -0.0053161011 0)
(0.058417473 -0.00804128 0)
(0.063065074 -0.012227641 0)
(0.070139918 -0.018016146 0)
(0.079169478 -0.026298197 0)
(0.094308111 -0.036173863 0)
(0.10768049 -0.046630813 0)
(0.13899006 -0.054779567 0)
(0.039487191 -0.0023397422 0)
(0.040867685 -0.0029878506 0)
(0.042764206 -0.0028852516 0)
(0.044199633 -0.0024959982 0)
(0.045430051 -0.0020534906 0)
(0.046350832 -0.0016053882 0)
(0.047037743 -0.001241556 0)
(0.047555459 -0.00096927595 0)
(0.047955409 -0.00079072386 0)
(0.048289797 -0.00070428674 0)
(0.048591302 -0.00070557393 0)
(0.048917642 -0.00079700015 0)
(0.049293444 -0.00099629863 0)
(0.04978224 -0.0013393757 0)
(0.050451425 -0.0018804334 0)
(0.051387074 -0.0026997607 0)
(0.052722277 -0.0039659403 0)
(0.054663177 -0.0059498243 0)
(0.057509154 -0.0089684977 0)
(0.061576943 -0.013586726 0)
(0.067678733 -0.019906778 0)
(0.074967264 -0.028973053 0)
(0.087633622 -0.039528778 0)
(0.096434848 -0.051268309 0)
(0.12550924 -0.059455786 0)
(0.039540903 -0.0026934333 0)
(0.040956986 -0.0034189342 0)
(0.042903936 -0.0032959535 0)
(0.044360321 -0.0028335805 0)
(0.045580272 -0.002319411 0)
(0.046482124 -0.0018040265 0)
(0.047143042 -0.0013889531 0)
(0.04763498 -0.0010811333 0)
(0.048011082 -0.00087960979 0)
(0.048322398 -0.00078092071 0)
(0.048598371 -0.00078099663 0)
(0.048898717 -0.00088124468 0)
(0.049241872 -0.0010997537 0)
(0.049685551 -0.0014773305 0)
(0.050291144 -0.0020717126 0)
(0.051131674 -0.0029696022 0)
(0.052324325 -0.0043523062 0)
(0.054040101 -0.0065112484 0)
(0.056517192 -0.0097750334 0)
(0.059955014 -0.014737668 0)
(0.065019978 -0.021435377 0)
(0.070412228 -0.031064367 0)
(0.080368002 -0.0419682 0)
(0.084179725 -0.055081472 0)
(0.11069958 -0.062567079 0)
(0.039609081 -0.0030644085 0)
(0.041063864 -0.0038654941 0)
(0.043063569 -0.0037139769 0)
(0.044543017 -0.0031724224 0)
(0.04574729 -0.0025818168 0)
(0.046625873 -0.0019962058 0)
(0.047258331 -0.0015295533 0)
(0.047721052 -0.001186553 0)
(0.048070155 -0.00096222536 0)
(0.048354869 -0.00085123434 0)
(0.04860422 -0.00084954892 0)
(0.048874113 -0.00095781731 0)
(0.049182783 -0.001193296 0)
(0.049577541 -0.0016011834 0)
(0.050114929 -0.0022421049 0)
(0.050851485 -0.0032086834 0)
(0.051891292 -0.0046916904 0)
(0.053369352 -0.006997724 0)
(0.055453746 -0.010454577 0)
(0.058234417 -0.015675187 0)
(0.062222026 -0.022622974 0)
(0.065738025 -0.032543282 0)
(0.072509344 -0.043520682 0)
(0.070641115 -0.057575379 0)
(0.091242662 -0.062754978 0)
(0.21558313 -0.0026980068 0)
(0.22645617 -0.0010264865 0)
(0.23042008 -0.00027119052 0)
(0.23096551 -7.0252391e-005 0)
(0.2314753 -3.2792938e-005 0)
(0.2315733 -1.5289927e-005 0)
(0.23166828 -7.0856935e-006 0)
(0.23167312 8.0968921e-008 0)
(0.23165954 2.0616375e-006 0)
(0.2316395 1.7795505e-006 0)
(0.23163187 5.5484917e-007 0)
(0.23163172 -1.0404612e-007 0)
(0.2316335 -1.5391216e-007 0)
(0.2316342 -4.9486895e-008 0)
(0.23163416 1.1736615e-008 0)
(0.23163397 1.6576964e-008 0)
(0.23163389 5.6803741e-009 0)
(0.23163389 -7.3445253e-010 0)
(0.23163391 -1.1069629e-009 0)
(0.23163391 -2.9370548e-010 0)
(0.23163391 5.0110005e-011 0)
(0.23163391 -6.4994939e-011 0)
(0.23163391 -1.8817563e-011 0)
(0.23163391 1.2460234e-009 0)
(0.23163389 1.320625e-009 0)
(0.21266671 -0.0077697942 0)
(0.22219438 -0.0029868414 0)
(0.22599763 -0.00072442169 0)
(0.22640882 -0.00024522038 0)
(0.22682242 -0.00010421682 0)
(0.22688565 -4.0952292e-005 0)
(0.2269648 -1.5983186e-005 0)
(0.22696457 7.970036e-007 0)
(0.22694857 6.5937288e-006 0)
(0.22693027 4.964987e-006 0)
(0.2269238 1.4729352e-006 0)
(0.22692413 -3.3227906e-007 0)
(0.22692576 -4.5358831e-007 0)
(0.22692637 -1.242656e-007 0)
(0.22692631 4.139415e-008 0)
(0.22692614 4.7857697e-008 0)
(0.22692608 1.4942488e-008 0)
(0.22692608 -2.1921732e-009 0)
(0.22692609 -3.2115225e-009 0)
(0.22692609 -8.1415807e-010 0)
(0.22692609 2.779545e-011 0)
(0.22692609 -1.8315071e-010 0)
(0.22692609 5.2490105e-011 0)
(0.22692609 3.8705287e-009 0)
(0.22692607 4.2371696e-009 0)
(0.20670583 -0.012366278 0)
(0.21361632 -0.0046786408 0)
(0.21726507 -0.0011821072 0)
(0.21720205 -0.00034580359 0)
(0.21743501 -0.00012939732 0)
(0.21749161 -6.344157e-005 0)
(0.21755375 -2.2439787e-005 0)
(0.21754406 2.8902841e-006 0)
(0.21752632 1.1159169e-005 0)
(0.21751189 7.7259226e-006 0)
(0.21750791 2.0909584e-006 0)
(0.21750891 -6.0048576e-007 0)
(0.21751024 -7.1286888e-007 0)
(0.21751066 -1.7931565e-007 0)
(0.21751057 7.1816217e-008 0)
(0.21751044 7.4324312e-008 0)
(0.2175104 2.1357515e-008 0)
(0.21751041 -3.913372e-009 0)
(0.21751041 -4.9697218e-009 0)
(0.21751042 -1.2054311e-009 0)
(0.21751042 6.281462e-011 0)
(0.21751042 -2.8056379e-010 0)
(0.21751042 2.8553631e-010 0)
(0.21751041 6.6550329e-009 0)
(0.21751039 7.2825145e-009 0)
(0.19743415 -0.016232198 0)
(0.20109087 -0.006047595 0)
(0.20385495 -0.0014378323 0)
(0.20325323 -0.00037181558 0)
(0.20338893 -0.00013166238 0)
(0.20341921 -7.705333e-005 0)
(0.20344475 -2.4687183e-005 0)
(0.20342295 6.7701652e-006 0)
(0.20340742 1.5071269e-005 0)
(0.20339924 9.5182436e-006 0)
(0.20339877 2.2454171e-006 0)
(0.20340015 -9.0203379e-007 0)
(0.20340097 -8.8932237e-007 0)
(0.2034011 -2.0575102e-007 0)
(0.20340099 9.7391504e-008 0)
(0.20340092 9.0669965e-008 0)
(0.20340091 2.3315622e-008 0)
(0.20340092 -5.923676e-009 0)
(0.20340092 -6.0399384e-009 0)
(0.20340092 -1.3394904e-009 0)
(0.20340092 1.0344466e-010 0)
(0.20340092 -3.6591121e-010 0)
(0.20340092 5.9877167e-010 0)
(0.20340092 9.359038e-009 0)
(0.2034009 1.0029794e-008 0)
(0.18467121 -0.019072906 0)
(0.1843888 -0.0069291105 0)
(0.1854067 -0.0013910351 0)
(0.18466084 -0.00034994907 0)
(0.18475582 -0.00014243124 0)
(0.18469266 -8.3425484e-005 0)
(0.18467622 -2.0416391e-005 0)
(0.18464893 1.1170586e-005 0)
(0.18464145 1.7445117e-005 0)
(0.18464181 9.8111642e-006 0)
(0.18464481 1.9000316e-006 0)
(0.184646 -1.149495e-006 0)
(0.18464609 -9.47445e-007 0)
(0.18464588 -1.8823709e-007 0)
(0.18464579 1.1620274e-007 0)
(0.18464579 9.4293364e-008 0)
(0.18464582 2.0670505e-008 0)
(0.18464583 -7.5788264e-009 0)
(0.18464583 -6.2726044e-009 0)
(0.18464582 -1.2345392e-009 0)
(0.18464582 1.0856827e-010 0)
(0.18464582 -3.7407578e-010 0)
(0.18464582 8.8515515e-010 0)
(0.18464582 1.1390226e-008 0)
(0.18464581 1.1893041e-008 0)
(0.16863133 -0.020840938 0)
(0.16245928 -0.0068376015 0)
(0.16231567 -0.0012170727 0)
(0.16150081 -0.00030975921 0)
(0.16152651 -0.00011814102 0)
(0.16137463 -6.8834235e-005 0)
(0.16133778 -1.0874471e-005 0)
(0.16131692 1.4258428e-005 0)
(0.16132253 1.7225882e-005 0)
(0.16133169 8.5578654e-006 0)
(0.16133696 1.2305671e-006 0)
(0.16133733 -1.2312545e-006 0)
(0.16133661 -8.5400802e-007 0)
(0.16133614 -1.3394552e-007 0)
(0.1613361 1.2025917e-007 0)
(0.16133618 8.3364491e-008 0)
(0.16133623 1.4652039e-008 0)
(0.16133624 -8.2703729e-009 0)
(0.16133623 -5.5090119e-009 0)
(0.16133623 -8.898992e-010 0)
(0.16133623 4.894048e-011 0)
(0.16133623 -3.8881918e-010 0)
(0.16133623 1.1341114e-009 0)
(0.16133623 1.1932996e-008 0)
(0.16133623 1.217474e-008 0)
(0.14799583 -0.020831457 0)
(0.13514323 -0.0059396012 0)
(0.13484576 -0.00092453004 0)
(0.13381769 -0.00024845957 0)
(0.13379226 -7.6724662e-005 0)
(0.13359244 -4.4996209e-005 0)
(0.13356075 -2.0879562e-006 0)
(0.13355292 1.4257832e-005 0)
(0.1335728 1.4054086e-005 0)
(0.1335877 6.0944023e-006 0)
(0.13359328 5.3982186e-007 0)
(0.13359255 -1.0813884e-006 0)
(0.13359117 -6.3583525e-007 0)
(0.13359062 -6.6492716e-008 0)
(0.13359068 1.0478032e-007 0)
(0.13359082 6.1508151e-008 0)
(0.13359087 7.5919383e-009 0)
(0.13359087 -7.44505e-009 0)
(0.13359086 -4.0413522e-009 0)
(0.13359086 -5.0759732e-010 0)
(0.13359086 -2.8703214e-011 0)
(0.13359086 -3.002439e-010 0)
(0.13359086 1.2711621e-009 0)
(0.13359086 1.0448962e-008 0)
(0.13359088 1.0512375e-008 0)
(0.12065733 -0.018161473 0)
(0.10291655 -0.0044139961 0)
(0.10292769 -0.00058032341 0)
(0.10164113 -0.00015989064 0)
(0.10167366 -3.0362771e-005 0)
(0.10147647 -2.1115711e-005 0)
(0.10147016 3.085961e-006 0)
(0.10147442 1.0498397e-005 0)
(0.10150338 8.9651737e-006 0)
(0.10151875 3.3311556e-006 0)
(0.101523 7.1652546e-008 0)
(0.10152141 -7.2762771e-007 0)
(0.10151984 -3.6762551e-007 0)
(0.10151939 -1.4766291e-008 0)
(0.10151953 7.1281182e-008 0)
(0.10151969 3.5459494e-008 0)
(0.10151973 2.1340827e-009 0)
(0.10151972 -5.1767341e-009 0)
(0.10151971 -2.3204406e-009 0)
(0.10151971 -1.7911849e-010 0)
(0.10151971 -7.6242499e-011 0)
(0.10151971 -1.9588718e-010 0)
(0.10151971 1.0210139e-009 0)
(0.10151971 7.153496e-009 0)
(0.10151974 7.1651529e-009 0)
(0.086128361 -0.013032921 0)
(0.065966445 -0.0024992204 0)
(0.066418139 -0.00021927815 0)
(0.065110013 -7.1102016e-005 0)
(0.065279196 4.4563908e-006 0)
(0.065124667 -5.7576505e-006 0)
(0.065146543 4.0118307e-006 0)
(0.065154925 4.6968815e-006 0)
(0.065181999 3.6475742e-006 0)
(0.065192806 1.100371e-006 0)
(0.065195077 -8.9596801e-008 0)
(0.065193366 -3.0811286e-007 0)
(0.065192151 -1.2819703e-007 0)
(0.065191902 8.0152076e-009 0)
(0.065192067 3.1139122e-008 0)
(0.065192186 1.2462928e-008 0)
(0.065192209 -4.0598241e-010 0)
(0.065192197 -2.3063157e-009 0)
(0.065192189 -8.1253449e-010 0)
(0.065192188 -2.3238807e-012 0)
(0.065192188 -8.1582814e-011 0)
(0.065192187 -1.4978381e-010 0)
(0.065192187 3.7125776e-010 0)
(0.06519219 3.1287765e-009 0)
(0.065192217 3.2122013e-009 0)
(0.040117672 -0.0068308855 0)
(0.024090847 -0.00013426451 0)
(0.025405498 3.4692701e-006 0)
(0.024435096 1.2562132e-005 0)
(0.024699481 -4.2689258e-008 0)
(0.024593755 2.222722e-008 0)
(0.024627229 -3.3472396e-007 0)
(0.024627476 1.2263241e-007 0)
(0.024641206 2.6026389e-008 0)
(0.024644405 3.4032814e-008 0)
(0.02464511 3.1565853e-009 0)
(0.024644236 -3.035894e-009 0)
(0.024643795 -2.7941944e-009 0)
(0.024643736 6.8428436e-010 0)
(0.024643823 3.9583277e-010 0)
(0.024643867 -5.7263679e-011 0)
(0.024643872 -2.2243181e-010 0)
(0.024643865 -1.1285855e-010 0)
(0.024643862 -3.2963864e-011 0)
(0.024643862 -1.12544e-011 0)
(0.024643862 -1.856378e-011 0)
(0.024643861 2.4012057e-011 0)
(0.024643861 1.4307412e-010 0)
(0.024643862 5.1499984e-010 0)
(0.024643876 4.6905264e-010 0)
(0.039771203 -0.0038336632 0)
(0.041313449 -0.0048109421 0)
(0.043419543 -0.0045550641 0)
(0.044944339 -0.0038537741 0)
(0.046105021 -0.0030972412 0)
(0.046927156 -0.0023680613 0)
(0.047497986 -0.0017964995 0)
(0.047893505 -0.0013831962 0)
(0.048182537 -0.0011140147 0)
(0.048408402 -0.00097873981 0)
(0.048602798 -0.00097260211 0)
(0.048804379 -0.0010945364 0)
(0.04903844 -0.0013591455 0)
(0.049327849 -0.0018194422 0)
(0.049721449 -0.002539777 0)
(0.050238997 -0.0036214795 0)
(0.05095555 -0.0052700905 0)
(0.051936136 -0.007808525 0)
(0.053214496 -0.011550654 0)
(0.054702889 -0.017088267 0)
(0.056537325 -0.024264134 0)
(0.056786249 -0.034042912 0)
(0.05704676 -0.04421478 0)
(0.04357638 -0.056632543 0)
(0.036439541 -0.046304896 0)
(0.040084886 -0.0051890507 0)
(0.041821693 -0.0064428844 0)
(0.044091879 -0.0058660097 0)
(0.045612151 -0.0048621443 0)
(0.04665705 -0.003805598 0)
(0.047345879 -0.0028506331 0)
(0.047779528 -0.0021161789 0)
(0.048040511 -0.0015993219 0)
(0.048213602 -0.0012682957 0)
(0.048332645 -0.0011017406 0)
(0.048428628 -0.0010844947 0)
(0.04851708 -0.0012120352 0)
(0.048613059 -0.0015014554 0)
(0.048723592 -0.0019978981 0)
(0.048869783 -0.0027745388 0)
(0.049048085 -0.0039281666 0)
(0.049238543 -0.0056534047 0)
(0.049448033 -0.0082726509 0)
(0.049579877 -0.012033439 0)
(0.049300921 -0.017324121 0)
(0.048530683 -0.0238389 0)
(0.045598002 -0.031371059 0)
(0.040595693 -0.037217731 0)
(0.026178735 -0.039977269 0)
(0.010907313 -0.020458887 0)
(0.040487993 -0.0068835299 0)
(0.042402524 -0.0082379952 0)
(0.044735812 -0.0072041339 0)
(0.046114037 -0.0057894667 0)
(0.046943642 -0.0043987604 0)
(0.047426985 -0.0032077385 0)
(0.047666171 -0.0023163157 0)
(0.04776817 -0.0017122787 0)
(0.047804273 -0.0013333379 0)
(0.047807296 -0.0011404486 0)
(0.047793089 -0.0011095463 0)
(0.047761055 -0.0012326546 0)
(0.047717756 -0.0015207591 0)
(0.047648565 -0.002009118 0)
(0.047539042 -0.0027751839 0)
(0.047381796 -0.0039142783 0)
(0.047090432 -0.0055688318 0)
(0.046588008 -0.0080376332 0)
(0.04574453 -0.011506735 0)
(0.04409643 -0.016180444 0)
(0.04135772 -0.021651485 0)
(0.036360993 -0.027056412 0)
(0.028819623 -0.030308735 0)
(0.015957835 -0.02959812 0)
(0.0025398498 -0.014002026 0)
(0.040960166 -0.0089581449 0)
(0.042915803 -0.01010384 0)
(0.045051137 -0.0084330976 0)
(0.046067528 -0.0065252566 0)
(0.046527317 -0.0047939315 0)
(0.046709315 -0.0033884078 0)
(0.046696594 -0.0023699208 0)
(0.046621162 -0.0017039303 0)
(0.046510846 -0.0012987365 0)
(0.046395826 -0.0010923959 0)
(0.046271699 -0.0010504079 0)
(0.046129348 -0.0011548178 0)
(0.045954719 -0.0014184313 0)
(0.045725771 -0.0018714065 0)
(0.045395548 -0.0025617819 0)
(0.044930302 -0.0035960455 0)
(0.044247888 -0.0050794248 0)
(0.043176347 -0.0072318001 0)
(0.041572415 -0.010208457 0)
(0.038979354 -0.014009585 0)
(0.035068463 -0.01821072 0)
(0.029171891 -0.021802191 0)
(0.02120871 -0.023000614 0)
(0.010874296 -0.020295944 0)
(0.0004014603 -0.0086532067 0)
(0.041407485 -0.011384621 0)
(0.043154313 -0.011816713 0)
(0.044643105 -0.0093220236 0)
(0.045011232 -0.0069000354 0)
(0.044918684 -0.0048836765 0)
(0.044699445 -0.003332362 0)
(0.044402245 -0.0022535403 0)
(0.044132525 -0.0015678924 0)
(0.043887329 -0.0011667857 0)
(0.043663941 -0.00096185651 0)
(0.043450545 -0.00091190037 0)
(0.043218558 -0.00099548373 0)
(0.04294216 -0.0012144956 0)
(0.042585244 -0.0015976541 0)
(0.042098159 -0.0021828395 0)
(0.041403723 -0.0030404216 0)
(0.040432669 -0.0042744204 0)
(0.038985143 -0.0060163596 0)
(0.036885027 -0.0083838605 0)
(0.033768285 -0.011289723 0)
(0.029323891 -0.014316702 0)
(0.023279889 -0.016526746 0)
(0.015806495 -0.016636021 0)
(0.0076542962 -0.013513715 0)
(-6.7951016e-005 -0.0054646837 0)
(0.041602947 -0.013999959 0)
(0.042829874 -0.013007605 0)
(0.043058159 -0.0095766591 0)
(0.042494952 -0.0067244455 0)
(0.041708468 -0.0045598426 0)
(0.041009201 -0.0029911633 0)
(0.040438213 -0.0019557894 0)
(0.039986875 -0.0013139281 0)
(0.039635332 -0.00094908832 0)
(0.03933517 -0.00076601113 0)
(0.03906264 -0.00071599275 0)
(0.038774761 -0.00077511911 0)
(0.038441125 -0.00094382218 0)
(0.038008542 -0.001234958 0)
(0.037434338 -0.0016868978 0)
(0.036624343 -0.0023401236 0)
(0.035498413 -0.0032739505 0)
(0.033883568 -0.0045724326 0)
(0.031584376 -0.0063000933 0)
(0.028330413 -0.0083566037 0)
(0.02389494 -0.010375512 0)
(0.018253326 -0.011641511 0)
(0.01170292 -0.011218602 0)
(0.0054437879 -0.0084373308 0)
(-0.00016023988 -0.0031207346 0)
(0.041262029 -0.016551963 0)
(0.041451755 -0.013126598 0)
(0.03977269 -0.0089092368 0)
(0.038078219 -0.0058451209 0)
(0.036575149 -0.0037732656 0)
(0.035434086 -0.0023732276 0)
(0.034644729 -0.0014923976 0)
(0.034077599 -0.00096765424 0)
(0.03366626 -0.00067700186 0)
(0.033337772 -0.00053411002 0)
(0.033047054 -0.000492069 0)
(0.032749833 -0.00052953413 0)
(0.032406095 -0.00064304904 0)
(0.031968479 -0.00084174998 0)
(0.031384808 -0.0011475859 0)
(0.030576195 -0.0015914573 0)
(0.029451781 -0.002219711 0)
(0.027871952 -0.0030862473 0)
(0.025658071 -0.0042181934 0)
(0.022614507 -0.0055334354 0)
(0.018607802 -0.0067539093 0)
(0.013726218 -0.0074029834 0)
(0.0083567561 -0.0068513994 0)
(0.0036962658 -0.0047416686 0)
(-0.00017922312 -0.0014913214 0)
(0.039631171 -0.018285275 0)
(0.038183985 -0.011596682 0)
(0.033951942 -0.0070930224 0)
(0.031274978 -0.0042672331 0)
(0.029263208 -0.0025812138 0)
(0.027896818 -0.0015485623 0)
(0.02702388 -0.00093462218 0)
(0.026445858 -0.00058120331 0)
(0.026049457 -0.00039276575 0)
(0.025748891 -0.00030195734 0)
(0.02548991 -0.0002744523 0)
(0.025230118 -0.00029404758 0)
(0.024930333 -0.00035683992 0)
(0.024551813 -0.00046914442 0)
(0.024045045 -0.00064038411 0)
(0.023347307 -0.00088976613 0)
(0.022378281 -0.0012419315 0)
(0.02102578 -0.0017247574 0)
(0.019149652 -0.0023482945 0)
(0.016611712 -0.0030608859 0)
(0.013353976 -0.003695331 0)
(0.009505674 -0.0039671399 0)
(0.0054550036 -0.0035229441 0)
(0.0022156583 -0.0021707919 0)
(-0.00018974342 -0.00044411914 0)
(0.034509571 -0.016439364 0)
(0.031598038 -0.0077606954 0)
(0.024573247 -0.0043611079 0)
(0.021683705 -0.0023483876 0)
(0.019623597 -0.0013370739 0)
(0.018390922 -0.00075955114 0)
(0.017646675 -0.00043705633 0)
(0.017191122 -0.00025941956 0)
(0.016895131 -0.00016813066 0)
(0.016680193 -0.00012524964 0)
(0.016499423 -0.00011208817 0)
(0.016319948 -0.00011932352 0)
(0.016113476 -0.00014535003 0)
(0.015851489 -0.00019216708 0)
(0.015499339 -0.00026337212 0)
(0.015013315 -0.00036712761 0)
(0.014336072 -0.00051340779 0)
(0.0133903 -0.00071290301 0)
(0.012081307 -0.00097060033 0)
(0.010318907 -0.0012627611 0)
(0.0080762745 -0.0015139316 0)
(0.0054886124 -0.0015900213 0)
(0.0028472445 -0.0013407896 0)
(0.00092803449 -0.00066837712 0)
(-0.00021364177 3.8279981e-005 0)
(0.020526036 -0.012027646 0)
(0.01735992 -0.0023130306 0)
(0.010574091 -0.00037788638 0)
(0.0091541614 -0.00014950005 0)
(0.0077767452 -4.5345124e-005 0)
(0.0071140009 -1.4791092e-005 0)
(0.0067213866 -2.809858e-006 0)
(0.0065003398 2.6040938e-006 0)
(0.0063656988 4.7182259e-006 0)
(0.0062742199 5.5191434e-006 0)
(0.0062003272 5.7773859e-006 0)
(0.006128037 6.1063621e-006 0)
(0.0060448486 6.8852765e-006 0)
(0.0059379453 8.0741365e-006 0)
(0.0057928462 1.0073524e-005 0)
(0.0055910618 1.2729339e-005 0)
(0.0053079789 1.6271942e-005 0)
(0.0049115764 2.1168282e-005 0)
(0.0043623205 2.7323768e-005 0)
(0.003624841 3.5380832e-005 0)
(0.0026903225 4.3928973e-005 0)
(0.0016383888 5.8819208e-005 0)
(0.00059690771 7.0852352e-005 0)
(-3.1399026e-005 0.00011319268 0)
(-0.00018742828 0.00012957073 0)
)
;

boundaryField
{
    inlet
    {
        type            fixedValue;
        value           uniform (0.03876 0 0);
    }
    walls
    {
        type            fixedValue;
        value           uniform (0 0 0);
    }
    outlet
    {
        type            zeroGradient;
    }
    centreline
    {
        type            symmetryPlane;
    }
    frontAndBack
    {
        type            empty;
    }
}


// ************************************************************************* //
