/*--------------------------------*- C++ -*----------------------------------*\
| =========                 |                                                 |
| \\      /  F ield         | OpenFOAM: The Open Source CFD Toolbox           |
|  \\    /   O peration     | Version:  5.x                                   |
|   \\  /    A nd           | Web:      www.OpenFOAM.org                      |
|    \\/     M anipulation  |                                                 |
\*---------------------------------------------------------------------------*/
/*   Windows 32 and 64 bit porting by blueCAPE: http://www.bluecape.com.pt   *\
|  Based on Windows porting (2.0.x v4) by Symscape: http://www.symscape.com   |
\*---------------------------------------------------------------------------*/
FoamFile
{
    version     2.0;
    format      ascii;
    class       volVectorField;
    location    "0.22";
    object      U_0;
}
// * * * * * * * * * * * * * * * * * * * * * * * * * * * * * * * * * * * * * //

dimensions      [0 1 -1 0 0 0 0];

internalField   nonuniform List<vector> 
750
(
(0.039357539 -0.00015051494 0)
(0.040607939 -0.00018908033 0)
(0.042322513 -0.00018900353 0)
(0.043679887 -0.00016407695 0)
(0.044929 -0.0001386672 0)
(0.045904487 -0.00010971079 0)
(0.046680655 -8.6402622e-005 0)
(0.047286611 -6.8323958e-005 0)
(0.047769796 -5.616505e-005 0)
(0.048182469 -5.0507308e-005 0)
(0.0485757 -5.1009681e-005 0)
(0.048996235 -5.7979238e-005 0)
(0.049499678 -7.281452e-005 0)
(0.050156562 -9.8146908e-005 0)
(0.05106501 -0.00013843532 0)
(0.052361759 -0.00019992587 0)
(0.054248709 -0.00029617559 0)
(0.057080773 -0.00044896722 0)
(0.06139645 -0.00068574649 0)
(0.067970241 -0.0010560084 0)
(0.078257368 -0.0015663367 0)
(0.092671424 -0.002328419 0)
(0.1156833 -0.0032008881 0)
(0.14268393 -0.0041285821 0)
(0.18269934 -0.0046965072 0)
(0.03936172 -0.00044986561 0)
(0.040615046 -0.0005730049 0)
(0.042335786 -0.00056465011 0)
(0.043696524 -0.00049390947 0)
(0.044944724 -0.00041492918 0)
(0.045918461 -0.0003291473 0)
(0.046691974 -0.00025871637 0)
(0.047294766 -0.00020415538 0)
(0.047774644 -0.00016789231 0)
(0.048184597 -0.00015096182 0)
(0.048574706 -0.00015239084 0)
(0.048991624 -0.00017314097 0)
(0.049490184 -0.00021741946 0)
(0.050140953 -0.00029296386 0)
(0.0510404 -0.00041312914 0)
(0.052323365 -0.00059648022 0)
(0.054189484 -0.00088316672 0)
(0.056987572 -0.0013380283 0)
(0.061244783 -0.0020423648 0)
(0.067723467 -0.0031399613 0)
(0.077841985 -0.0046658575 0)
(0.092011673 -0.0068958927 0)
(0.11459581 -0.0095544465 0)
(0.1409993 -0.012236554 0)
(0.18064234 -0.014086785 0)
(0.039368858 -0.00074950711 0)
(0.040630141 -0.00096161817 0)
(0.042363385 -0.00093997264 0)
(0.043730103 -0.00082498441 0)
(0.044977164 -0.00069038004 0)
(0.045947386 -0.00054794885 0)
(0.046715018 -0.00043000161 0)
(0.047311482 -0.00033882311 0)
(0.047785181 -0.00027859084 0)
(0.048189626 -0.00025038841 0)
(0.048573338 -0.00025260108 0)
(0.048983111 -0.00028682356 0)
(0.049471995 -0.0003601002 0)
(0.050110384 -0.00048512052 0)
(0.050991868 -0.00068386621 0)
(0.052247454 -0.00098697047 0)
(0.054071484 -0.0014604007 0)
(0.056800807 -0.0022107052 0)
(0.060941745 -0.003372498 0)
(0.067227151 -0.0051764215 0)
(0.077019059 -0.0076982883 0)
(0.09067321 -0.011335053 0)
(0.11246958 -0.015752901 0)
(0.13765474 -0.020114517 0)
(0.17646118 -0.023386689 0)
(0.039379467 -0.0010525222 0)
(0.040654169 -0.0013538142 0)
(0.042406458 -0.0013180656 0)
(0.04378164 -0.001156744 0)
(0.045027333 -0.00096526073 0)
(0.045992201 -0.0007651419 0)
(0.0467505 -0.00059931685 0)
(0.047337454 -0.00047161255 0)
(0.047802255 -0.00038747867 0)
(0.048198336 -0.00034794787 0)
(0.048572334 -0.00035067561 0)
(0.048971544 -0.0003978945 0)
(0.049446132 -0.00049932515 0)
(0.050065958 -0.00067252633 0)
(0.050920772 -0.0009475279 0)
(0.05213592 -0.0013666235 0)
(0.053897525 -0.0020203717 0)
(0.056525289 -0.0030548661 0)
(0.060497055 -0.0046543781 0)
(0.066495187 -0.0071319395 0)
(0.075807827 -0.010599509 0)
(0.088693953 -0.015571902 0)
(0.10933439 -0.021640018 0)
(0.13262857 -0.027614174 0)
(0.17012554 -0.03236265 0)
(0.039394865 -0.0013607151 0)
(0.040688335 -0.0017507631 0)
(0.042466312 -0.0017003277 0)
(0.043852533 -0.0014893628 0)
(0.045096275 -0.0012392768 0)
(0.046053827 -0.00098008656 0)
(0.046799268 -0.00076585878 0)
(0.047373595 -0.00060177056 0)
(0.047826687 -0.00049383122 0)
(0.048211534 -0.00044286751 0)
(0.048572467 -0.00044581394 0)
(0.048957928 -0.00050532717 0)
(0.049413703 -0.00063381714 0)
(0.050009032 -0.00085335065 0)
(0.050828852 -0.0012014931 0)
(0.051991189 -0.0017314484 0)
(0.053671314 -0.0025565763 0)
(0.056167026 -0.0038598744 0)
(0.05992009 -0.0058701903 0)
(0.065541662 -0.0089760298 0)
(0.074238908 -0.01331878 0)
(0.086088804 -0.019527351 0)
(0.10521386 -0.027095934 0)
(0.12603153 -0.034650245 0)
(0.16168615 -0.040658791 0)
(0.039416514 -0.0016760013 0)
(0.040734082 -0.0021541874 0)
(0.042544511 -0.0020878081 0)
(0.043944418 -0.0018230846 0)
(0.045185126 -0.0015120746 0)
(0.046133151 -0.0011921013 0)
(0.046862165 -0.00092882664 0)
(0.047420815 -0.00072855165 0)
(0.047859245 -0.00059691711 0)
(0.048230017 -0.00053437636 0)
(0.048574497 -0.00053717809 0)
(0.048943141 -0.0006082531 0)
(0.049375939 -0.0007622309 0)
(0.049941 -0.0010258403 0)
(0.050717921 -0.0014432268 0)
(0.051815571 -0.0020775585 0)
(0.053396308 -0.0030631395 0)
(0.055731326 -0.0046163516 0)
(0.059220436 -0.0070037741 0)
(0.064388577 -0.010683018 0)
(0.072336559 -0.015807684 0)
(0.082893981 -0.023129595 0)
(0.10019107 -0.031995805 0)
(0.11775772 -0.041083621 0)
(0.15113302 -0.048132337 0)
(0.039446257 -0.0020008156 0)
(0.040792918 -0.0025655536 0)
(0.042642582 -0.0024817066 0)
(0.044058621 -0.0021580688 0)
(0.045294851 -0.0017832091 0)
(0.046230595 -0.0014004208 0)
(0.046939829 -0.0010873748 0)
(0.047479587 -0.00085115886 0)
(0.047900232 -0.00069602428 0)
(0.048254196 -0.0006216977 0)
(0.048578734 -0.00062401289 0)
(0.048927789 -0.00070569414 0)
(0.049333608 -0.00088342321 0)
(0.049863079 -0.001188382 0)
(0.050589615 -0.0016702652 0)
(0.05161139 -0.0024013414 0)
(0.053076426 -0.0035343504 0)
(0.055225288 -0.0053152306 0)
(0.05841021 -0.0080403107 0)
(0.06305744 -0.01222729 0)
(0.07013246 -0.018017313 0)
(0.079162979 -0.026301287 0)
(0.094303537 -0.036178058 0)
(0.10767811 -0.046634095 0)
(0.13898988 -0.05478051 0)
(0.039486606 -0.0023382803 0)
(0.040866199 -0.0029859542 0)
(0.042761444 -0.0028833763 0)
(0.044195929 -0.0024943071 0)
(0.045425489 -0.0020520539 0)
(0.046345625 -0.0016042619 0)
(0.047032077 -0.0012407419 0)
(0.047549496 -0.00096873948 0)
(0.047949269 -0.00079038503 0)
(0.048283546 -0.00070407459 0)
(0.048585005 -0.00070545249 0)
(0.048911319 -0.00079694134 0)
(0.049287128 -0.00099625674 0)
(0.049775916 -0.0013393154 0)
(0.050445103 -0.0018803182 0)
(0.051380724 -0.002699498 0)
(0.052715835 -0.00396537 0)
(0.054656513 -0.0059488717 0)
(0.057502126 -0.0089674379 0)
(0.061569683 -0.013586377 0)
(0.06767163 -0.019908087 0)
(0.07496102 -0.028976478 0)
(0.087629077 -0.03953346 0)
(0.096432571 -0.051272208 0)
(0.12550934 -0.059457203 0)
(0.039540237 -0.002691709 0)
(0.040955408 -0.0034167504 0)
(0.042901068 -0.003293808 0)
(0.044356517 -0.0028316622 0)
(0.045575626 -0.0023177895 0)
(0.046476849 -0.0018027644 0)
(0.047137334 -0.0013880473 0)
(0.047628994 -0.0010805394 0)
(0.048004934 -0.00087923704 0)
(0.048316158 -0.00078069136 0)
(0.048592098 -0.0007808672 0)
(0.048892424 -0.00088118352 0)
(0.049235594 -0.0010997137 0)
(0.049679277 -0.0014772712 0)
(0.050284886 -0.0020715955 0)
(0.051125411 -0.0029693289 0)
(0.052318007 -0.0043517043 0)
(0.054033632 -0.0065102342 0)
(0.056510473 -0.0097739133 0)
(0.059948173 -0.014737312 0)
(0.065013298 -0.021436817 0)
(0.070406356 -0.031068091 0)
(0.080363581 -0.041973361 0)
(0.084177265 -0.055085899 0)
(0.11069966 -0.062568847 0)
(0.039608328 -0.0030624013 0)
(0.041062206 -0.0038630182 0)
(0.043060627 -0.0037115638 0)
(0.044539159 -0.0031702802 0)
(0.045742615 -0.0025800149 0)
(0.046620589 -0.0019948123 0)
(0.047252644 -0.0015285622 0)
(0.047715105 -0.0011859062 0)
(0.048064065 -0.00096182311 0)
(0.048348707 -0.0008509913 0)
(0.048598037 -0.00084941372 0)
(0.048867918 -0.00095775698 0)
(0.049176611 -0.0011932597 0)
(0.049571383 -0.0016011282 0)
(0.050108807 -0.002241991 0)
(0.050845376 -0.0032084062 0)
(0.051885157 -0.0046910677 0)
(0.053363143 -0.0069966678 0)
(0.055447398 -0.010453423 0)
(0.05822804 -0.015674826 0)
(0.062215887 -0.022624525 0)
(0.065732691 -0.03254727 0)
(0.072505255 -0.043526237 0)
(0.070638668 -0.057580399 0)
(0.091242252 -0.062757312 0)
(0.21558191 -0.0026977574 0)
(0.2264525 -0.0010262685 0)
(0.23041565 -0.00027112851 0)
(0.23096116 -7.0297653e-005 0)
(0.23147146 -3.2828986e-005 0)
(0.23156957 -1.5281552e-005 0)
(0.23166397 -7.0014456e-006 0)
(0.23166827 1.2352224e-007 0)
(0.23165443 2.079506e-006 0)
(0.23163439 1.7742958e-006 0)
(0.23162685 5.452018e-007 0)
(0.23162676 -1.0877657e-007 0)
(0.23162855 -1.5437341e-007 0)
(0.23162924 -4.8477502e-008 0)
(0.23162919 1.2194152e-008 0)
(0.23162901 1.6594939e-008 0)
(0.23162893 5.5983785e-009 0)
(0.23162893 -7.70514e-010 0)
(0.23162894 -1.1038534e-009 0)
(0.23162895 -2.865767e-010 0)
(0.23162895 5.3138904e-011 0)
(0.23162894 -6.5389713e-011 0)
(0.23162895 -2.1252287e-011 0)
(0.23162895 1.2404737e-009 0)
(0.23162892 1.3168625e-009 0)
(0.21266563 -0.0077690969 0)
(0.22219127 -0.0029862689 0)
(0.22599392 -0.00072431718 0)
(0.22640523 -0.00024531668 0)
(0.22681951 -0.00010433199 0)
(0.22688274 -4.0862012e-005 0)
(0.22696134 -1.5776462e-005 0)
(0.22696056 9.4256066e-007 0)
(0.22694433 6.6406874e-006 0)
(0.22692603 4.9488556e-006 0)
(0.22691965 1.4450838e-006 0)
(0.22692004 -3.4580668e-007 0)
(0.22692167 -4.5398945e-007 0)
(0.22692227 -1.2157468e-007 0)
(0.2269222 4.2683e-008 0)
(0.22692204 4.7899909e-008 0)
(0.22692197 1.4706859e-008 0)
(0.22692198 -2.2891127e-009 0)
(0.22692199 -3.2038079e-009 0)
(0.22692199 -7.9360418e-010 0)
(0.22692199 3.559373e-011 0)
(0.22692199 -1.8525511e-010 0)
(0.22692199 4.4288063e-011 0)
(0.22692199 3.858038e-009 0)
(0.22692197 4.2304211e-009 0)
(0.20670508 -0.012365232 0)
(0.21361421 -0.0046777677 0)
(0.21726248 -0.0011819278 0)
(0.21720001 -0.0003460661 0)
(0.21743369 -0.00012959171 0)
(0.21749014 -6.3261985e-005 0)
(0.21755175 -2.2102669e-005 0)
(0.21754157 3.1378803e-006 0)
(0.21752364 1.1232849e-005 0)
(0.21750924 7.6965649e-006 0)
(0.21750534 2.0458591e-006 0)
(0.21750638 -6.2086639e-007 0)
(0.21750772 -7.1297517e-007 0)
(0.21750813 -1.7509546e-007 0)
(0.21750803 7.3780221e-008 0)
(0.2175079 7.435667e-008 0)
(0.21750786 2.0985459e-008 0)
(0.21750787 -4.0565821e-009 0)
(0.21750788 -4.9565978e-009 0)
(0.21750788 -1.172771e-009 0)
(0.21750788 7.3823955e-011 0)
(0.21750788 -2.8463007e-010 0)
(0.21750788 2.7256803e-010 0)
(0.21750788 6.640898e-009 0)
(0.21750786 7.278163e-009 0)
(0.1974337 -0.016230979 0)
(0.20108988 -0.0060465808 0)
(0.20385403 -0.0014376983 0)
(0.20325314 -0.00037226791 0)
(0.20338933 -0.00013190841 0)
(0.20341935 -7.6802209e-005 0)
(0.20344445 -2.4220462e-005 0)
(0.20342232 7.0923292e-006 0)
(0.20340671 1.5160725e-005 0)
(0.20339858 9.4735535e-006 0)
(0.20339817 2.1865722e-006 0)
(0.20339957 -9.2613805e-007 0)
(0.20340039 -8.8876783e-007 0)
(0.20340051 -2.0030184e-007 0)
(0.2034004 9.974682e-008 0)
(0.20340033 9.0629646e-008 0)
(0.20340032 2.2842987e-008 0)
(0.20340033 -6.0904179e-009 0)
(0.20340034 -6.0167316e-009 0)
(0.20340034 -1.2982256e-009 0)
(0.20340034 1.1560109e-010 0)
(0.20340034 -3.7323459e-010 0)
(0.20340034 5.8141939e-010 0)
(0.20340033 9.3500186e-009 0)
(0.20340032 1.0033357e-008 0)
(0.18467099 -0.019071623 0)
(0.18438914 -0.006928187 0)
(0.1854077 -0.0013910758 0)
(0.18466239 -0.00035052458 0)
(0.1847575 -0.000142683 0)
(0.18469411 -8.3093088e-005 0)
(0.18467747 -1.9876492e-005 0)
(0.18465013 1.1520895e-005 0)
(0.1846427 1.7528253e-005 0)
(0.18464313 9.7526014e-006 0)
(0.18464614 1.8351984e-006 0)
(0.18464732 -1.1736408e-006 0)
(0.18464741 -9.4554465e-007 0)
(0.18464719 -1.8220269e-007 0)
(0.1846471 1.1857661e-007 0)
(0.1846471 9.4134065e-008 0)
(0.18464713 2.015504e-008 0)
(0.18464714 -7.7398124e-009 0)
(0.18464714 -6.2383784e-009 0)
(0.18464714 -1.1900301e-009 0)
(0.18464714 1.1936122e-010 0)
(0.18464714 -3.851632e-010 0)
(0.18464714 8.6332733e-010 0)
(0.18464713 1.1390005e-008 0)
(0.18464713 1.1907468e-008 0)
(0.16863168 -0.020839819 0)
(0.16246085 -0.0068369162 0)
(0.16231803 -0.0012172572 0)
(0.1615033 -0.00031037107 0)
(0.16152875 -0.00011835622 0)
(0.16137675 -6.8472095e-005 0)
(0.16134008 -1.0345886e-005 0)
(0.16131949 1.4579562e-005 0)
(0.16132527 1.7286207e-005 0)
(0.16133447 8.493015e-006 0)
(0.1613397 1.1696693e-006 0)
(0.16134003 -1.2512713e-006 0)
(0.1613393 -8.509264e-007 0)
(0.16133883 -1.281884e-007 0)
(0.16133881 1.2224675e-007 0)
(0.16133889 8.3097688e-008 0)
(0.16133893 1.4168764e-008 0)
(0.16133894 -8.3975561e-009 0)
(0.16133893 -5.4673623e-009 0)
(0.16133893 -8.4923721e-010 0)
(0.16133893 5.6689811e-011 0)
(0.16133893 -4.0258897e-010 0)
(0.16133893 1.1089214e-009 0)
(0.16133893 1.1940321e-008 0)
(0.16133893 1.2198513e-008 0)
(0.14799691 -0.020830698 0)
(0.13514545 -0.0059391667 0)
(0.13484869 -0.00092481121 0)
(0.13382022 -0.00024901375 0)
(0.13379427 -7.6883354e-005 0)
(0.13359451 -4.4677429e-005 0)
(0.13356336 -1.6635432e-006 0)
(0.13355605 1.4500474e-005 0)
(0.13357615 1.4084607e-005 0)
(0.13359103 6.0362399e-006 0)
(0.13359654 4.9248966e-007 0)
(0.13359575 -1.094893e-006 0)
(0.13359438 -6.3220065e-007 0)
(0.13359383 -6.1878403e-008 0)
(0.1335939 1.0613857e-007 0)
(0.13359404 6.1186749e-008 0)
(0.13359409 7.2130556e-009 0)
(0.13359409 -7.5240541e-009 0)
(0.13359408 -4.0001652e-009 0)
(0.13359407 -4.7646618e-010 0)
(0.13359407 -2.5200568e-011 0)
(0.13359407 -3.1448748e-010 0)
(0.13359407 1.2458715e-009 0)
(0.13359407 1.0458663e-008 0)
(0.13359409 1.0539143e-008 0)
(0.12065877 -0.018160972 0)
(0.10291887 -0.0044137797 0)
(0.10293035 -0.00058056939 0)
(0.10164295 -0.00016027537 0)
(0.10167488 -3.0469237e-005 0)
(0.10147788 -2.090156e-005 0)
(0.10147231 3.3510322e-006 0)
(0.10147715 1.0636479e-005 0)
(0.10150631 8.9727851e-006 0)
(0.10152162 3.2902953e-006 0)
(0.10152577 4.2165433e-008 0)
(0.10152414 -7.3452174e-007 0)
(0.10152256 -3.6452244e-007 0)
(0.10152212 -1.1831097e-008 0)
(0.10152227 7.1983076e-008 0)
(0.10152243 3.5185881e-008 0)
(0.10152247 1.9056386e-009 0)
(0.10152246 -5.2107846e-009 0)
(0.10152245 -2.2896892e-009 0)
(0.10152244 -1.6077028e-010 0)
(0.10152244 -7.6680953e-011 0)
(0.10152244 -2.0765184e-010 0)
(0.10152244 1.0000297e-009 0)
(0.10152245 7.1583841e-009 0)
(0.10152247 7.1847408e-009 0)
(0.086129719 -0.013032629 0)
(0.065968374 -0.0024990984 0)
(0.066420033 -0.00021936977 0)
(0.065110967 -7.1247941e-005 0)
(0.065279592 4.4267991e-006 0)
(0.065125273 -5.6663457e-006 0)
(0.065147782 4.1143945e-006 0)
(0.065156604 4.7421598e-006 0)
(0.065183795 3.6450356e-006 0)
(0.065194527 1.0814354e-006 0)
(0.065196713 -1.0146962e-007 0)
(0.065194971 -3.0996911e-007 0)
(0.065193759 -1.2660227e-007 0)
(0.065193518 9.1867931e-009 0)
(0.065193686 3.1332083e-008 0)
(0.065193805 1.2325137e-008 0)
(0.065193828 -4.9214899e-010 0)
(0.065193815 -2.3118186e-009 0)
(0.065193807 -7.9777552e-010 0)
(0.065193806 4.5263434e-012 0)
(0.065193806 -8.2905185e-011 0)
(0.065193806 -1.5608384e-010 0)
(0.065193806 3.5778695e-010 0)
(0.065193808 3.1267527e-009 0)
(0.065193835 3.2196205e-009 0)
(0.04011833 -0.0068309096 0)
(0.024091882 -0.00013430482 0)
(0.025406501 3.397687e-006 0)
(0.024435592 1.2502883e-005 0)
(0.024699662 -6.9317573e-008 0)
(0.024594011 5.8450722e-009 0)
(0.02462773 -3.4034098e-007 0)
(0.024628129 1.2361125e-007 0)
(0.024641888 2.7080122e-008 0)
(0.024645047 3.4027363e-008 0)
(0.024645717 3.1383164e-009 0)
(0.024644834 -3.0188635e-009 0)
(0.024644396 -2.7414374e-009 0)
(0.024644341 6.8419041e-010 0)
(0.024644428 3.9240047e-010 0)
(0.024644472 -6.1148863e-011 0)
(0.024644477 -2.2428289e-010 0)
(0.02464447 -1.1187693e-010 0)
(0.024644467 -3.2234865e-011 0)
(0.024644467 -1.1146933e-011 0)
(0.024644467 -1.8932582e-011 0)
(0.024644466 2.366963e-011 0)
(0.024644466 1.403992e-010 0)
(0.024644467 5.1772014e-010 0)
(0.02464448 4.7377502e-010 0)
(0.039770278 -0.0038310538 0)
(0.041311675 -0.0048078627 0)
(0.043416551 -0.004552132 0)
(0.044940499 -0.0038511901 0)
(0.046100429 -0.0030950865 0)
(0.046922016 -0.0023664192 0)
(0.047492503 -0.0017953493 0)
(0.047887802 -0.0013824536 0)
(0.048176733 -0.0011135625 0)
(0.048402565 -0.00097847579 0)
(0.048596959 -0.00097246275 0)
(0.048798559 -0.001094481 0)
(0.049032655 -0.0013591187 0)
(0.0493221 -0.0018194016 0)
(0.049715767 -0.0025396834 0)
(0.050233378 -0.0036212086 0)
(0.050949946 -0.0052694453 0)
(0.051930614 -0.0078074392 0)
(0.053209042 -0.011549478 0)
(0.054697603 -0.017087981 0)
(0.056532497 -0.024265947 0)
(0.056782275 -0.034047402 0)
(0.057043786 -0.044220976 0)
(0.043574701 -0.056638392 0)
(0.036438659 -0.046308124 0)
(0.040083835 -0.0051854465 0)
(0.041820102 -0.0064389541 0)
(0.04408942 -0.0058624391 0)
(0.045609131 -0.0048590061 0)
(0.046653518 -0.0038030106 0)
(0.047341963 -0.0028486934 0)
(0.047775358 -0.0021148432 0)
(0.048036214 -0.0015984893 0)
(0.048209281 -0.0012678126 0)
(0.048328342 -0.0011014881 0)
(0.048424368 -0.0010843721 0)
(0.04851287 -0.0012120052 0)
(0.048608901 -0.0015014797 0)
(0.048719521 -0.0019979122 0)
(0.048865776 -0.0027745016 0)
(0.049044228 -0.0039279655 0)
(0.0492348 -0.0056528621 0)
(0.0494445 -0.0082717199 0)
(0.049576666 -0.01203249 0)
(0.049298163 -0.017324198 0)
(0.048528457 -0.023841282 0)
(0.045596439 -0.031376196 0)
(0.040594731 -0.037224556 0)
(0.026178177 -0.039983618 0)
(0.010906866 -0.020462486 0)
(0.040487105 -0.0068790778 0)
(0.04240165 -0.0082335963 0)
(0.044734697 -0.0072002532 0)
(0.046112842 -0.0057860447 0)
(0.046942309 -0.0043959293 0)
(0.0474255 -0.0032056148 0)
(0.047664601 -0.0023148811 0)
(0.04776656 -0.0017114189 0)
(0.047802729 -0.0013328793 0)
(0.047805807 -0.0011402313 0)
(0.047791685 -0.001109474 0)
(0.047759702 -0.0012326798 0)
(0.047716484 -0.0015208313 0)
(0.047647387 -0.0020092093 0)
(0.047537936 -0.0027752312 0)
(0.047380844 -0.003914195 0)
(0.047089687 -0.0055684736 0)
(0.046587555 -0.0080369468 0)
(0.045744466 -0.011506124 0)
(0.044096836 -0.016180919 0)
(0.041358617 -0.021654226 0)
(0.036362114 -0.027061845 0)
(0.028820525 -0.03031568 0)
(0.015958409 -0.029604368 0)
(0.0025398707 -0.014005808 0)
(0.040959778 -0.0089533223 0)
(0.042916052 -0.010099562 0)
(0.045051892 -0.0084293857 0)
(0.046068748 -0.0065219325 0)
(0.046528856 -0.0047911285 0)
(0.046711013 -0.0033862704 0)
(0.046698417 -0.0023685072 0)
(0.046623079 -0.001703122 0)
(0.046512872 -0.0012983352 0)
(0.046397957 -0.0010922458 0)
(0.046273898 -0.0010503899 0)
(0.04613162 -0.0011548947 0)
(0.045957047 -0.0014185537 0)
(0.045728152 -0.001871564 0)
(0.04539801 -0.0025619275 0)
(0.044932866 -0.0035960858 0)
(0.044250652 -0.0050792525 0)
(0.043179378 -0.0072313793 0)
(0.041575828 -0.010208133 0)
(0.038983085 -0.014010336 0)
(0.035072344 -0.018213599 0)
(0.029175431 -0.021807445 0)
(0.021211244 -0.023007027 0)
(0.010875806 -0.020301557 0)
(0.00040164885 -0.0086564938 0)
(0.041407822 -0.011380093 0)
(0.043155657 -0.011813113 0)
(0.044645533 -0.009318918 0)
(0.04501455 -0.0068971864 0)
(0.044922729 -0.0048812143 0)
(0.044703988 -0.0033304584 0)
(0.044407115 -0.0022522618 0)
(0.044137637 -0.0015671971 0)
(0.04389256 -0.0011664746 0)
(0.043669295 -0.00096177474 0)
(0.043455953 -0.00091193731 0)
(0.043224015 -0.00099559681 0)
(0.042947637 -0.0012146546 0)
(0.042590729 -0.0015978366 0)
(0.042103686 -0.0021830384 0)
(0.041409281 -0.0030405582 0)
(0.040438335 -0.0042743936 0)
(0.038990988 -0.0060161578 0)
(0.036891158 -0.0083837698 0)
(0.033774577 -0.011290534 0)
(0.029329889 -0.014319298 0)
(0.023284968 -0.016531228 0)
(0.015810028 -0.016641374 0)
(0.0076562551 -0.013518267 0)
(-6.7794494e-005 -0.0054671565 0)
(0.04160396 -0.013996338 0)
(0.042831835 -0.013005006 0)
(0.043061427 -0.0095743881 0)
(0.042499268 -0.0067223286 0)
(0.041713719 -0.0045579705 0)
(0.041015221 -0.0029896805 0)
(0.040444698 -0.0019547793 0)
(0.039993673 -0.0013133876 0)
(0.039642284 -0.00094887697 0)
(0.039342209 -0.00076598664 0)
(0.039069724 -0.00071606302 0)
(0.038781851 -0.00077523892 0)
(0.038448203 -0.00094397981 0)
(0.038015591 -0.0012351417 0)
(0.037441362 -0.0016870898 0)
(0.036631333 -0.002340283 0)
(0.035505422 -0.0032739955 0)
(0.03389066 -0.0045723561 0)
(0.031591625 -0.0063001119 0)
(0.028337677 -0.0083572613 0)
(0.023901667 -0.010377483 0)
(0.018258795 -0.01164489 0)
(0.011706525 -0.01122259 0)
(0.0054456913 -0.0084405775 0)
(-0.0001602101 -0.0031223737 0)
(0.041263356 -0.016549525 0)
(0.041453737 -0.013124924 0)
(0.039775869 -0.0089077648 0)
(0.038082367 -0.0058437825 0)
(0.036580207 -0.0037720685 0)
(0.035439943 -0.0023722423 0)
(0.034651109 -0.0014917186 0)
(0.034084299 -0.0009672968 0)
(0.033673118 -0.00067687942 0)
(0.033344685 -0.00053412321 0)
(0.033053978 -0.00049214515 0)
(0.032756735 -0.00052964089 0)
(0.032412956 -0.0006431765 0)
(0.031975284 -0.00084189911 0)
(0.031391546 -0.0011477388 0)
(0.030582865 -0.0015915857 0)
(0.029458415 -0.002219771 0)
(0.027878605 -0.003086222 0)
(0.025664782 -0.0042182275 0)
(0.022621158 -0.00553388 0)
(0.018613898 -0.006755172 0)
(0.013731085 -0.0074051709 0)
(0.0083598076 -0.0068539892 0)
(0.0036978116 -0.0047436888 0)
(-0.00017930054 -0.001492283 0)
(0.039632342 -0.018283995 0)
(0.038185586 -0.011595745 0)
(0.033954535 -0.007092236 0)
(0.031278289 -0.0042665556 0)
(0.029267242 -0.0025806269 0)
(0.027901474 -0.0015480598 0)
(0.027029 -0.00093425898 0)
(0.026451258 -0.00058101582 0)
(0.026054982 -0.00039271328 0)
(0.025754444 -0.00030198284 0)
(0.025495445 -0.00027451163 0)
(0.025235613 -0.00029412062 0)
(0.024935773 -0.00035692222 0)
(0.024557188 -0.00046923656 0)
(0.024050344 -0.00064047808 0)
(0.023352532 -0.00088984202 0)
(0.022383454 -0.0012419675 0)
(0.021030948 -0.0017247404 0)
(0.019154845 -0.0023483034 0)
(0.016616817 -0.0030610941 0)
(0.013358653 -0.0036959565 0)
(0.0095093885 -0.0039682895 0)
(0.0054572536 -0.0035243268 0)
(0.0022167658 -0.0021718215 0)
(-0.00018983668 -0.00044459358 0)
(0.03451025 -0.016438885 0)
(0.031599127 -0.0077602801 0)
(0.024575027 -0.0043607581 0)
(0.02168592 -0.0023481347 0)
(0.019626259 -0.0013368661 0)
(0.018393949 -0.00075937151 0)
(0.017650011 -0.00043692674 0)
(0.017194644 -0.0002593592 0)
(0.016898728 -0.00016812431 0)
(0.016683792 -0.00012527374 0)
(0.016502992 -0.00011212471 0)
(0.016323476 -0.00011936345 0)
(0.016116955 -0.00014539283 0)
(0.015854912 -0.000192214 0)
(0.015502701 -0.00026341839 0)
(0.01501662 -0.00036716701 0)
(0.014339337 -0.00051342701 0)
(0.013393561 -0.00071289626 0)
(0.012084591 -0.00097059304 0)
(0.010322149 -0.0012628212 0)
(0.0080792517 -0.0015141592 0)
(0.0054909984 -0.0015904501 0)
(0.0028486755 -0.0013413399 0)
(0.00092870273 -0.0006687582 0)
(-0.0002137117 3.8109706e-005 0)
(0.020526213 -0.012027692 0)
(0.017360369 -0.0023130091 0)
(0.010574834 -0.00037790263 0)
(0.0091550523 -0.00014953122 0)
(0.0077777795 -4.5372781e-005 0)
(0.0071151416 -1.4815893e-005 0)
(0.0067226252 -2.8252064e-006 0)
(0.0065016357 2.5967036e-006 0)
(0.00636701 4.7157434e-006 0)
(0.0062755194 5.5181294e-006 0)
(0.0062016025 5.7768933e-006 0)
(0.0061292848 6.1063687e-006 0)
(0.0060460677 6.8856242e-006 0)
(0.0059391333 8.0749062e-006 0)
(0.0057940014 1.0075053e-005 0)
(0.0055921869 1.273207e-005 0)
(0.0053090834 1.6276298e-005 0)
(0.0049126807 2.1175781e-005 0)
(0.0043634429 2.7335693e-005 0)
(0.0036259716 3.5398723e-005 0)
(0.002691376 4.3948366e-005 0)
(0.0016392444 5.8844485e-005 0)
(0.00059739425 7.0855024e-005 0)
(-3.1203982e-005 0.00011321697 0)
(-0.00018746263 0.00012958817 0)
)
;

boundaryField
{
    inlet
    {
        type            fixedValue;
        value           uniform (0.03876 0 0);
    }
    walls
    {
        type            fixedValue;
        value           uniform (0 0 0);
    }
    outlet
    {
        type            zeroGradient;
    }
    centreline
    {
        type            symmetryPlane;
    }
    frontAndBack
    {
        type            empty;
    }
}


// ************************************************************************* //
