# vtk DataFile Version 2.0
track0
ASCII
DATASET POLYDATA
POINTS 11930 float
-0.0205 0.001 1e-005
-0.020385 0.00100536 1.50271e-005
-0.02027 0.00101047 1.96692e-005
-0.0201549 0.00101535 2.39792e-005
-0.0200398 0.00101999 2.79523e-005
-0.0198616 0.00102682 3.35743e-005
-0.0196927 0.00103274 3.81139e-005
-0.0195238 0.00103805 4.16238e-005
-0.0193548 0.00104275 4.41132e-005
-0.0191858 0.00104684 4.55913e-005
-0.0190172 0.00105031 4.60664e-005
-0.0187132 0.00105578 4.60664e-005
-0.0184093 0.0010606 4.60664e-005
-0.0181054 0.00106491 4.60664e-005
-0.0178014 0.0010687 4.60664e-005
-0.0174976 0.00107198 4.60664e-005
-0.0172058 0.00107483 4.60664e-005
-0.016914 0.00107763 4.60664e-005
-0.0166222 0.00108037 4.60664e-005
-0.0163305 0.00108305 4.60664e-005
-0.0160387 0.00108567 4.60664e-005
-0.0157586 0.00108809 4.60664e-005
-0.0154784 0.00109044 4.60664e-005
-0.0151983 0.00109271 4.60664e-005
-0.0149182 0.00109489 4.60664e-005
-0.0146381 0.00109699 4.60664e-005
-0.0143692 0.00109887 4.60664e-005
-0.0141002 0.00110065 4.60664e-005
-0.0138313 0.00110236 4.60664e-005
-0.0135624 0.00110399 4.60664e-005
-0.0132934 0.00110555 4.60664e-005
-0.0130353 0.00110696 4.60664e-005
-0.0127771 0.00110832 4.60664e-005
-0.0125189 0.00110965 4.60664e-005
-0.0122607 0.00111093 4.60664e-005
-0.0120025 0.00111218 4.60664e-005
-0.0117547 0.00111334 4.60664e-005
-0.0115068 0.00111448 4.60664e-005
-0.0112589 0.0011156 4.60664e-005
-0.0110111 0.00111671 4.60664e-005
-0.0107632 0.0011178 4.60664e-005
-0.0105252 0.00111882 4.60664e-005
-0.0102873 0.00111983 4.60664e-005
-0.0100493 0.00112083 4.60664e-005
-0.00981133 0.00112182 4.60664e-005
-0.00957337 0.00112279 4.60664e-005
-0.00934491 0.00112372 4.60664e-005
-0.00911645 0.00112463 4.60664e-005
-0.00888799 0.00112553 4.60664e-005
-0.00865954 0.00112643 4.60664e-005
-0.00843108 0.00112732 4.60664e-005
-0.00821175 0.00112817 4.60664e-005
-0.00799242 0.00112901 4.60664e-005
-0.00777309 0.00112984 4.60664e-005
-0.00755376 0.00113067 4.60664e-005
-0.00733443 0.00113149 4.60664e-005
-0.00712387 0.00113228 4.60664e-005
-0.0069133 0.00113307 4.60664e-005
-0.00670273 0.00113385 4.60664e-005
-0.00649216 0.00113462 4.60664e-005
-0.0062816 0.0011354 4.60664e-005
-0.00607944 0.00113615 4.60664e-005
-0.00587729 0.00113689 4.60664e-005
-0.00567514 0.00113763 4.60664e-005
-0.00547298 0.00113837 4.60664e-005
-0.00527083 0.00113911 4.60664e-005
-0.00507675 0.00113982 4.60664e-005
-0.00488267 0.00114053 4.60664e-005
-0.0046886 0.00114123 4.60664e-005
-0.00449452 0.00114194 4.60664e-005
-0.00430044 0.00114265 4.60664e-005
-0.00411412 0.00114333 4.60664e-005
-0.0039278 0.00114401 4.60664e-005
-0.00374147 0.00114468 4.60664e-005
-0.00355515 0.00114535 4.60664e-005
-0.00336883 0.00114603 4.60664e-005
-0.00318995 0.00114669 4.60664e-005
-0.00301107 0.00114734 4.60664e-005
-0.00283219 0.00114799 4.60664e-005
-0.00265331 0.00114864 4.60664e-005
-0.00247443 0.00114929 4.60664e-005
-0.0023027 0.00114993 4.60664e-005
-0.00213097 0.00115055 4.60664e-005
-0.00195924 0.00115118 4.60664e-005
-0.0017875 0.00115181 4.60664e-005
-0.00161577 0.00115244 4.60664e-005
-0.0014509 0.00115306 4.60664e-005
-0.00128603 0.00115367 4.60664e-005
-0.00112116 0.00115428 4.60664e-005
-0.000956289 0.00115489 4.60664e-005
-0.000791418 0.00115551 4.60664e-005
-0.000633135 0.00115612 4.60664e-005
-0.000474851 0.00115672 4.60664e-005
-0.000316567 0.00115732 4.60664e-005
-0.000158284 0.00115793 4.60664e-005
0 0.00115855 4.60664e-005
0.000105677 0.00115897 4.60664e-005
0.000211355 0.00115939 4.60664e-005
0.000317032 0.0011598 4.60664e-005
0.00042271 0.00116022 4.60664e-005
0.000528387 0.00116065 4.60664e-005
0.000634886 0.00116109 4.60664e-005
0.000741385 0.00116153 4.60664e-005
0.000847885 0.00116197 4.60664e-005
0.000954384 0.00116241 4.60664e-005
0.00106088 0.00116287 4.60664e-005
0.00116821 0.00116334 4.60664e-005
0.00127554 0.00116381 4.60664e-005
0.00138286 0.00116427 4.60664e-005
0.00149019 0.00116474 4.60664e-005
0.00159752 0.00116522 4.60664e-005
0.00170568 0.00116572 4.60664e-005
0.00181384 0.00116621 4.60664e-005
0.001922 0.0011667 4.60664e-005
0.00203016 0.00116719 4.60664e-005
0.00213833 0.00116769 4.60664e-005
0.00224733 0.00116819 4.60664e-005
0.00235633 0.00116869 4.60664e-005
0.00246533 0.0011692 4.60664e-005
0.00257434 0.0011697 4.60664e-005
0.00268334 0.0011702 4.60664e-005
0.00279319 0.00117071 4.60664e-005
0.00290304 0.00117122 4.60664e-005
0.00301289 0.00117173 4.60664e-005
0.00312274 0.00117225 4.60664e-005
0.00323259 0.00117276 4.60664e-005
0.00334329 0.00117327 4.60664e-005
0.003454 0.00117379 4.60664e-005
0.0035647 0.00117432 4.60664e-005
0.0036754 0.00117484 4.60664e-005
0.00378611 0.00117536 4.60664e-005
0.00389767 0.00117588 4.60664e-005
0.00400924 0.00117641 4.60664e-005
0.0041208 0.00117695 4.60664e-005
0.00423237 0.00117748 4.60664e-005
0.00434393 0.00117802 4.60664e-005
0.00445636 0.00117853 4.60664e-005
0.00456879 0.00117907 4.60664e-005
0.00468123 0.00117962 4.60664e-005
0.00479366 0.00118016 4.60664e-005
0.00490609 0.00118069 4.60664e-005
0.0050194 0.00118122 4.60664e-005
0.0051327 0.00118176 4.60664e-005
0.00524601 0.0011823 4.60664e-005
0.00535931 0.00118285 4.60664e-005
0.00547262 0.00118339 4.60664e-005
0.00558681 0.00118391 4.60664e-005
0.005701 0.00118445 4.60664e-005
0.00581518 0.001185 4.60664e-005
0.00592937 0.00118555 4.60664e-005
0.00604356 0.00118609 4.60664e-005
0.00615863 0.00118661 4.60664e-005
0.00627371 0.00118716 4.60664e-005
0.00638878 0.0011877 4.60664e-005
0.00650386 0.00118825 4.60664e-005
0.00661893 0.00118879 4.60664e-005
0.0067349 0.00118932 4.60664e-005
0.00685087 0.00118986 4.60664e-005
0.00696684 0.0011904 4.60664e-005
0.00708281 0.00119094 4.60664e-005
0.00719878 0.00119148 4.60664e-005
0.00731565 0.001192 4.60664e-005
0.00743252 0.00119254 4.60664e-005
0.00754939 0.00119308 4.60664e-005
0.00766626 0.00119362 4.60664e-005
0.00778313 0.00119415 4.60664e-005
0.00790091 0.00119467 4.60664e-005
0.00801869 0.00119521 4.60664e-005
0.00813647 0.00119574 4.60664e-005
0.00825425 0.00119627 4.60664e-005
0.00837203 0.0011968 4.60664e-005
0.00849073 0.00119732 4.60664e-005
0.00860942 0.00119784 4.60664e-005
0.00872812 0.00119837 4.60664e-005
0.00884682 0.00119889 4.60664e-005
0.00896551 0.00119941 4.60664e-005
0.00908513 0.00119992 4.60664e-005
0.00920475 0.00120044 4.60664e-005
0.00932437 0.00120096 4.60664e-005
0.00944398 0.00120148 4.60664e-005
0.0095636 0.00120199 4.60664e-005
0.00968415 0.0012025 4.60664e-005
0.0098047 0.00120301 4.60664e-005
0.00992525 0.00120352 4.60664e-005
0.0100458 0.00120403 4.60664e-005
0.0101663 0.00120454 4.60664e-005
0.0102878 0.00120504 4.60664e-005
0.0104093 0.00120554 4.60664e-005
0.0105308 0.00120605 4.60664e-005
0.0106523 0.00120655 4.60664e-005
0.0107738 0.00120704 4.60664e-005
0.0108962 0.00120754 4.60664e-005
0.0110186 0.00120803 4.60664e-005
0.0111411 0.00120853 4.60664e-005
0.0112635 0.00120902 4.60664e-005
0.0113859 0.00120951 4.60664e-005
0.0115093 0.00120999 4.60664e-005
0.0116327 0.00121048 4.60664e-005
0.0117561 0.00121097 4.60664e-005
0.0118795 0.00121145 4.60664e-005
0.0120028 0.00121193 4.60664e-005
0.0121272 0.0012124 4.60664e-005
0.0122515 0.00121288 4.60664e-005
0.0123759 0.00121335 4.60664e-005
0.0125002 0.00121382 4.60664e-005
0.0126245 0.00121429 4.60664e-005
0.0127498 0.00121475 4.60664e-005
0.0128752 0.00121522 4.60664e-005
0.0130005 0.00121568 4.60664e-005
0.0131258 0.00121614 4.60664e-005
0.0132511 0.0012166 4.60664e-005
0.0133774 0.00121704 4.60664e-005
0.0135036 0.0012175 4.60664e-005
0.0136299 0.00121795 4.60664e-005
0.0137562 0.00121839 4.60664e-005
0.0138825 0.00121883 4.60664e-005
0.0140098 0.00121926 4.60664e-005
0.014137 0.0012197 4.60664e-005
0.0142643 0.00122014 4.60664e-005
0.0143915 0.00122056 4.60664e-005
0.0145188 0.00122099 4.60664e-005
0.0146471 0.0012214 4.60664e-005
0.0147753 0.00122182 4.60664e-005
0.0149036 0.00122224 4.60664e-005
0.0150318 0.00122265 4.60664e-005
0.0151601 0.00122305 4.60664e-005
0.0152893 0.00122345 4.60664e-005
0.0154186 0.00122385 4.60664e-005
0.0155478 0.00122424 4.60664e-005
0.0156771 0.00122463 4.60664e-005
0.0158063 0.00122501 4.60664e-005
0.0159366 0.00122539 4.60664e-005
0.0160668 0.00122577 4.60664e-005
0.0161971 0.00122614 4.60664e-005
0.0163274 0.0012265 4.60664e-005
0.0164576 0.00122686 4.60664e-005
0.0165889 0.00122721 4.60664e-005
0.0167201 0.00122756 4.60664e-005
0.0168514 0.0012279 4.60664e-005
0.0169827 0.00122824 4.60664e-005
0.0171139 0.00122857 4.60664e-005
0.0172407 0.00122888 4.60664e-005
0.0173675 0.00122919 4.60664e-005
0.0174943 0.00122949 4.60664e-005
0.0176211 0.00122979 4.60664e-005
0.0177423 0.00123007 4.60664e-005
0.0177489 0.00123008 4.60664e-005
0.0177556 0.0012301 4.60664e-005
0.0177622 0.00123011 4.60664e-005
0.0177688 0.00123012 4.60664e-005
0.0177754 0.00123014 4.60664e-005
0.0179087 0.00123044 4.60664e-005
0.018042 0.00123072 4.60664e-005
0.0181753 0.00123101 4.60664e-005
0.0183087 0.00123128 4.60664e-005
0.018442 0.00123155 4.60664e-005
0.0185763 0.0012318 4.60664e-005
0.0187107 0.00123206 4.60664e-005
0.018845 0.0012323 4.60664e-005
0.0189794 0.00123254 4.60664e-005
0.0191137 0.00123277 4.60664e-005
0.0192491 0.00123299 4.60664e-005
0.0193845 0.0012332 4.60664e-005
0.0195199 0.00123341 4.60664e-005
0.0196553 0.0012336 4.60664e-005
0.0197907 0.00123379 4.60664e-005
0.0199272 0.00123397 4.60664e-005
0.0200636 0.00123414 4.60664e-005
0.0202001 0.00123431 4.60664e-005
0.0203365 0.00123446 4.60664e-005
0.020473 0.0012346 4.60664e-005
0.0206105 0.00123474 4.60664e-005
0.020748 0.00123486 4.60664e-005
0.0208855 0.00123498 4.60664e-005
0.021023 0.00123509 4.60664e-005
0.0211606 0.00123519 4.60664e-005
0.0212991 0.00123528 4.60664e-005
0.0214377 0.00123535 4.60664e-005
0.0215763 0.00123542 4.60664e-005
0.0217149 0.00123548 4.60664e-005
0.0218535 0.00123553 4.60664e-005
0.0219931 0.00123557 4.60664e-005
0.0221328 0.0012356 4.60664e-005
0.0222724 0.00123562 4.60664e-005
0.0224121 0.00123563 4.60664e-005
0.0225517 0.00123562 4.60664e-005
0.0226925 0.00123562 4.60664e-005
[...]
POINT_DATA 11930
 FIELD attributes 2
p 1 11930 float
-1547.96 -1535.31 -1521.44 -1507.73 -1494.17 -1473.41 -1458.7 -1443.92 -1429.05 -1414.12 -1393.31 -1345.07 -1296.93 -1248.86 -1200.85 -1158.31 -1126.79 -1101.43 -1076.08 -1050.74 -1033.98 -1022.32 -1012.89 -1003.46 -994.037 -986.392 -979.593 -971.651 -963.708 -955.764 -946.699 -938.21 -929.563 -920.912 -912.282 -903.909 -895.962 -888.794 -881.716 -874.79 -868.772 -863.011 -857.808 -852.723 -847.791 -843.438 -839.262 -835.301 -831.408 -827.602 -824.038 -820.616 -817.32 -814.077 -810.906 -807.891 -804.988 -802.21 -799.499 -796.871 -794.383 -791.976 -789.681 -787.46 -785.322 -783.302 -781.331 -779.444 -777.623 -775.875 -774.213 -772.568 -770.986 -769.465 -768.01 -766.62 -765.216 -763.859 -762.557 -761.32 -760.137 -758.908 -757.722 -756.595 -755.54 -754.537 -753.456 -752.405 -751.401 -750.475 -749.596 -748.612 -747.677 -746.836 -746.122 -745.473 -744.722 -744.034 -743.465 -743.048 -742.716 -742.187 -741.7 -741.278 -740.965 -740.73 -740.293 -739.966 -739.768 -739.702 -739.755 -739.607 -739.553 -739.588 -739.697 -739.888 -740.013 -740.134 -740.25 -740.359 -740.456 -740.739 -740.924 -741.047 -741.109 -741.064 -741.453 -741.678 -741.82 -741.874 -741.733 -742.199 -742.449 -742.614 -742.687 -742.489 -742.982 -743.214 -743.369 -743.442 -743.196 -743.646 -743.822 -743.937 -743.995 -743.727 -744.1 -744.226 -744.316 -744.374 -744.138 -744.434 -744.533 -744.616 -744.687 -744.518 -744.741 -744.817 -744.889 -744.962 -744.86 -745.008 -745.064 -745.12 -745.176 -745.138 -745.226 -745.275 -745.323 -745.372 -745.387 -745.445 -745.496 -745.547 -745.599 -745.653 -745.698 -745.754 -745.809 -745.865 -745.944 -745.988 -746.048 -746.108 -746.167 -746.258 -746.314 -746.38 -746.446 -746.512 -746.604 -746.682 -746.757 -746.833 -746.908 -746.998 -747.103 -747.192 -747.281 -747.369 -747.457 -747.59 -747.694 -747.798 -747.902 -747.989 -748.148 -748.266 -748.384 -748.502 -748.59 -748.769 -748.901 -749.032 -749.163 -749.257 -749.451 -749.596 -749.74 -749.885 -749.99 -750.195 -750.353 -750.511 -750.67 -750.79 -751.002 -751.174 -751.345 -751.516 -751.657 -751.873 -752.059 -752.245 -752.43 -752.595 -752.816 -753.017 -753.218 -753.419 -753.61 -753.823 -754.028 -754.233 -754.438 -754.633 -754.644 -754.655 -754.665 -754.676 -754.688 -754.911 -755.135 -755.359 -755.582 -755.843 -756.046 -756.281 -756.516 -756.752 -757.055 -757.244 -757.491 -757.738 -757.985 -758.326 -758.506 -758.765 -759.023 -759.282 -759.653 -759.831 -760.102 -760.372 -760.642 -761.035 -761.22 -761.502 -761.784 -762.066 -762.473 -762.672 -762.966 -763.259 -763.553 -763.964 -764.186 -764.491 -764.796 -765.102 -765.509 -765.76 -766.077 -766.393 -766.71 -767.106 -767.392 -767.72 -768.048 -768.375 -768.755 -769.079 -769.418 -769.757 -770.095 -770.452 -770.818 -771.167 -771.516 -771.865 -772.198 -772.603 -772.964 -773.322 -773.677 -773.988 -774.425 -774.803 -775.171 -775.525 -775.821 -776.283 -776.681 -777.058 -777.408 -777.694 -778.174 -778.593 -778.978 -779.321 -779.603 -780.096 -780.536 -780.929 -781.266 -781.549 -782.053 -782.515 -782.916 -783.245 -783.53 -784.042 -784.523 -784.93 -785.248 -785.535 -786.051 -786.547 -786.957 -787.263 -787.551 -788.062 -788.567 -788.975 -789.272 -789.565 -790.066 -790.567 -790.971 -791.272 -791.573 -792.061 -792.55 -792.951 -793.261 -793.571 -794.043 -794.516 -794.913 -795.233 -795.552 -796.007 -796.461 -796.853 -797.182 -797.51 -797.945 -798.381 -798.766 -799.103 -799.439 -799.855 -800.271 -800.65 -800.993 -801.335 -801.732 -802.13 -802.501 -802.848 -803.195 -803.574 -803.953 -804.317 -804.666 -805.015 -805.377 -805.738 -806.093 -806.443 -806.792 -807.137 -807.483 -807.829 -808.175 -808.521 -808.85 -809.182 -809.518 -809.857 -810.198 -810.511 -810.831 -811.156 -811.483 -811.816 -812.115 -812.423 -812.736 -813.05 -813.373 -813.657 -813.954 -814.253 -814.553 -814.865 -815.133 -815.417 -815.702 -815.987 -816.282 -816.536 -816.803 -817.07 -817.338 -817.615 -817.85 -818.098 -818.345 -818.593 -818.85 -819.066 -819.293 -819.52 -819.747 -819.981 -820.179 -820.385 -820.591 -820.797 -821.007 -821.186 -821.37 -821.554 -821.738 -821.922 -821.938 -821.955 -821.971 -821.987 -822.004 -822.148 -822.292 -822.436 -822.581 -822.724 -822.859 -822.992 -823.125 -823.258 -823.388 -823.496 -823.599 -823.703 -823.806 -823.904 -823.984 -824.056 -824.127 -824.199 -824.262 -824.313 -824.35 -824.387 -824.424 -824.448 -824.467 -824.467 -824.466 -824.464 -824.448 -824.428 -824.392 -824.351 -824.305 -824.247 -824.186 -824.112 -824.029 -823.935 -823.832 -823.728 -823.615 -823.486 -823.341 -823.191 -823.04 -822.887 -822.709 -822.51 -822.31 -822.11 -821.91 -821.681 -821.428 -821.175 -820.923 -820.671 -820.391 -820.082 -819.774 -819.467 -819.161 -818.826 -818.46 -818.094 -817.73 -817.366 -816.973 -816.547 -816.12 -815.696 -815.27 -814.815 -814.331 -813.841 -813.355 -812.857 -812.338 -811.798 -811.243 -810.69 -810.118 -809.531 -808.934 -808.311 -807.69 -807.039 -806.382 -805.725 -805.032 -804.336 -803.607 -802.878 -802.15 -801.394 -800.615 -799.811 -799.007 -798.204 -797.385 -796.519 -795.639 -794.758 -793.878 -792.995 -792.718 -792.439 -792.159 -791.879 -791.604 -790.928 -790.252 -789.576 -788.9 -788.214 -787.191 -786.158 -785.125 -784.092 -783.031 -781.944 -780.829 -779.714 -778.599 -777.439 -776.286 -775.087 -773.889 -772.683 -771.428 -770.194 -768.925 -767.642 -766.332 -764.991 -763.671 -762.335 -760.965 -759.549 -758.12 -756.712 -755.305 -753.844 -752.326 -750.808 -749.312 -747.816 -746.265 -744.658 -743.05 -741.464 -739.879 -738.236 -736.538 -734.84 -733.163 -731.476 -729.736 -727.962 -726.172 -724.404 -722.602 -720.77 -718.925 -717.044 -715.183 -713.264 -711.339 -709.415 -707.45 -705.477 -703.459 -701.441 -699.423 -697.388 -695.751 -694.094 -692.437 -690.781 -689.208 -688.739 -688.27 -687.802 -687.333 -686.859 -684.671 -682.479 -680.287 -678.096 -675.871 -673.613 -671.327 -669.042 -666.757 -664.41 -662.074 -659.704 -657.325 -654.918 -652.477 -650.047 -647.608 -645.137 -642.607 -640.071 -637.548 -635.025 -632.451 -629.823 -627.195 -624.578 -621.963 -619.29 -616.569 -613.848 -611.139 -608.405 -605.633 -602.847 -600.034 -597.233 -594.374 -591.51 -588.646 -585.754 -582.833 -579.878 -576.923 -573.968 -571.013 -570.917 -570.82 -570.724 -570.627 -570.53 -567.588 -564.646 -561.705 -558.764 -555.8 -552.687 -549.561 -546.435 -543.306 -540.136 -536.943 -533.738 -530.525 -527.285 -524.028 -520.75 -517.472 -514.168 -510.826 -507.483 -504.12 -500.757 -497.359 -493.934 -490.508 -487.062 -483.602 -480.114 -476.619 -473.113 -469.585 -466.02 -462.452 -458.885 -455.306 -452.606 -449.888 -447.17 -444.453 -441.846 -440.897 -439.949 -439 -438.051 -437.096 -433.383 -429.667 -425.951 -422.236 -418.487 -414.713 -410.924 -407.135 -403.33 -399.498 -395.652 -391.805 -387.944 -384.043 -380.142 -376.226 -372.311 -368.367 -364.399 -360.431 -356.449 -352.454 -348.435 -344.412 -340.38 -336.333 -332.251 -328.17 -324.089 -320.003 -318.273 -316.532 -314.792 -313.051 -311.348 -308.943 -306.537 -304.132 -301.727 -299.307 -295.119 -290.926 -286.733 -282.537 -278.309 -274.071 -269.829 -265.583 -261.312 -257.032 -252.742 -248.453 -244.145 -239.819 -235.492 -231.154 -226.81 -222.445 -218.078 -213.707 -209.324 -204.917 -200.51 -196.103 -191.693 -190.108 -188.516 -186.924 -185.332 -183.768 -180.908 -178.049 -175.19 -172.331 -169.459 -164.979 -160.498 -156.017 -151.531 -147.026 -142.514 -138.002 -133.489 -128.955 -124.42 -119.876 -115.334 -110.777 -106.215 -101.652 -97.0807 -92.5015 -87.9172 -83.3334 -78.7499 -75.3713 -71.9872 -68.6033 -65.2197 -61.9461 -60.7052 -59.4643 -58.2234 -56.9826 -55.7387 -51.1166 -46.4958 -41.8755 -37.2553 -32.6206 -27.9808 -23.3436 -18.7093 -14.0671 -9.42136 -4.76991 -0.119039 4.53462 9.1847 13.837 18.4956 23.1557 27.817 32.4778 37.1339 40.2141 43.2947 46.3752 49.4554 52.4523 54.0535 55.6546 57.2556 58.8567 60.4589 65.1308 69.7982 74.4652 79.1318 83.8012 88.4741 93.1445 97.8062 102.466 107.128 111.793 116.458 121.119 125.77 130.421 135.076 139.725 144.373 149.02 153.665 154.691 155.716 156.74 157.764 158.78 162.398 166.015 169.633 173.25 176.864 181.502 186.128 190.752 195.37 199.986 204.604 209.221 213.827 218.418 223.012 227.607 232.194 236.774 241.355 245.926 248.136 250.338 252.541 254.743 256.909 259.274 261.64 264.006 266.371 268.73 273.281 277.818 282.356 286.886 291.41 295.932 300.454 304.959 309.447 313.939 318.427 322.907 327.376 331.845 336.303 338.475 340.637 342.799 344.96 347.09 349.376 351.662 353.947 356.233 358.51 362.934 367.345 371.755 376.154 380.547 384.933 389.319 393.686 398.035 402.386 406.731 411.06 415.381 419.702 424.018 425.157 426.291 427.425 428.558 429.684 432.842 436.001 439.16 442.317 445.46 449.725 453.98 458.229 462.458 466.687 470.904 475.12 479.313 483.495 487.675 491.183 494.672 498.158 501.645 505.064 505.736 506.409 507.082 507.754 508.423 512.539 516.651 520.762 524.866 528.955 533.028 537.1 541.153 545.185 549.22 553.237 557.24 561.23 565.221 569.206 570.091 570.97 571.848 572.726 573.6 576.674 579.749 582.823 585.893 588.946 592.859 596.768 600.662 604.528 608.396 612.248 616.089 619.908 623.728 627.532 628.988 630.433 631.875 633.317 634.755 637.083 639.412 641.74 644.064 646.373 650.104 653.824 657.535 661.211 664.887 668.546 672.195 675.812 679.428 683.02 684.531 686.032 687.53 689.027 690.531 692.592 694.653 696.713 698.77 700.813 704.336 707.829 711.297 714.678 718.055 721.411 724.798 728.296 731.8 735.357 736.905 738.163 739.329 740.495 741.685 743.431 745.176 746.921 748.558 749.831 752.068 754.87 757.977 762.614 767.399 772.066 776.071 778.524 780.982 783.157 783.287 783.446 783.651 783.855 784.06 785.927 787.795 789.665 792.036 794.732 797.693 800.64 803.453 806.267 809.022 809.512 809.991 810.453 810.914 811.383 813.648 815.912 818.175 820.364 822.506 825.122 827.737 830.251 832.757 835.205 835.775 836.331 836.863 837.395 837.943 839.821 841.697 843.57 845.371 847.126 849.401 851.673 853.776 855.81 857.785 858.424 859.034 859.596 860.157 860.752 862.034 863.314 864.59 865.781 866.907 868.539 870.164 871.59 872.803 874.007 874.644 875.195 875.647 876.098 876.605 877.047 877.488 877.927 878.306 878.616 879.243 879.766 880.157 880.207 880.248 880.153 879.845 879.313 878.775 878.153 878.043 877.896 877.728 877.56 877.387 876.414 875.428 874.431 873.296 871.871 870.036 868.19 865.903 863.2 860.485 857.511 854.133 850.51 846.879 843.084 842.22 841.243 840.247 839.251 838.19 834.493 830.784 827.064 823.293 819.072 813.373 807.389 801.119 794.091 786.971 779.381 771.777 763.589 754.939 746.219 736.974 726.538 715.826 705.113 693.915 689.352 684.779 680.206 675.631 670.456 662.799 655.137 647.471 639.8 632.086 618.247 602.494 586.71 569.939 550.566 530.219 510.433 492.83 478.834 464.876 450.168 435.461 407.964 368.142 328.286 286.636 253.851 237.388 228.551 231.402 234.059 177.224 119.864 62.2089 0