/*--------------------------------*- C++ -*----------------------------------*\
| =========                 |                                                 |
| \\      /  F ield         | OpenFOAM: The Open Source CFD Toolbox           |
|  \\    /   O peration     | Version:  5.x                                   |
|   \\  /    A nd           | Web:      www.OpenFOAM.org                      |
|    \\/     M anipulation  |                                                 |
\*---------------------------------------------------------------------------*/
/*   Windows 32 and 64 bit porting by blueCAPE: http://www.bluecape.com.pt   *\
|  Based on Windows porting (2.0.x v4) by Symscape: http://www.symscape.com   |
\*---------------------------------------------------------------------------*/
FoamFile
{
    version     2.0;
    format      ascii;
    class       volVectorField;
    location    "0";
    object      U;
}
// * * * * * * * * * * * * * * * * * * * * * * * * * * * * * * * * * * * * * //

dimensions      [0 1 -1 0 0 0 0];

internalField   nonuniform List<vector> 
125000
(
(12.6919 -25.7618 7.10413)
(9.18401 -20.2845 6.48022)
(4.22725 -10.3355 3.36979)
(2.79531 -7.2015 2.33082)
(2.04424 -5.46981 1.76111)
(1.55419 -4.27643 1.37172)
(1.20539 -3.3792 1.08057)
(0.943445 -2.67014 0.851461)
(0.739016 -2.09234 0.66545)
(0.574908 -1.61324 0.511811)
(0.440302 -1.2127 0.3839)
(0.32827 -0.877999 0.277478)
(0.234147 -0.600317 0.189577)
(0.154668 -0.373073 0.117948)
(0.0875963 -0.191321 0.0608691)
(0.0314945 -0.0512823 0.0170118)
(-0.0145046 0.050249 -0.0147424)
(-0.0508102 0.116219 -0.0354046)
(-0.0774712 0.149779 -0.0460109)
(-0.0944586 0.155106 -0.0478717)
(-0.102044 0.138038 -0.0427737)
(-0.101216 0.106274 -0.0330522)
(-0.0942613 0.0692095 -0.0215792)
(-0.0853457 0.0362906 -0.0113085)
(-0.0794526 0.0111091 -0.00344332)
(-0.0795739 -0.011075 0.00344773)
(-0.0856982 -0.0364173 0.0113605)
(-0.0948121 -0.0696117 0.0217111)
(-0.101919 -0.107 0.0332759)
(-0.102856 -0.139077 0.0430828)
(-0.0953607 -0.156423 0.0482506)
(-0.0784861 -0.151364 0.0464502)
(-0.0520044 -0.118129 0.0359118)
(-0.0159724 -0.0525855 0.0153312)
(0.0296329 0.0484007 -0.016333)
(0.0851567 0.187686 -0.0600715)
(0.15134 0.368202 -0.116925)
(0.229403 0.593214 -0.188075)
(0.321253 0.866792 -0.274977)
(0.429703 1.19429 -0.379501)
(0.558753 1.58278 -0.504084)
(0.714172 2.04218 -0.652101)
(0.904828 2.58806 -0.828837)
(1.14478 3.24627 -1.04308)
(1.45736 4.06173 -1.31036)
(1.88465 5.11843 -1.66024)
(2.51255 6.59152 -2.15522)
(3.59484 9.00074 -2.9773)
(6.44757 14.7985 -4.86966)
(9.50962 19.8899 -6.03234)
(12.6766 -25.7368 8.03175)
(8.85613 -18.7015 5.60052)
(4.19033 -10.5571 3.05729)
(2.78547 -7.50424 2.17736)
(2.06741 -5.81495 1.6971)
(1.60921 -4.66009 1.3671)
(1.28794 -3.79148 1.11716)
(1.0485 -3.09867 0.91649)
(0.861368 -2.52417 0.749064)
(0.709451 -2.03622 0.606083)
(0.582252 -1.61629 0.482437)
(0.473346 -1.25384 0.375279)
(0.378692 -0.942322 0.282874)
(0.29571 -0.677435 0.204088)
(0.222809 -0.456309 0.138171)
(0.159102 -0.276957 0.0845947)
(0.104167 -0.137618 0.0428775)
(0.0578888 -0.0364707 0.0124993)
(0.0203087 0.0289163 -0.00725013)
(-0.00865768 0.0624662 -0.0175259)
(-0.029496 0.0700432 -0.0200707)
(-0.0431577 0.0592436 -0.0171586)
(-0.0506687 0.0388236 -0.0114067)
(-0.0528546 0.0184071 -0.00559388)
(-0.0520623 0.00487124 -0.00155881)
(-0.0521132 -0.00475579 0.0015297)
(-0.0529839 -0.0183975 0.00559195)
(-0.0508186 -0.0389586 0.0114411)
(-0.0432577 -0.0594666 0.0172108)
(-0.0294832 -0.0702118 0.0200979)
(-0.00850065 -0.0623868 0.0174719)
(0.020591 -0.0284074 0.00706644)
(0.0582186 0.0375154 -0.0128342)
(0.1044 0.139216 -0.0433546)
(0.159005 0.279057 -0.0851782)
(0.222028 0.45872 -0.138771)
(0.293716 0.679609 -0.204494)
(0.37471 0.943183 -0.282697)
(0.466299 1.25151 -0.373869)
(0.570706 1.60791 -0.478811)
(0.691444 2.01763 -0.598833)
(0.833994 2.48931 -0.736147)
(1.00721 3.03822 -0.894821)
(1.22545 3.69163 -1.08218)
(1.51255 4.49839 -1.31139)
(1.91109 5.55005 -1.60699)
(2.50761 7.03467 -2.01943)
(3.55262 9.46273 -2.69375)
(6.23578 14.5511 -4.20809)
(9.28475 19.573 -5.71449)
(12.3517 -26.1224 7.73768)
(8.38233 -16.3303 5.14578)
(4.14609 -10.1349 2.92272)
(2.73729 -7.22967 2.06601)
(2.03563 -5.6299 1.61289)
(1.58931 -4.52922 1.30357)
(1.2758 -3.69366 1.06867)
(1.04218 -3.02258 0.879368)
(0.860384 -2.46442 0.721085)
(0.714067 -1.99094 0.585958)
(0.593031 -1.58531 0.46939)
(0.49087 -1.23776 0.368801)
(0.403425 -0.941711 0.28254)
(0.327927 -0.692436 0.209445)
(0.262533 -0.48636 0.148654)
(0.206001 -0.320503 0.0994352)
(0.157379 -0.191772 0.0609859)
(0.11578 -0.0967549 0.0323727)
(0.0802058 -0.0314405 0.0124551)
(0.049551 0.00882858 -0.000122787)
(0.0231604 0.0283452 -0.00663605)
(0.00180786 0.0303638 -0.00805417)
(-0.0124646 0.019616 -0.00568758)
(-0.0189025 0.00620725 -0.0022244)
(-0.0202288 0.000377065 -0.000366573)
(-0.0202434 -0.000255791 0.000338211)
(-0.0189261 -0.00618142 0.00221894)
(-0.0124521 -0.0197189 0.00571128)
(0.00190307 -0.0305507 0.00809199)
(0.0233786 -0.0284933 0.00665034)
(0.0499199 -0.00873876 5.46493e-005)
(0.0807237 0.0320001 -0.01267)
(0.116399 0.0979762 -0.0327794)
(0.157989 0.193798 -0.0616056)
(0.206417 0.323494 -0.100279)
(0.262479 0.490464 -0.149705)
(0.326992 0.697561 -0.210589)
(0.401004 0.947416 -0.283526)
(0.486126 1.243 -0.369164)
(0.584826 1.58821 -0.468372)
(0.700779 1.98848 -0.582412)
(0.839476 2.45201 -0.713283)
(1.00954 2.99279 -0.864594)
(1.22465 3.63545 -1.04281)
(1.50739 4.42462 -1.25967)
(1.89828 5.44544 -1.53748)
(2.48173 6.87704 -1.92367)
(3.51321 9.2108 -2.56085)
(5.97093 13.4243 -3.89506)
(8.94846 18.8769 -5.42088)
(11.9371 -26.0963 7.414)
(8.15547 -14.8521 4.8338)
(4.51405 -10.5906 3.10125)
(2.99059 -7.61339 2.20789)
(2.21825 -5.91329 1.71724)
(1.72517 -4.73409 1.37893)
(1.37889 -3.8386 1.12198)
(1.12218 -3.12348 0.916535)
(0.924379 -2.53457 0.747027)
(0.76734 -2.04103 0.604598)
(0.63952 -1.62357 0.483701)
(0.533484 -1.27025 0.380939)
(0.44426 -0.972638 0.293954)
(0.368404 -0.724344 0.220989)
(0.303451 -0.520309 0.16067)
(0.247527 -0.356115 0.111797)
(0.199036 -0.227284 0.0731381)
(0.15652 -0.129365 0.0434467)
(0.118763 -0.0582382 0.0215547)
(0.0852191 -0.0107869 0.00657262)
(0.0566554 0.0143805 -0.00189778)
(0.0349751 0.0188327 -0.00427889)
(0.0213586 0.0094205 -0.00243597)
(0.0145639 -0.000669704 1.69799e-005)
(0.0120143 -0.00189314 0.000411785)
(0.0120236 0.0019689 -0.000418094)
(0.0146087 0.000651857 -2.13053e-006)
(0.0214783 -0.00956242 0.00247565)
(0.0352078 -0.0190514 0.0043259)
(0.0570212 -0.0145706 0.00192024)
(0.0857181 0.0107886 -0.00662141)
(0.119371 0.0586272 -0.0217272)
(0.15718 0.130307 -0.0437805)
(0.199637 0.228905 -0.0736503)
(0.247893 0.358588 -0.112504)
(0.30333 0.523844 -0.161575)
(0.367424 0.72895 -0.222012)
(0.441867 0.978031 -0.294901)
(0.528889 1.27558 -0.38142)
(0.631604 1.62712 -0.483022)
(0.754414 2.03983 -0.601628)
(0.90368 2.5238 -0.739958)
(1.08912 3.09505 -0.902369)
(1.32584 3.78008 -1.09599)
(1.63821 4.6248 -1.33297)
(2.06924 5.71455 -1.63547)
(2.7078 7.22645 -2.04995)
(3.81409 9.61691 -2.70927)
(6.05412 13.0856 -3.84059)
(8.78104 18.4764 -5.2264)
(11.511 -25.8547 7.0716)
(7.85063 -13.4475 4.46711)
(4.72817 -10.7017 3.1483)
(3.13574 -7.76588 2.25611)
(2.31739 -6.01724 1.74915)
(1.799 -4.80149 1.39985)
(1.43746 -3.88085 1.13571)
(1.17118 -3.14965 0.925817)
(0.967396 -2.55176 0.753892)
(0.806736 -2.05462 0.61053)
(0.676919 -1.63724 0.489707)
(0.569995 -1.2863 0.387632)
(0.480595 -0.992139 0.3016)
(0.404927 -0.747259 0.229548)
(0.340172 -0.545639 0.169824)
(0.284091 -0.381993 0.120979)
(0.2348 -0.251283 0.0816198)
(0.19082 -0.149232 0.0505535)
(0.151412 -0.073065 0.0270101)
(0.11699 -0.0219552 0.010772)
(0.089043 0.00400363 0.00188496)
(0.0688717 0.00792867 -0.000501811)
(0.0559654 8.80868e-005 0.000766828)
(0.0483399 -0.00586042 0.00189107)
(0.0446131 -0.00331094 0.000973714)
(0.0446398 0.00331137 -0.000942771)
(0.048433 0.00576628 -0.00183913)
(0.0561583 -0.000308291 -0.000691492)
(0.0691987 -0.008222 0.000579814)
(0.0895176 -0.00426119 -0.00183841)
(0.117596 0.0218753 -0.010796)
(0.152101 0.0733162 -0.0271434)
(0.191516 0.149932 -0.0508184)
(0.235378 0.252515 -0.0820216)
(0.284368 0.383899 -0.121526)
(0.339893 0.548418 -0.170516)
(0.403719 0.750932 -0.23031)
(0.477898 0.996471 -0.302251)
(0.565006 1.29054 -0.387802)
(0.668478 1.63974 -0.488717)
(0.793054 2.05245 -0.607236)
(0.945526 2.54004 -0.746433)
(1.13624 3.11986 -0.911035)
(1.38126 3.81968 -1.10856)
(1.70649 4.68622 -1.35147)
(2.15767 5.80491 -1.66226)
(2.82916 7.35012 -2.08737)
(3.98072 9.72398 -2.74707)
(6.04219 12.6141 -3.71406)
(8.60795 18.0358 -5.03091)
(11.1159 -25.4862 6.73656)
(7.55054 -12.1713 4.11144)
(4.87962 -10.6186 3.13253)
(3.25181 -7.8135 2.26828)
(2.39809 -6.04997 1.75674)
(1.86087 -4.81816 1.40402)
(1.48847 -3.88738 1.1381)
(1.21555 -3.15126 0.927577)
(1.00761 -2.55254 0.755876)
(0.844405 -2.05744 0.613319)
(0.713117 -1.64378 0.493628)
(0.605405 -1.29721 0.392776)
(0.515589 -1.00713 0.307834)
(0.439599 -0.765255 0.236535)
(0.374358 -0.564925 0.177056)
(0.317438 -0.400491 0.127847)
(0.266963 -0.267102 0.0875709)
(0.221799 -0.161536 0.0553442)
(0.181876 -0.0828265 0.0309185)
(0.148187 -0.0316034 0.0144983)
(0.121961 -0.00725407 0.00592824)
(0.103252 -0.00363603 0.00349679)
(0.0904773 -0.00843056 0.00376383)
(0.0819376 -0.0098346 0.00342217)
(0.0773762 -0.00425174 0.00139642)
(0.0774157 0.00416 -0.00131645)
(0.0820666 0.00964683 -0.0033212)
(0.0907214 0.00810912 -0.00363822)
(0.10364 0.00323623 -0.0033696)
(0.122505 0.0068955 -0.00583812)
(0.148862 0.031424 -0.0144838)
(0.182618 0.0829452 -0.0310065)
(0.222508 0.162017 -0.0555401)
(0.267496 0.267971 -0.0878625)
(0.317595 0.40184 -0.128228)
(0.373872 0.566914 -0.177517)
(0.438087 0.767881 -0.236995)
(0.512473 1.01017 -0.308113)
(0.599855 1.29994 -0.39251)
(0.703923 1.64462 -0.492142)
(0.829678 2.05345 -0.60946)
(0.984224 2.5388 -0.747745)
(1.17834 3.119 -0.911927)
(1.42879 3.82264 -1.10969)
(1.76266 4.6968 -1.35361)
(2.22796 5.82609 -1.66619)
(2.9235 7.37854 -2.0931)
(4.10097 9.68448 -2.73824)
(6.0019 12.0898 -3.5649)
(8.44716 17.5905 -4.84492)
(10.7549 -25.0132 6.41771)
(7.2752 -11.015 3.78627)
(5.00031 -10.4019 3.08427)
(3.36131 -7.7922 2.26475)
(2.47703 -6.04051 1.75516)
(1.92233 -4.80648 1.40218)
(1.5396 -3.87479 1.13646)
(1.2602 -3.14026 0.926662)
(1.04808 -2.54515 0.756064)
(0.882168 -2.05487 0.614836)
(0.749136 -1.64642 0.496521)
(0.64026 -1.30469 0.396911)
(0.549558 -1.01841 0.312908)
(0.47272 -0.778763 0.242103)
(0.406508 -0.578819 0.182595)
(0.348476 -0.413064 0.132874)
(0.296972 -0.277434 0.0918271)
(0.251333 -0.170127 0.058977)
(0.211969 -0.0915671 0.0344724)
(0.17986 -0.0424114 0.0185188)
(0.15542 -0.0199106 0.0103519)
(0.13762 -0.0152162 0.00748936)
(0.124582 -0.0158918 0.00644789)
(0.115277 -0.0129375 0.00468909)
(0.110191 -0.00493894 0.00174153)
(0.11024 0.00474705 -0.00160315)
(0.115432 0.0126469 -0.00452946)
(0.12486 0.0154581 -0.00626131)
(0.138044 0.0146914 -0.007299)
(0.155999 0.0194236 -0.0102006)
(0.180566 0.0421082 -0.0184486)
(0.212727 0.0915463 -0.0345041)
(0.252023 0.170402 -0.0590995)
(0.297428 0.27797 -0.0920095)
(0.348479 0.41389 -0.133091)
(0.405773 0.580036 -0.182822)
(0.470846 0.780329 -0.242248)
(0.545944 1.02008 -0.312785)
(0.634044 1.30576 -0.396159)
(0.739049 1.64531 -0.494462)
(0.866216 2.04865 -0.61031)
(1.02295 2.52885 -0.747148)
(1.22045 3.10494 -0.910054)
(1.47607 3.8061 -1.10682)
(1.81796 4.6794 -1.35001)
(2.29605 5.80781 -1.66191)
(3.01225 7.34921 -2.08647)
(4.2033 9.55172 -2.70848)
(5.95654 11.5416 -3.41423)
(8.30373 17.1522 -4.67041)
(10.4263 -24.457 6.11729)
(7.0275 -9.96839 3.49479)
(5.09992 -10.0862 3.01566)
(3.46857 -7.71722 2.25139)
(2.55729 -6.00103 1.74847)
(1.98533 -4.77605 1.39714)
(1.59201 -3.85023 1.1327)
(1.3058 -3.12163 0.924282)
(1.08916 -2.53283 0.755195)
(0.92021 -2.04887 0.615499)
(0.78507 -1.64622 0.498597)
(0.674631 -1.30925 0.400136)
(0.58263 -1.02627 0.316895)
(0.50457 -0.788224 0.24639)
(0.437157 -0.588261 0.186739)
(0.378072 -0.421436 0.136589)
(0.325985 -0.28479 0.0951409)
(0.28062 -0.177783 0.0622727)
(0.242517 -0.101349 0.0382691)
(0.21219 -0.0549605 0.0229947)
(0.189145 -0.0333742 0.0149736)
(0.171726 -0.0262177 0.0112922)
(0.158268 -0.022334 0.00881922)
(0.148399 -0.015469 0.00577526)
(0.143009 -0.00550176 0.00204476)
(0.143064 0.00520694 -0.00184017)
(0.148571 0.0150721 -0.0055486)
(0.158567 0.0217842 -0.0085634)
(0.172165 0.0255599 -0.0110283)
(0.189727 0.0327431 -0.0147472)
(0.212888 0.0545129 -0.0228525)
(0.243249 0.101176 -0.0382301)
(0.281252 0.17786 -0.0623147)
(0.326328 0.285021 -0.095213)
(0.377883 0.421782 -0.136646)
(0.436128 0.588752 -0.186735)
(0.502276 0.788761 -0.246218)
(0.578444 1.02657 -0.31636)
(0.667651 1.3086 -0.398874)
(0.773961 1.64303 -0.495927)
(0.902867 2.04022 -0.610257)
(1.06208 2.51373 -0.745442)
(1.26321 3.08308 -0.906684)
(1.52423 3.7777 -1.10185)
(1.87426 4.64427 -1.34348)
(2.36494 5.76313 -1.6534)
(3.09984 7.27839 -2.07297)
(4.29544 9.35229 -2.66674)
(5.91255 10.9849 -3.26872)
(8.17766 16.7225 -4.50673)
(10.1273 -23.8383 5.83526)
(6.80557 -9.02233 3.23463)
(5.1819 -9.69746 2.93253)
(3.57354 -7.59824 2.22993)
(2.63895 -5.93845 1.73778)
(2.04996 -4.73219 1.38972)
(1.64574 -3.81747 1.12737)
(1.35236 -3.09788 0.920816)
(1.13087 -2.51709 0.753495)
(0.95853 -2.04025 0.615427)
(0.820935 -1.64356 0.499912)
(0.708588 -1.31111 0.402494)
(0.614974 -1.03101 0.319879)
(0.535483 -0.794247 0.249584)
(0.466861 -0.594382 0.189832)
(0.406992 -0.427309 0.139503)
(0.354846 -0.291171 0.0981036)
(0.310338 -0.186198 0.0657224)
(0.273794 -0.112903 0.0425189)
(0.245061 -0.0689205 0.0278271)
(0.222919 -0.0469585 0.0195929)
(0.205521 -0.0363647 0.0148223)
(0.191629 -0.0279325 0.0109259)
(0.181378 -0.0176512 0.0067434)
(0.175825 -0.00601084 0.00232759)
(0.175885 0.00561438 -0.00204997)
(0.181559 0.0171494 -0.00644304)
(0.191935 0.0272685 -0.010594)
(0.205956 0.0355761 -0.0144776)
(0.223478 0.0461796 -0.0192813)
(0.245713 0.0683179 -0.0275991)
(0.274456 0.112568 -0.0423956)
(0.310866 0.186079 -0.0656732)
(0.355031 0.291124 -0.0980627)
(0.406566 0.427222 -0.139402)
(0.46549 0.594207 -0.189604)
(0.532713 0.79382 -0.249102)
(0.610143 1.03 -0.318936)
(0.700747 1.30877 -0.400717)
(0.808679 1.6383 -0.496618)
(0.939631 2.02916 -0.609449)
(1.10161 2.49519 -0.74289)
(1.30665 3.05619 -0.902243)
(1.57334 3.74156 -1.09542)
(1.93173 4.59715 -1.33487)
(2.4349 5.69954 -1.6418)
(3.18666 7.17591 -2.05421)
(4.37955 9.10422 -2.61657)
(5.87159 10.4303 -3.12994)
(8.06769 16.3006 -4.35274)
(9.85497 -23.1754 5.57066)
(6.60645 -8.16804 3.00199)
(5.24804 -9.25653 2.83847)
(3.67529 -7.44214 2.201)
(2.72146 -5.85678 1.72336)
(2.11597 -4.67773 1.38017)
(1.70066 -3.77844 1.12068)
(1.39982 -3.07019 0.916395)
(1.17316 -2.49861 0.751039)
(0.997126 -2.02935 0.614655)
(0.85677 -1.63863 0.500494)
(0.742237 -1.31047 0.404039)
(0.64681 -1.03302 0.321984)
(0.565829 -0.79758 0.251914)
(0.496143 -0.598348 0.192224)
(0.435853 -0.432146 0.142045)
(0.38412 -0.297978 0.101121)
(0.340809 -0.196189 0.0695642)
(0.305813 -0.126191 0.0472088)
(0.278313 -0.0837049 0.0328479)
(0.256641 -0.0601723 0.0240689)
(0.239059 -0.045612 0.0180661)
(0.224787 -0.0328876 0.0128244)
(0.214294 -0.0196319 0.00763672)
(0.208667 -0.00650632 0.00260205)
(0.208727 0.00601434 -0.00224591)
(0.214477 0.0190318 -0.00725744)
(0.225088 0.0321181 -0.0124114)
(0.239473 0.0447036 -0.0176359)
(0.257154 0.0592551 -0.023666)
(0.278887 0.0829488 -0.0325247)
(0.306362 0.125691 -0.0469882)
(0.341184 0.19588 -0.0694138)
(0.384097 0.297675 -0.100963)
(0.435139 0.431676 -0.14179)
(0.494376 0.59758 -0.191781)
(0.562521 0.796274 -0.251134)
(0.641259 1.03078 -0.320644)
(0.733442 1.30653 -0.401756)
(0.843244 1.63138 -0.496582)
(0.976514 2.01591 -0.60795)
(1.14154 2.47406 -0.739602)
(1.35074 3.02567 -0.896904)
(1.62332 3.69989 -1.08778)
(1.99022 4.54121 -1.32451)
(2.50565 5.62141 -1.62749)
(3.27229 7.0482 -2.03074)
(4.45643 8.8208 -2.5598)
(5.83402 9.88537 -2.99788)
(7.97235 15.8851 -4.20725)
(9.60654 -22.4846 5.32223)
(6.42724 -7.39649 2.79304)
(5.29973 -8.77989 2.73621)
(3.77283 -7.25413 2.165)
(2.80422 -5.75832 1.70527)
(2.18308 -4.61414 1.36855)
(1.75666 -3.73407 1.11268)
(1.44813 -3.03909 0.911054)
(1.21602 -2.47767 0.747844)
(1.03601 -2.0163 0.613195)
(0.892642 -1.63155 0.500369)
(0.775723 -1.30757 0.404842)
(0.678386 -1.03279 0.323355)
(0.595974 -0.79902 0.253617)
(0.525465 -0.601233 0.19423)
(0.465119 -0.437087 0.14455)
(0.414137 -0.306035 0.104434)
(0.372139 -0.207964 0.0738546)
(0.338488 -0.140833 0.0522314)
(0.311823 -0.0987558 0.0378985)
(0.290299 -0.0727429 0.0283248)
(0.272437 -0.0540339 0.021045)
(0.257858 -0.0373741 0.0145655)
(0.247225 -0.021508 0.00848385)
(0.241576 -0.00700727 0.00287412)
(0.241636 0.00643155 -0.00243558)
(0.247403 0.0208227 -0.00802174)
(0.258145 0.0365157 -0.0140688)
(0.272817 0.053026 -0.0205272)
(0.290744 0.0717077 -0.0278276)
(0.312288 0.097862 -0.0374744)
(0.338884 0.140176 -0.0519052)
(0.372311 0.207474 -0.0735926)
(0.413851 0.305503 -0.104152)
(0.464063 0.436285 -0.144143)
(0.523245 0.59995 -0.193582)
(0.592065 0.796937 -0.252556)
(0.67204 1.02945 -0.321637)
(0.76588 1.30216 -0.402074)
(0.877729 1.62247 -0.495862)
(1.01354 2.0007 -0.605793)
(1.18184 2.45073 -0.735625)
(1.39544 2.99224 -0.890744)
(1.67411 3.65382 -1.07904)
(2.0496 4.47819 -1.31254)
(2.57689 5.53126 -1.6106)
(3.35622 6.89961 -2.00287)
(4.52656 8.51199 -2.49771)
(5.79994 9.35502 -2.87212)
(7.89025 15.4746 -4.06919)
(9.37944 -21.779 5.08859)
(6.26534 -6.69862 2.60435)
(5.3383 -8.28076 2.62802)
(3.86537 -7.03854 2.12239)
(2.88663 -5.6445 1.68351)
(2.25099 -4.54211 1.35484)
(1.81359 -3.68473 1.10337)
(1.49721 -3.00479 0.904787)
(1.25944 -2.45433 0.743903)
(1.07523 -2.00118 0.611056)
(0.928643 -1.62246 0.499577)
(0.809215 -1.30272 0.404996)
(0.709964 -1.03085 0.324153)
(0.626266 -0.799344 0.254925)
(0.555204 -0.603936 0.196114)
(0.495109 -0.442902 0.147237)
(0.445068 -0.315717 0.108147)
(0.404321 -0.221369 0.0785522)
(0.371716 -0.156337 0.0574456)
(0.345532 -0.113653 0.042861)
(0.323933 -0.0845596 0.0323306)
(0.305764 -0.0617497 0.023794)
(0.290951 -0.0415305 0.0161891)
(0.280247 -0.0233407 0.00930335)
(0.274608 -0.00752308 0.0031471)
(0.274666 0.00688147 -0.00262365)
(0.280415 0.0225904 -0.00875683)
(0.291214 0.040607 -0.0156074)
(0.306094 0.0606712 -0.0231886)
(0.324292 0.0834387 -0.0317398)
(0.34586 0.112649 -0.0423342)
(0.371919 0.155543 -0.0570079)
(0.404241 0.220717 -0.0781725)
(0.444463 0.314984 -0.107737)
(0.49365 0.44182 -0.14668)
(0.552469 0.602223 -0.195272)
(0.621689 0.796602 -0.253601)
(0.702749 1.02656 -0.322084)
(0.798235 1.29602 -0.401776)
(0.912233 1.61175 -0.494516)
(1.05076 1.98368 -0.60301)
(1.22253 2.4254 -0.730982)
(1.44073 2.95622 -0.883795)
(1.72565 3.60393 -1.06925)
(2.1097 4.40901 -1.29901)
(2.6483 5.43065 -1.59121)
(3.43803 6.73337 -1.97087)
(4.59044 8.18548 -2.43136)
(5.76939 8.84206 -2.75219)
(7.8201 15.0679 -3.9376)
(9.17139 -21.0693 4.86833)
(6.11847 -6.06584 2.43297)
(5.36508 -7.7698 2.51585)
(3.95228 -6.79926 2.07369)
(2.96813 -5.51639 1.65812)
(2.31943 -4.46201 1.339)
(1.87131 -3.63058 1.09271)
(1.54702 -2.96732 0.897568)
(1.30342 -2.42863 0.739204)
(1.11482 -1.98404 0.608245)
(0.964885 -1.61154 0.498165)
(0.8429 -1.29626 0.4046)
(0.741806 -1.02775 0.324536)
(0.65701 -0.799237 0.256034)
(0.585656 -0.607139 0.198071)
(0.526029 -0.450047 0.15024)
(0.47697 -0.327055 0.112271)
(0.437298 -0.236057 0.0835551)
(0.405421 -0.172246 0.0627248)
(0.379423 -0.128116 0.0476577)
(0.357616 -0.0956132 0.0360846)
(0.339147 -0.0688874 0.02635)
(0.324161 -0.0454619 0.0177263)
(0.313432 -0.0251684 0.010107)
(0.307822 -0.00805746 0.00342253)
(0.307876 0.00737387 -0.00281343)
(0.313585 0.0243793 -0.00947539)
(0.324392 0.0445047 -0.0170607)
(0.339416 0.0677749 -0.0256593)
(0.357868 0.0944456 -0.0354025)
(0.379589 0.127041 -0.04703)
(0.405395 0.171351 -0.0621751)
(0.436917 0.235274 -0.0830527)
(0.47599 0.326159 -0.11173)
(0.524106 0.448743 -0.149535)
(0.582341 0.605085 -0.197045)
(0.651698 0.795965 -0.25447)
(0.733646 1.02267 -0.322149)
(0.830696 1.28847 -0.400971)
(0.946875 1.59946 -0.492604)
(1.08823 1.965 -0.59963)
(1.26364 2.3982 -0.725691)
(1.4866 2.91781 -0.876071)
(1.77786 3.55055 -1.05842)
(2.1704 4.33422 -1.28395)
(2.7196 5.32061 -1.56939)
(3.51737 6.55209 -1.93503)
(4.6486 7.84737 -2.36171)
(5.74244 8.34801 -2.63766)
(7.76074 14.6642 -3.81164)
(8.98028 -20.3634 4.6601)
(5.98466 -5.49023 2.27642)
(5.38133 -7.25567 2.40137)
(4.03311 -6.53998 2.0195)
(3.0482 -5.37494 1.62915)
(2.38808 -4.37408 1.321)
(1.92968 -3.57165 1.08066)
(1.5975 -2.92666 0.889366)
(1.34795 -2.40055 0.733736)
(1.15485 -1.96494 0.604782)
(1.0015 -1.59897 0.496192)
(0.876972 -1.28855 0.403763)
(0.774155 -1.024 0.324655)
(0.688468 -0.799269 0.257111)
(0.617032 -0.611297 0.200233)
(0.557986 -0.458686 0.153601)
(0.509847 -0.33988 0.116754)
(0.471005 -0.251628 0.088754)
(0.439552 -0.188179 0.0679607)
(0.413523 -0.141985 0.0522442)
(0.391429 -0.105952 0.0396023)
(0.372685 -0.0755623 0.0287469)
(0.357577 -0.0492461 0.0191996)
(0.346853 -0.0270152 0.0109026)
(0.341279 -0.00861071 0.00370095)
(0.341326 0.00791483 -0.0030066)
(0.346985 0.0262201 -0.0101876)
(0.357764 0.0482922 -0.0184522)
(0.372878 0.0744592 -0.0279745)
(0.391558 0.104787 -0.0388344)
(0.413501 0.140888 -0.0515198)
(0.439261 0.187228 -0.0673007)
(0.470279 0.250756 -0.0881301)
(0.508436 0.338865 -0.11608)
(0.555536 0.45722 -0.15275)
(0.613071 0.609 -0.199036)
(0.682352 0.795608 -0.25533)
(0.764979 1.01832 -0.321987)
(0.863463 1.27993 -0.399776)
(0.981794 1.58586 -0.490202)
(1.12603 1.94479 -0.595693)
(1.3052 2.36921 -0.719765)
(1.53304 2.87711 -0.867576)
(1.83069 3.49384 -1.04655)
(2.23155 4.25419 -1.26737)
(2.79054 5.20197 -1.5452)
(3.59404 6.3581 -1.89568)
(4.7016 7.50263 -2.2896)
(5.71915 7.87348 -2.52815)
(7.7111 14.2624 -3.69054)
(8.80426 -19.6673 4.46263)
(5.86224 -4.9648 2.13263)
(5.3883 -6.74541 2.28604)
(4.10754 -6.26431 1.96045)
(3.12636 -5.22114 1.59671)
(2.45666 -4.27851 1.30082)
(1.98855 -3.50792 1.06718)
(1.64859 -2.88277 0.88015)
(1.39306 -2.37009 0.727487)
(1.1954 -1.94398 0.600687)
(1.03862 -1.58496 0.493718)
(0.911621 -1.27993 0.402581)
(0.807234 -1.02002 0.324631)
(0.720845 -0.799851 0.25827)
(0.64948 -0.616663 0.202668)
(0.591035 -0.468799 0.157317)
(0.543659 -0.353887 0.121513)
(0.505385 -0.267683 0.0940323)
(0.474097 -0.203855 0.0730759)
(0.447875 -0.155182 0.0566014)
(0.425458 -0.115646 0.042904)
(0.406472 -0.0818755 0.0310135)
(0.391277 -0.0529396 0.0206262)
(0.380576 -0.0288951 0.0116948)
(0.375042 -0.00918139 0.00398237)
(0.375081 0.00850883 -0.0032049)
(0.380681 0.0281321 -0.0108985)
(0.391411 0.0520329 -0.0198014)
(0.406574 0.0808315 -0.0301651)
(0.425443 0.114539 -0.042056)
(0.44764 0.154124 -0.0557878)
(0.47351 0.202907 -0.0723123)
(0.504268 0.266777 -0.0932892)
(0.541762 0.352814 -0.120711)
(0.587998 0.467249 -0.156328)
(0.644808 0.614226 -0.201313)
(0.713856 0.795953 -0.2563)
(0.796969 1.01396 -0.321724)
(0.896732 1.27077 -0.398297)
(1.01714 1.57119 -0.48738)
(1.16427 1.9232 -0.591235)
(1.34725 2.33852 -0.71322)
(1.58003 2.83417 -0.85831)
(1.88409 3.43393 -1.03365)
(2.293 4.16918 -1.24929)
(2.86088 5.0755 -1.51872)
(3.66786 6.15353 -1.85317)
(4.75001 7.15533 -2.21579)
(5.69959 7.41853 -2.42333)
(7.67023 13.8619 -3.57364)
(8.64165 -18.9847 4.27473)
(5.74976 -4.48351 1.99984)
(5.38714 -6.24471 2.17106)
(4.17539 -5.97574 1.89724)
(3.20216 -5.05607 1.56096)
(2.52486 -4.17554 1.27845)
(2.04777 -3.43939 1.05224)
(1.70023 -2.83561 0.869892)
(1.43877 -2.33725 0.720453)
(1.23656 -1.92125 0.595989)
(1.07639 -1.56975 0.490807)
(0.94703 -1.27073 0.401149)
(0.841232 -1.01618 0.324569)
(0.754301 -0.80126 0.259593)
(0.683082 -0.623303 0.205398)
(0.625176 -0.480199 0.161331)
(0.578372 -0.368742 0.12645)
(0.540401 -0.283878 0.0992984)
(0.509059 -0.21907 0.0780148)
(0.482542 -0.167689 0.0607233)
(0.45979 -0.124778 0.046014)
(0.440589 -0.0879062 0.0331733)
(0.425336 -0.0565826 0.0220178)
(0.414667 -0.030816 0.0124865)
(0.409172 -0.00976656 0.00426629)
(0.4092 0.00915885 -0.00340889)
(0.414739 0.0301299 -0.0116137)
(0.425405 0.055772 -0.0211201)
(0.440584 0.0869769 -0.0322553)
(0.459612 0.123792 -0.0450954)
(0.482068 0.166735 -0.0598289)
(0.508142 0.218193 -0.0771554)
(0.538855 0.28301 -0.0984456)
(0.575939 0.367681 -0.125525)
(0.621493 0.478647 -0.160211)
(0.677638 0.620844 -0.203902)
(0.746377 0.797289 -0.257462)
(0.829814 1.00997 -0.32147)
(0.930694 1.26133 -0.396637)
(1.05306 1.55572 -0.484217)
(1.20305 1.9004 -0.586305)
(1.38984 2.30622 -0.706074)
(1.6276 2.78906 -0.848276)
(1.93798 3.3709 -1.01971)
(2.35463 4.07946 -1.22971)
(2.93042 4.94192 -1.49007)
(3.73874 5.94042 -1.80787)
(4.79442 6.80883 -2.14095)
(5.68383 6.9829 -2.32288)
(7.63725 13.4621 -3.46033)
(8.49097 -18.3179 4.0953)
(5.64599 -4.04125 1.87664)
(5.37892 -5.75812 2.05743)
(4.23656 -5.67767 1.83056)
(3.2752 -4.8809 1.52209)
(2.59239 -4.06548 1.25391)
(2.10715 -3.3661 1.0358)
(1.75237 -2.78514 0.85857)
(1.48509 -2.30206 0.712633)
(1.2784 -1.89686 0.590711)
(1.11494 -1.55353 0.48751)
(0.98336 -1.26121 0.399536)
(0.876308 -1.01271 0.32453)
(0.788949 -0.803614 0.261107)
(0.717892 -0.631154 0.208398)
(0.6604 -0.49264 0.165577)
(0.613934 -0.384085 0.131467)
(0.576033 -0.299925 0.104467)
(0.544473 -0.2337 0.0827423)
(0.517585 -0.179519 0.0646168)
(0.494501 -0.13342 0.0489528)
(0.475115 -0.0937204 0.0352448)
(0.459821 -0.0602026 0.0233831)
(0.449189 -0.0327801 0.013279)
(0.443729 -0.0103626 0.00455205)
(0.443744 0.00986761 -0.00361981)
(0.449218 0.0322212 -0.0123343)
(0.459814 0.059544 -0.0224199)
(0.474987 0.0929676 -0.0342659)
(0.494138 0.132623 -0.0479719)
(0.516849 0.178746 -0.0636539)
(0.543198 0.232975 -0.0818003)
(0.574017 0.299173 -0.103515)
(0.61092 0.383126 -0.130432)
(0.656021 0.491192 -0.164342)
(0.711618 0.6288 -0.206782)
(0.780029 0.799747 -0.258849)
(0.863677 1.00659 -0.321291)
(0.965522 1.2519 -0.394872)
(1.08973 1.53969 -0.480773)
(1.24247 1.87654 -0.580941)
(1.43305 2.27239 -0.698347)
(1.67573 2.74185 -0.837476)
(1.99232 3.30485 -1.00473)
(2.4163 3.98528 -1.20867)
(2.99895 4.80202 -1.45935)
(3.80667 5.72073 -1.76015)
(4.83537 6.4659 -2.06562)
(5.6719 6.5661 -2.22651)
(7.61138 13.0623 -3.35008)
(8.35088 -17.6678 3.92334)
(5.54989 -3.63379 1.76184)
(5.36463 -5.28919 1.94597)
(4.29107 -5.37337 1.76108)
(3.34513 -4.69692 1.48033)
(2.65895 -3.94869 1.22725)
(2.16656 -3.28811 1.01787)
(1.80495 -2.73139 0.84617)
(1.53206 -2.26454 0.704026)
(1.32103 -1.87093 0.584884)
(1.15441 -1.53647 0.48388)
(1.02076 -1.25156 0.397803)
(0.912587 -1.00976 0.32456)
(0.824866 -0.806925 0.262819)
(0.753915 -0.640034 0.211621)
(0.696672 -0.505799 0.169956)
(0.650326 -0.399608 0.136472)
(0.612284 -0.3156 0.109481)
(0.58037 -0.247662 0.0872374)
(0.553074 -0.190706 0.0682892)
(0.529668 -0.141643 0.0517411)
(0.510118 -0.0993641 0.0372421)
(0.494796 -0.0638175 0.0247272)
(0.4842 -0.0347873 0.0140726)
(0.478771 -0.0109651 0.00483864)
(0.478771 0.0106368 -0.00383756)
(0.48418 0.0344125 -0.0130638)
(0.494699 0.0633716 -0.0237056)
(0.509849 0.0988551 -0.036211)
(0.529102 0.14111 -0.0507111)
(0.552051 0.190195 -0.0672696)
(0.578709 0.247179 -0.0862263)
(0.60977 0.315068 -0.108446)
(0.646691 0.398855 -0.135344)
(0.691546 0.504567 -0.168622)
(0.74676 0.637933 -0.20991)
(0.8149 0.803357 -0.260471)
(0.898697 1.00401 -0.321239)
(1.00138 1.24272 -0.393068)
(1.12727 1.52332 -0.477114)
(1.28267 1.8518 -0.57519)
(1.47695 2.23713 -0.690058)
(1.72446 2.69258 -0.825919)
(2.04705 3.2359 -0.988719)
(2.47789 3.88695 -1.1862)
(3.06634 4.65659 -1.42671)
(3.87164 5.49631 -1.71039)
(4.87339 6.12883 -1.99031)
(5.66381 6.16755 -2.13396)
(7.59191 12.6624 -3.24244)
(8.22024 -17.0344 3.75798)
(5.4606 -3.25768 1.65447)
(5.34517 -4.8406 1.83732)
(4.33899 -5.0659 1.68949)
(3.41165 -4.50548 1.43596)
(2.72427 -3.82563 1.19853)
(2.22581 -3.20554 0.998433)
(1.85791 -2.67436 0.832683)
(1.57969 -2.22475 0.694642)
(1.36451 -1.84353 0.578526)
(1.19492 -1.5187 0.479947)
(1.05935 -1.24191 0.395973)
(0.950162 -1.00737 0.324661)
(0.862093 -0.811081 0.26469)
(0.791156 -0.649708 0.214993)
(0.733969 -0.519372 0.17439)
(0.687517 -0.414999 0.141382)
(0.649163 -0.33073 0.114287)
(0.616808 -0.260919 0.091488)
(0.589073 -0.201286 0.0717537)
(0.565358 -0.149497 0.0543927)
(0.545664 -0.104875 0.0391752)
(0.53032 -0.067437 0.0260536)
(0.519757 -0.0368335 0.0148666)
(0.514354 -0.0115694 0.00512508)
(0.514336 0.0114678 -0.00406313)
(0.51968 0.036705 -0.0138008)
(0.530122 0.0672715 -0.0249839)
(0.54524 0.104683 -0.0381035)
(0.564567 0.149309 -0.0533243)
(0.587744 0.20113 -0.0706942)
(0.614738 0.26078 -0.0904267)
(0.646122 0.330524 -0.113188)
(0.683231 0.414576 -0.140182)
(0.728064 0.518502 -0.172985)
(0.783079 0.648019 -0.213216)
(0.85104 0.80802 -0.262293)
(0.934976 1.00225 -0.321317)
(1.0384 1.23392 -0.391258)
(1.16585 1.50677 -0.473276)
(1.32376 1.82629 -0.56908)
(1.5216 2.20054 -0.68123)
(1.7738 2.64134 -0.81361)
(2.10214 3.16414 -0.971688)
(2.53929 3.78477 -1.16235)
(3.13243 4.50645 -1.3923)
(3.93374 5.26892 -1.65894)
(4.90897 5.79942 -1.91541)
(5.65956 5.78664 -2.04499)
(7.5782 12.2618 -3.13699)
(8.098 -16.4166 3.59839)
(5.3774 -2.91011 1.55373)
(5.32137 -4.41431 1.73196)
(4.38047 -4.75811 1.6164)
(3.4745 -4.308 1.38925)
(2.7881 -3.69684 1.16784)
(2.28477 -3.11856 0.977518)
(1.9112 -2.61413 0.818112)
(1.62801 -2.18273 0.684481)
(1.40894 -1.81476 0.571662)
(1.23656 -1.50033 0.47574)
(1.09922 -1.2323 0.394067)
(0.989097 -1.00548 0.324823)
(0.900652 -0.815907 0.266674)
(0.829584 -0.65987 0.218434)
(0.772258 -0.533022 0.178774)
(0.725513 -0.43003 0.14613)
(0.686702 -0.345178 0.11885)
(0.653827 -0.273441 0.0954883)
(0.625646 -0.211295 0.0750172)
(0.601637 -0.15703 0.0569216)
(0.581809 -0.110273 0.0410506)
(0.566449 -0.0710642 0.027363)
(0.555915 -0.0389134 0.0156597)
(0.550531 -0.0121703 0.00541002)
(0.550491 0.0123612 -0.0042958)
(0.555773 0.0390999 -0.0145477)
(0.566136 0.0712511 -0.0262546)
(0.581213 0.110477 -0.0399495)
(0.600606 0.157274 -0.0558312)
(0.62399 0.211589 -0.0739331)
(0.651329 0.273756 -0.0943957)
(0.683116 0.345427 -0.117713)
(0.720552 0.430074 -0.144885)
(0.765542 0.532659 -0.177323)
(0.820557 0.658779 -0.216628)