/*--------------------------------*- C++ -*----------------------------------*\
| =========                 |                                                 |
| \\      /  F ield         | OpenFOAM: The Open Source CFD Toolbox           |
|  \\    /   O peration     | Version:  5.x                                   |
|   \\  /    A nd           | Web:      www.OpenFOAM.org                      |
|    \\/     M anipulation  |                                                 |
\*---------------------------------------------------------------------------*/
/*   Windows 32 and 64 bit porting by blueCAPE: http://www.bluecape.com.pt   *\
|  Based on Windows porting (2.0.x v4) by Symscape: http://www.symscape.com   |
\*---------------------------------------------------------------------------*/
FoamFile
{
    version     2.0;
    format      ascii;
    class       volVectorField;
    location    "2672";
    object      U;
}
// * * * * * * * * * * * * * * * * * * * * * * * * * * * * * * * * * * * * * //

dimensions      [0 1 -1 0 0 0 0];

internalField   nonuniform List<vector> 
4000
(
(0.999143 0.000750755 2.14124e-023)
(0.997621 0.00243076 0)
(0.994319 0.00350702 0)
(0.990411 0.00388471 0)
(0.98635 0.00403881 0)
(0.982166 0.00409473 0)
(0.9779 0.00410135 -3.10379e-023)
(0.973596 0.00407375 0)
(0.969275 0.00402992 0)
(0.96496 0.00398245 -2.76062e-023)
(0.960657 0.00393585 0)
(0.956366 0.00389204 0)
(0.952087 0.00384982 -2.51456e-023)
(0.947822 0.00380895 0)
(0.943574 0.00376899 -2.39042e-023)
(0.939345 0.0037297 -2.33681e-023)
(0.935138 0.00369161 -2.28709e-023)
(0.930952 0.00365461 -2.24093e-023)
(0.926787 0.0036184 -2.19804e-023)
(0.922645 0.00358302 -2.15788e-023)
(0.918525 0.00354855 -2.11999e-023)
(0.914427 0.00351484 -2.08426e-023)
(0.910352 0.00348204 0)
(0.9063 0.00345027 -2.01777e-023)
(0.902271 0.00341951 -1.98651e-023)
(0.898265 0.00338971 -1.95631e-023)
(0.894283 0.00336075 -1.92703e-023)
(0.890324 0.00333255 -1.89847e-023)
(0.886389 0.00330513 -1.87046e-023)
(0.882478 0.00327837 -1.84294e-023)
(0.87859 0.00325213 0)
(0.874726 0.0032263 -1.78901e-023)
(0.870886 0.0032008 -1.7624e-023)
(0.867069 0.00317559 -1.73593e-023)
(0.863276 0.00315063 -1.70956e-023)
(0.859507 0.00312591 -1.68325e-023)
(0.855761 0.00310138 -1.65698e-023)
(0.852039 0.00307702 -1.63076e-023)
(0.84834 0.00305277 -1.60457e-023)
(0.844665 0.00302859 0)
(0.841013 0.00300447 -1.55218e-023)
(0.837385 0.00298041 -1.5259e-023)
(0.83378 0.00295646 -1.49954e-023)
(0.830199 0.0029328 -1.47304e-023)
(0.826641 0.00290945 -1.44638e-023)
(0.823107 0.00288505 -1.41957e-023)
(0.819596 0.00285991 -1.39263e-023)
(0.816108 0.00283554 0)
(0.812643 0.00281178 -1.3383e-023)
(0.809201 0.00278839 -1.31095e-023)
(0.805783 0.00276518 -1.28349e-023)
(0.802388 0.00274203 -1.25592e-023)
(0.799016 0.00271885 -1.22826e-023)
(0.795668 0.00269557 -1.2005e-023)
(0.792343 0.00267218 -1.17265e-023)
(0.789042 0.00264863 -1.14471e-023)
(0.785766 0.00262493 0)
(0.782513 0.00260107 -1.08856e-023)
(0.779285 0.00257704 -1.06039e-023)
(0.776081 0.00255284 -1.03218e-023)
(0.772901 0.00252846 -1.00394e-023)
(0.769747 0.00250389 -9.75687e-024)
(0.766617 0.00247914 -9.47444e-024)
(0.763511 0.0024542 -9.19222e-024)
(0.760431 0.00242906 0)
(0.757377 0.00240374 -8.629e-024)
(0.754347 0.00237822 -8.3483e-024)
(0.751343 0.00235248 -8.06847e-024)
(0.748364 0.00232658 -7.78964e-024)
(0.745412 0.00230053 -7.512e-024)
(0.742485 0.00227434 -7.23577e-024)
(0.739584 0.00224805 -6.96122e-024)
(0.736709 0.00222168 -6.68867e-024)
(0.733859 0.00219533 -6.41852e-024)
(0.731036 0.00216912 -6.15125e-024)
(0.728238 0.00214336 -5.88753e-024)
(0.725464 0.00211862 -5.628e-024)
(0.722712 0.00209629 -5.37348e-024)
(0.719981 0.00207973 -5.12409e-024)
(0.717263 0.00206968 -4.87408e-024)
(0.714559 0.00206296 -4.61861e-024)
(0.711866 0.0020573 0)
(0.709185 0.00205173 -4.0998e-024)
(0.706515 0.00204583 -3.83843e-024)
(0.703856 0.00203936 -3.57621e-024)
(0.701209 0.00203224 -3.31354e-024)
(0.698575 0.00202444 -3.05074e-024)
(0.695952 0.00201597 -2.78805e-024)
(0.693343 0.00200685 -2.52569e-024)
(0.690747 0.00199711 -2.26387e-024)
(0.688165 0.00198678 0)
(0.685597 0.0019759 -1.74252e-024)
(0.683043 0.00196449 -1.4833e-024)
(0.680503 0.00195259 -1.22527e-024)
(0.677978 0.00194021 -9.68567e-025)
(0.675469 0.00192741 -7.13343e-025)
(0.672975 0.00191419 -4.59749e-025)
(0.670496 0.00190057 -2.07998e-025)
(0.668034 0.00188659 4.17806e-026)
(0.665587 0.00187213 2.89018e-025)
(0.663157 0.00185709 5.34074e-025)
(0.660743 0.00184162 7.77739e-025)
(0.658347 0.00182583 1.01954e-024)
(0.655967 0.0018098 1.25909e-024)
(0.653605 0.00179355 1.49623e-024)
(0.65126 0.0017771 1.73083e-024)
(0.648932 0.00176049 1.96274e-024)
(0.646622 0.0017437 2.19184e-024)
(0.64433 0.00172675 2.418e-024)
(0.642055 0.00170965 2.6411e-024)
(0.639799 0.00169241 2.86105e-024)
(0.637561 0.00167503 3.07772e-024)
(0.635341 0.00165751 3.29101e-024)
(0.633139 0.00163987 3.50081e-024)
(0.630956 0.00162211 3.70702e-024)
(0.628792 0.00160423 3.90952e-024)
(0.626646 0.00158625 4.10821e-024)
(0.624519 0.00156818 4.30299e-024)
(0.62241 0.00155 4.49376e-024)
(0.620321 0.00153175 4.6804e-024)
(0.61825 0.00151341 4.86282e-024)
(0.616199 0.001495 5.04091e-024)
(0.614166 0.00147652 5.21458e-024)
(0.612153 0.00145797 5.38372e-024)
(0.610159 0.00143938 5.54823e-024)
(0.608184 0.00142073 5.70802e-024)
(0.606229 0.00140203 5.86299e-024)
(0.604293 0.0013833 6.01303e-024)
(0.602376 0.00136453 6.15807e-024)
(0.600479 0.00134573 6.298e-024)
(0.598601 0.00132691 6.43274e-024)
(0.596743 0.00130807 6.56219e-024)
(0.594904 0.00128922 6.68627e-024)
(0.593085 0.00127035 6.8049e-024)
(0.591285 0.00125148 6.91799e-024)
(0.589505 0.00123261 7.02547e-024)
(0.587745 0.00121375 7.12724e-024)
(0.586004 0.00119489 7.22324e-024)
(0.584282 0.00117605 7.31339e-024)
(0.58258 0.00115723 7.39762e-024)
(0.580898 0.00113843 7.47586e-024)
(0.579235 0.00111966 7.54804e-024)
(0.577592 0.00110091 7.6141e-024)
(0.575969 0.00108221 7.67398e-024)
(0.574365 0.00106354 7.72762e-024)
(0.57278 0.00104491 7.77497e-024)
(0.571215 0.00102634 7.81595e-024)
(0.569669 0.00100781 7.85054e-024)
(0.568143 0.000989347 7.87866e-024)
(0.566636 0.00097094 7.90029e-024)
(0.565148 0.000952597 7.91536e-024)
(0.563679 0.000934322 7.92384e-024)
(0.56223 0.000916118 7.92569e-024)
(0.5608 0.00089799 7.92088e-024)
(0.559389 0.000879941 7.90937e-024)
(0.557997 0.000861974 7.89112e-024)
(0.556624 0.000844092 7.86611e-024)
(0.555269 0.0008263 7.83433e-024)
(0.553934 0.0008086 7.79573e-024)
(0.552618 0.000790995 7.75032e-024)
(0.55132 0.000773489 7.69806e-024)
(0.55004 0.000756084 7.63896e-024)
(0.548779 0.000738784 7.57299e-024)
(0.547537 0.000721592 7.50015e-024)
(0.546313 0.00070451 7.42045e-024)
(0.545107 0.000687543 7.33386e-024)
(0.54392 0.000670642 7.24037e-024)
(0.54275 0.000653864 7.13999e-024)
(0.541599 0.000637215 7.03275e-024)
(0.540465 0.000620695 6.91866e-024)
(0.539349 0.000604306 6.79772e-024)
(0.538251 0.000588048 6.66994e-024)
(0.53717 0.000571924 6.53535e-024)
(0.536107 0.000555935 6.39394e-024)
(0.535061 0.000540084 6.24575e-024)
(0.534032 0.000524375 6.09077e-024)
(0.53302 0.000508809 5.92904e-024)
(0.532026 0.000493391 5.76056e-024)
(0.531048 0.000478125 5.58533e-024)
(0.530086 0.000463015 5.40338e-024)
(0.529142 0.000448066 5.2147e-024)
(0.528214 0.000433285 5.01928e-024)
(0.527302 0.00041868 4.81712e-024)
(0.526406 0.000404259 4.60817e-024)
(0.525526 0.000390034 4.39239e-024)
(0.524661 0.000376019 4.16972e-024)
(0.523812 0.000362232 3.94005e-024)
(0.522979 0.000348694 3.70327e-024)
(0.52216 0.000335429 3.45912e-024)
(0.521356 0.000322481 3.20755e-024)
(0.520566 0.000309858 2.94777e-024)
(0.519789 0.000297693 2.68056e-024)
(0.519027 0.000285809 2.40239e-024)
(0.518275 0.000274903 2.1202e-024)
(0.517542 0.000263358 1.81418e-024)
(0.516804 0.000255743 1.53067e-024)
(0.516115 0.000240036 1.14972e-024)
(0.515339 0.000244082 9.64924e-025)
(0.514809 0.000223124 3.07085e-025)
(0.513686 0.000282527 7.74724e-025)
(1.00018 0.00115669 6.81521e-024)
(1.00081 0.00276736 0)
(1.00147 0.00347809 0)
(1.00184 0.00394635 0)
(1.00201 0.00424024 0)
(1.002 0.00444132 0)
(1.00185 0.00456283 -2.35795e-023)
(1.00158 0.00466919 0)
(1.00123 0.00472797 0)
(1.0008 0.00476016 -2.20718e-023)
(1.0003 0.00478502 0)
(0.99974 0.00480614 0)
(0.999125 0.00482397 -2.0527e-023)
(0.99846 0.00483652 0)
(0.997756 0.00484232 -1.96884e-023)
(0.997019 0.00484357 -1.92987e-023)
(0.996256 0.00484261 -1.89199e-023)
(0.995468 0.00484044 -1.85626e-023)
(0.994657 0.00483641 -1.82294e-023)
(0.993827 0.00483089 -1.79089e-023)
(0.992979 0.00482508 -1.75981e-023)
(0.992115 0.00481762 -1.73075e-023)
(0.991237 0.00480835 0)
(0.990347 0.00479756 -1.67536e-023)
(0.989446 0.0047855 -1.64875e-023)
(0.988536 0.00477236 -1.62278e-023)
(0.987616 0.00475806 -1.59742e-023)
(0.986688 0.00474275 -1.57243e-023)
(0.985754 0.00472671 -1.54767e-023)
(0.984813 0.00471003 -1.52324e-023)
(0.983865 0.00469284 0)
(0.982913 0.00467519 -1.47498e-023)
(0.981955 0.00465722 -1.45099e-023)
(0.980993 0.00463908 -1.42705e-023)
(0.980027 0.00462079 -1.40316e-023)
(0.979057 0.00460245 -1.37928e-023)
(0.978083 0.00458411 -1.35546e-023)
(0.977106 0.0045657 -1.33174e-023)
(0.976125 0.00454715 -1.30812e-023)
(0.97514 0.00452839 0)
(0.974153 0.00450941 -1.26106e-023)
(0.973162 0.00449019 -1.23756e-023)
(0.972169 0.00447062 -1.2141e-023)
(0.971174 0.00445079 -1.19052e-023)
(0.970176 0.004431 -1.16671e-023)
(0.969176 0.00441161 -1.14268e-023)
(0.968175 0.00439266 -1.11867e-023)
(0.967172 0.00437374 0)
(0.966167 0.00435461 -1.07106e-023)
(0.965159 0.00433522 -1.0473e-023)
(0.96415 0.00431554 -1.02357e-023)
(0.963139 0.00429557 -9.9986e-024)
(0.962126 0.00427531 -9.76183e-024)
(0.961111 0.00425477 -9.52537e-024)
(0.960094 0.00423395 -9.28915e-024)
(0.959074 0.00421292 -9.05306e-024)
(0.958053 0.00419169 0)
(0.95703 0.00417032 -8.58177e-024)
(0.956004 0.0041488 -8.34693e-024)
(0.954977 0.00412716 -8.1129e-024)
(0.953947 0.00410537 -7.87985e-024)
(0.952914 0.00408343 -7.64788e-024)
(0.95188 0.00406133 -7.41714e-024)
(0.950843 0.00403907 -7.18773e-024)
(0.949804 0.00401663 0)
(0.948762 0.00399401 -6.73325e-024)
(0.947718 0.00397122 -6.50833e-024)
(0.946672 0.00394828 -6.28508e-024)
(0.945623 0.00392519 -6.06367e-024)
(0.944572 0.00390196 -5.84421e-024)
(0.943518 0.00387862 -5.62676e-024)
(0.942462 0.00385522 -5.41138e-024)
(0.941403 0.00383181 -5.19815e-024)
(0.940341 0.00380854 -4.98705e-024)
(0.939277 0.0037856 -4.77794e-024)
(0.938211 0.00376333 -4.57025e-024)
(0.937141 0.00374251 -4.36278e-024)
(0.93607 0.0037235 -4.15178e-024)
(0.934999 0.00370464 -3.9333e-024)
(0.933933 0.00368649 -3.71883e-024)
(0.932874 0.0036704 -3.5165e-024)
(0.931821 0.00365541 0)
(0.930774 0.003641 -3.12258e-024)
(0.929731 0.00362684 -2.92726e-024)
(0.928694 0.0036127 -2.73282e-024)
(0.927661 0.0035985 -2.53914e-024)
(0.926633 0.00358417 -2.34629e-024)
(0.925608 0.00356971 -2.15441e-024)
(0.924586 0.00355509 -1.96363e-024)
(0.923567 0.00354031 -1.77406e-024)
(0.922551 0.00352536 0)
(0.921538 0.00351025 -1.39903e-024)
(0.920527 0.00349498 -1.21377e-024)
(0.919517 0.00347955 -1.03014e-024)
(0.91851 0.00346397 -8.48247e-025)
(0.917505 0.00344823 -6.68165e-025)
(0.916501 0.00343236 -4.89983e-025)
(0.915498 0.00341636 -3.1383e-025)
(0.914497 0.00340026 -1.3976e-025)
(0.913496 0.00338405 3.16903e-026)
(0.912497 0.00336769 2.01007e-025)
(0.911499 0.00335121 3.68735e-025)
(0.910502 0.00333458 5.34207e-025)
(0.909506 0.00331778 6.97274e-025)
(0.908511 0.00330081 8.57936e-025)
(0.907517 0.00328366 1.01613e-024)
(0.906523 0.00326634 1.17177e-024)
(0.90553 0.00324884 1.3248e-024)
(0.904537 0.00323119 1.47518e-024)
(0.903545 0.00321337 1.62283e-024)
(0.902553 0.00319539 1.7677e-024)
(0.901562 0.00317726 1.90974e-024)
(0.900572 0.00315898 2.0489e-024)
(0.899581 0.00314056 2.18513e-024)
(0.898592 0.003122 2.31838e-024)
(0.897602 0.00310331 2.44859e-024)
(0.896613 0.00308448 2.57573e-024)
(0.895625 0.00306551 2.69974e-024)
(0.894637 0.00304643 2.82058e-024)
(0.893649 0.00302722 2.9382e-024)
(0.892662 0.00300788 3.05257e-024)
(0.891675 0.00298844 3.16363e-024)
(0.890689 0.00296887 3.27135e-024)
(0.889703 0.0029492 3.37569e-024)
(0.888717 0.00292942 3.4766e-024)
(0.887733 0.00290954 3.57404e-024)
(0.886748 0.00288955 3.66798e-024)
(0.885764 0.00286947 3.75838e-024)
(0.884781 0.00284929 3.8452e-024)
(0.883798 0.00282902 3.92841e-024)
(0.882816 0.00280866 4.00798e-024)
(0.881835 0.00278821 4.08387e-024)
(0.880854 0.00276769 4.15606e-024)
(0.879874 0.00274708 4.22451e-024)
(0.878895 0.0027264 4.28919e-024)
(0.877917 0.00270565 4.35009e-024)
(0.876939 0.00268483 4.40716e-024)
(0.875962 0.00266394 4.46039e-024)
(0.874986 0.00264299 4.50976e-024)
(0.874011 0.00262199 4.55523e-024)
(0.873037 0.00260093 4.5968e-024)
(0.872063 0.00257982 4.63443e-024)
(0.871091 0.00255866 4.66812e-024)
(0.87012 0.00253746 4.69786e-024)
(0.86915 0.00251622 4.72361e-024)
(0.868181 0.00249494 4.74538e-024)
(0.867213 0.00247364 4.76314e-024)
(0.866247 0.0024523 4.77688e-024)
(0.865281 0.00243095 4.7866e-024)
(0.864317 0.00240957 4.79228e-024)
(0.863354 0.00238818 4.7939e-024)
(0.862393 0.00236678 4.79147e-024)
(0.861433 0.00234537 4.78498e-024)
(0.860474 0.00232396 4.77441e-024)
(0.859517 0.00230255 4.75978e-024)
(0.858561 0.00228114 4.74107e-024)
(0.857607 0.00225974 4.71828e-024)
(0.856655 0.00223835 4.69141e-024)
(0.855704 0.00221697 4.66047e-024)
(0.854755 0.00219561 4.62546e-024)
(0.853808 0.00217428 4.58637e-024)
(0.852862 0.00215297 4.54322e-024)
(0.851918 0.00213168 4.49601e-024)
(0.850976 0.00211043 4.44475e-024)
(0.850036 0.00208921 4.38944e-024)
(0.849098 0.00206803 4.33011e-024)
(0.848162 0.0020469 4.26676e-024)
(0.847228 0.00202583 4.19938e-024)
(0.846296 0.00200481 4.12798e-024)
(0.845366 0.00198384 4.05258e-024)
(0.844438 0.00196293 3.97321e-024)
(0.843512 0.00194208 3.88987e-024)
(0.842589 0.0019213 3.80259e-024)
(0.841667 0.00190058 3.71138e-024)
(0.840749 0.00187994 3.61625e-024)
(0.839832 0.00185937 3.51723e-024)
(0.838918 0.00183888 3.41432e-024)
(0.838006 0.00181849 3.30754e-024)
(0.837097 0.00179818 3.19691e-024)
(0.83619 0.00177798 3.08244e-024)
(0.835286 0.0017579 2.96413e-024)
(0.834384 0.00173794 2.84201e-024)
(0.833485 0.00171813 2.71606e-024)
(0.832588 0.00169847 2.5863e-024)
(0.831694 0.001679 2.45271e-024)
(0.830802 0.00165974 2.31528e-024)
(0.829913 0.00164073 2.17398e-024)
(0.829027 0.00162202 2.0288e-024)
(0.828143 0.00160366 1.87959e-024)
(0.827261 0.00158573 1.72646e-024)
(0.826382 0.00156827 1.5688e-024)
(0.825504 0.00155154 1.4077e-024)
(0.82463 0.00153515 1.23934e-024)
(0.823754 0.00152062 1.07284e-024)
(0.822887 0.00150432 8.81146e-025)
(0.822001 0.0014947 7.36862e-025)
(0.821164 0.00148012 4.88163e-025)
(0.820196 0.00148254 4.62211e-025)
(0.819528 0.00148094 6.15651e-026)
(0.818169 0.00152455 5.15471e-025)
(1.00008 0.000603527 -1.03758e-023)
(1.00044 0.00177486 0)
(1.00106 0.00269987 0)
(1.00162 0.00337121 0)
(1.00209 0.00384517 0)
(1.00247 0.00418796 0)
(1.00276 0.00443208 3.06591e-023)
(1.00298 0.00459525 0)
(1.00313 0.00472288 0)
(1.00322 0.00483097 3.0611e-023)
(1.00325 0.00492154 0)
(1.00324 0.00500729 0)
(1.00319 0.00507697 2.97676e-023)
(1.0031 0.00513609 0)
(1.00299 0.0051781 2.9171e-023)
(1.00286 0.00520439 2.88635e-023)
(1.0027 0.00522557 2.85445e-023)
(1.00252 0.00524303 2.82267e-023)
(1.00232 0.00525513 2.79159e-023)
(1.0021 0.00526239 2.76044e-023)
(1.00186 0.00526697 2.72909e-023)
(1.00161 0.00526888 2.69858e-023)
(1.00135 0.00526865 0)
(1.00109 0.0052665 2.63762e-023)
(1.00081 0.00526272 2.60702e-023)
(1.00052 0.00525782 2.57633e-023)
(1.00022 0.00525114 2.54558e-023)
(0.999923 0.00524328 2.51456e-023)
(0.999615 0.00523497 7.46616e-023)
(0.999301 0.00522571 2.45151e-023)
(0.998981 0.00521538 0)
(0.998656 0.00520395 2.38723e-023)
(0.998327 0.00519173 2.35448e-023)
(0.997994 0.00517893 2.32129e-023)
(0.997656 0.00516563 6.88424e-023)
(0.997315 0.0051521 2.25368e-023)
(0.99697 0.00513849 2.21932e-023)
(0.99662 0.00512475 2.18468e-023)
(0.996267 0.00511076 2.1498e-023)
(0.99591 0.00509632 0)
(0.99555 0.00508146 6.26129e-023)
(0.995186 0.00506641 2.04353e-023)
(0.994819 0.00505113 2.00756e-023)
(0.994449 0.0050356 1.97117e-023)
(0.994077 0.00501993 1.93429e-023)
(0.993702 0.00500398 1.89694e-023)
(0.993325 0.00498772 5.60241e-023)
(0.992945 0.00497134 0)
(0.992562 0.00495497 1.78374e-023)
(0.992176 0.00493864 1.7457e-023)
(0.991787 0.00492234 1.70751e-023)
(0.991396 0.00490604 1.66919e-023)
(0.991002 0.00488966 1.63076e-023)
(0.990605 0.00487315 1.59224e-023)
(0.990205 0.00485645 1.55362e-023)
(0.989803 0.00483961 1.5149e-023)
(0.989398 0.00482266 0)
(0.98899 0.00480564 1.43729e-023)
(0.988579 0.00478855 1.39845e-023)
(0.988166 0.00477138 1.35964e-023)
(0.987749 0.00475412 1.32089e-023)
(0.98733 0.00473674 1.28222e-023)
(0.986907 0.00471923 1.24367e-023)
(0.986481 0.00470158 1.20525e-023)
(0.986052 0.00468377 0)
(0.98562 0.0046658 1.12892e-023)
(0.985185 0.00464768 1.09104e-023)
(0.984747 0.00462942 1.05338e-023)
(0.984305 0.00461103 1.01597e-023)
(0.98386 0.00459253 9.7884e-024)
(0.983411 0.00457396 9.42003e-024)
(0.982959 0.00455536 9.05488e-024)
(0.982504 0.00453682 8.69322e-024)
(0.982045 0.00451845 8.33529e-024)
(0.981583 0.00450039 7.98131e-024)
(0.981117 0.00448282 7.63121e-024)
(0.980649 0.00446592 7.28437e-024)
(0.980177 0.00444973 6.93801e-024)
(0.979704 0.0044338 6.58846e-024)
(0.979229 0.00441793 6.24184e-024)
(0.978753 0.00440238 5.90264e-024)
(0.978276 0.00438728 0)
(0.977799 0.00437262 5.2303e-024)
(0.977321 0.00435831 -5.13247e-024)
(0.976844 0.00434425 -4.79653e-024)
(0.976366 0.00433036 4.22781e-024)
(0.975887 0.00431658 3.89589e-024)
(0.975408 0.00430287 3.56553e-024)
(0.974929 0.00428918 3.23698e-024)
(0.974449 0.00427547 2.91047e-024)
(0.973968 0.00426172 -5.40559e-024)
(0.973486 0.00424791 2.2644e-024)
(0.973003 0.00423403 1.94521e-024)
(0.972519 0.00422007 1.62883e-024)
(0.972035 0.00420603 1.31542e-024)
(0.971549 0.00419191 1.00514e-024)
(0.971062 0.00417773 -9.34306e-025)
(0.970574 0.0041635 3.947e-025)
(0.970085 0.00414947 9.48856e-026)
(0.969594 0.00413463 -2.00492e-025)
(0.969102 0.00411872 -4.92076e-025)
(0.968608 0.00410286 -7.80817e-025)
(0.968113 0.00408713 8.41162e-025)
(0.967617 0.00407146 -1.34688e-024)
(0.967119 0.00405581 -1.62378e-024)
(0.96662 0.00404013 -1.89643e-024)
(0.966119 0.00402439 -2.1647e-024)
(0.965617 0.00400858 -2.42848e-024)
(0.965113 0.00399268 -2.68766e-024)
(0.964608 0.00397669 2.71212e-024)
(0.964101 0.0039606 -3.19182e-024)
(0.963592 0.0039444 -3.43661e-024)
(0.963082 0.00392809 -3.67643e-024)
(0.96257 0.00391167 -3.91117e-024)
(0.962056 0.00389515 -4.14076e-024)
(0.961541 0.00387851 4.12789e-024)
(0.961023 0.00386176 -4.58413e-024)
(0.960504 0.0038449 -4.79775e-024)
(0.959983 0.00382793 -5.00588e-024)
(0.959461 0.00381085 -5.20846e-024)
(0.958936 0.00379367 -5.4054e-024)
(0.95841 0.00377637 5.35183e-024)
(0.957881 0.00375898 -5.78208e-024)
(0.957351 0.00374148 -5.96168e-024)
(0.956819 0.00372388 -6.13535e-024)
(0.956285 0.00370617 -6.30303e-024)
(0.955749 0.00368838 -6.46465e-024)
(0.955211 0.00367048 6.36776e-024)
(0.954671 0.00365249 -6.76948e-024)
(0.954129 0.00363441 -6.91256e-024)
(0.953585 0.00361624 -7.04935e-024)
(0.953039 0.00359798 -7.17979e-024)
(0.952491 0.00357963 -7.30383e-024)
(0.951941 0.0035612 7.16161e-024)
(0.95139 0.00354269 -7.5325e-024)
(0.950836 0.00352409 -7.63704e-024)
(0.95028 0.00350543 -7.73499e-024)
(0.949722 0.00348668 -7.82631e-024)
(0.949162 0.00346787 -7.91097e-024)
(0.9486 0.00344899 7.72209e-024)
(0.948036 0.00343004 -8.06012e-024)
(0.94747 0.00341102 -8.12456e-024)
(0.946902 0.00339195 -8.18221e-024)
(0.946332 0.00337281 -8.23303e-024)
(0.94576 0.00335362 -8.277e-024)
(0.945186 0.00333438 -8.31411e-024)
(0.94461 0.00331509 8.07003e-024)
(0.944032 0.00329575 -8.36764e-024)
(0.943452 0.00327638 -8.38401e-024)
(0.942871 0.00325696 -8.39345e-024)
(0.942287 0.00323752 -8.39593e-024)
(0.941701 0.00321804 -8.39145e-024)
(0.941113 0.00319853 8.10019e-024)
(0.940523 0.00317899 -8.36154e-024)
(0.939932 0.00315943 -8.33612e-024)
(0.939338 0.00313985 -8.3037e-024)
(0.938743 0.00312025 -8.2643e-024)
(0.938145 0.00310064 -8.21792e-024)
(0.937546 0.00308102 7.88007e-024)
(0.936945 0.00306139 -8.10422e-024)
(0.936342 0.00304175 -8.03692e-024)
(0.935737 0.00302211 -7.96267e-024)
(0.935131 0.00300246 -7.88148e-024)
(0.934522 0.00298282 -7.79337e-024)
(0.933912 0.00296318 7.40996e-024)
(0.9333 0.00294355 -7.59644e-024)
(0.932686 0.00292392 -7.48767e-024)
(0.932071 0.0029043 -7.37202e-024)
(0.931454 0.00288469 -7.24954e-024)
(0.930835 0.00286511 -7.12025e-024)
(0.930215 0.00284554 6.69268e-024)
(0.929593 0.002826 -6.84138e-024)
(0.928969 0.0028065 -6.69185e-024)
(0.928343 0.00278702 -6.53563e-024)
(0.927717 0.00276758 -6.37275e-024)
(0.927088 0.00274818 -6.20323e-024)
(0.926458 0.00272883 -6.0271e-024)
(0.925827 0.00270954 5.55091e-024)
(0.925194 0.00269031 -5.65511e-024)
(0.924559 0.00267115 -5.45929e-024)
(0.923923 0.00265208 -5.25693e-024)
(0.923286 0.0026331 -5.04805e-024)
(0.922647 0.00261426 -4.83264e-024)
(0.922007 0.00259555 4.31912e-024)
(0.921366 0.00257703 -4.38216e-024)
(0.920723 0.00255872 -4.14702e-024)
(0.920079 0.00254068 -3.90518e-024)
(0.919433 0.00252296 -3.65656e-024)
(0.918786 0.00250566 -3.40093e-024)
(0.918138 0.00248887 2.86167e-024)
(0.917488 0.00247269 -2.86784e-024)
(0.916836 0.00245738 -2.5908e-024)
(0.916183 0.00244282 -2.30211e-024)
(0.915525 0.00243003 -2.01315e-024)
(0.914876 0.002418 -1.6906e-024)
(0.914191 0.00240947 1.23004e-024)
(0.913577 0.00240609 -1.01087e-024)
(0.91281 0.00240386 -8.92767e-025)
(0.912337 0.00242384 -2.11264e-025)
(0.911303 0.00242411 -8.55655e-025)
(1.00003 0.000497685 1.33015e-023)
(1.00025 0.00146668 0)
(1.00065 0.00226717 0)
(1.0011 0.00290633 0)
(1.00153 0.00340596 0)
(1.00193 0.0037956 0)
(1.00229 0.0040985 -3.62274e-023)
(1.00258 0.00433542 0)
(1.00283 0.00452576 0)
(1.00302 0.00468213 -3.8964e-023)
(1.00318 0.00480928 0)
(1.0033 0.00491634 0)
(1.00339 0.00500851 -4.01706e-023)
(1.00345 0.00508218 0)
(1.0035 0.00513597 -4.04747e-023)
(1.00352 0.00518428 -4.05373e-023)
(1.00352 0.00523168 -4.05454e-023)
(1.0035 0.00527393 -4.05169e-023)
(1.00347 0.00530521 -4.04783e-023)
(1.00342 0.00533224 -4.04165e-023)
(1.00336 0.00535883 -4.03185e-023)
(1.0033 0.00537505 -4.01842e-023)
(1.00322 0.00538632 0)
(1.00314 0.00539425 -3.98253e-023)
(1.00305 0.00539971 -3.96086e-023)
(1.00295 0.00540286 -3.93698e-023)
(1.00285 0.00540262 -3.91296e-023)
(1.00274 0.0053992 -3.88677e-023)
(1.00263 0.00539471 -7.70685e-023)
(1.00251 0.0053896 -3.82664e-023)
(1.00239 0.00538352 0)
(1.00227 0.00537612 -3.7605e-023)
(1.00214 0.00536789 -3.72419e-023)
(1.00201 0.00535917 -3.68603e-023)
(1.00188 0.0053501 -7.28059e-023)
(1.00174 0.00534118 -3.60449e-023)
(1.0016 0.00533236 -3.56149e-023)
(1.00146 0.00532332 -3.51762e-023)
(1.00132 0.00531386 -3.47282e-023)
(1.00117 0.00530386 0)
(1.00102 0.00529336 -6.74691e-023)
(1.00087 0.00528208 -3.33111e-023)
(1.00071 0.00526908 -3.2811e-023)
(1.00056 0.00525508 -3.22971e-023)
(1.0004 0.00524127 -3.17726e-023)
(1.00024 0.0052277 -3.12384e-023)
(1.00008 0.00521442 -6.12739e-023)
(0.999917 0.00520139 0)
(0.999751 0.00518852 -2.95853e-023)
(0.999582 0.00517569 -2.90203e-023)
(0.999412 0.00516281 -2.84492e-023)
(0.999239 0.0051498 -2.78729e-023)
(0.999064 0.00513658 -2.72919e-023)
(0.998887 0.00512308 -2.67063e-023)
(0.998707 0.00510928 -2.61154e-023)
(0.998525 0.00509529 -2.55182e-023)
(0.998342 0.00508119 0)
(0.998156 0.00506706 -2.43093e-023)
(0.997968 0.00505295 -2.36995e-023)
(0.997778 0.00503882 -2.30878e-023)
(0.997586 0.00502466 -2.24747e-023)
(0.997391 0.00501043 -2.18608e-023)
(0.997193 0.00499612 -2.12464e-023)
(0.996993 0.00498171 -2.06321e-023)
(0.996791 0.00496718 0)
(0.996586 0.00495253 -1.94052e-023)
(0.996379 0.00493778 -1.87929e-023)
(0.996169 0.00492295 -1.81821e-023)
(0.995957 0.00490806 -1.75734e-023)
(0.995741 0.00489312 -1.69672e-023)
(0.995524 0.00487814 -1.63635e-023)
(0.995303 0.00486317 -1.57627e-023)
(0.99508 0.00484827 -1.51649e-023)
(0.994854 0.00483354 -1.45701e-023)
(0.994626 0.00481907 -1.39784e-023)
(0.994395 0.00480495 -1.33898e-023)
(0.994162 0.00479125 -1.28035e-023)
(0.993926 0.00477783 -1.22189e-023)
(0.993688 0.00476418 -1.16352e-023)
(0.993448 0.00475033 -1.10542e-023)
(0.993206 0.00473687 -1.04773e-023)
(0.992961 0.00472394 0)
(0.992715 0.0047114 -9.32971e-024)
(0.992467 0.00469914 -1.35666e-025)
(0.992218 0.00468707 -1.34765e-025)
(0.991967 0.00467513 -7.6195e-024)
(0.991714 0.00466326 -7.05271e-024)
(0.99146 0.00465143 -6.48813e-024)
(0.991205 0.00463962 -5.92612e-024)
(0.990948 0.00462779 -5.367e-024)
(0.990689 0.00461594 4.67544e-024)
(0.990429 0.00460405 -4.25861e-024)
(0.990167 0.00459211 -3.70991e-024)
(0.989904 0.00458013 -3.16526e-024)
(0.98964 0.0045681 -2.6249e-024)
(0.989373 0.00455602 -2.08906e-024)
(0.989105 0.00454389 -1.39558e-025)
(0.988836 0.00453174 -1.03165e-024)
(0.988565 0.00451957 -5.10307e-025)
(0.988293 0.00450742 7.08048e-027)
(0.988019 0.00449519 5.19348e-025)
(0.987743 0.00448278 1.02413e-024)
(0.987466 0.0044702 -1.42033e-025)
(0.987186 0.0044575 2.01273e-024)
(0.986905 0.00444468 2.49676e-024)
(0.986622 0.00443176 2.97368e-024)
(0.986338 0.00441874 3.44335e-024)
(0.986051 0.00440563 3.90558e-024)
(0.985763 0.00439242 4.3602e-024)
(0.985473 0.00437912 -1.4774e-025)
(0.985182 0.00436573 5.24586e-024)
(0.984888 0.00435225 5.67654e-024)
(0.984593 0.00433868 6.0989e-024)
(0.984296 0.00432502 6.51275e-024)
(0.983997 0.00431126 6.91792e-024)
(0.983696 0.00429742 -1.53247e-025)
(0.983393 0.0042835 7.70158e-024)
(0.983089 0.00426948 8.07973e-024)
(0.982782 0.00425538 8.44856e-024)
(0.982474 0.00424119 8.80791e-024)
(0.982163 0.00422692 9.15762e-024)
(0.981851 0.00421256 -1.58714e-025)
(0.981537 0.00419813 9.82755e-024)
(0.981221 0.00418361 1.01475e-023)
(0.980902 0.00416902 1.04572e-023)
(0.980582 0.00415435 1.07565e-023)
(0.98026 0.0041396 1.10453e-023)
(0.979936 0.00412478 -1.63936e-025)
(0.979609 0.00410988 1.1591e-023)
(0.979281 0.00409491 1.18476e-023)
(0.97895 0.00407986 1.20931e-023)
(0.978618 0.00406475 1.23276e-023)
(0.978283 0.00404957 1.25509e-023)
(0.977947 0.00403432 -1.68875e-025)
(0.977608 0.004019 1.29635e-023)
(0.977267 0.00400362 1.31525e-023)
(0.976924 0.00398818 1.33299e-023)
(0.976579 0.00397267 1.34957e-023)
(0.976231 0.00395711 1.36497e-023)
(0.975882 0.00394149 -1.73388e-025)
(0.97553 0.00392582 1.3922e-023)
(0.975177 0.00391009 1.40402e-023)
(0.974821 0.0038943 1.41463e-023)
(0.974463 0.00387847 1.42403e-023)
(0.974102 0.00386258 1.43222e-023)
(0.97374 0.00384666 1.43919e-023)
(0.973375 0.00383069 -1.77962e-025)
(0.973008 0.00381468 1.44944e-023)
(0.97264 0.00379864 1.45271e-023)
(0.972268 0.00378256 1.45475e-023)
(0.971895 0.00376645 1.45554e-023)
(0.971519 0.00375031 1.45508e-023)
(0.971142 0.00373415 -1.81057e-025)
(0.970762 0.00371796 1.45042e-023)
(0.97038 0.00370174 1.44621e-023)
(0.969995 0.00368551 1.44075e-023)
(0.969609 0.00366925 1.43403e-023)
(0.96922 0.00365298 1.42606e-023)
(0.968829 0.00363669 -1.83454e-025)
(0.968436 0.0036204 1.40635e-023)
(0.968041 0.00360409 1.39461e-023)
(0.967643 0.00358777 1.38162e-023)
(0.967244 0.00357144 1.36737e-023)
(0.966842 0.00355511 1.35188e-023)
(0.966438 0.00353877 -1.85144e-025)
(0.966032 0.00352244 1.31715e-023)
(0.965623 0.0035061 1.29792e-023)
(0.965213 0.00348977 1.27746e-023)
(0.9648 0.00347345 1.25575e-023)
(0.964385 0.00345714 1.23282e-023)
(0.963968 0.00344084 -1.85916e-025)
(0.963549 0.00342456 1.18327e-023)
(0.963128 0.00340829 1.15667e-023)
(0.962705 0.00339204 1.12886e-023)
(0.96228 0.00337581 1.09984e-023)
(0.961852 0.00335961 1.06962e-023)
(0.961423 0.00334345 1.03821e-023)
(0.960991 0.00332733 -1.85336e-025)
(0.960557 0.00331125 9.71827e-024)
(0.960121 0.00329524 9.3687e-024)
(0.959684 0.00327929 9.00744e-024)
(0.959244 0.00326344 8.63457e-024)
(0.958802 0.0032477 8.25015e-024)
(0.958358 0.0032321 -1.81173e-025)
(0.957912 0.00321667 7.44694e-024)
(0.957464 0.00320145 7.0283e-024)
(0.957014 0.00318651 6.59836e-024)
(0.956562 0.0031719 6.15725e-024)
(0.956107 0.00315773 5.70485e-024)
(0.955651 0.00314409 -1.63339e-025)
(0.955193 0.00313116 4.76647e-024)
(0.954732 0.00311909 4.2829e-024)
(0.954271 0.00310823 3.78076e-024)
(0.953803 0.00309864 3.2891e-024)
(0.953343 0.00309236 2.74118e-024)
(0.952856 0.00308614 -8.75953e-026)
(0.952419 0.00308816 1.65549e-024)
(0.951877 0.00308489 1.45095e-024)
(0.951538 0.00310071 5.06118e-025)
(0.950803 0.00309191 1.25572e-024)
(1.00001 0.000386667 -1.23408e-023)
(1.00016 0.00118375 0)
(1.00044 0.00189997 0)
(1.00078 0.00251084 0)
(1.00114 0.00301872 0)
(1.00149 0.00343588 0)
(1.00181 0.00377609 2.56001e-023)
(1.0021 0.00405332 0)
(1.00235 0.00428315 -5.24252e-023)
(1.00257 0.00447675 2.76513e-023)
(1.00276 0.00464057 -5.49064e-023)
(1.00292 0.00478122 -5.58701e-023)
(1.00305 0.00490176 2.8891e-023)
(1.00317 0.00500389 0)
(1.00326 0.00508806 2.9407e-023)
(1.00333 0.00515893 2.96041e-023)
(1.00338 0.00522291 2.97615e-023)
(1.00342 0.00528228 2.98906e-023)
(1.00345 0.00532375 3.001e-023)
(1.00347 0.00534993 3.01094e-023)
(1.00348 0.00537596 3.01785e-023)
(1.00349 0.0053979 3.02165e-023)
(1.00348 0.00541582 0)
(1.00347 0.0054297 3.02118e-023)
(1.00346 0.00544119 3.01744e-023)
(1.00344 0.00545136 3.01155e-023)
(1.00341 0.00545594 3.00509e-023)
(1.00338 0.00546013 2.9965e-023)
(1.00335 0.00546458 2.98509e-023)
(1.00332 0.00546531 2.97193e-023)
(1.00328 0.00546368 0)
(1.00325 0.00545924 2.94083e-023)
(1.00321 0.00545369 2.92208e-023)
(1.00316 0.00544732 2.90142e-023)
(1.00312 0.0054397 2.87903e-023)
(1.00307 0.00543194 2.85467e-023)
(1.00302 0.00542467 2.82889e-023)
(1.00297 0.00541764 2.80201e-023)
(1.00292 0.0054102 2.77398e-023)
(1.00286 0.005401 0)
(1.0028 0.00539048 2.71398e-023)
(1.00274 0.00537988 2.6817e-023)
(1.00269 0.00536908 2.64796e-023)
(1.00263 0.00535814 2.61275e-023)
(1.00256 0.00534736 2.57631e-023)
(1.0025 0.00533696 2.53875e-023)
(1.00243 0.00532676 2.50009e-023)
(1.00237 0.00531643 0)
(1.0023 0.00530591 2.41999e-023)
(1.00223 0.00529526 2.37862e-023)
(1.00215 0.00528455 2.33646e-023)