/*--------------------------------*- C++ -*----------------------------------*\
| =========                 |                                                 |
| \\      /  F ield         | OpenFOAM: The Open Source CFD Toolbox           |
|  \\    /   O peration     | Version:  5.x                                   |
|   \\  /    A nd           | Web:      www.OpenFOAM.org                      |
|    \\/     M anipulation  |                                                 |
\*---------------------------------------------------------------------------*/
/*   Windows 32 and 64 bit porting by blueCAPE: http://www.bluecape.com.pt   *\
|  Based on Windows porting (2.0.x v4) by Symscape: http://www.symscape.com   |
\*---------------------------------------------------------------------------*/
FoamFile
{
    version     2.0;
    format      ascii;
    class       volScalarField;
    location    "0.25";
    object      p;
}
// * * * * * * * * * * * * * * * * * * * * * * * * * * * * * * * * * * * * * //

dimensions      [0 2 -2 0 0 0 0];

internalField   nonuniform List<scalar> 
750
(
0.39397989
0.39434022
0.39400016
0.39390883
0.39364379
0.39340321
0.39311862
0.39282764
0.39252762
0.39222048
0.39191058
0.39159661
0.39127338
0.3909403
0.39059791
0.39022357
0.38980375
0.38933248
0.38873742
0.38788432
0.38698652
0.38451058
0.38336011
0.37473919
0.37085948
0.39398618
0.39433845
0.39400863
0.3939094
0.39364617
0.39340435
0.39311981
0.39282768
0.3925277
0.39222066
0.3919108
0.39159683
0.39127381
0.39094118
0.39059895
0.39022532
0.3898071
0.38933738
0.38874358
0.38790545
0.38698863
0.38459833
0.38333302
0.37497037
0.371037
0.39399238
0.39434568
0.39401717
0.3939136
0.39365014
0.3934067
0.39312172
0.39282855
0.39252818
0.39222124
0.39191145
0.39159759
0.39127502
0.39094317
0.39060195
0.39023018
0.38981519
0.38935034
0.38876445
0.38794385
0.38703992
0.38471711
0.38345447
0.37523858
0.37162914
0.39400044
0.394359
0.39402815
0.39392051
0.39365611
0.39340996
0.39312426
0.39283026
0.39252898
0.39222213
0.39191245
0.39159879
0.39127687
0.39094607
0.39060663
0.39023769
0.38982726
0.38936996
0.38879708
0.38799824
0.38712849
0.38486974
0.3836973
0.37560765
0.37246169
0.39401125
0.39437698
0.39404276
0.39392974
0.39366406
0.39341419
0.3931275
0.3928326
0.39253006
0.39222329
0.39191372
0.39160035
0.39127931
0.39094978
0.39061276
0.39024747
0.38984279
0.38939532
0.38883937
0.38806808
0.38724828
0.38506065
0.38402687
0.37608462
0.37362026
0.39402497
0.39439955
0.39406121
0.39394119
0.39367396
0.39341944
0.39313142
0.3928354
0.39253145
0.39222467
0.39191522
0.39160226
0.39128227
0.39095429
0.39062028
0.39025934
0.38986148
0.38942603
0.38888991
0.38815163
0.38739642
0.38528509
0.3844522
0.37659644
0.37538412
0.3940415
0.39442706
0.39408343
0.39395476
0.39368585
0.39342565
0.39313597
0.3928386
0.39253316
0.39222628
0.39191691
0.39160445
0.39128574
0.39095962
0.3906291
0.39027329
0.38988329
0.38946229
0.38894891
0.38824763
0.38757565
0.38554562
0.38503423
0.37723738
0.37795826
0.39406089
0.39445968
0.39410943
0.39397036
0.39369991
0.39343279
0.39314108
0.39284213
0.39253526
0.39222807
0.39191877
0.39160695
0.3912897
0.39096572
0.39063913
0.39028934
0.38990838
0.38950414
0.38901698
0.38835527
0.38779115
0.38585581
0.38578095
0.37821102
0.38190128
0.39408494
0.39449459
0.39414046
0.39398773
0.39371608
0.393441
0.39314669
0.39284579
0.39253779
0.39223
0.39192076
0.39160971
0.39129397
0.39097252
0.39064996
0.39030704
0.38993676
0.38955015
0.38909358
0.38847645
0.38803453
0.3862593
0.38665539
0.37946598
0.38673103
0.39411973
0.39452252
0.39418111
0.39400594
0.39373321
0.39345038
0.39315256
0.39284917
0.39254047
0.39223198
0.39192273
0.39161238
0.39129825
0.39097976
0.39066107
0.39032523
0.38996671
0.38959731
0.3891738
0.38861228
0.38824648
0.38679175
0.387466
0.38123829
0.39168316
0.34936244
0.33852092
0.32247431
0.30876802
0.29417798
0.27987028
0.2654521
0.25110021
0.2367419
0.22239361
0.20804461
0.19369746
0.17934947
0.16500156
0.15065355
0.13630559
0.12195763
0.10760968
0.093261722
0.078913765
0.064565808
0.050217851
0.035869894
0.021521937
0.0071739784
0.34922918
0.33836359
0.32243532
0.30870966
0.29414852
0.2798538
0.26544477
0.25109628
0.23674112
0.22239334
0.20804482
0.1936974
0.17934947
0.16500154
0.15065356
0.13630559
0.12195763
0.10760968
0.093261722
0.078913765
0.064565808
0.050217851
0.035869894
0.021521937
0.0071739787
0.34885204
0.3383932
0.32223651
0.30864305
0.29408107
0.27981495
0.26543673
0.25109262
0.23674021
0.222393
0.20804498
0.19369742
0.17934949
0.16500153
0.15065355
0.13630559
0.12195763
0.10760968
0.093261722
0.078913765
0.064565808
0.050217851
0.035869894
0.021521937
0.0071739791
0.3483268
0.338522
0.32194019
0.30857355
0.29405385
0.27978753
0.26542928
0.25108998
0.23673934
0.22239274
0.20804512
0.19369751
0.17934951
0.16500153
0.15065355
0.13630559
0.12195763
0.10760968
0.093261722
0.078913765
0.064565808
0.050217851
0.035869894
0.021521937
0.0071739795
0.34780835
0.3385169
0.32177788
0.30846001
0.29401407
0.27977454
0.26542205
0.25108752
0.2367385
0.22239265
0.20804527
0.19369759
0.17934954
0.16500153
0.15065354
0.13630559
0.12195763
0.10760968
0.093261723
0.078913765
0.064565808
0.050217851
0.035869894
0.021521938
0.00717398
0.34717118
0.33848436
0.32167573
0.30834686
0.2939562
0.27975951
0.26541469
0.2510852
0.23673784
0.22239274
0.20804539
0.19369766
0.17934956
0.16500153
0.15065354
0.13630559
0.12195763
0.10760968
0.093261723
0.078913765
0.064565808
0.050217851
0.035869894
0.021521938
0.0071739803
0.34632809
0.33852246
0.32147305
0.30827093
0.29391006
0.27974746
0.26540834
0.2510836
0.23673751
0.22239296
0.2080455
0.19369769
0.17934955
0.16500152
0.15065353
0.13630559
0.12195764
0.10760968
0.093261723
0.078913765
0.064565808
0.050217851
0.035869894
0.021521938
0.0071739807
0.34570065
0.33844639
0.32123885
0.3082307
0.29387682
0.27973804
0.26540304
0.25108278
0.23673755
0.2223933
0.20804564
0.1936977
0.17934953
0.1650015
0.15065353
0.13630559
0.12195764
0.10760968
0.093261723
0.078913765
0.064565808
0.050217851
0.035869894
0.021521938
0.0071739811
0.34466696
0.33837187
0.32112165
0.30821032
0.29385366
0.27973222
0.26539952
0.25108253
0.23673795
0.22239377
0.20804583
0.19369773
0.17934949
0.16500148
0.15065353
0.13630559
0.12195764
0.10760968
0.093261722
0.078913765
0.064565808
0.050217851
0.035869895
0.021521939
0.0071739816
0.34053331
0.33893421
0.32111105
0.30829675
0.29382699
0.27973492
0.26539553
0.25108264
0.23673758
0.222394
0.20804592
0.19369777
0.17934948
0.16500148
0.15065353
0.13630559
0.12195764
0.10760968
0.093261722
0.078913765
0.064565808
0.050217851
0.035869895
0.021521939
0.0071739816
0.39421458
0.39456315
0.39428102
0.3940445
0.39376673
0.39347041
0.39316418
0.39285528
0.39254521
0.39223526
0.39192635
0.39161731
0.39130659
0.39099412
0.39068333
0.39036217
0.39002614
0.38969146
0.38933247
0.38889966
0.38858169
0.38794761
0.38875464
0.386294
0.4047961
0.39436104
0.39473588
0.39442662
0.39413629
0.3938286
0.39350813
0.39318619
0.39286879
0.39255363
0.39224177
0.39193302
0.39162675
0.39132455
0.39101942
0.3907197
0.39042745
0.39012561
0.38983455
0.38956473
0.38925352
0.38903611
0.38875927
0.3890614
0.38762505
0.39363775
0.39457105
0.39497116
0.39459196
0.39424436
0.39389598
0.39354687
0.39320766
0.39288041
0.39256077
0.3922467
0.39193842
0.39163494
0.39133922
0.39104496
0.3907546
0.39048474
0.39022198
0.38996592
0.38976075
0.38955967
0.38945621
0.38941536
0.38977512
0.38978481
0.39247967
0.3948864
0.3952533
0.3947823
0.39436154
0.39396189
0.39358205
0.39322817
0.39288793
0.39256409
0.39224802
0.39194048
0.39164044
0.39134687
0.39106364
0.39078666
0.39052657
0.39029399
0.39007385
0.38990856
0.38978062
0.3897388
0.38981019
0.39016427
0.39063858
0.39162352
0.39536461
0.39557082
0.39499634
0.39448033
0.39402217
0.3936099
0.39324207
0.39289102
0.39256121
0.39224515
0.39193781
0.39164027
0.39134974
0.39107072
0.39080541
0.39055267
0.39033313
0.39014121
0.38999836
0.38991575
0.38991374
0.39003696
0.39037913
0.390949
0.39134319
0.39609747
0.39590892
0.39522151
0.39458726
0.39407077
0.39362817
0.39324168
0.39288675
0.39255313
0.39223709
0.39193068
0.39163369
0.3913455
0.39106718
0.39080462
0.39055842
0.3903404
0.39015995
0.3900257
0.38995814
0.38997335
0.39010948
0.39040302
0.39094403
0.39113772
0.39720934
0.39623721
0.39541391
0.39466153
0.39408926
0.39362642
0.39322693
0.39287152
0.39253922
0.3922236
0.39191805
0.3916208
0.3913319
0.39105253
0.39078629
0.39053864
0.39031558
0.39013002
0.3899914
0.38991936
0.38993301
0.39005569
0.39030792
0.39079202
0.39092635
0.39908057
0.39638987
0.39551712
0.39465834
0.39405471
0.39358953
0.39319459
0.39284463
0.39251751
0.39220434
0.39189969
0.39160152
0.39130975
0.39102572
0.39075202
0.39049397
0.39025792
0.39005443
0.38989672
0.3898039
0.38979888
0.3899025
0.39013167
0.39056313
0.39070008
0.40258298
0.39608233
0.39549426
0.39451857
0.39393412
0.39349727
0.39313113
0.39279944
0.39248391
0.39217675
0.39187389
0.39157412
0.39127744
0.39098463
0.39069814
0.39042144
0.39016084
0.38992547
0.3897303
0.38959724
0.38955753
0.38964579
0.38987293
0.39028276
0.39045947
0.404164
0.39507503
0.39591823
0.3945715
0.39398483
0.39351286
0.39313393
0.39279639
0.392479
0.39217115
0.39186784
0.39156734
0.39126933
0.39097446
0.3906849
0.39040397
0.39013743
0.38989441
0.38968935
0.38954547
0.38949456
0.38957224
0.38977837
0.3901586
0.39035643
)
;

boundaryField
{
    inlet
    {
        type            zeroGradient;
    }
    walls
    {
        type            zeroGradient;
    }
    outlet
    {
        type            fixedValue;
        value           uniform 0;
    }
    centreline
    {
        type            symmetryPlane;
    }
    frontAndBack
    {
        type            empty;
    }
}


// ************************************************************************* //
