/*--------------------------------*- C++ -*----------------------------------*\
| =========                 |                                                 |
| \\      /  F ield         | OpenFOAM: The Open Source CFD Toolbox           |
|  \\    /   O peration     | Version:  5.x                                   |
|   \\  /    A nd           | Web:      www.OpenFOAM.org                      |
|    \\/     M anipulation  |                                                 |
\*---------------------------------------------------------------------------*/
/*   Windows 32 and 64 bit porting by blueCAPE: http://www.bluecape.com.pt   *\
|  Based on Windows porting (2.0.x v4) by Symscape: http://www.symscape.com   |
\*---------------------------------------------------------------------------*/
FoamFile
{
    version     2.0;
    format      ascii;
    class       surfaceScalarField;
    location    "0.25";
    object      phi;
}
// * * * * * * * * * * * * * * * * * * * * * * * * * * * * * * * * * * * * * //

dimensions      [0 3 -1 0 0 0 0];

internalField   nonuniform List<scalar> 
1430
(
5.1696727e-006
-1.6839235e-007
5.3836156e-006
-2.1394287e-007
5.597012e-006
-2.1339641e-007
5.7835717e-006
-1.8655974e-007
5.9412345e-006
-1.5766276e-007
6.0662996e-006
-1.250651e-007
6.1642237e-006
-9.7924085e-008
6.2404893e-006
-7.6265646e-008
6.302166e-006
-6.1676703e-008
6.3566273e-006
-5.4461279e-008
6.4105633e-006
-5.3936012e-008
6.4709804e-006
-6.0417084e-008
6.5464478e-006
-7.5467412e-008
6.6481885e-006
-1.0174072e-007
6.7920791e-006
-1.4389054e-007
7.0009588e-006
-2.0887968e-007
7.3119594e-006
-3.1100066e-007
7.7829102e-006
-4.7095077e-007
8.4957919e-006
-7.1288164e-007
9.5788861e-006
-1.0830942e-006
1.1166707e-005
-1.5878209e-006
1.351212e-005
-2.3454131e-006
1.6749892e-005
-3.2377719e-006
2.0952188e-005
-4.2022963e-006
-4.8290121e-006
2.57812e-005
5.168696e-006
-3.3580805e-007
5.387171e-006
-4.3241782e-007
5.5988228e-006
-4.2504816e-007
5.7866627e-006
-3.7439963e-007
5.9436706e-006
-3.1467069e-007
6.0685988e-006
-2.4999325e-007
6.1660322e-006
-1.9535748e-007
6.2418206e-006
-1.5205411e-007
6.3030759e-006
-1.2293197e-007
6.3571075e-006
-1.0849282e-007
6.4105662e-006
-1.0739469e-007
6.470423e-006
-1.202739e-007
6.5451636e-006
-1.5020807e-007
6.6458536e-006
-2.0243075e-007
6.7882367e-006
-2.8627359e-007
6.9948049e-006
-4.1544791e-007
7.301986e-006
-6.1818176e-007
7.7667272e-006
-9.3569192e-007
8.4699743e-006
-1.4161287e-006
9.5333029e-006
-2.1464229e-006
1.1101446e-005
-3.1559643e-006
1.3385109e-005
-4.6290762e-006
1.6590982e-005
-6.4436447e-006
2.0670311e-005
-8.281625e-006
-9.671129e-006
2.5512428e-005
5.1706787e-006
-5.0520639e-007
5.3908243e-006
-6.5256341e-007
5.6039951e-006
-6.3821898e-007
5.7921394e-006
-5.6254395e-007
5.9488579e-006
-4.7138916e-007
6.0730763e-006
-3.7421162e-007
6.1696252e-006
-2.919064e-007
6.2444977e-006
-2.2692656e-007
6.3049095e-006
-1.833438e-007
6.3580965e-006
-1.6167987e-007
6.4106193e-006
-1.5991743e-007
6.4693418e-006
-1.789964e-007
6.54262e-006
-2.2348629e-007
6.6412938e-006
-3.0110458e-007
6.7806423e-006
-4.2562206e-007
6.9825482e-006
-6.1735378e-007
7.2822937e-006
-9.1792726e-007
7.7347678e-006
-1.388166e-006
8.4175833e-006
-2.0989442e-006
9.4475923e-006
-3.1764319e-006
1.0960832e-005
-4.6692037e-006
1.3162897e-005
-6.8311411e-006
1.6237096e-005
-9.5178438e-006
2.0177627e-005
-1.2222157e-005
-1.4359431e-005
2.486593e-005
5.1736569e-006
-6.7758299e-007
5.3964872e-006
-8.7539372e-007
5.6117512e-006
-8.534829e-007
5.8003796e-006
-7.5117242e-007
5.9566576e-006
-6.2766707e-007
6.0797751e-006
-4.9732911e-007
6.174953e-006
-3.8708435e-007
6.2484877e-006
-3.0046124e-007
6.3076479e-006
-2.4250404e-007
6.3595616e-006
-2.1359353e-007
6.4106837e-006
-2.1103956e-007
6.4677282e-006
-2.3604088e-007
6.5388252e-006
-2.9458332e-007
6.6344901e-006
-3.967694e-007
6.7693523e-006
-5.6048426e-007
6.9643526e-006
-8.1235411e-007
7.2530871e-006
-1.2066617e-006
7.6875553e-006
-1.8226342e-006
8.3404043e-006
-2.7517933e-006
9.3208731e-006
-4.1569006e-006
1.0754067e-005
-6.1023973e-006
1.2833389e-005
-8.9104634e-006
1.5712e-005
-1.2396455e-005
1.9436005e-005
-1.5946161e-005
-1.8795033e-005
2.3871606e-005
5.1777971e-006
-8.5409978e-007
5.4041734e-006
-1.10177e-006
5.6221331e-006
-1.0714426e-006
5.8113358e-006
-9.4037515e-007
5.9669918e-006
-7.8332307e-007
6.0886042e-006
-6.1894144e-007
6.18193e-006
-4.804102e-007
6.2537012e-006
-3.722324e-007
6.311205e-006
-3.0000789e-007
6.3614101e-006
-2.6379857e-007
6.4106797e-006
-2.603092e-007
6.4655294e-006
-2.9089058e-007
6.5337486e-006
-3.6280255e-007
6.6254521e-006
-4.8847287e-007
6.7544422e-006
-6.8947434e-007
6.9404228e-006
-9.9833474e-007
7.2148136e-006
-1.4810525e-006
7.6259166e-006
-2.2337372e-006
8.2397161e-006
-3.3655928e-006
9.1558809e-006
-5.0730653e-006
1.0483454e-005
-7.4299703e-006
1.2399576e-005
-1.0826586e-005
1.5024835e-005
-1.5021714e-005
1.8456365e-005
-1.9377692e-005
-2.2858997e-005
2.252033e-005
5.1832406e-006
-1.0360601e-006
5.4139336e-006
-1.332463e-006
5.6351482e-006
-1.2926572e-006
5.8249527e-006
-1.1301797e-006
5.979742e-006
-9.3811239e-007
6.0994107e-006
-7.3861014e-007
6.190406e-006
-5.714055e-007
6.2599874e-006
-4.418138e-007
6.3154278e-006
-3.5544824e-007
6.3634931e-006
-3.1186385e-007
6.4104636e-006
-3.0727974e-007
6.4626283e-006
-3.4305531e-007
6.527313e-006
-4.2748722e-007
6.6141335e-006
-5.7529338e-007
6.7359248e-006
-8.1126565e-007
6.9109065e-006
-1.1733164e-006
7.1678113e-006
-1.7379573e-006
7.5505403e-006
-2.6164662e-006
8.117125e-006
-3.9321776e-006
8.9551657e-006
-5.911106e-006
1.0152546e-005
-8.6273506e-006
1.1868492e-005
-1.2542532e-005
1.4175525e-005
-1.7328747e-005
1.7225759e-005
-2.2427926e-005
-2.6458356e-005
2.0825118e-005
5.19013e-006
-1.2249097e-006
5.4257976e-006
-1.5681305e-006
5.6507321e-006
-1.5175917e-006
5.8410793e-006
-1.3205268e-006
5.9946849e-006
-1.091718e-006
6.1119507e-006
-8.5587596e-007
6.2001397e-006
-6.5959444e-007
6.2670903e-006
-5.0876439e-007
6.3200564e-006
-4.0841442e-007
6.3655477e-006
-3.573551e-007
6.4097951e-006
-3.5152719e-007
6.458822e-006
-3.9208217e-007
6.51935e-006
-4.8801523e-007
6.6004253e-006
-6.5636867e-007
6.7137768e-006
-9.2461718e-007
6.8759224e-006
-1.3354619e-006
7.1124944e-006
-1.9745293e-006
7.4623974e-006
-2.9663692e-006
7.9744667e-006
-4.4442468e-006
8.72172e-006
-6.6583593e-006
9.7668206e-006
-9.6724512e-006
1.1245106e-005
-1.4020817e-005
1.3155248e-005
-1.9238888e-005
1.5763811e-005
-2.5036489e-005
-2.9429543e-005
1.8734999e-005
5.1986258e-006
-1.4222552e-006
5.439718e-006
-1.8092227e-006
5.6687244e-006
-1.7465982e-006
5.8594462e-006
-1.5112486e-006
6.011447e-006
-1.2437188e-006
6.1258288e-006
-9.7025774e-007
6.2107539e-006
-7.4451954e-007
6.2746228e-006
-5.7263329e-007
6.3246898e-006
-4.5848145e-007
6.3672063e-006
-3.9987154e-007
6.4083212e-006
-3.9264212e-007
6.4537556e-006
-4.3751655e-007
6.5095774e-006
-5.4383702e-007
6.5841382e-006
-7.3092947e-007
6.687899e-006
-1.0283779e-006
6.8355708e-006
-1.4831338e-006
7.0494203e-006
-2.1883788e-006
7.3626243e-006
-3.2795732e-006
7.8139892e-006
-4.8956117e-006
8.459954e-006
-7.3043241e-006
9.3332764e-006
-1.0545774e-005
1.0538671e-005
-1.5226212e-005
1.2009605e-005
-2.0709823e-005
1.4129856e-005
-2.715674e-005
-3.143531e-005
1.6135623e-005
5.2089572e-006
-1.6299322e-006
5.4555285e-006
-2.0557939e-006
5.688916e-006
-1.9799857e-006
5.8796753e-006
-1.7020079e-006
6.029515e-006
-1.3935585e-006
6.1405037e-006
-1.0812465e-006
6.2216985e-006
-8.2571431e-007
6.2820408e-006
-6.3297554e-007
6.3287587e-006
-5.0519941e-007
6.3679239e-006
-4.3903674e-007
6.4055481e-006
-4.3026633e-007
6.4469622e-006
-4.7893056e-007
6.4975871e-006
-5.9446201e-007
6.5649495e-006
-7.9829184e-007
6.6581308e-006
-1.1215592e-006
6.7899531e-006
-1.6149561e-006
6.9791951e-006
-2.3776207e-006
7.2525689e-006
-3.552947e-006
7.6381701e-006
-5.2812129e-006
8.1755347e-006
-7.8416886e-006
8.8620103e-006
-1.1232249e-005
9.7704357e-006
-1.6134637e-005
1.076293e-005
-2.1702317e-005
1.234625e-005
-2.8740061e-005
-3.2084798e-005
1.2995738e-005
5.219883e-006
-1.8485348e-006
5.4741428e-006
-2.3100536e-006
5.7106595e-006
-2.2165024e-006
5.9013339e-006
-1.8926823e-006
6.0481577e-006
-1.5403822e-006
6.155253e-006
-1.1883418e-006
6.2322652e-006
-9.0272645e-007
6.2886287e-006
-6.8933907e-007
6.3315476e-006
-5.4811836e-007
6.3670074e-006
-4.7449647e-007
6.4008027e-006
-4.6406162e-007
6.4378434e-006
-5.1597124e-007
6.4828721e-006
-6.3949079e-007
6.5424042e-006
-8.578239e-007
6.6241679e-006
-1.2033229e-006
6.7390697e-006
-1.7298579e-006
6.9021146e-006
-2.5406656e-006
7.1331617e-006
-3.7839941e-006
7.4500105e-006
-5.5980617e-006
7.8733601e-006
-8.2650382e-006
8.373084e-006
-1.1731973e-005
8.9476688e-006
-1.6709222e-005
9.4065478e-006
-2.2161196e-005
1.0141303e-005
-2.9474816e-005
8.8082432e-006
-3.0751738e-005
2.8507289e-005
-2.7260887e-006
2.9533509e-005
-1.02622e-006
2.9780963e-005
-2.4745425e-007
2.9833472e-005
-5.2508765e-008
2.983918e-005
-5.708052e-009
2.9835871e-005
3.3091196e-009
2.9838311e-005
-2.4397451e-009
2.9840814e-005
-2.5037945e-009
2.9841624e-005
-8.1002711e-010
2.9841031e-005
5.9379957e-010
2.9840197e-005
8.3320131e-010
2.9839707e-005
4.9098187e-010
2.9839596e-005
1.1027677e-010
2.983964e-005
-4.3447116e-011
2.9839686e-005
-4.6037576e-011
2.9839699e-005
-1.3789667e-011
2.9839697e-005
2.8477127e-012
2.9839693e-005
3.9887533e-012
2.9839692e-005
1.0380798e-012
2.9839692e-005
-3.8771293e-013
2.9839692e-005
-4.3042209e-013
2.9839693e-005
-1.2728016e-013
2.9839692e-005
1.9523453e-013
2.9839691e-005
9.279735e-013
8.08455e-013
2.8008707e-005
-5.222368e-006
2.8978824e-005
-1.9963374e-006
2.9188737e-005
-4.5736702e-007
2.9234635e-005
-9.8407067e-008
2.923016e-005
-1.2331448e-009
2.9227087e-005
6.3822989e-009
2.9228696e-005
-4.0483265e-009
2.9231235e-005
-5.0434263e-009
2.9231959e-005
-1.5335325e-009
2.923146e-005
1.0920744e-009
2.9230715e-005
1.5790467e-009
2.9230287e-005
9.1871284e-010
2.9230194e-005
2.0303185e-010
2.9230236e-005
-8.5798648e-011
2.9230277e-005
-8.6907373e-011
2.9230289e-005
-2.5059126e-011
2.9230286e-005
5.8093449e-012
2.9230282e-005
7.4471257e-012
2.9230281e-005
1.8677882e-012
2.9230282e-005
-7.5331059e-013
2.9230282e-005
-7.9864095e-013
2.9230282e-005
-2.1102472e-013
2.9230282e-005
4.0217124e-013
2.9230281e-005
1.6415301e-012
1.4446363e-012
2.7053212e-005
-7.4096509e-006
2.7855447e-005
-2.7985722e-006
2.8017537e-005
-6.1945675e-007
2.8023847e-005
-1.0471752e-007
2.8011918e-005
1.0696361e-008
2.8012326e-005
5.9746731e-009
2.8014533e-005
-6.2555356e-009
2.8016613e-005
-7.1232423e-009
2.8017131e-005
-2.0517169e-009
2.8016736e-005
1.4871105e-009
2.8016167e-005
2.1479752e-009
2.8015864e-005
1.2213592e-009
2.8015813e-005
2.5406281e-010
2.8015851e-005
-1.2362864e-010
2.8015881e-005
-1.1699767e-010
2.8015888e-005
-3.1757084e-011
2.8015885e-005
8.7124832e-012
2.8015882e-005
9.9360367e-012
2.8015882e-005
2.2999751e-012
2.8015882e-005
-1.0748765e-012
2.8015882e-005
-1.0429116e-012
2.8015882e-005
-2.2085807e-013
2.8015882e-005
5.9790929e-013
2.8015882e-005
2.0539268e-012
1.7735014e-012
2.5625339e-005
-9.1633842e-006
2.6176513e-005
-3.3497456e-006
2.6233898e-005
-6.7684187e-007
2.6209684e-005
-8.0503746e-008
2.6199985e-005
2.039498e-008
2.6202532e-005
3.4275027e-009
2.6204015e-005
-7.7384275e-009
2.6204924e-005
-8.0323171e-009
2.6205041e-005
-2.167885e-009
2.620476e-005
1.7680062e-009
2.6204446e-005
2.4616397e-009
2.6204324e-005
1.3429082e-009
2.6204326e-005
2.5205028e-010
2.6204354e-005
-1.5171145e-010
2.6204368e-005
-1.3104243e-010
2.6204369e-005
-3.2545739e-011
2.6204367e-005
1.1147796e-011
2.6204366e-005
1.103577e-011
2.6204366e-005
2.2537537e-012
2.6204366e-005
-1.3144152e-012
2.6204366e-005
-1.1237745e-012
2.6204366e-005
-1.5919644e-013
2.6204366e-005
7.5677533e-013
2.6204366e-005
2.1417753e-012
1.777215e-012
2.3703776e-005
-1.034683e-005
2.3895697e-005
-3.5416667e-006
2.3832442e-005
-6.1358753e-007
2.3811518e-005
-5.9579144e-008
2.3806215e-005
2.5697892e-008
2.3806727e-005
2.9157429e-009
2.380613e-005
-7.1418407e-009
2.3805653e-005
-7.5552665e-009
2.3805324e-005
-1.8389893e-009
2.3805203e-005
1.8892977e-009
2.3805213e-005
2.4515326e-009
2.3805295e-005
1.2604293e-009
2.3805346e-005
2.0127138e-010
2.3805357e-005
-1.6308694e-010
2.3805352e-005
-1.2613701e-010
2.3805347e-005
-2.7552329e-011
2.3805346e-005
1.2412768e-011
2.3805347e-005
1.0519253e-011
2.3805347e-005
1.7790782e-012
2.3805347e-005
-1.4127209e-012
2.3805347e-005
-1.0464472e-012
2.3805347e-005
-5.106562e-014
2.3805347e-005
8.5510407e-013
2.3805347e-005
1.9365703e-012
1.5146949e-012
2.1227807e-005
-1.0749518e-005
2.0983037e-005
-3.2968974e-006
2.0848957e-005
-4.7950723e-007
2.0835003e-005
-4.5625523e-008
2.0832356e-005
2.8344998e-008
2.0831499e-005
3.7729138e-009
2.0829556e-005
-5.198407e-009
2.082798e-005
-5.9794961e-009
2.0827344e-005
-1.2026634e-009
2.0827454e-005
1.7793565e-009
2.0827807e-005
2.0982292e-009
2.0828065e-005
1.0021207e-009
2.0828143e-005
1.2339757e-010
2.0828131e-005
-1.5143506e-010
2.0828109e-005
-1.0355452e-010
2.08281e-005
-1.884529e-011
2.0828101e-005
1.1842172e-011
2.0828103e-005
8.539402e-012
2.0828103e-005
1.0768718e-012
2.0828103e-005
-1.3110765e-012
2.0828103e-005
-8.3554592e-013
2.0828103e-005
5.560586e-014
2.0828103e-005
8.5670338e-013
2.0828103e-005
1.5307872e-012
1.0991908e-012
1.8104326e-005
-1.0118846e-005
1.7454146e-005
-2.646717e-006
1.7298826e-005
-3.2418757e-007
1.7284481e-005
-3.1279931e-008
1.7284174e-005
2.8651937e-008
1.7283554e-005
4.3924235e-009
1.7281071e-005
-2.7156334e-009
1.7278892e-005
-3.8002579e-009
1.7278204e-005
-5.1497376e-010
1.7278586e-005
1.3974919e-009
1.7279202e-005
1.482191e-009
1.7279556e-005
6.4824231e-010
1.727963e-005
4.9256746e-011
1.7279595e-005
-1.160721e-010
1.7279561e-005
-6.9693401e-011
1.7279552e-005
-9.706995e-012
1.7279555e-005
9.2594625e-012
1.7279557e-005
5.6687275e-012
1.7279558e-005
4.1635866e-013
1.7279558e-005
-1.0059078e-012
1.7279557e-005
-5.4464165e-013
1.7279557e-005
1.1442903e-013
1.7279558e-005
7.3246412e-013
1.7279558e-005
1.0451546e-012
6.6851621e-013
1.4239514e-005
-8.2227365e-006
1.3326197e-005
-1.7334001e-006
1.3175889e-005
-1.7387984e-007
1.3159264e-005
-1.4654469e-008
1.3164669e-005
2.3246895e-008
1.3165531e-005
3.5302902e-009
1.3163497e-005
-6.8196518e-010
1.3161423e-005
-1.7264969e-009
1.3160958e-005
-5.0263076e-011
1.316154e-005
8.1549603e-010
1.3162241e-005
7.8148408e-010
1.3162583e-005
3.06684e-010
1.3162628e-005
3.605469e-012
1.3162579e-005
-6.6448436e-011
1.3162544e-005
-3.4791477e-011
1.3162537e-005
-3.1112605e-012
1.3162541e-005
5.3587683e-012
1.3162544e-005
2.7693754e-012
1.3162544e-005
1.6571452e-014
1.3162544e-005
-5.8183426e-013
1.3162544e-005
-2.6427607e-013
1.3162544e-005
1.0806524e-013
1.3162544e-005
4.9822062e-013
1.3162544e-005
5.8550679e-013
3.2645318e-013
9.6114356e-006
-4.8384346e-006
8.5986591e-006
-7.2062355e-007
8.4721921e-006
-4.7412844e-008
8.4617076e-006
-4.1700289e-009
8.4735823e-006
1.1372247e-008
8.4758769e-006
1.2357015e-009
8.4749108e-006
2.8407695e-010
8.4735802e-006
-3.9592423e-010
8.4734493e-006
8.0707758e-011
8.4740073e-006
2.5746772e-010
8.4745652e-006
2.2355515e-010
8.474798e-006
7.3910744e-011
8.4748086e-006
-7.078025e-012
8.4747631e-006
-2.0897518e-011
8.4747375e-006
-9.2662403e-012
8.4747346e-006
-2.2812465e-013
8.4747383e-006
1.6757585e-012
8.4747404e-006
7.0195366e-013
8.4747405e-006
-7.1521416e-014
8.4747401e-006
-1.8958817e-013
8.4747399e-006
-7.1364949e-014
8.47474e-006
4.7886662e-014
8.4747402e-006
2.0513942e-013
8.4747406e-006
2.146015e-013
1.0477007e-013
3.9698086e-006
3.249185e-006
3.2017722e-006
3.1976021e-006
3.2089744e-006
3.2102101e-006
3.2104942e-006
3.2100982e-006
3.2101789e-006
3.2104364e-006
3.21066e-006
3.2107339e-006
3.2107268e-006
3.2107059e-006
3.2106966e-006
3.2106964e-006
3.210698e-006
3.2106987e-006
3.2106987e-006
3.2106985e-006
3.2106984e-006
3.2106985e-006
3.2106987e-006
3.2106989e-006
1.5708876e-005
-2.5535702e-006
1.6563461e-005
-3.1646386e-006
1.7269326e-005
-2.9223672e-006
1.783745e-005
-2.4608059e-006
1.8254889e-005
-1.9578215e-006
1.8549122e-005
-1.4825748e-006
1.8751986e-005
-1.1055898e-006
1.8894193e-005
-8.3154634e-007
1.8997772e-005
-6.5169721e-007
1.9080343e-005
-5.5706776e-007
1.9156781e-005
-5.4049976e-007
1.9239298e-005
-5.9848764e-007
1.9338723e-005
-7.389162e-007
1.9466793e-005
-9.8589441e-007
1.9640064e-005
-1.3765935e-006
1.9878673e-005
-1.9684673e-006
2.0201226e-005
-2.8632182e-006
2.0632181e-005
-4.2149487e-006
2.1176695e-005
-6.1425766e-006
2.1760123e-005
-8.8484656e-006
2.2256518e-005
-1.2228368e-005
2.1992395e-005
-1.64451e-005
2.0215945e-005
-2.0384746e-005
1.4813089e-005
-2.4071961e-005
-1.5938648e-005
1.5850258e-005
-3.3999871e-006
1.6769602e-005
-4.0839829e-006
1.7483006e-005
-3.6357711e-006
1.8006884e-005
-2.9846834e-006
1.8364631e-005
-2.3155688e-006
1.8597727e-005
-1.7156714e-006
1.8742195e-005
-1.2500571e-006
1.8831609e-005
-9.209607e-007
1.8888921e-005
-7.0900914e-007
1.8929133e-005
-5.9727959e-007
1.8962281e-005
-5.736482e-007
1.89947e-005
-6.3090661e-007
1.9032142e-005
-7.7635816e-007
1.9077089e-005
-1.0308407e-006
1.913255e-005
-1.4320551e-006
1.9200129e-005
-2.0360458e-006
1.9268421e-005
-2.9315101e-006
1.9315552e-005
-4.2620795e-006
1.9284627e-005
-6.1116522e-006
1.9035165e-005
-8.5990036e-006
1.8348944e-005
-1.1542147e-005
1.6615054e-005
-1.4711209e-005
1.3266724e-005
-1.7036416e-005
6.9121731e-006
-1.771741e-005
-9.026475e-006
1.6006673e-005
-4.4028186e-006
1.6955029e-005
-5.0323392e-006
1.7617328e-005
-4.2980706e-006
1.8047929e-005
-3.4152844e-006
1.8306295e-005
-2.5739344e-006
1.8449501e-005
-1.858878e-006
1.8518207e-005
-1.3187631e-006
1.8544816e-005
-9.4756889e-007
1.8550069e-005
-7.1426219e-007
1.8544099e-005
-5.9130982e-007
1.8531734e-005
-5.6128332e-007
1.8513366e-005
-6.1253912e-007
1.8487833e-005
-7.5082449e-007
1.8450224e-005
-9.9323173e-007
1.83905e-005
-1.3723308e-006
1.8295738e-005
-1.9412838e-006
1.8133781e-005
-2.7695536e-006
1.7850019e-005
-3.9783178e-006
1.7360334e-005
-5.6219671e-006
1.648125e-005
-7.7199193e-006
1.5001088e-005
-1.0061985e-005
1.2509004e-005
-1.2219125e-005
8.7595683e-006
-1.328698e-005
3.4415929e-006
-1.2399435e-005
-5.5848821e-006
1.6154588e-005
-5.5535657e-006
1.7047749e-005
-5.9255005e-006
1.7566564e-005
-4.816885e-006
1.7830398e-005
-3.6791191e-006
1.7938584e-005
-2.6821202e-006
1.7959439e-005
-1.8797331e-006
1.7936366e-005
-1.2956897e-006
1.7893701e-005
-9.049041e-007
1.7845409e-005
-6.6597003e-007
1.7794688e-005
-5.405888e-007
1.7739701e-005
-5.0629645e-007
1.7675495e-005
-5.4833281e-007
1.7594235e-005
-6.695651e-007
1.7484205e-005
-8.8320187e-007
1.7326e-005
-1.2141253e-006
1.7094187e-005
-1.7094704e-006
1.6748195e-005
-2.4235619e-006
1.6210306e-005
-3.4404287e-006
1.538959e-005
-4.801251e-006
1.4124986e-005
-6.4553159e-006
1.2250998e-005
-8.1879966e-006
9.5831895e-006
-9.5513167e-006
6.1352148e-006
-9.8390055e-006
2.0951185e-006
-8.3593385e-006
-3.4897636e-006
1.6256298e-005
-6.8060223e-006
1.6952414e-005
-6.621617e-006
1.7204191e-005
-5.0686615e-006
1.7214452e-005
-3.6893807e-006
1.7120904e-005
-2.5885717e-006
1.6994067e-005
-1.7528967e-006
1.686986e-005
-1.1714822e-006
1.6758807e-005
-7.9385093e-007
1.6661838e-005
-5.6900161e-007
1.6573239e-005
-4.5199002e-007
1.6484245e-005
-4.1730242e-007
1.6384765e-005
-4.4885282e-007
1.6261323e-005
-5.4612285e-007
1.609669e-005
-7.1856835e-007
1.5868247e-005
-9.8568285e-007
1.5540049e-005
-1.3812721e-006
1.5066988e-005
-1.9505012e-006
1.4369192e-005
-2.7426321e-006
1.3352577e-005
-3.7846366e-006
1.1900939e-005
-5.0036776e-006
9.9122305e-006
-6.1992881e-006
7.3538482e-006
-6.9929343e-006
4.3810747e-006
-6.866232e-006
1.4059461e-006
-5.3842098e-006
-2.0838175e-006
1.6243786e-005
-8.0459671e-006
1.6537028e-005
-6.9148589e-006
1.6379896e-005
-4.9115299e-006
1.6060924e-005
-3.3704088e-006
1.5731494e-005
-2.2591412e-006
1.5451304e-005
-1.4727073e-006
1.5232454e-005
-9.5263224e-007
1.5063791e-005
-6.2518808e-007
1.4930256e-005
-4.3546604e-007
1.4816352e-005
-3.3808635e-007
1.4706539e-005
-3.0748943e-007
1.4586546e-005
-3.2886005e-007
1.4439745e-005
-3.993214e-007
1.4245906e-005
-5.2472928e-007
1.3980215e-005
-7.1999165e-007
1.3605141e-005
-1.0061988e-006
1.3071334e-005
-1.4166941e-006
1.2309133e-005
-1.980431e-006
1.1232581e-005
-2.7080846e-006
9.7646753e-006
-3.5357717e-006
7.8633962e-006
-4.298009e-006
5.5858352e-006
-4.7153732e-006
3.1536986e-006
-4.4340954e-006
9.8248315e-007
-3.2129943e-006
-1.1013343e-006
1.5996914e-005
-9.0390401e-006
1.5590617e-005
-6.5085623e-006
1.4898342e-005
-4.2192541e-006
1.4218626e-005
-2.6906929e-006
1.3666243e-005
-1.7067588e-006
1.326054e-005
-1.0670039e-006
1.2974562e-005
-6.666549e-007
1.2772226e-005
-4.2285201e-007
1.262225e-005
-2.854892e-007
1.2500505e-005
-2.1634155e-007
1.2386937e-005
-1.9392201e-007
1.22646e-005
-2.0652268e-007
1.2116092e-005
-2.5081323e-007
1.192157e-005
-3.302078e-007
1.1655206e-005
-4.5362762e-007
1.1283544e-005
-6.3453611e-007
1.0759125e-005
-8.9227592e-007
1.0023357e-005
-1.244663e-006
9.0075365e-006
-1.6922638e-006
7.6628329e-006
-2.191068e-006
5.9905092e-006
-2.6256852e-006
4.0887722e-006
-2.8136363e-006
2.1920052e-006
-2.5373283e-006
6.5185865e-007
-1.6728478e-006
-4.4947565e-007
1.5188472e-005
-9.223671e-006
1.3754224e-005
-5.0743147e-006
1.2492338e-005
-2.9573676e-006
1.1520102e-005
-1.7184569e-006
1.0835995e-005
-1.0226518e-006
1.0378307e-005
-6.0931591e-007
1.0077594e-005
-3.6594189e-007
9.8779977e-006
-2.2325588e-007
9.7380967e-006
-1.4558816e-007
9.6291173e-006
-1.0736221e-007
9.5301021e-006
-9.4906795e-008
9.4243651e-006
-1.0078575e-007
9.2963287e-006
-1.2277676e-007
9.1287447e-006
-1.6262384e-007
8.8993138e-006
-2.2419674e-007
8.5796817e-006
-3.1490396e-007
8.1310365e-006
-4.4363073e-007
7.5056957e-006
-6.1932215e-007
6.6544721e-006
-8.4104013e-007
5.54848e-006
-1.085076e-006
4.2113773e-006
-1.2885824e-006
2.7499537e-006
-1.3522127e-006
1.3776539e-006
-1.1650285e-006
3.715625e-007
-6.6675634e-007
-7.7913137e-008
1.3109988e-005
-7.3298185e-006
1.0572732e-005
-2.5370578e-006
8.8927517e-006
-1.2773878e-006
7.8432447e-006
-6.6894996e-007
7.1958147e-006
-3.752218e-007
6.7986039e-006
-2.1210509e-007
6.5542304e-006
-1.2156838e-007
6.4016419e-006
-7.0667456e-008
6.3000192e-006
-4.3965396e-008
6.223782e-006
-3.1125042e-008
6.1558233e-006
-2.6948114e-008
6.0835784e-006
-2.854089e-008
5.9958568e-006
-3.5055159e-008
5.8801782e-006
-4.6945247e-008
5.7212525e-006
-6.5271003e-008
5.4986492e-006
-9.2300655e-008
5.1857046e-006
-1.3068612e-007
4.749279e-006
-1.8289652e-007
4.1569827e-006
-2.4874384e-007
3.3922476e-006
-3.2034087e-007
2.480882e-006
-3.7721679e-007
1.5140379e-006
-3.8536855e-007
6.6017367e-007
-3.1116429e-007
1.2484361e-007
-1.3142626e-007
4.6930489e-008
7.6740224e-006
5.1369646e-006
3.8595769e-006
3.1906269e-006
2.8154051e-006
2.6033e-006
2.4817316e-006
2.4110642e-006
2.3670988e-006
2.3359737e-006
2.3090256e-006
2.2804847e-006
2.2454296e-006
2.1984843e-006
2.1332133e-006
2.0409127e-006
1.9102265e-006
1.72733e-006
1.4785862e-006
1.1582453e-006
7.8102856e-007
3.9566003e-007
8.4495752e-008
-4.6930488e-008
)
;

boundaryField
{
    inlet
    {
        type            calculated;
        value           nonuniform List<scalar> 
20
(
-5.0012803e-006
-5.0012803e-006
-5.0012803e-006
-5.0012803e-006
-5.0012803e-006
-5.0012803e-006
-5.0012803e-006
-5.0012803e-006
-5.0012803e-006
-5.0012803e-006
-1.5003841e-005
-1.5003841e-005
-1.5003841e-005
-1.5003841e-005
-1.5003841e-005
-1.5003841e-005
-1.5003841e-005
-1.5003841e-005
-1.5003841e-005
-1.5003841e-005
)
;
    }
    walls
    {
        type            calculated;
        value           uniform 0;
    }
    outlet
    {
        type            calculated;
        value           nonuniform List<scalar> 10(2.9839691e-005 2.9230281e-005 2.8015881e-005 2.6204366e-005 2.3805347e-005 2.0828104e-005 1.7279558e-005 1.3162545e-005 8.4747408e-006 3.210699e-006);
    }
    centreline
    {
        type            symmetryPlane;
        value           uniform 0;
    }
    frontAndBack
    {
        type            empty;
        value           nonuniform 0();
    }
}


// ************************************************************************* //
