/*--------------------------------*- C++ -*----------------------------------*\
| =========                 |                                                 |
| \\      /  F ield         | OpenFOAM: The Open Source CFD Toolbox           |
|  \\    /   O peration     | Version:  5.x                                   |
|   \\  /    A nd           | Web:      www.OpenFOAM.org                      |
|    \\/     M anipulation  |                                                 |
\*---------------------------------------------------------------------------*/
/*   Windows 32 and 64 bit porting by blueCAPE: http://www.bluecape.com.pt   *\
|  Based on Windows porting (2.0.x v4) by Symscape: http://www.symscape.com   |
\*---------------------------------------------------------------------------*/
FoamFile
{
    version     2.0;
    format      ascii;
    class       surfaceScalarField;
    location    "0.25";
    object      phi_0;
}
// * * * * * * * * * * * * * * * * * * * * * * * * * * * * * * * * * * * * * //

dimensions      [0 3 -1 0 0 0 0];

internalField   nonuniform List<scalar> 
1430
(
5.1695845e-006
-1.683042e-007
5.3834085e-006
-2.1382396e-007
5.5966826e-006
-2.132741e-007
5.7831317e-006
-1.8644912e-007
5.9406986e-006
-1.5756689e-007
6.0656872e-006
-1.2498856e-007
6.1635539e-006
-9.7866747e-008
6.2397805e-006
-7.6226534e-008
6.3014314e-006
-6.1650929e-008
6.3558766e-006
-5.4445185e-008
6.4098037e-006
-5.3927056e-008
6.4702157e-006
-6.0412021e-008
6.5456794e-006
-7.5463751e-008
6.647415e-006
-1.0173558e-007
6.7912952e-006
-1.4388022e-007
7.000153e-006
-2.0885779e-007
7.3111136e-006
-3.1096061e-007
7.7820111e-006
-4.7089748e-007
8.4948535e-006
-7.1284233e-007
9.5779727e-006
-1.0831192e-006
1.1165922e-005
-1.5879494e-006
1.3511565e-005
-2.345643e-006
1.6749583e-005
-3.238018e-006
2.0952048e-005
-4.2024647e-006
-4.8290752e-006
2.5781123e-005
5.1686071e-006
-3.3563095e-007
5.3869599e-006
-4.3217676e-007
5.5984903e-006
-4.248045e-007
5.7862188e-006
-3.7417759e-007
5.9431314e-006
-3.1447948e-007
6.067983e-006
-2.4984019e-007
6.1653595e-006
-1.9524317e-007
6.2411092e-006
-1.519762e-007
6.302339e-006
-1.2288073e-007
6.3563547e-006
-1.0846093e-007
6.4098047e-006
-1.07377e-007
6.4696566e-006
-1.2026392e-007
6.5443937e-006
-1.5020087e-007
6.6450788e-006
-2.0242067e-007
6.7874519e-006
-2.8625333e-007
6.9939989e-006
-4.1540478e-007
7.3011408e-006
-6.1810258e-007
7.7658297e-006
-9.3558637e-007
8.4690387e-006
-1.4160513e-006
9.5323923e-006
-2.1464728e-006
1.1100664e-005
-3.1562216e-006
1.3384555e-005
-4.6295336e-006
1.6590677e-005
-6.4441401e-006
2.0670175e-005
-8.2819626e-006
-9.6712592e-006
2.5512359e-005
5.170586e-006
-5.0493658e-007
5.3906076e-006
-6.5219836e-007
5.603656e-006
-6.3785296e-007
5.7916889e-006
-5.6221045e-007
5.9483123e-006
-4.7110287e-007
6.0724547e-006
-3.7398256e-007
6.1689472e-006
-2.9173574e-007
6.2437815e-006
-2.2681046e-007
6.3041685e-006
-1.832677e-007
6.3573403e-006
-1.6163276e-007
6.4098547e-006
-1.5989144e-007
6.4685726e-006
-1.7898176e-007
6.5418475e-006
-2.2347581e-007
6.6405169e-006
-3.0109004e-007
6.7798562e-006
-4.2559262e-007
6.9817421e-006
-6.1729064e-007
7.2814502e-006
-9.1781075e-007
7.7338741e-006
-1.3880102e-006
8.4166536e-006
-2.0988308e-006
9.4466883e-006
-3.1765075e-006
1.0960055e-005
-4.6695882e-006
1.3162344e-005
-6.8318222e-006
1.6236798e-005
-9.5185947e-006
2.0177504e-005
-1.2222668e-005
-1.4359631e-005
2.4865876e-005
5.173559e-006
-6.7721524e-007
5.3962629e-006
-8.7490228e-007
5.6114034e-006
-8.5299342e-007
5.7999205e-006
-7.5072754e-007
5.9561038e-006
-6.2728619e-007
6.0791461e-006
-4.9702489e-007
6.1742687e-006
-3.8685828e-007
6.2477661e-006
-3.0030783e-007
6.3069023e-006
-2.4240397e-007
6.3588016e-006
-2.1353201e-007
6.409916e-006
-2.1100589e-007
6.4669563e-006
-2.3602201e-007
6.5380504e-006
-2.9456995e-007
6.6337115e-006
-3.9675107e-007
6.7685656e-006
-5.6044673e-007
6.9635477e-006
-8.1227277e-007
7.2522475e-006
-1.2065106e-006
7.6866686e-006
-1.8224313e-006
8.3394845e-006
-2.7516466e-006
9.3199797e-006
-4.1570027e-006
1.0753297e-005
-6.1029056e-006
1.2832837e-005
-8.9113626e-006
1.5711706e-005
-1.2397464e-005
1.9435894e-005
-1.5946856e-005
-1.8795305e-005
2.3871567e-005
5.1776928e-006
-8.5362775e-007
5.4039404e-006
-1.1011498e-006
5.6217759e-006
-1.0708289e-006
5.8108677e-006
-9.3981934e-007
5.9664299e-006
-7.8284836e-007
6.0879681e-006
-6.1856318e-007
6.1812399e-006
-4.8012999e-007
6.2529749e-006
-3.7204288e-007
6.3104559e-006
-2.9988497e-007
6.3606476e-006
-2.637237e-007
6.4099103e-006
-2.6026863e-007
6.4647564e-006
-2.9086803e-007
6.5329732e-006
-3.6278682e-007
6.6246738e-006
-4.8845163e-007
6.7536572e-006
-6.8943011e-007
6.939622e-006
-9.9823755e-007
7.2139816e-006
-1.4808703e-006
7.6250419e-006
-2.2334916e-006
8.2388118e-006
-3.3654165e-006
9.1550037e-006
-5.0731946e-006
1.0482696e-005
-7.4305978e-006
1.2399029e-005
-1.0827695e-005
1.5024542e-005
-1.5022977e-005
1.8456264e-005
-1.9378578e-005
-2.2859337e-005
2.2520297e-005
5.1831294e-006
-1.0354768e-006
5.4136921e-006
-1.3317125e-006
5.6347823e-006
-1.2919191e-006
5.8244769e-006
-1.129514e-006
5.9791736e-006
-9.3754503e-007
6.0987698e-006
-7.3815941e-007
6.1897126e-006
-5.7107277e-007
6.2592593e-006
-4.4158961e-007
6.3146782e-006
-3.5530379e-007
6.3627312e-006
-3.1177677e-007
6.4096958e-006
-3.0723325e-007
6.4618577e-006
-3.4302988e-007
6.5265407e-006
-4.2746977e-007
6.6133593e-006
-5.7527025e-007
6.7351457e-006
-8.112165e-007
6.9101141e-006
-1.173206e-006
7.1669921e-006
-1.7377483e-006
7.5496842e-006
-2.6161837e-006
8.1162445e-006
-3.9319768e-006
8.954313e-006
-5.9112631e-006
1.0151807e-005
-8.6280914e-006
1.1867952e-005
-1.2543841e-005
1.4175229e-005
-1.7330254e-005
1.7225664e-005
-2.2429013e-005
-2.6458782e-005
2.0825109e-005
5.1900119e-006
-1.2242084e-006
5.4255488e-006
-1.5672493e-006
5.6503601e-006
-1.5167304e-006
5.8405993e-006
-1.3197532e-006
5.994114e-006
-1.0910597e-006
6.1113093e-006
-8.5535472e-007
6.1994477e-006
-6.5921117e-007
6.2663653e-006
-5.0850725e-007
6.3193115e-006
-4.0824991e-007
6.3647917e-006
-3.5725705e-007
6.4090344e-006
-3.5147589e-007
6.4580594e-006
-3.9205485e-007
6.5185864e-006
-4.8799684e-007
6.599661e-006
-6.5634484e-007
6.7130096e-006
-9.2456509e-007
6.8751449e-006
-1.3353413e-006
7.1116949e-006
-1.9742983e-006
7.461568e-006
-2.9660568e-006
7.9736196e-006
-4.4440284e-006
8.7209011e-006
-6.6585446e-006
9.7661071e-006
-9.6732974e-006
1.1244577e-005
-1.4022311e-005
1.3154953e-005
-1.9240629e-005
1.5763733e-005
-2.5037793e-005
-2.9430094e-005
1.8735044e-005
5.1985015e-006
-1.4214296e-006
5.4394645e-006
-1.8082123e-006
5.6683503e-006
-1.7456162e-006
5.8589673e-006
-1.5103702e-006
6.0108797e-006
-1.2429721e-006
6.1251934e-006
-9.6966839e-007
6.2100702e-006
-7.4408801e-007
6.2739081e-006
-5.7234512e-007
6.3239568e-006
-4.5829859e-007
6.3664635e-006
-3.9976373e-007
6.4075747e-006
-3.9258716e-007
6.4530086e-006
-4.3748874e-007
6.5088304e-006
-5.4381863e-007
6.5833916e-006
-7.3090609e-007
6.6871516e-006
-1.028325e-006
6.8348165e-006
-1.4830062e-006
7.0486488e-006
-2.1881305e-006
7.3618304e-006
-3.2792384e-006
7.8131848e-006
-4.8953828e-006
8.4591782e-006
-7.3045379e-006
9.3325964e-006
-1.0546716e-005
1.0538159e-005
-1.5227874e-005
1.2009315e-005
-2.0711785e-005
1.4129802e-005
-2.715828e-005
-3.1436e-005
1.6135708e-005
5.2088279e-006
-1.6289771e-006
5.4552741e-006
-2.0546585e-006
5.6885453e-006
-1.9788873e-006
5.8792044e-006
-1.7010293e-006
6.0289591e-006
-1.3927268e-006
6.1398828e-006
-1.0805921e-006
6.2210319e-006
-8.2523712e-007
6.2813452e-006
-6.3265846e-007
6.3280468e-006
-5.0500017e-007
6.3672032e-006
-4.3892011e-007
6.4048248e-006
-4.3020879e-007
6.4462404e-006
-4.789043e-007
6.4968665e-006
-5.9444475e-007
6.5642304e-006
-7.9826993e-007
6.6574129e-006
-1.1215076e-006
6.7892317e-006
-1.6148249e-006
6.978461e-006
-2.3773598e-006
7.2518206e-006
-3.552598e-006
7.6374188e-006
-5.2809811e-006
8.1748136e-006
-7.8419326e-006
8.8613747e-006
-1.1233277e-005
9.7699498e-006
-1.6136449e-005
1.0762641e-005
-2.1704477e-005
1.2346198e-005
-2.8741837e-005
-3.2085633e-005
1.2995832e-005
5.2197512e-006
-1.847448e-006
5.4738914e-006
-2.3087987e-006
5.710299e-006
-2.2152949e-006
5.9008789e-006
-1.8916092e-006
6.0476224e-006
-1.5394703e-006
6.1546563e-006
-1.1876259e-006
6.2316259e-006
-9.0220668e-007
6.2879628e-006
-6.8899541e-007
6.3308675e-006
-5.4790477e-007
6.36632e-006
-4.7437263e-007
6.4001134e-006
-4.6400216e-007
6.4371568e-006
-5.1594778e-007
6.4821885e-006
-6.394764e-007
6.5417236e-006
-8.5780502e-007
6.6234903e-006
-1.2032743e-006
6.738391e-006
-1.7297256e-006
6.9014291e-006
-2.540398e-006
7.1324706e-006
-3.7836395e-006
7.4493238e-006
-5.5978343e-006
7.872706e-006
-8.2653148e-006
8.3725081e-006
-1.1733079e-005
8.9472241e-006
-1.6711165e-005
9.4062707e-006
-2.2163523e-005
1.0141231e-005
-2.9476797e-005
8.8082995e-006
-3.0752702e-005
2.8507187e-005
-2.7260638e-006
2.9533465e-005
-1.0262787e-006
2.9781105e-005
-2.4763955e-007
2.9833867e-005
-5.2761954e-008
2.9839843e-005
-5.9764161e-009
2.9836743e-005
3.1001157e-009
2.9839286e-005
-2.5426142e-009
2.9841812e-005
-2.5261367e-009
2.9842608e-005
-7.9650559e-010
2.9841999e-005
6.0953334e-010
2.984116e-005
8.3915159e-010
2.984067e-005
4.9006934e-010
2.9840562e-005
1.0799365e-010
2.9840606e-005
-4.4472868e-011
2.9840652e-005
-4.6015208e-011
2.9840666e-005
-1.3531839e-011
2.9840663e-005
2.9744778e-012
2.9840659e-005
3.9948107e-012
2.9840658e-005
1.0165868e-012
2.9840658e-005
-3.9666768e-013
2.9840658e-005
-4.3020032e-013
2.9840659e-005
-1.263935e-013
2.9840658e-005
1.9596993e-013
2.9840657e-005
9.3668993e-013
8.1761343e-013
2.8008623e-005
-5.222328e-006
2.8978804e-005
-1.9964592e-006
2.9188874e-005
-4.5771023e-007
2.9235003e-005
-9.8890971e-008
2.9230763e-005
-1.736431e-009
2.9227876e-005
5.9870892e-009
2.9229571e-005
-4.2378177e-009
2.9232129e-005
-5.0833677e-009
2.9232838e-005
-1.5064771e-009
2.9232326e-005
1.1219227e-009
2.9231575e-005
1.5904225e-009
2.9231148e-005
9.1688889e-010
2.9231057e-005
1.9867746e-010
2.9231101e-005
-8.7701198e-011
2.9231141e-005
-8.6848547e-011
2.9231152e-005
-2.4569586e-011
2.9231149e-005
6.0424948e-012
2.9231146e-005
7.455259e-012
2.9231145e-005
1.827154e-012
2.9231145e-005
-7.6974519e-013
2.9231146e-005
-7.9818019e-013
2.9231146e-005
-2.0922148e-013
2.9231146e-005
4.0383392e-013
2.9231145e-005
1.6587406e-012
1.4633824e-012
2.7053161e-005
-7.4096134e-006
2.7855444e-005
-2.7987419e-006
2.8017655e-005
-6.1992173e-007
2.8024156e-005
-1.0539158e-007
2.8012414e-005
1.0005946e-008
2.8012937e-005
5.463425e-009
2.8015205e-005
-6.5051885e-009
2.8017292e-005
-7.1711714e-009
2.8017798e-005
-2.0122404e-009
2.8017392e-005
1.5280805e-009
2.8016819e-005
2.1633987e-009
2.8016517e-005
1.2185608e-009
2.8016468e-005
2.4810176e-010
2.8016506e-005
-1.2612699e-010
2.8016536e-005
-1.1687314e-010
2.8016543e-005
-3.1090216e-011
2.801654e-005
9.0139154e-012
2.8016537e-005
9.9396028e-012
2.8016537e-005
2.2448331e-012
2.8016537e-005
-1.0960678e-012
2.8016538e-005
-1.0419961e-012
2.8016538e-005
-2.1808573e-013
2.8016537e-005
6.0073947e-013
2.8016537e-005
2.079055e-012
1.8006931e-012
2.5625312e-005
-9.1633579e-006
2.6176522e-005
-3.3499521e-006
2.6233997e-005
-6.7739721e-007
2.6209899e-005
-8.129268e-008
2.6200285e-005
1.9619753e-008
2.6202878e-005
2.8705821e-009
2.620438e-005
-8.007617e-009
2.6205287e-005
-8.0777412e-009
2.6205393e-005
-2.118983e-009
2.6205106e-005
1.815619e-009
2.620479e-005
2.4786523e-009
2.620467e-005
1.3391091e-009
2.6204673e-005
2.4521076e-010
2.6204701e-005
-1.5442124e-010
2.6204715e-005
-1.3082254e-010
2.6204716e-005
-3.1784512e-011
2.6204713e-005
1.1468459e-011
2.6204712e-005
1.1028527e-011
2.6204712e-005
2.1909471e-012
2.6204712e-005
-1.3369186e-012
2.6204713e-005
-1.1221374e-012
2.6204712e-005
-1.5574899e-013
2.6204712e-005
7.6101648e-013
2.6204712e-005
2.1729741e-012
1.810021e-012
2.3703771e-005
-1.0346832e-005
2.389574e-005
-3.5419217e-006
2.3832507e-005
-6.1416353e-007
2.3811576e-005
-6.03624e-008
2.3806246e-005
2.4949849e-008
2.3806736e-005
2.3805814e-009
2.3806115e-005
-7.3863772e-009
2.3805626e-005
-7.5893317e-009
2.3805293e-005
-1.7859785e-009
2.3805172e-005
1.9372722e-009
2.3805183e-005
2.4671082e-009
2.3805267e-005
1.2558866e-009
2.3805317e-005
1.9449107e-010
2.3805328e-005
-1.6558638e-010
2.3805323e-005
-1.2581565e-010
2.3805318e-005
-2.679971e-011
2.3805317e-005
1.270289e-011
2.3805318e-005
1.0498842e-011
2.3805318e-005
1.7170281e-012
2.3805318e-005
-1.4330525e-012
2.3805318e-005
-1.0441332e-012
2.3805318e-005
-4.7329082e-014
2.3805318e-005
8.6076003e-013
2.3805318e-005
1.9703346e-012
1.5489736e-012
2.1227844e-005
-1.0749567e-005
2.0983094e-005
-3.2971715e-006
2.0848945e-005
-4.8001432e-007
2.0834878e-005
-4.6295352e-008
2.0832109e-005
2.7719167e-008
2.0831153e-005
3.3361937e-009
2.0829157e-005
-5.3901162e-009
2.0827566e-005
-5.9982739e-009
2.0826933e-005
-1.1529995e-009
2.0827049e-005
1.820413e-009
2.0827407e-005
2.1099064e-009
2.0827665e-005
9.9750537e-010
2.0827742e-005
1.1764403e-010
2.082773e-005
-1.5337439e-010
2.0827707e-005
-1.0317203e-010
2.0827698e-005
-1.8205133e-011
2.0827699e-005
1.2063413e-011
2.0827701e-005
8.5095311e-012
2.0827702e-005
1.024175e-012
2.0827702e-005
-1.3265175e-012
2.0827701e-005
-8.3297148e-013
2.0827701e-005
5.9124943e-014
2.0827701e-005
8.6316105e-013
2.0827702e-005
1.5623577e-012
1.1301719e-012
1.8104398e-005
-1.0118921e-005
1.7454174e-005
-2.6469474e-006
1.7298724e-005
-3.2456436e-007
1.7284189e-005
-3.17601e-008
1.7283693e-005
2.8214374e-008
1.7282932e-005
4.0974594e-009
1.7280381e-005
-2.8386255e-009
1.7278188e-005
-3.8056826e-009
1.7277512e-005
-4.766195e-010
1.7277906e-005
1.4259123e-009
1.7278527e-005
1.4890737e-009
1.727888e-005
6.4445029e-010
1.7278952e-005
4.5246483e-011
1.7278916e-005
-1.1728057e-010
1.7278883e-005
-6.9336596e-011
1.7278874e-005
-9.2566424e-012
1.7278876e-005
9.395151e-012
1.7278879e-005
5.6382223e-012
1.727888e-005
3.7948845e-013
1.7278879e-005
-1.0153045e-012
1.7278879e-005
-5.4238075e-013
1.7278879e-005
1.1715639e-013
1.7278879e-005
7.3844111e-013
1.727888e-005
1.0696985e-012
6.9187895e-013
1.4239586e-005
-8.2227992e-006
1.3326186e-005
-1.7335469e-006
1.3175719e-005
-1.7409736e-007
1.3158877e-005
-1.4918203e-008
1.3164078e-005
2.3012891e-008
1.3164795e-005
3.3805251e-009
1.3162697e-005
-7.4027297e-010
1.3160616e-005
-1.7251619e-009
1.3160168e-005
-2.8191451e-011
1.3160764e-005
8.298191e-010
1.3161469e-005
7.8434633e-010
1.3161809e-005
3.0438897e-010
1.3161853e-005
1.5389706e-012
1.3161802e-005
-6.6984682e-011
1.3161767e-005
-3.4553538e-011
1.3161761e-005
-2.874849e-012
1.3161765e-005
5.4186049e-012
1.3161768e-005
2.747962e-012
1.3161768e-005
-2.3834075e-015
1.3161768e-005
-5.860965e-013
1.3161768e-005
-2.629004e-013
1.3161768e-005
1.0965004e-013
1.3161768e-005
5.0236428e-013
1.3161768e-005
5.9986524e-013
3.3977372e-013
9.6114923e-006
-4.8384599e-006
8.5986214e-006
-7.2067596e-007
8.4720084e-006
-4.7484391e-008
8.4613466e-006
-4.2564049e-009
8.4730572e-006
1.1302258e-008
8.475244e-006
1.1937266e-009
8.4742346e-006
2.6907936e-010
8.4729039e-006
-3.9438658e-010
8.472788e-006
8.7682641e-011
8.4733566e-006
2.6118017e-010
8.4739168e-006
2.2412949e-010
8.474148e-006
7.3171251e-011
8.4741572e-006
-7.6444251e-012
8.4741112e-006
-2.1008977e-011
8.4740859e-006
-9.1816336e-012
8.4740831e-006
-1.6165741e-013
8.4740869e-006
1.6889899e-012
8.4740889e-006
6.9412927e-013
8.474089e-006
-7.6807182e-014
8.4740886e-006
-1.905427e-013
8.4740884e-006
-7.0987118e-014
8.4740884e-006
4.8328251e-014
8.4740887e-006
2.0667397e-013
8.4740891e-006
2.192873e-013
1.0910564e-013
3.9698396e-006
3.2491636e-006
3.2016792e-006
3.1974228e-006
3.2087251e-006
3.2099188e-006
3.2101879e-006
3.2097935e-006
3.2098811e-006
3.2101423e-006
3.2103665e-006
3.2104396e-006
3.210432e-006
3.210411e-006
3.2104018e-006
3.2104016e-006
3.2104033e-006
3.210404e-006
3.2104039e-006
3.2104037e-006
3.2104036e-006
3.2104037e-006
3.2104039e-006
3.2104041e-006
1.5708491e-005
-2.5520984e-006
1.6562745e-005
-3.1630524e-006
1.7268351e-005
-2.9209002e-006
1.7836232e-005
-2.4594908e-006
1.8253466e-005
-1.9567044e-006
1.8547542e-005
-1.4817012e-006
1.8750298e-005
-1.1049627e-006
1.8892441e-005
-8.3113893e-007
1.8995988e-005
-6.5145183e-007
1.9078551e-005
-5.5693486e-007
1.9154989e-005
-5.4044072e-007
1.9237515e-005
-5.9847364e-007
1.9336959e-005
-7.3892028e-007
1.9465049e-005
-9.8589551e-007
1.9638338e-005
-1.3765633e-006
1.9876963e-005
-1.9683505e-006
2.0199531e-005
-2.8629656e-006
2.0630513e-005
-4.214622e-006
2.1175083e-005
-6.142404e-006
2.1758627e-005
-8.8488582e-006
2.2255234e-005
-1.2229686e-005
2.199141e-005
-1.6447341e-005
2.0215309e-005
-2.0387422e-005
1.4812836e-005
-2.4074324e-005
-1.5939866e-005
1.5849952e-005
-3.3982098e-006
1.6769116e-005
-4.0822165e-006
1.7482391e-005
-3.634175e-006
1.8006143e-005
-2.9832428e-006
1.8363776e-005
-2.3143375e-006
1.8596779e-005
-1.7147042e-006
1.8741179e-005
-1.2493629e-006
1.8830557e-005
-9.2051678e-007
1.8887859e-005
-7.0875344e-007
1.8928077e-005
-5.9715323e-007
1.896124e-005
-5.7360348e-007
1.8993677e-005
-6.3091015e-007
1.9031141e-005
-7.7638502e-007
1.9076115e-005
-1.0308696e-006
1.9131609e-005
-1.4320571e-006
1.9199228e-005
-2.0359697e-006
1.9267574e-005
-2.9313111e-006
1.931477e-005
-4.2618178e-006
1.9283938e-005
-6.1115725e-006
1.9034598e-005
-8.5995183e-006
1.8348509e-005
-1.1543598e-005
1.6614739e-005
-1.4713571e-005
1.3266502e-005
-1.7039186e-005
6.9120393e-006
-1.7719861e-005
-9.0278267e-006
1.6006541e-005
-4.4009101e-006
1.6954913e-005
-5.0305887e-006
1.7617247e-005
-4.2965087e-006
1.8047867e-005
-3.4138624e-006
1.8306237e-005
-2.572708e-006
1.8449436e-005
-1.8579028e-006
1.8518128e-005
-1.3180551e-006
1.8544735e-005
-9.4712339e-007
1.8550001e-005
-7.1401927e-007
1.8544051e-005
-5.912039e-007
1.8531707e-005
-5.6125899e-007
1.851336e-005
-6.1256344e-007
1.8487849e-005
-7.5087357e-007
1.8450266e-005
-9.9328644e-007
1.8390574e-005
-1.3723656e-006
1.8295859e-005
-1.9412547e-006
1.8133971e-005
-2.7694227e-006
1.785029e-005
-3.9781374e-006
1.7360693e-005
-5.6219757e-006
1.6481686e-005
-7.7205113e-006
1.5001535e-005
-1.0063446e-005
1.2509357e-005
-1.2221393e-005
8.7597637e-006
-1.3289592e-005
3.44163e-006
-1.2401727e-005
-5.5861966e-006
1.6154676e-005
-5.5517449e-006
1.7048036e-005
-5.9239488e-006
1.7567032e-005
-4.8155045e-006
1.7831024e-005
-3.6778542e-006
1.7939333e-005
-2.6810172e-006
1.7960271e-005
-1.8788414e-006
1.7937252e-005
-1.295036e-006
1.7894625e-005
-9.0449661e-007
1.7846365e-005
-6.6575861e-007
1.7795669e-005
-5.4050865e-007
1.7740702e-005
-5.0629191e-007
1.7676512e-005
-5.483734e-007
1.7595267e-005
-6.6962817e-007
1.7485253e-005
-8.8327208e-007
1.7327072e-005
-1.2141854e-006
1.7095299e-005
-1.7094813e-006
1.6749368e-005
-2.4234919e-006
1.6211556e-005
-3.4403253e-006
1.5390897e-005
-4.8013167e-006
1.4126272e-005
-6.4558863e-006
1.2252155e-005
-8.1893289e-006
9.5840859e-006
-9.5533237e-006
6.1357603e-006
-9.8412668e-006
2.0953153e-006
-8.3612822e-006
-3.4908813e-006
1.6256586e-005
-6.8044898e-006
1.6953005e-005
-6.6203682e-006
1.7205048e-005
-5.0675473e-006
1.7215558e-005
-3.6883641e-006
1.7122224e-005
-2.5876835e-006
1.6995554e-005
-1.7521709e-006
1.6871461e-005
-1.1709437e-006
1.6760478e-005
-7.9351303e-007
1.6663552e-005
-5.6883271e-007
1.6574979e-005
-4.5193632e-007
1.6486001e-005
-4.1731345e-007
1.6386528e-005
-4.4890075e-007
1.6263091e-005
-5.4619099e-007
1.6098462e-005
-7.1864258e-007
1.5870028e-005
-9.857519e-007
1.5541852e-005
-1.3813055e-006
1.5068832e-005
-1.9504714e-006
1.4371085e-005
-2.7425786e-006
1.3354489e-005
-3.7847203e-006
1.190276e-005
-5.0041573e-006
9.9138059e-006
-6.200375e-006
7.3550397e-006
-6.9945575e-006
4.3818059e-006
-6.868033e-006
1.4062333e-006
-5.3857096e-006
-2.084648e-006
1.6244183e-005
-8.0448319e-006
1.6537755e-005
-6.9139405e-006
1.6380916e-005
-4.9107077e-006
1.6062225e-005
-3.3696732e-006
1.5733052e-005
-2.2585109e-006
1.545307e-005
-1.4721884e-006
1.5234366e-005
-9.5223978e-007
1.5065794e-005
-6.2494131e-007
1.4932308e-005
-4.3534685e-007
1.4818428e-005
-3.3805628e-007
1.4708624e-005
-3.0750936e-007
1.458863e-005
-3.2890662e-007
1.4441822e-005
-3.99383e-007
1.4247975e-005
-5.2479588e-007
1.3982278e-005
-7.2005443e-007
1.360721e-005
-1.0062374e-006
1.3073426e-005
-1.4166876e-006
1.2311252e-005
-1.9804048e-006
1.1234684e-005
-2.7081526e-006
9.7666467e-006
-3.5361196e-006
7.8650632e-006
-4.2987916e-006
5.5870615e-006
-4.7165557e-006
3.1544352e-006
-4.4354067e-006
9.8277194e-007
-3.2140463e-006
-1.1018761e-006
1.599733e-005
-9.0383214e-006
1.5591348e-005
-6.5079578e-006
1.4899349e-005
-4.218709e-006
1.4219901e-005
-2.6902254e-006
1.3667763e-005
-1.706373e-006
1.3262261e-005
-1.0666859e-006
1.2976432e-005
-6.6641099e-007
1.277419e-005
-4.2269952e-007
1.2624262e-005
-2.8541902e-007
1.2502536e-005
-2.1632977e-007
1.2388969e-005
-1.9394294e-007
1.2266623e-005
-2.0656028e-007
1.2118099e-005
-2.5085948e-007
1.1923562e-005
-3.3025816e-007
1.1657183e-005
-4.5367537e-007
1.1285513e-005
-6.3456784e-007
1.0761105e-005
-8.9227986e-007
1.0025351e-005
-1.2446506e-006
9.0095051e-006
-1.6923064e-006
7.6646668e-006
-2.1912813e-006
5.9920431e-006
-2.6261678e-006
4.0898783e-006
-2.8143908e-006
2.1926457e-006
-2.538174e-006
6.5209753e-007
-1.6734982e-006
-4.4977851e-007
1.5188834e-005
-9.2233146e-006
1.3754863e-005
-5.0739862e-006
1.2493227e-005
-2.9570732e-006
1.152122e-005
-1.7182184e-006
1.0837312e-005
-1.0224649e-006
1.0379788e-005
-6.0916177e-007
1.00792e-005
-3.6582363e-007
9.8796848e-006
-2.2318407e-007
9.7398236e-006
-1.4555777e-007
9.6308552e-006
-1.0736137e-007
9.5318345e-006
-9.4922327e-008
9.4260834e-006
-1.0080913e-007
9.298028e-006
-1.2280413e-007
9.1304236e-006
-1.6265378e-007
8.9009736e-006
-2.2422527e-007
8.5813296e-006
-3.1492385e-007
8.1326861e-006
-4.4363636e-007
7.5073517e-006
-6.1931619e-007
6.6561027e-006
-8.4105737e-007
5.5499977e-006
-1.0851762e-006
4.2126496e-006
-1.2888197e-006
2.7508578e-006
-1.352599e-006
1.3781551e-006
-1.1654713e-006
3.7173612e-007
-6.6707918e-007
-7.8042376e-008
1.3110242e-005
-7.3297161e-006
1.0573205e-005
-2.5369488e-006
8.8934234e-006
-1.2772917e-006
7.8440843e-006
-6.6887928e-007
7.1967877e-006
-3.7516837e-007
6.7996883e-006
-2.1206239e-007
6.5554013e-006
-1.2153655e-007
6.4028667e-006
-7.0649501e-008
6.3012683e-006
-4.3959359e-008
6.2250343e-006
-3.1127444e-008
6.1570671e-006
-2.6955136e-008
6.0848079e-006
-2.8549926e-008
5.9970691e-006
-3.5065306e-008
5.8813717e-006
-4.6956347e-008
5.7224279e-006
-6.5281488e-008
5.4998125e-006
-9.2308493e-008
5.1868653e-006
-1.3068912e-007
4.7504433e-006
-1.8289418e-007
4.1581319e-006
-2.4874596e-007
3.393322e-006
-3.2036633e-007
2.4817886e-006
-3.7728616e-007
1.5146754e-006
-3.8548586e-007
6.6050765e-007
-3.1130344e-007
1.2494479e-007
-1.315163e-007
4.6902436e-008
7.6741249e-006
5.1371761e-006
3.8598844e-006
3.1910052e-006
2.8158368e-006
2.6037744e-006
2.4822378e-006
2.4115883e-006
2.367629e-006
2.3365015e-006
2.3095464e-006
2.2809965e-006
2.2459312e-006
2.1989748e-006
2.1336933e-006
2.0413848e-006
1.9106957e-006
1.7278016e-006
1.4790556e-006
1.1586893e-006
7.8140313e-007
3.9591727e-007
8.4613848e-008
-4.6902435e-008
)
;

boundaryField
{
    inlet
    {
        type            calculated;
        value           nonuniform List<scalar> 
20
(
-5.0012803e-006
-5.0012803e-006
-5.0012803e-006
-5.0012803e-006
-5.0012803e-006
-5.0012803e-006
-5.0012803e-006
-5.0012803e-006
-5.0012803e-006
-5.0012803e-006
-1.5003841e-005
-1.5003841e-005
-1.5003841e-005
-1.5003841e-005
-1.5003841e-005
-1.5003841e-005
-1.5003841e-005
-1.5003841e-005
-1.5003841e-005
-1.5003841e-005
)
;
    }
    walls
    {
        type            calculated;
        value           uniform 0;
    }
    outlet
    {
        type            calculated;
        value           nonuniform List<scalar> 10(2.9840657e-005 2.9231144e-005 2.8016537e-005 2.6204712e-005 2.3805318e-005 2.0827702e-005 1.727888e-005 1.3161769e-005 8.4740894e-006 3.2104042e-006);
    }
    centreline
    {
        type            symmetryPlane;
        value           uniform 0;
    }
    frontAndBack
    {
        type            empty;
        value           nonuniform 0();
    }
}


// ************************************************************************* //
