/*--------------------------------*- C++ -*----------------------------------*\
| =========                 |                                                 |
| \\      /  F ield         | OpenFOAM: The Open Source CFD Toolbox           |
|  \\    /   O peration     | Version:  5.x                                   |
|   \\  /    A nd           | Web:      www.OpenFOAM.org                      |
|    \\/     M anipulation  |                                                 |
\*---------------------------------------------------------------------------*/
/*   Windows 32 and 64 bit porting by blueCAPE: http://www.bluecape.com.pt   *\
|  Based on Windows porting (2.0.x v4) by Symscape: http://www.symscape.com   |
\*---------------------------------------------------------------------------*/
FoamFile
{
    version     2.0;
    format      ascii;
    class       volSymmTensorField;
    location    "0.25";
    object      sigma;
}
// * * * * * * * * * * * * * * * * * * * * * * * * * * * * * * * * * * * * * //

dimensions      [0 2 -2 0 0 0 0];

internalField   nonuniform List<symmTensor> 
750
(
(-0.00043647214 2.915661e-005 0 0.00042333907 0 0)
(-0.00057445318 3.2745489e-006 0 0.00057954588 0 0)
(-0.00060636068 -6.8205899e-006 0 0.0005878602 0 0)
(-0.00052707057 -1.144476e-005 0 0.00052344275 0 0)
(-0.00044524684 -1.190439e-005 0 0.00043831391 0 0)
(-0.00036133537 -1.1268813e-005 0 0.00035826617 0 0)
(-0.00027914596 -9.1263017e-006 0 0.0002767132 0 0)
(-0.00022218218 -6.9535412e-006 0 0.00022091942 0 0)
(-0.00017989151 -4.3827415e-006 0 0.0001790451 0 0)
(-0.00015974381 -1.925695e-006 0 0.0001590252 0 0)
(-0.00015897524 3.76832e-007 0 0.00015823397 0 0)
(-0.00017874057 3.235906e-006 0 0.00017789689 0 0)
(-0.00022163237 6.7953337e-006 0 0.00022033666 0 0)
(-0.000294313 1.1394152e-005 0 0.00029173694 0 0)
(-0.0004171707 1.8374639e-005 0 0.0004124355 0 0)
(-0.00060147948 2.8811151e-005 0 0.00059176383 0 0)
(-0.00088765234 4.5034412e-005 0 0.00086590735 0 0)
(-0.0013447891 7.0819639e-005 0 0.0012962432 0 0)
(-0.002061795 0.00011371253 0 0.001954079 0 0)
(-0.0031632039 0.00017425082 0 0.0028962566 0 0)
(-0.004812883 0.00027354377 0 0.0042753642 0 0)
(-0.0072273181 0.00040667941 0 0.0059438446 0 0)
(-0.010425271 0.00056037169 0 0.0081949967 0 0)
(-0.014174388 0.0008062721 0 0.0099803626 0 0)
(-0.017639147 0.00059045308 0 0.011866393 0 0)
(-0.00043932775 8.792891e-005 0 0.00042303397 0 0)
(-0.00057582625 9.9469325e-006 0 0.00058626359 0 0)
(-0.00060845356 -2.1071695e-005 0 0.00058678851 0 0)
(-0.00052728582 -3.4162257e-005 0 0.00052505133 0 0)
(-0.00044572776 -3.5961841e-005 0 0.00043796888 0 0)
(-0.00035973333 -3.3772157e-005 0 0.00035695977 0 0)
(-0.00027752675 -2.7246044e-005 0 0.00027507335 0 0)
(-0.00022157793 -2.0744775e-005 0 0.00022004337 0 0)
(-0.0001788061 -1.3112456e-005 0 0.00017786004 0 0)
(-0.00015859524 -5.7341961e-006 0 0.00015777963 0 0)
(-0.00015766635 1.2093516e-006 0 0.00015683213 0 0)
(-0.00017709106 9.7217741e-006 0 0.0001761529 0 0)
(-0.00021955782 2.0340378e-005 0 0.00021812664 0 0)
(-0.00029126351 3.4054299e-005 0 0.0002884532 0 0)
(-0.00041303663 5.4904423e-005 0 0.00040798944 0 0)
(-0.00059506788 8.5811847e-005 0 0.00058486918 0 0)
(-0.00087705566 0.00013379159 0 0.00085439449 0 0)
(-0.0013276725 0.00021008225 0 0.0012777809 0 0)
(-0.0020340973 0.00033609586 0 0.0019246249 0 0)
(-0.0031111074 0.00050556568 0 0.002840079 0 0)
(-0.0047428903 0.00082107566 0 0.0042072544 0 0)
(-0.007081231 0.0011553341 0 0.005785482 0 0)
(-0.01027783 0.0016741453 0 0.0080787636 0 0)
(-0.013974791 0.002495399 0 0.0096568987 0 0)
(-0.017266994 0.0018196184 0 0.01173999 0 0)
(-0.00044374541 0.0001472932 0 0.00042563724 0 0)
(-0.00057994761 1.6016129e-005 0 0.00059228717 0 0)
(-0.0006123185 -3.615783e-005 0 0.00058916309 0 0)
(-0.00052855461 -5.7008757e-005 0 0.00052664194 0 0)
(-0.0004451027 -6.0491327e-005 0 0.00043716537 0 0)
(-0.00035792812 -5.6721614e-005 0 0.00035520288 0 0)
(-0.00027509128 -4.5503407e-005 0 0.00027267952 0 0)
(-0.00021921884 -3.4645021e-005 0 0.00021775786 0 0)
(-0.00017645698 -2.2073667e-005 0 0.00017559284 0 0)
(-0.00015622409 -9.8155041e-006 0 0.00015549296 0 0)
(-0.00015496686 1.7975209e-006 0 0.00015421876 0 0)
(-0.00017397857 1.5963099e-005 0 0.00017314437 0 0)
(-0.00021542862 3.3451056e-005 0 0.0002141331 0 0)
(-0.00028537815 5.6137627e-005 0 0.00028272792 0 0)
(-0.00040468501 9.0674306e-005 0 0.00039990392 0 0)
(-0.00058217089 0.0001415211 0 0.0005723766 0 0)
(-0.00085639774 0.00022042163 0 0.00083433767 0 0)
(-0.0012940091 0.00034604641 0 0.0012453055 0 0)
(-0.0019780875 0.00055040983 0 0.001871061 0 0)
(-0.0030133151 0.00083909692 0 0.002746173 0 0)
(-0.0045905757 0.0013354702 0 0.0040674411 0 0)
(-0.0068274346 0.0019336288 0 0.0055465394 0 0)
(-0.0099035393 0.0027834552 0 0.0077620675 0 0)
(-0.013763732 0.0040497454 0 0.0092412362 0 0)
(-0.016475084 0.0029634559 0 0.011353001 0 0)
(-0.00045037351 0.00020714994 0 0.00043144081 0 0)
(-0.00058666907 2.1408039e-005 0 0.00059893962 0 0)
(-0.0006180736 -5.2273218e-005 0 0.00059473627 0 0)
(-0.00053055681 -8.1067763e-005 0 0.00052834135 0 0)
(-0.00044389771 -8.5910887e-005 0 0.00043605495 0 0)
(-0.00035542124 -8.0335248e-005 0 0.00035254033 0 0)
(-0.00027169641 -6.4159171e-005 0 0.00026924546 0 0)
(-0.00021536065 -4.8820867e-005 0 0.00021398232 0 0)
(-0.00017293282 -3.1409646e-005 0 0.00017207083 0 0)
(-0.00015262309 -1.435661e-005 0 0.0001519308 0 0)
(-0.00015104716 2.0349041e-006 0 0.00015033493 0 0)
(-0.00016903467 2.1504968e-005 0 0.00016822281 0 0)
(-0.00020938593 4.5917898e-005 0 0.00020813118 0 0)
(-0.00027673323 7.724558e-005 0 0.00027413127 0 0)
(-0.00039204676 0.00012512628 0 0.00038733687 0 0)
(-0.00056288487 0.00019527912 0 0.00055321553 0 0)
(-0.00082565025 0.00030424061 0 0.00080376176 0 0)
(-0.001243663 0.00047777778 0 0.0011953821 0 0)
(-0.0018918657 0.00075937046 0 0.001785979 0 0)
(-0.0028731541 0.0011541285 0 0.0026094178 0 0)
(-0.0043500333 0.0018378152 0 0.0038362619 0 0)
(-0.0064651282 0.0026639732 0 0.005203165 0 0)
(-0.0093084105 0.0038652551 0 0.007238614 0 0)
(-0.013327987 0.0055661007 0 0.0086664134 0 0)
(-0.015612091 0.0041810184 0 0.010804891 0 0)
(-0.00045971009 0.00026709462 0 0.00043966808 0 0)
(-0.00059569598 2.5843984e-005 0 0.00060775039 0 0)
(-0.00062573141 -6.9593982e-005 0 0.00060222109 0 0)
(-0.0005331174 -0.00010624988 0 0.00053050085 0 0)
(-0.0004421679 -0.00011214945 0 0.00043437858 0 0)
(-0.00035201708 -0.00010442782 0 0.00034898625 0 0)
(-0.00026710883 -8.3285413e-005 0 0.00026466407 0 0)
(-0.00021010835 -6.3124429e-005 0 0.00020880316 0 0)
(-0.00016830343 -4.0802726e-005 0 0.0001674173 0 0)
(-0.00014787974 -1.9181389e-005 0 0.00014724114 0 0)
(-0.00014567779 1.8099628e-006 0 0.00014500372 0 0)
(-0.00016287494 2.6841276e-005 0 0.00016210371 0 0)
(-0.00020127619 5.7648914e-005 0 0.00020010008 0 0)
(-0.00026538149 9.7216545e-005 0 0.00026283103 0 0)
(-0.00037551381 0.00015791456 0 0.00037088696 0 0)
(-0.00053761512 0.0002462926 0 0.00052810125 0 0)
(-0.00078576006 0.00038321154 0 0.00076411785 0 0)
(-0.001178562 0.00060059088 0 0.001130844 0 0)
(-0.0017821703 0.0009506447 0 0.0016781659 0 0)
(-0.0026906383 0.0014453897 0 0.0024318278 0 0)
(-0.0040350569 0.0022975296 0 0.003535546 0 0)
(-0.0060046615 0.0033308031 0 0.0047691087 0 0)
(-0.0085256487 0.0048817247 0 0.0065352398 0 0)
(-0.012613169 0.0071903266 0 0.0078177759 0 0)
(-0.014669655 0.0053749263 0 0.010250871 0 0)
(-0.00047220368 0.00032728428 0 0.0004506894 0 0)
(-0.00060712709 2.927848e-005 0 0.00061897448 0 0)
(-0.0006351914 -8.8081368e-005 0 0.00061135137 0 0)
(-0.00053617657 -0.00013277045 0 0.00053309295 0 0)
(-0.00043981649 -0.00013881467 0 0.00043206912 0 0)
(-0.00034760673 -0.00012882673 0 0.000344419 0 0)
(-0.00026124611 -0.00010265113 0 0.00025881368 0 0)
(-0.00020364484 -7.7265263e-005 0 0.0002023845 0 0)
(-0.00016246203 -5.0009612e-005 0 0.00016157285 0 0)
(-0.00014198204 -2.4242426e-005 0 0.00014139434 0 0)
(-0.00013934323 1.9873353e-006 0 0.00013873048 0 0)
(-0.00015484515 3.1357719e-005 0 0.00015412982 0 0)
(-0.00019140553 6.8950315e-005 0 0.00019029196 0 0)
(-0.00025163709 0.00011612936 0 0.00024915935 0 0)
(-0.00035523626 0.00018865177 0 0.00035072189 0 0)
(-0.00050693611 0.00029418073 0 0.00049756644 0 0)
(-0.00073722011 0.00045718617 0 0.00071585608 0 0)
(-0.001099891 0.00071425279 0 0.0010528101 0 0)
(-0.0016481274 0.001128041 0 0.0015460058 0 0)
(-0.0024680068 0.0017106107 0 0.002215384 0 0)
(-0.0036451698 0.0027167006 0 0.003163338 0 0)
(-0.0054412106 0.0039396182 0 0.0042320899 0 0)
(-0.0074882531 0.0058827667 0 0.0055824823 0 0)
(-0.011835147 0.0085624271 0 0.0068562532 0 0)
(-0.012660412 0.0062312957 0 0.009072565 0 0)
(-0.00048834314 0.00038782327 0 0.00046523515 0 0)
(-0.00062084264 3.1528939e-005 0 0.00063213827 0 0)
(-0.00064642332 -0.00010780625 0 0.00062230267 0 0)
(-0.0005396269 -0.00016053123 0 0.00053594585 0 0)
(-0.00043657951 -0.00016611261 0 0.0004288311 0 0)
(-0.00034214519 -0.00015311511 0 0.00033876343 0 0)
(-0.00025421652 -0.00012157473 0 0.00025179977 0 0)
(-0.00019588674 -9.0888269e-005 0 0.0001946406 0 0)
(-0.00015537711 -5.8622155e-005 0 0.00015447358 0 0)
(-0.00013495201 -2.8764869e-005 0 0.00013444519 0 0)
(-0.00013147144 1.7273021e-006 0 0.00013090346 0 0)
(-0.00014586295 3.654802e-005 0 0.00014517187 0 0)
(-0.00017983149 8.0025002e-005 0 0.00017880991 0 0)
(-0.00023536342 0.00013402714 0 0.00023296493 0 0)
(-0.00033126353 0.00021779205 0 0.00032680429 0 0)
(-0.00047098739 0.00033930261 0 0.0004617404 0 0)
(-0.00068153127 0.0005246584 0 0.00066042151 0 0)
(-0.0010090322 0.0008170618 0 0.00096252653 0 0)
(-0.001495678 0.0012846834 0 0.0013956633 0 0)
(-0.0022194842 0.0019355853 0 0.0019736342 0 0)
(-0.0031942666 0.0030777635 0 0.0027325221 0 0)
(-0.0047954699 0.0044463606 0 0.0036155272 0 0)
(-0.0062962086 0.0067320805 0 0.0044936262 0 0)
(-0.011049163 0.0094724911 0 0.0059658266 0 0)
(-0.0094779369 0.0076393758 0 0.0064780984 0 0)
(-0.00050883996 0.00044904034 0 0.00048389412 0 0)
(-0.00063626357 3.2503552e-005 0 0.0006469204 0 0)
(-0.00065930222 -0.00012844239 0 0.00063491763 0 0)
(-0.00054329347 -0.00018951607 0 0.00053883234 0 0)
(-0.00043220172 -0.00019302475 0 0.00042438102 0 0)
(-0.00033546601 -0.00017694324 0 0.00033179062 0 0)
(-0.00024574367 -0.00013965182 0 0.0002433153 0 0)
(-0.00018695231 -0.00010329321 0 0.00018573754 0 0)
(-0.00014719374 -6.5837167e-005 0 0.000146249 0 0)
(-0.00012681674 -3.2639434e-005 0 0.00012633874 0 0)
(-0.0001228812 3.7355446e-006 0 0.00012237783 0 0)
(-0.00013512463 4.1356048e-005 0 0.00013449759 0 0)
(-0.00016647913 9.1226174e-005 0 0.00016551917 0 0)
(-0.00021696342 0.00015153134 0 0.00021461021 0 0)
(-0.00030440697 0.00024549282 0 0.0003001176 0 0)
(-0.00043030935 0.00038100967 0 0.00042128315 0 0)
(-0.00061773363 0.00058688426 0 0.00059673726 0 0)
(-0.00090588605 0.00090961557 0 0.00086006594 0 0)
(-0.0013222281 0.0014239712 0 0.0012245434 0 0)
(-0.0019355272 0.0021269558 0 0.0016950352 0 0)
(-0.0026638522 0.0033880701 0 0.0022240934 0 0)
(-0.0040408993 0.0048464152 0 0.002890539 0 0)
(-0.0048066531 0.0075090829 0 0.0031022367 0 0)
(-0.0092552608 0.010768239 0 0.0042064349 0 0)
(-0.0069197778 0.0085585511 0 0.0043177467 0 0)
(-0.00053461013 0.00051100522 0 0.00050545691 0 0)
(-0.00065329193 3.2641266e-005 0 0.00066638547 0 0)
(-0.00067380706 -0.00014964519 0 0.00064760332 0 0)
(-0.00054685097 -0.00021848111 0 0.00054171188 0 0)
(-0.00042611923 -0.00021953235 0 0.0004186288 0 0)
(-0.00032748906 -0.00019831065 0 0.00032339013 0 0)
(-0.00023596257 -0.00015609965 0 0.00023356884 0 0)
(-0.0001765889 -0.00011358681 0 0.00017554502 0 0)
(-0.00013756504 -7.0945557e-005 0 0.00013666843 0 0)
(-0.00011767853 -3.4578313e-005 0 0.00011726701 0 0)
(-0.00011279122 6.1989133e-006 0 0.0001123636 0 0)
(-0.00012357706 4.8441501e-005 0 0.00012304176 0 0)
(-0.00015176965 0.00010362212 0 0.00015096902 0 0)
(-0.00019640244 0.0001690901 0 0.00019419677 0 0)
(-0.00027389231 0.00027191586 0 0.00026978583 0 0)
(-0.00038511955 0.0004210256 0 0.00037653884 0 0)
(-0.00054832902 0.00064211446 0 0.0005279229 0 0)
(-0.00079359691 0.00098974689 0 0.00074945992 0 0)
(-0.0011348086 0.0015411987 0 0.0010413009 0 0)
(-0.0016428303 0.0022588658 0 0.0014080827 0 0)
(-0.0020999846 0.0036200341 0 0.0017029379 0 0)
(-0.0032027556 0.0050555635 0 0.0020910809 0 0)
(-0.0030227143 0.0080348769 0 0.0015157762 0 0)
(-0.0071943323 0.01123265 0 0.002302473 0 0)
(-0.00094429065 0.011537203 0 -0.0021799125 0 0)
(-0.00056592355 0.00057445245 0 0.00052514929 0 0)
(-0.00067179254 3.2868849e-005 0 0.00069720924 0 0)
(-0.00068950703 -0.00017133764 0 0.00065709877 0 0)
(-0.00054989368 -0.00024810549 0 0.00054476596 0 0)
(-0.00041799477 -0.00024377126 0 0.00041143665 0 0)
(-0.00031719109 -0.00021764394 0 0.00031329349 0 0)
(-0.00022475586 -0.00016932254 0 0.00022271427 0 0)
(-0.00016526663 -0.00012033289 0 0.00016465231 0 0)
(-0.00012679984 -7.2611149e-005 0 0.00012629503 0 0)
(-0.00010732834 -3.2873602e-005 0 0.00010733451 0 0)
(-0.00010185166 1.2096002e-005 0 0.00010175844 0 0)
(-0.00011054812 5.7591264e-005 0 0.00011031206 0 0)
(-0.0001357562 0.00011830057 0 0.00013528224 0 0)
(-0.00017419511 0.00018879106 0 0.00017237673 0 0)
(-0.00024227885 0.00029858528 0 0.00023860322 0 0)
(-0.00033701999 0.00045840021 0 0.00032901653 0 0)
(-0.00047132124 0.0006937635 0 0.00045161702 0 0)
(-0.00067435188 0.0010574708 0 0.00063132462 0 0)
(-0.0009364408 0.00163719 0 0.00084798132 0 0)
(-0.0013072766 0.0023499867 0 0.001076567 0 0)
(-0.0014769916 0.0037421461 0 0.0011271831 0 0)
(-0.0021231246 0.0051152381 0 0.0010658732 0 0)
(-0.00086381505 0.0078559578 0 -0.00028365575 0 0)
(-0.0030114451 0.010290814 0 -0.0011049554 0 0)
(0.0027911023 0.012337978 0 -0.007662685 0 0)
(-0.013793218 0.00053307965 0 0.0092524022 0 0)
(-0.0079463699 0.000953587 0 0.0058637935 0 0)
(-0.0031105043 0.001375101 0 0.0022927005 0 0)
(-0.0010081761 0.0016316517 0 0.00077190897 0 0)
(-0.00041144257 0.0017587793 0 0.00026164834 0 0)
(-0.00016675924 0.0018113038 0 6.1885791e-005 0 0)
(-0.00011705516 0.0018271472 0 1.5754872e-005 0 0)
(-9.7015138e-005 0.0018303927 0 -1.0908858e-006 0 0)
(-9.3483694e-005 0.0018308548 0 -4.7249393e-006 0 0)
(-9.2753639e-005 0.0018305287 0 -5.2341706e-006 0 0)
(-9.5638738e-005 0.0018298743 0 -2.3190754e-006 0 0)
(-9.7103687e-005 0.0018295974 0 -7.6060065e-007 0 0)
(-9.7977316e-005 0.0018294858 0 1.1244023e-007 0 0)
(-9.8031676e-005 0.0018294794 0 1.7204375e-007 0 0)
(-9.7936852e-005 0.0018294915 0 7.4116598e-008 0 0)
(-9.7849216e-005 0.0018294984 0 -1.3528914e-008 0 0)
(-9.7846236e-005 0.0018294972 0 -1.7487856e-008 0 0)
(-9.7855932e-005 0.0018294952 0 -7.5067573e-009 0 0)
(-9.7863609e-005 0.0018294941 0 8.6390578e-011 0 0)
(-9.7864653e-005 0.001829494 0 1.1590361e-009 0 0)
(-9.7864121e-005 0.0018294941 0 6.1334912e-010 0 0)
(-9.7863744e-005 0.0018294941 0 2.3619775e-010 0 0)
(-9.7863574e-005 0.0018294941 0 -4.1158827e-011 0 0)
(-9.786145e-005 0.0018294941 0 -1.903036e-009 0 0)
(-9.786145e-005 0.001829494 0 -2.0998267e-009 0 0)
(-0.013320059 0.0016966811 0 0.0088897869 0 0)
(-0.0076829508 0.0028882773 0 0.0055601015 0 0)
(-0.0033317237 0.0040941831 0 0.0021586722 0 0)
(-0.0014932855 0.0049724661 0 0.00067393887 0 0)
(-0.0010912158 0.0053079944 0 0.00023020634 0 0)
(-0.00092111956 0.0054423578 0 5.5615031e-005 0 0)
(-0.00089920344 0.0054727398 0 2.0561493e-005 0 0)
(-0.00088093937 0.0054861015 0 5.5541493e-007 0 0)
(-0.00087754869 0.0054876877 0 -3.8556602e-006 0 0)
(-0.00087640204 0.0054870164 0 -4.4942712e-006 0 0)
(-0.00087838008 0.0054853813 0 -2.1258167e-006 0 0)
(-0.00087983288 0.0054845237 0 -4.9245313e-007 0 0)
(-0.00088044353 0.0054843098 0 1.36769e-007 0 0)
(-0.00088046765 0.0054843168 0 1.6212797e-007 0 0)
(-0.00088036442 0.0054843593 0 5.4250414e-008 0 0)
(-0.00088030208 0.0054843768 0 -7.5529309e-009 0 0)
(-0.00088029133 0.0054843759 0 -1.5311569e-008 0 0)
(-0.00088030001 0.0054843702 0 -5.1826354e-009 0 0)
(-0.00088030538 0.0054843683 0 5.2003516e-010 0 0)
(-0.00088030597 0.0054843681 0 1.1388159e-009 0 0)
(-0.0008803054 0.0054843683 0 5.3224053e-010 0 0)
(-0.00088030515 0.0054843686 0 1.8119993e-010 0 0)
(-0.00088030494 0.0054843683 0 -5.9761413e-011 0 0)
(-0.00088030283 0.0054843684 0 -1.8189415e-009 0 0)
(-0.00088030282 0.0054843677 0 -2.0073138e-009 0 0)
(-0.012537627 0.0029222624 0 0.0083597697 0 0)
(-0.0070714622 0.004929959 0 0.0049548413 0 0)
(-0.0037049255 0.0072572987 0 0.0016960591 0 0)
(-0.0027593681 0.008282163 0 0.00067289478 0 0)
(-0.0025274035 0.0087907071 0 0.00024426095 0 0)
(-0.0024513001 0.0090459033 0 6.2304974e-005 0 0)
(-0.0024508605 0.0091147043 0 1.337626e-005 0 0)
(-0.0024448446 0.0091293701 0 4.8598572e-007 0 0)
(-0.0024420535 0.009131407 0 -3.2375464e-006 0 0)
(-0.0024410041 0.0091300727 0 -3.2809485e-006 0 0)
(-0.0024415842 0.0091276841 0 -1.5348366e-006 0 0)
(-0.0024423454 0.0091264928 0 -3.1470509e-007 0 0)
(-0.0024427055 0.0091261967 0 1.1954291e-007 0 0)
(-0.0024427208 0.009126212 0 1.3122037e-007 0 0)
(-0.0024426428 0.0091262821 0 3.7268816e-008 0 0)
(-0.0024425988 0.0091263066 0 -8.1531258e-009 0 0)
(-0.0024425915 0.0091263036 0 -1.1273636e-008 0 0)
(-0.0024425961 0.0091262957 0 -3.3431652e-009 0 0)
(-0.0024425993 0.009126293 0 5.4930864e-010 0 0)
(-0.0024425997 0.0091262928 0 9.0099406e-010 0 0)
(-0.0024425995 0.0091262934 0 3.6693988e-010 0 0)
(-0.002442599 0.0091262933 0 5.5572285e-011 0 0)
(-0.0024425989 0.0091262933 0 -1.8042508e-010 0 0)
(-0.0024425971 0.0091262931 0 -1.4431845e-009 0 0)
(-0.0024425967 0.0091262915 0 -1.725656e-009 0 0)
(-0.01137315 0.004299318 0 0.0074304629 0 0)
(-0.0061312633 0.0079154092 0 0.0035623084 0 0)
(-0.0049562938 0.010073712 0 0.0016245212 0 0)
(-0.0044412578 0.011854483 0 0.00044135061 0 0)
(-0.0046359536 0.01248048 0 0.00010606167 0 0)
(-0.0047409663 0.01268167 0 3.1175992e-005 0 0)
(-0.0047799068 0.012737755 0 6.5770588e-006 0 0)
(-0.0047828376 0.012750829 0 -3.5013546e-007 0 0)
(-0.0047817406 0.012751803 0 -2.0667579e-006 0 0)
(-0.0047801764 0.012749723 0 -1.7698786e-006 0 0)
(-0.0047794124 0.012746962 0 -7.4672651e-007 0 0)
(-0.0047794249 0.012745764 0 -1.0866224e-007 0 0)
(-0.0047795239 0.012745488 0 8.1240487e-008 0 0)
(-0.0047795377 0.012745525 0 7.13269e-008 0 0)
(-0.0047795159 0.012745608 0 1.5910803e-008 0 0)
(-0.004779498 0.012745631 0 -4.7442187e-009 0 0)
(-0.0047794923 0.012745627 0 -5.247102e-009 0 0)
(-0.0047794923 0.012745619 0 -1.074884e-009 0 0)
(-0.0047794931 0.012745616 0 4.6339884e-010 0 0)
(-0.0047794933 0.012745616 0 4.7809741e-010 0 0)
(-0.0047794932 0.012745617 0 1.5324225e-010 0 0)
(-0.0047794931 0.012745617 0 -2.5418756e-011 0 0)
(-0.0047794929 0.012745617 0 -1.3476387e-010 0 0)
(-0.0047794917 0.012745617 0 -9.5925553e-010 0 0)
(-0.0047794909 0.012745614 0 -1.1370816e-009 0 0)
(-0.0094397004 0.0058290376 0 0.0059141652 0 0)
(-0.0063121445 0.010867261 0 0.0024656198 0 0)
(-0.006456187 0.013588376 0 0.0010002947 0 0)
(-0.0070607698 0.015477697 0 0.00025417541 0 0)
(-0.0076318735 0.016094758 0 5.6645576e-005 0 0)
(-0.0078205605 0.016282008 0 1.581352e-005 0 0)
(-0.0078805032 0.016330182 0 1.1015724e-006 0 0)
(-0.0078883019 0.01633975 0 -5.960314e-007 0 0)
(-0.0078882398 0.016339497 0 -4.8132119e-007 0 0)
(-0.0078857185 0.01633692 0 -1.0792892e-007 0 0)
(-0.0078838558 0.016334465 0 5.7716612e-008 0 0)
(-0.007883217 0.016333548 0 4.6848842e-008 0 0)
(-0.0078831034 0.016333362 0 8.915371e-009 0 0)
(-0.0078831338 0.016333409 0 -1.7322484e-009 0 0)
(-0.0078831727 0.016333475 0 -2.4017217e-009 0 0)
(-0.0078831785 0.016333491 0 2.5127358e-010 0 0)
(-0.0078831739 0.016333487 0 1.2322459e-009 0 0)
(-0.0078831694 0.016333481 0 7.3283989e-010 0 0)
(-0.007883168 0.016333479 0 1.3092682e-010 0 0)
(-0.007883168 0.016333479 0 -1.4074275e-011 0 0)
(-0.0078831685 0.01633348 0 -2.6525792e-011 0 0)
(-0.0078831685 0.01633348 0 -7.1922055e-011 0 0)
(-0.0078831681 0.01633348 0 4.9288255e-012 0 0)
(-0.0078831678 0.016333479 0 -1.9333185e-010 0 0)
(-0.0078831661 0.016333476 0 -2.8324767e-010 0 0)
(-0.007496181 0.0088564003 0 0.0035869576 0 0)
(-0.0068705887 0.014239136 0 0.0011574667 0 0)
(-0.0091137292 0.017571881 0 0.00032110235 0 0)
(-0.010775283 0.019276107 0 8.1329146e-005 0 0)
(-0.011516884 0.019743329 0 6.8609856e-006 0 0)
(-0.011697071 0.019867479 0 -3.7596805e-006 0 0)
(-0.011746661 0.019889137 0 -3.459e-006 0 0)
(-0.01175224 0.019891603 0 -1.344277e-008 0 0)
(-0.011751366 0.019889906 0 1.2737273e-006 0 0)
(-0.011747691 0.019887425 0 1.356366e-006 0 0)
(-0.011745441 0.019885989 0 6.8664555e-007 0 0)
(-0.011744377 0.019885528 0 1.2095588e-007 0 0)
(-0.011744128 0.01988544 0 -7.557537e-008 0 0)
(-0.011744178 0.019885465 0 -6.3049992e-008 0 0)
(-0.011744261 0.019885495 0 -1.3002077e-008 0 0)
(-0.011744285 0.019885502 0 7.0093385e-009 0 0)
(-0.011744282 0.019885501 0 6.7905089e-009 0 0)
(-0.011744274 0.019885499 0 1.7979151e-009 0 0)
(-0.011744271 0.019885498 0 -3.52862e-010 0 0)
(-0.011744271 0.019885498 0 -4.814781e-010 0 0)
(-0.011744271 0.019885498 0 -1.6542314e-010 0 0)
(-0.011744272 0.019885498 0 -6.3595343e-011 0 0)
(-0.011744272 0.019885498 0 1.7545139e-010 0 0)
(-0.011744272 0.019885497 0 7.9714732e-010 0 0)
(-0.01174427 0.019885494 0 7.0196427e-010 0 0)
(-0.0065136872 0.011553042 0 0.001386436 0 0)
(-0.0089095513 0.018865395 0 -0.00041483403 0 0)
(-0.01361605 0.021858979 0 -0.00016954822 0 0)
(-0.015568991 0.023093937 0 -2.5906948e-005 0 0)
(-0.016220199 0.023348954 0 -9.683483e-006 0 0)
(-0.016328839 0.023407041 0 -7.41813e-006 0 0)
(-0.016359116 0.023409228 0 -2.5055917e-006 0 0)
(-0.016361603 0.023408183 0 1.6354659e-006 0 0)
(-0.016361038 0.023406618 0 2.881395e-006 0 0)
(-0.016358464 0.023406056 0 2.2459271e-006 0 0)
(-0.016356512 0.023405867 0 9.9575055e-007 0 0)
(-0.016355293 0.02340586 0 1.1043868e-007 0 0)
(-0.016354949 0.023405815 0 -1.4875033e-007 0 0)
(-0.016354994 0.02340578 0 -9.8509491e-008 0 0)
(-0.016355093 0.023405768 0 -1.7999787e-008 0 0)
(-0.016355133 0.02340577 0 1.3178211e-008 0 0)
(-0.016355131 0.023405774 0 9.762698e-009 0 0)
(-0.016355123 0.023405775 0 2.3687102e-009 0 0)
(-0.016355119 0.023405775 0 -8.51648e-010 0 0)
(-0.016355119 0.023405775 0 -7.0758705e-010 0 0)
(-0.016355119 0.023405775 0 -2.3558199e-010 0 0)
(-0.01635512 0.023405775 0 -4.7987074e-011 0 0)
(-0.01635512 0.023405775 0 3.8258595e-010 0 0)
(-0.016355121 0.023405774 0 1.670527e-009 0 0)
(-0.016355119 0.023405772 0 1.5839443e-009 0 0)
(-0.0065201929 0.016268817 0 -0.0018516043 0 0)
(-0.013521505 0.024209318 0 -0.0017995016 0 0)
(-0.019835 0.026203834 0 -0.00039949123 0 0)
(-0.021218684 0.026832973 0 -7.3660461e-005 0 0)
(-0.021671896 0.026898883 0 -6.5599521e-006 0 0)
(-0.021690623 0.026909855 0 -3.5464779e-006 0 0)
(-0.021710353 0.026904384 0 1.0062218e-007 0 0)
(-0.021712394 0.026904091 0 2.4940354e-006 0 0)
(-0.021715284 0.026904433 0 3.2956227e-006 0 0)
(-0.021714997 0.026905841 0 2.3797028e-006 0 0)
(-0.021713788 0.026906727 0 9.7459045e-007 0 0)
(-0.021712688 0.026907011 0 9.8652285e-008 0 0)
(-0.021712237 0.026906946 0 -1.6524978e-007 0 0)
(-0.021712246 0.026906846 0 -9.2883484e-008 0 0)
(-0.021712334 0.02690681 0 -1.3148853e-008 0 0)
(-0.021712381 0.026906814 0 1.4850134e-008 0 0)
(-0.021712383 0.026906824 0 9.1984525e-009 0 0)
(-0.021712375 0.026906829 0 1.5335132e-009 0 0)
(-0.021712371 0.026906828 0 -1.054878e-009 0 0)
(-0.021712371 0.026906828 0 -7.3947164e-010 0 0)
(-0.021712372 0.026906828 0 -2.1814039e-010 0 0)
(-0.021712372 0.026906828 0 -3.7601218e-014 0 0)
(-0.021712372 0.026906827 0 5.2621076e-010 0 0)
(-0.021712375 0.026906827 0 2.186907e-009 0 0)
(-0.021712374 0.026906826 0 2.0770992e-009 0 0)
(-0.011931757 0.025209084 0 -0.0053884261 0 0)
(-0.021853142 0.030263859 0 -0.0028407153 0 0)
(-0.027272734 0.030422304 0 -0.00039866866 0 0)
(-0.02755412 0.030424852 0 -8.0517464e-005 0 0)
(-0.027774108 0.030388071 0 1.1678866e-005 0 0)
(-0.027770811 0.030392092 0 1.695289e-006 0 0)
(-0.027800113 0.030391176 0 3.3891356e-006 0 0)
(-0.027806275 0.030394102 0 2.5158231e-006 0 0)
(-0.027814114 0.030397145 0 2.9153849e-006 0 0)
(-0.027815682 0.030400198 0 1.729245e-006 0 0)
(-0.02781548 0.03040165 0 6.5088555e-007 0 0)
(-0.02781461 0.030401982 0 8.3541838e-009 0 0)
(-0.027814161 0.030401832 0 -1.3502276e-007 0 0)
(-0.0278141 0.03040168 0 -6.5541239e-008 0 0)
(-0.027814167 0.030401637 0 -3.1879126e-009 0 0)
(-0.027814212 0.03040165 0 1.2629345e-008 0 0)
(-0.02781422 0.030401665 0 6.4733644e-009 0 0)
(-0.027814214 0.030401669 0 5.2579499e-010 0 0)
(-0.027814211 0.030401669 0 -9.7581847e-010 0 0)
(-0.02781421 0.030401667 0 -5.6365236e-010 0 0)
(-0.027814211 0.030401667 0 -1.6151698e-010 0 0)
(-0.027814211 0.030401667 0 -1.4811266e-011 0 0)
(-0.027814212 0.030401667 0 4.1193878e-010 0 0)
(-0.027814215 0.030401667 0 1.9241118e-009 0 0)
(-0.027814215 0.03040167 0 1.8647432e-009 0 0)
(-0.035376585 0.042511424 0 -0.0099136738 0 0)
(-0.033497627 0.035591269 0 -0.0018820314 0 0)
(-0.039415825 0.036357066 0 -0.00022200049 0 0)
(-0.037726582 0.035468623 0 -2.8911035e-005 0 0)
(-0.038413319 0.035681217 0 1.8531176e-005 0 0)
(-0.03828427 0.035635006 0 2.398528e-006 0 0)
(-0.038372375 0.035663969 0 2.2630425e-006 0 0)
(-0.038368405 0.035661963 0 1.0719639e-006 0 0)
(-0.038384513 0.035669239 0 1.189987e-006 0 0)
(-0.038386607 0.035672181 0 6.660225e-007 0 0)
(-0.038388343 0.035674137 0 2.4693375e-007 0 0)
(-0.038387769 0.035674332 0 -1.0898188e-008 0 0)
(-0.038387398 0.035674138 0 -5.5618933e-008 0 0)
(-0.038387235 0.035673962 0 -2.4632285e-008 0 0)
(-0.038387275 0.035673933 0 1.1915577e-011 0 0)
(-0.038387319 0.035673953 0 5.1083649e-009 0 0)
(-0.038387335 0.035673969 0 2.2841735e-009 0 0)
(-0.038387333 0.035673972 0 -1.1137176e-011 0 0)
(-0.03838733 0.035673971 0 -4.5761392e-010 0 0)
(-0.038387329 0.035673969 0 -2.4331527e-010 0 0)
(-0.038387329 0.035673969 0 -8.9991482e-011 0 0)
(-0.038387329 0.035673969 0 -1.4033781e-011 0 0)
(-0.038387329 0.035673969 0 1.8168957e-010 0 0)
(-0.03838733 0.03567397 0 9.6831991e-010 0 0)
(-0.038387334 0.035673975 0 9.9916744e-010 0 0)
(-0.00063908496 0.00071635511 0 0.00057560105 0 0)
(-0.00071025241 3.5094036e-005 0 0.00076533636 0 0)
(-0.00072067959 -0.00021422757 0 0.00067606871 0 0)
(-0.0005522918 -0.00029377825 0 0.00054322371 0 0)
(-0.00040340146 -0.00027900666 0 0.00039532412 0 0)
(-0.00029078324 -0.00023748222 0 0.00028563899 0 0)
(-0.00019908246 -0.00017576386 0 0.00019579368 0 0)
(-0.00014082305 -0.00011590258 0 0.00013914701 0 0)
(-0.00010352278 -5.8184613e-005 0 0.00010220563 0 0)
(-8.5025611e-005 -1.2105027e-005 0 8.4299985e-005 0 0)
(-7.8258262e-005 4.2892586e-005 0 7.7776119e-005 0 0)
(-8.363851e-005 9.0547057e-005 0 8.2435914e-005 0 0)
(-0.0001016037 0.0001612256 0 0.00010006323 0 0)
(-0.00012762637 0.00023662686 0 0.00012425713 0 0)
(-0.00017434643 0.00036112213 0 0.00016935305 0 0)
(-0.00023830224 0.00053461445 0 0.00022877104 0 0)
(-0.0003224192 0.00078130308 0 0.00029848918 0 0)
(-0.00044276048 0.0011629524 0 0.00039636134 0 0)
(-0.00054910724 0.0017612641 0 0.00046731072 0 0)
(-0.00069605039 0.0024423581 0 0.00048508882 0 0)
(-0.00060226899 0.0037198479 0 0.00030907658 0 0)
(-0.00048020185 0.0048919954 0 -0.00039398337 0 0)
(0.0013904826 0.0069913772 0 -0.0020599235 0 0)
(0.0019324434 0.007744895 0 -0.0044468694 0 0)
(0.009874147 0.0075135799 0 -0.013081466 0 0)
(-0.00078115901 0.00097090276 0 0.00068372117 0 0)
(-0.00078400457 3.275723e-005 0 0.00085805593 0 0)
(-0.00075559307 -0.00028215589 0 0.00070039471 0 0)
(-0.00053326598 -0.0003421897 0 0.00052158639 0 0)
(-0.000358289 -0.00030300418 0 0.00035213909 0 0)
(-0.00023142303 -0.00022727648 0 0.00022768112 0 0)
(-0.00014565487 -0.00014296049 0 0.00014389994 0 0)
(-9.0592723e-005 -6.3209034e-005 0 9.0922043e-005 0 0)
(-6.0324279e-005 5.5795908e-006 0 6.0157233e-005 0 0)
(-4.4041815e-005 6.5382579e-005 0 4.3973152e-005 0 0)
(-3.716988e-005 0.00011933857 0 3.6729295e-005 0 0)
(-3.6987394e-005 0.00018425619 0 3.5987773e-005 0 0)
(-4.1093687e-005 0.00025261669 0 4.0974023e-005 0 0)
(-5.0251907e-005 0.0003386638 0 4.7003949e-005 0 0)
(-6.4122234e-005 0.00046254826 0 5.6587589e-005 0 0)
(-7.7504507e-005 0.00065528884 0 6.959173e-005 0 0)
(-8.8662437e-005 0.00089675197 0 6.7286908e-005 0 0)
(-8.884166e-005 0.0012552421 0 3.9835065e-005 0 0)
(-2.2819297e-005 0.0018179961 0 -5.3133603e-005 0 0)
(0.00011290718 0.0024003634 0 -0.00030091143 0 0)
(0.00061229414 0.0032525164 0 -0.00089151261 0 0)
(0.001222276 0.0038084062 0 -0.0019364617 0 0)
(0.0031879648 0.0043367927 0 -0.0039454928 0 0)
(0.0052102806 0.0020736791 0 -0.0074319838 0 0)
(0.0063073276 -0.0009697997 0 -0.0091757122 0 0)
(-0.00095267947 0.0012725993 0 0.00082491054 0 0)
(-0.00084307235 2.7172564e-005 0 0.00092367153 0 0)
(-0.00074608012 -0.00032347274 0 0.0006854292 0 0)
(-0.00046768991 -0.00033573826 0 0.00045537465 0 0)
(-0.00027111758 -0.00024311813 0 0.00026763306 0 0)
(-0.00014886062 -0.00012619847 0 0.00014647612 0 0)
(-7.587999e-005 -1.6696252e-005 0 7.463752e-005 0 0)
(-3.1453784e-005 8.2553793e-005 0 3.1464179e-005 0 0)
(-1.0386241e-005 0.00016293913 0 1.0065008e-005 0 0)
(-5.1960751e-007 0.00022451047 0 -6.3791155e-007 0 0)
(6.5613908e-006 0.00028908591 0 -8.2135475e-006 0 0)
(1.0954261e-005 0.00034434136 0 -1.4029062e-005 0 0)
(1.7468899e-005 0.00041813308 0 -2.1218407e-005 0 0)
(2.8823001e-005 0.00051075193 0 -3.3565298e-005 0 0)
(4.1320316e-005 0.00061699957 0 -5.3527007e-005 0 0)
(7.3412505e-005 0.00079617491 0 -8.9035416e-005 0 0)
(0.00013290373 0.001035766 0 -0.00015661492 0 0)
(0.00021484262 0.001336406 0 -0.00027077872 0 0)
(0.00042384585 0.0018011589 0 -0.00050860213 0 0)
(0.00070550672 0.0022571193 0 -0.00087021037 0 0)
(0.0012989577 0.0027919795 0 -0.001538314 0 0)
(0.0021031113 0.0030014595 0 -0.0025603568 0 0)
(0.0034816672 0.0028402393 0 -0.0038713669 0 0)
(0.0046429559 0.00077483904 0 -0.0053837434 0 0)
(0.0035433688 -0.0025155619 0 -0.0036517196 0 0)
(-0.0011311415 0.0016349614 0 0.00096225123 0 0)
(-0.0008356184 2.1585226e-005 0 0.00092077913 0 0)
(-0.00064670161 -0.0003123137 0 0.00058295355 0 0)
(-0.00032462527 -0.00023728329 0 0.00031488207 0 0)