/*--------------------------------*- C++ -*----------------------------------*\
| =========                 |                                                 |
| \\      /  F ield         | OpenFOAM: The Open Source CFD Toolbox           |
|  \\    /   O peration     | Version:  5.x                                   |
|   \\  /    A nd           | Web:      www.OpenFOAM.org                      |
|    \\/     M anipulation  |                                                 |
\*---------------------------------------------------------------------------*/
/*   Windows 32 and 64 bit porting by blueCAPE: http://www.bluecape.com.pt   *\
|  Based on Windows porting (2.0.x v4) by Symscape: http://www.symscape.com   |
\*---------------------------------------------------------------------------*/
FoamFile
{
    version     2.0;
    format      ascii;
    class       volSymmTensorField;
    location    "0.25";
    object      sigma_0;
}
// * * * * * * * * * * * * * * * * * * * * * * * * * * * * * * * * * * * * * //

dimensions      [0 2 -2 0 0 0 0];

internalField   nonuniform List<symmTensor> 
750
(
(-0.00043622126 2.9140903e-005 0 0.00042310054 0 0)
(-0.00057409927 3.2756724e-006 0 0.00057919367 0 0)
(-0.00060596676 -6.8114255e-006 0 0.00058748586 0 0)
(-0.00052670816 -1.1431415e-005 0 0.00052308838 0 0)
(-0.00044492954 -1.1889618e-005 0 0.00043800626 0 0)
(-0.00036107057 -1.125373e-005 0 0.00035800639 0 0)
(-0.00027895435 -9.1124631e-006 0 0.00027652522 0 0)
(-0.00022204677 -6.9412008e-006 0 0.00022078573 0 0)
(-0.00017980543 -4.3724718e-006 0 0.00017895983 0 0)
(-0.00015968994 -1.9165591e-006 0 0.00015897193 0 0)
(-0.00015893724 3.8334348e-007 0 0.00015819618 0 0)
(-0.00017872259 3.2426547e-006 0 0.00017787907 0 0)
(-0.00022162195 6.8010686e-006 0 0.00022032664 0 0)
(-0.00029429592 1.139863e-005 0 0.00029172008 0 0)
(-0.00041713819 1.8377182e-005 0 0.00041240351 0 0)
(-0.00060142011 2.881132e-005 0 0.00059170679 0 0)
(-0.00088752364 4.5030609e-005 0 0.00086578466 0 0)
(-0.001344583 7.08134e-005 0 0.0012960527 0 0)
(-0.0020615499 0.00011370852 0 0.0019538654 0 0)
(-0.0031630652 0.00017425494 0 0.0028961525 0 0)
(-0.0048130658 0.00027355812 0 0.0042755391 0 0)
(-0.00722803 0.00040669859 0 0.0059443734 0 0)
(-0.010426398 0.00056038342 0 0.0081956851 0 0)
(-0.014175819 0.00080626734 0 0.0099810414 0 0)
(-0.017639901 0.00059041259 0 0.011866579 0 0)
(-0.00043907165 8.7881492e-005 0 0.00042279239 0 0)
(-0.0005754696 9.949928e-006 0 0.0005859049 0 0)
(-0.00060805674 -2.1044243e-005 0 0.0005864134 0 0)
(-0.00052692283 -3.412302e-005 0 0.00052469526 0 0)
(-0.00044540969 -3.5918085e-005 0 0.0004376613 0 0)
(-0.00035947001 -3.3727746e-005 0 0.00035670108 0 0)
(-0.00027733659 -2.7205394e-005 0 0.00027488689 0 0)
(-0.00022144316 -2.0708679e-005 0 0.00021991051 0 0)
(-0.00017872083 -1.308249e-005 0 0.00017777565 0 0)
(-0.00015854187 -5.707386e-006 0 0.00015772701 0 0)
(-0.00015762862 1.2278574e-006 0 0.0001567947 0 0)
(-0.00017707349 9.7414018e-006 0 0.00017613548 0 0)
(-0.00021954851 2.0356949e-005 0 0.0002181177 0 0)
(-0.00029124685 3.4066935e-005 0 0.00028843673 0 0)
(-0.00041300514 5.4911417e-005 0 0.00040795849 0 0)
(-0.00059501038 8.5811824e-005 0 0.00058481413 0 0)
(-0.00087692963 0.00013377987 0 0.00085427452 0 0)
(-0.0013274703 0.00021006404 0 0.0012775941 0 0)
(-0.0020338571 0.00033608409 0 0.0019244163 0 0)
(-0.0031109717 0.00050557287 0 0.0028399771 0 0)
(-0.004743072 0.00082111635 0 0.0042074278 0 0)
(-0.0070819284 0.0011554045 0 0.0057859986 0 0)
(-0.010278948 0.0016741678 0 0.0080794598 0 0)
(-0.013976223 0.0024954005 0 0.0096575938 0 0)
(-0.017267641 0.0018195107 0 0.011740167 0 0)
(-0.00044348059 0.00014721337 0 0.00042538878 0 0)
(-0.00057958415 1.6020869e-005 0 0.00059192062 0 0)
(-0.00061191641 -3.6113256e-005 0 0.00058878409 0 0)
(-0.00052818964 -5.694589e-005 0 0.00052628379 0 0)
(-0.00044478482 -6.0420959e-005 0 0.00043685826 0 0)
(-0.00035766631 -5.6650167e-005 0 0.00035494567 0 0)
(-0.00027490341 -4.5438385e-005 0 0.00027249535 0 0)
(-0.00021908624 -3.4587684e-005 0 0.00021762719 0 0)
(-0.00017637328 -2.2026443e-005 0 0.00017550994 0 0)
(-0.00015617208 -9.7735535e-006 0 0.00015544165 0 0)
(-0.00015493031 1.8257157e-006 0 0.00015418248 0 0)
(-0.00017396208 1.5993397e-005 0 0.00017312798 0 0)
(-0.00021542029 3.3476133e-005 0 0.00021412506 0 0)
(-0.00028536312 5.6156009e-005 0 0.00028271301 0 0)
(-0.00040465486 9.0683316e-005 0 0.00039987415 0 0)
(-0.00058211726 0.00014151885 0 0.00057232517 0 0)
(-0.00085627726 0.00022039942 0 0.00083422303 0 0)
(-0.0012938155 0.0003460123 0 0.0012451268 0 0)
(-0.0019778577 0.00055038363 0 0.0018708613 0 0)
(-0.0030131858 0.00083910889 0 0.0027460754 0 0)
(-0.004590754 0.0013355327 0 0.0040676102 0 0)
(-0.0068281126 0.0019337362 0 0.0055470442 0 0)
(-0.009904647 0.0027834908 0 0.0077627602 0 0)
(-0.013765188 0.0040497579 0 0.0092419424 0 0)
(-0.01647568 0.0029632706 0 0.011353206 0 0)
(-0.00045009592 0.00020703671 0 0.00043118083 0 0)
(-0.00058629559 2.1413935e-005 0 0.00059856319 0 0)
(-0.00061766421 -5.2213356e-005 0 0.00059435056 0 0)
(-0.00053018911 -8.0984153e-005 0 0.00052798087 0 0)
(-0.00044358053 -8.5817673e-005 0 0.00043574858 0 0)
(-0.00035516143 -8.0240725e-005 0 0.00035228535 0 0)
(-0.00027151188 -6.4074269e-005 0 0.00026906472 0 0)
(-0.00021523121 -4.8746581e-005 0 0.00021385481 0 0)
(-0.00017285153 -3.1349048e-005 0 0.00017199033 0 0)
(-0.00015257341 -1.4303944e-005 0 0.00015188178 0 0)
(-0.00015101294 2.0689487e-006 0 0.00015030087 0 0)
(-0.00016901952 2.1541773e-005 0 0.00016820765 0 0)
(-0.00020937914 4.5947498e-005 0 0.00020812483 0 0)
(-0.00027671936 7.7265607e-005 0 0.00027411742 0 0)
(-0.00039201995 0.00012513404 0 0.00038731027 0 0)
(-0.00056283636 0.00019527037 0 0.00055316917 0 0)
(-0.0008255385 0.00030420446 0 0.00080365558 0 0)
(-0.0012434811 0.00047772698 0 0.0011952141 0 0)
(-0.0018916491 0.00075933184 0 0.0017857905 0 0)
(-0.00287304 0.0011541305 0 0.0026093313 0 0)
(-0.0043502091 0.0018378888 0 0.0038364267 0 0)
(-0.0064657742 0.0026641115 0 0.0052036442 0 0)
(-0.0093094647 0.0038653374 0 0.0072392882 0 0)
(-0.01332938 0.0055659784 0 0.0086671416 0 0)
(-0.015612959 0.0041807501 0 0.0108053 0 0)
(-0.00045941568 0.0002669469 0 0.00043939296 0 0)
(-0.00059531062 2.584991e-005 0 0.00060736234 0 0)
(-0.00062531366 -6.9522129e-005 0 0.00060182768 0 0)
(-0.0005327469 -0.00010615025 0 0.00053013797 0 0)
(-0.00044185198 -0.0001120383 0 0.00043407358 0 0)
(-0.00035175999 -0.00010431624 0 0.0003487343 0 0)
(-0.00026692862 -8.3186492e-005 0 0.00026448765 0 0)
(-0.00020998351 -6.3039528e-005 0 0.00020868022 0 0)
(-0.00016822507 -4.0734905e-005 0 0.00016733983 0 0)
(-0.00014783303 -1.9124774e-005 0 0.00014719503 0 0)
(-0.00014564707 1.8453409e-006 0 0.00014497312 0 0)
(-0.00016286138 2.6877764e-005 0 0.0001620902 0 0)
(-0.00020127023 5.7676656e-005 0 0.00020009439 0 0)
(-0.00026537105 9.7233259e-005 0 0.00026282051 0 0)
(-0.00037549095 0.00015791429 0 0.00037086441 0 0)
(-0.00053757233 0.00024627276 0 0.00052806049 0 0)
(-0.00078565936 0.00038315755 0 0.00076402224 0 0)
(-0.0011783972 0.00060051561 0 0.0011306926 0 0)
(-0.0017819727 0.00095058394 0 0.0016779951 0 0)
(-0.0026905348 0.0014453838 0 0.0024317464 0 0)
(-0.004035229 0.0022976079 0 0.003535702 0 0)
(-0.0060052547 0.0033309654 0 0.0047695451 0 0)
(-0.008526605 0.0048818203 0 0.0065358703 0 0)
(-0.012614389 0.00719029 0 0.0078184579 0 0)
(-0.014670394 0.0053745859 0 0.010251297 0 0)
(-0.00047188881 0.00032710037 0 0.00045039598 0 0)
(-0.00060672902 2.9282614e-005 0 0.00061857412 0 0)
(-0.00063476524 -8.8001887e-005 0 0.00061095036 0 0)
(-0.00053580371 -0.00013266094 0 0.00053272826 0 0)
(-0.00043950258 -0.00013869545 0 0.00043176624 0 0)
(-0.00034735342 -0.00012870608 0 0.00034417099 0 0)
(-0.0002610716 -0.00010254644 0 0.00025864292 0 0)
(-0.00020352528 -7.7177981e-005 0 0.00020226685 0 0)
(-0.00016238758 -4.9942274e-005 0 0.00016149925 0 0)
(-0.00014193888 -2.4189324e-005 0 0.00014135189 0 0)
(-0.00013931558 2.0139568e-006 0 0.00013870293 0 0)
(-0.00015483279 3.1386183e-005 0 0.00015411722 0 0)
(-0.00019140363 6.897049e-005 0 0.00019029035 0 0)
(-0.0002516298 0.00011613397 0 0.00024915215 0 0)
(-0.00035521683 0.00018863667 0 0.00035070257 0 0)
(-0.00050690168 0.00029414328 0 0.00049753407 0 0)
(-0.00073713408 0.00045710502 0 0.00071577527 0 0)
(-0.0010997436 0.00071415118 0 0.0010526763 0 0)
(-0.0016479515 0.0011279543 0 0.0015458558 0 0)
(-0.0024679064 0.0017105912 0 0.0022153077 0 0)
(-0.0036453256 0.0027167726 0 0.0031634776 0 0)
(-0.0054417319 0.0039397844 0 0.0042324739 0 0)
(-0.0074891097 0.0058828409 0 0.0055830833 0 0)
(-0.011836193 0.0085622325 0 0.00685696 0 0)
(-0.01266102 0.0062307334 0 0.0090731121 0 0)
(-0.00048800483 0.00038760071 0 0.00046492091 0 0)
(-0.00062043262 3.1528743e-005 0 0.00063172665 0 0)
(-0.00064598992 -0.00010772478 0 0.00062189528 0 0)
(-0.00053925296 -0.00016041966 0 0.0005355807 0 0)
(-0.0004362693 -0.0001659911 0 0.00042853198 0 0)
(-0.00034189685 -0.00015299508 0 0.00033852052 0 0)
(-0.00025404837 -0.00012147478 0 0.00025163537 0 0)
(-0.00019577364 -9.080846e-005 0 0.00019452931 0 0)
(-0.00015530787 -5.8565872e-005 0 0.00015440515 0 0)
(-0.00013491264 -2.8726412e-005 0 0.00013440641 0 0)
(-0.00013144852 1.7399291e-006 0 0.0001308805 0 0)
(-0.0001458539 3.6558572e-005 0 0.00014516273 0 0)
(-0.00017983001 8.0024083e-005 0 0.00017880894 0 0)
(-0.00023535924 0.00013401139 0 0.00023296069 0 0)
(-0.00033125112 0.00021775328 0 0.00032679195 0 0)
(-0.00047096161 0.00033923746 0 0.00046171696 0 0)
(-0.00068145692 0.00052454867 0 0.00066035287 0 0)
(-0.0010089099 0.00081692334 0 0.00096241802 0 0)
(-0.0014955348 0.0012845551 0 0.001395545 0 0)
(-0.0022193989 0.0019355359 0 0.001973577 0 0)
(-0.0031943977 0.0030778164 0 0.0027326471 0 0)
(-0.0047959276 0.0044465013 0 0.0036158718 0 0)
(-0.0062969405 0.006732135 0 0.0044941704 0 0)
(-0.011050051 0.0094723319 0 0.0059664729 0 0)
(-0.0094781984 0.0076388296 0 0.0064784729 0 0)
(-0.00050847614 0.00044877616 0 0.00048355776 0 0)
(-0.00063584457 3.2495956e-005 0 0.00064650043 0 0)
(-0.00065886418 -0.00012836571 0 0.00063450629 0 0)
(-0.00054292057 -0.00018940999 0 0.00053846892 0 0)
(-0.00043189672 -0.00019291454 0 0.00042408714 0 0)
(-0.00033522399 -0.00017683533 0 0.00033155444 0 0)
(-0.00024558299 -0.00013956743 0 0.00024315827 0 0)
(-0.00018684668 -0.00010323291 0 0.00018563346 0 0)
(-0.00014713069 -6.5803845e-005 0 0.00014618671 0 0)
(-0.00012678151 -3.2626515e-005 0 0.00012630407 0 0)
(-0.00012286221 3.7198588e-006 0 0.00012235896 0 0)
(-0.00013511746 4.1336538e-005 0 0.00013449041 0 0)
(-0.00016648238 9.1197299e-005 0 0.00016552276 0 0)
(-0.00021696424 0.00015148459 0 0.00021461112 0 0)
(-0.00030439834 0.00024541827 0 0.00030010938 0 0)
(-0.0004302936 0.00038090793 0 0.00042127025 0 0)
(-0.00061767804 0.00058673461 0 0.00059668856 0 0)
(-0.00090579194 0.00090943274 0 0.00085998467 0 0)
(-0.0013221181 0.001423801 0 0.0012244569 0 0)
(-0.001935496 0.0021268527 0 0.0016950279 0 0)
(-0.0026639853 0.0033880867 0 0.0022242288 0 0)
(-0.0040412956 0.0048465153 0 0.0028908447 0 0)
(-0.0048072521 0.0075090787 0 0.0031027289 0 0)
(-0.009255913 0.010767926 0 0.0042070835 0 0)
(-0.0069202933 0.0085578378 0 0.0043183698 0 0)
(-0.0005342198 0.0005106961 0 0.00050509895 0 0)
(-0.00065286803 3.2622307e-005 0 0.00066595875 0 0)
(-0.00067336825 -0.00014958116 0 0.00064719298 0 0)
(-0.00054648254 -0.00021839372 0 0.00054135298 0 0)
(-0.00042582284 -0.00021944343 0 0.00041834281 0 0)
(-0.0003272547 -0.00019822704 0 0.00032316121 0 0)
(-0.00023581099 -0.00015604416 0 0.00023342066 0 0)
(-0.00017649085 -0.00011355816 0 0.00017544831 0 0)
(-0.00013750938 -7.0947479e-005 0 0.00013661304 0 0)
(-0.00011764806 -3.4603929e-005 0 0.00011723743 0 0)
(-0.00011277591 6.1402637e-006 0 0.00011234829 0 0)
(-0.00012357446 4.8383459e-005 0 0.00012303878 0 0)
(-0.00015177623 0.00010355266 0 0.0001509762 0 0)
(-0.00019640707 0.0001690008 0 0.00019420211 0 0)
(-0.00027388982 0.00027179441 0 0.00026978403 0 0)
(-0.00038511131 0.00042087893 0 0.00037653373 0 0)
(-0.00054829227 0.00064191588 0 0.00052789307 0 0)
(-0.00079351995 0.00098952112 0 0.00074939806 0 0)
(-0.0011347422 0.0015409797 0 0.0010412572 0 0)
(-0.0016428052 0.0022587339 0 0.0014080777 0 0)
(-0.0021001398 0.0036200097 0 0.0017030897 0 0)
(-0.0032030879 0.0050556075 0 0.0020913487 0 0)
(-0.0030231422 0.0080347453 0 0.0015162286 0 0)
(-0.0071944572 0.011232308 0 0.002302848 0 0)
(-0.00094400474 0.011536424 0 -0.0021795173 0 0)
(-0.00056550732 0.00057409516 0 0.00052477223 0 0)
(-0.00067136989 3.2832493e-005 0 0.00069677323 0 0)
(-0.00068907196 -0.00017129278 0 0.00065669506 0 0)
(-0.00054953377 -0.00024804132 0 0.00054441317 0 0)
(-0.00041770828 -0.00024371673 0 0.00041115826 0 0)
(-0.00031696849 -0.00021759915 0 0.00031307514 0 0)
(-0.00022461411 -0.00016930943 0 0.00022257506 0 0)
(-0.00016517622 -0.00012034827 0 0.00016456298 0 0)
(-0.00012675182 -7.266101e-005 0 0.00012624652 0 0)
(-0.00010730478 -3.2955411e-005 0 0.00010731106 0 0)
(-0.00010184364 1.2004902e-005 0 0.00010175076 0 0)
(-0.00011054642 5.746597e-005 0 0.00011031007 0 0)
(-0.00013576562 0.00011817513 0 0.00013529191 0 0)
(-0.00017420394 0.00018864595 0 0.00017238636 0 0)
(-0.00024228325 0.0002984143 0 0.00023861005 0 0)
(-0.00033702704 0.00045818983 0 0.00032902921 0 0)
(-0.00047130886 0.00069349371 0 0.00045161036 0 0)
(-0.00067428677 0.0010571973 0 0.00063128007 0 0)
(-0.00093639984 0.0016369211 0 0.00084796672 0 0)
(-0.0013073004 0.0023498019 0 0.0010766124 0 0)
(-0.001477184 0.0037420712 0 0.0011273736 0 0)
(-0.0021233986 0.0051152304 0 0.0010661211 0 0)
(-0.00086415646 0.0078556809 0 -0.00028322218 0 0)
(-0.0030116275 0.010290218 0 -0.0011044272 0 0)
(0.0027918723 0.012336845 0 -0.0076625554 0 0)
(-0.013793643 0.00053303179 0 0.0092524528 0 0)
(-0.0079462672 0.00095351911 0 0.0058636015 0 0)
(-0.0031103802 0.00137499 0 0.002292592 0 0)
(-0.0010081329 0.0016315348 0 0.00077189681 0 0)
(-0.00041147213 0.0017586133 0 0.00026171631 0 0)
(-0.00016672461 0.0018111399 0 6.1889491e-005 0 0)
(-0.00011693794 0.001826967 0 1.5666683e-005 0 0)
(-9.6883029e-005 0.0018302037 0 -1.1972728e-006 0 0)
(-9.3399681e-005 0.0018306577 0 -4.7818643e-006 0 0)
(-9.2707663e-005 0.0018303258 0 -5.2520879e-006 0 0)
(-9.5619527e-005 0.0018296698 0 -2.3099283e-006 0 0)
(-9.7088075e-005 0.0018293931 0 -7.4807976e-007 0 0)
(-9.7954195e-005 0.0018292827 0 1.1740904e-007 0 0)
(-9.8004073e-005 0.0018292769 0 1.724944e-007 0 0)
(-9.7907776e-005 0.0018292891 0 7.3097181e-008 0 0)
(-9.7820601e-005 0.001829296 0 -1.4104819e-008 0 0)
(-9.7818134e-005 0.0018292947 0 -1.7547399e-008 0 0)
(-9.782796e-005 0.0018292926 0 -7.4341025e-009 0 0)
(-9.7835611e-005 0.0018292916 0 1.3275498e-010 0 0)
(-9.7836611e-005 0.0018292915 0 1.161749e-009 0 0)
(-9.7836069e-005 0.0018292915 0 6.0620313e-010 0 0)
(-9.7835699e-005 0.0018292916 0 2.3542917e-010 0 0)
(-9.7835535e-005 0.0018292916 0 -3.4124706e-011 0 0)
(-9.7833416e-005 0.0018292916 0 -1.8936376e-009 0 0)
(-9.7833423e-005 0.0018292915 0 -2.0881554e-009 0 0)
(-0.013320473 0.0016965244 0 0.0088898671 0 0)
(-0.0076828812 0.0028880947 0 0.0055599564 0 0)
(-0.0033315772 0.0040939578 0 0.0021585739 0 0)
(-0.00149319 0.0049720796 0 0.00067398624 0 0)
(-0.0010910831 0.0053075873 0 0.00023024218 0 0)
(-0.00092095577 0.0054418793 0 5.5637821e-005 0 0)
(-0.00089892517 0.0054722606 0 2.0495166e-005 0 0)
(-0.00088061482 0.0054856008 0 4.5736284e-007 0 0)
(-0.00087726376 0.005487157 0 -3.9053125e-006 0 0)
(-0.00087614759 0.0054864737 0 -4.510911e-006 0 0)
(-0.00087815228 0.0054848317 0 -2.1159088e-006 0 0)
(-0.00087960667 0.0054839771 0 -4.8222001e-007 0 0)
(-0.00088021191 0.0054837658 0 1.4105186e-007 0 0)
(-0.00088023228 0.0054837741 0 1.6248017e-007 0 0)
(-0.00088012754 0.005483817 0 5.3116602e-008 0 0)
(-0.00088006582 0.0054838343 0 -7.9986255e-009 0 0)
(-0.00088005544 0.0054838331 0 -1.5359634e-008 0 0)
(-0.00088006425 0.0054838275 0 -5.1118096e-009 0 0)
(-0.00088006959 0.0054838255 0 5.538475e-010 0 0)
(-0.00088007015 0.0054838253 0 1.141026e-009 0 0)
(-0.00088006957 0.0054838255 0 5.2534049e-010 0 0)
(-0.00088006932 0.0054838259 0 1.7973183e-010 0 0)
(-0.00088006911 0.0054838256 0 -5.317067e-011 0 0)
(-0.00088006701 0.0054838256 0 -1.8131031e-009 0 0)
(-0.00088006701 0.005483825 0 -1.9989901e-009 0 0)
(-0.012537999 0.0029220656 0 0.0083598968 0 0)
(-0.0070713675 0.0049297587 0 0.0049547433 0 0)
(-0.0037049838 0.0072564952 0 0.0016963544 0 0)
(-0.002758928 0.0082818663 0 0.00067272246 0 0)
(-0.0025271022 0.008790218 0 0.0002442769 0 0)
(-0.0024508581 0.009045351 0 6.2287568e-005 0 0)
(-0.0024502953 0.0091140922 0 1.3312152e-005 0 0)
(-0.0024442271 0.0091287124 0 4.1448426e-007 0 0)
(-0.0024414463 0.0091307119 0 -3.2790775e-006 0 0)
(-0.0024404176 0.0091293524 0 -3.2924944e-006 0 0)
(-0.0024410179 0.0091269548 0 -1.526172e-006 0 0)
(-0.0024417821 0.0091257692 0 -3.0686669e-007 0 0)
(-0.0024421389 0.0091254776 0 1.226491e-007 0 0)
(-0.0024421516 0.0091254947 0 1.3141565e-007 0 0)
(-0.0024420726 0.0091255652 0 3.6424858e-008 0 0)
(-0.002442029 0.0091255892 0 -8.4709322e-009 0 0)
(-0.0024420219 0.009125586 0 -1.1297127e-008 0 0)
(-0.0024420266 0.0091255782 0 -3.2874855e-009 0 0)
(-0.0024420298 0.0091255755 0 5.7309005e-010 0 0)
(-0.0024420302 0.0091255753 0 9.0223666e-010 0 0)
(-0.0024420299 0.0091255759 0 3.6206289e-010 0 0)
(-0.0024420294 0.0091255758 0 5.4394958e-011 0 0)
(-0.0024420293 0.0091255758 0 -1.7701084e-010 0 0)
(-0.0024420276 0.0091255755 0 -1.4419812e-009 0 0)
(-0.0024420272 0.009125574 0 -1.7231515e-009 0 0)
(-0.011373402 0.0042990145 0 0.0074305584 0 0)
(-0.0061310799 0.0079149419 0 0.0035623606 0 0)
(-0.0049560526 0.010073297 0 0.0016245141 0 0)
(-0.0044408902 0.011853978 0 0.00044140375 0 0)
(-0.0046354533 0.012479963 0 0.00010611268 0 0)
(-0.0047402855 0.012681148 0 3.1178254e-005 0 0)
(-0.0047790889 0.012737198 0 6.5418002e-006 0 0)
(-0.0047819444 0.012750212 0 -3.9045611e-007 0 0)
(-0.0047808337 0.012751143 0 -2.0911828e-006 0 0)
(-0.0047792703 0.012749027 0 -1.77457e-006 0 0)
(-0.0047785202 0.012746261 0 -7.414971e-007 0 0)
(-0.0047785375 0.01274507 0 -1.0449452e-007 0 0)
(-0.0047786362 0.012744799 0 8.2761347e-008 0 0)
(-0.004778649 0.012744838 0 7.1301058e-008 0 0)
(-0.0047786267 0.012744921 0 1.5507644e-008 0 0)
(-0.0047786089 0.012744944 0 -4.9002964e-009 0 0)
(-0.0047786032 0.012744939 0 -5.2467814e-009 0 0)
(-0.0047786033 0.012744931 0 -1.0451957e-009 0 0)
(-0.0047786041 0.012744929 0 4.7391479e-010 0 0)
(-0.0047786042 0.012744929 0 4.7779682e-010 0 0)
(-0.0047786041 0.01274493 0 1.505963e-010 0 0)
(-0.004778604 0.01274493 0 -2.5322014e-011 0 0)
(-0.0047786038 0.012744929 0 -1.3384627e-010 0 0)
(-0.0047786027 0.012744929 0 -9.6327031e-010 0 0)
(-0.0047786018 0.012744927 0 -1.1408471e-009 0 0)
(-0.0094400779 0.0058282695 0 0.0059145312 0 0)
(-0.0063119365 0.010867158 0 0.0024655394 0 0)
(-0.006455865 0.013587911 0 0.0010003866 0 0)
(-0.0070602918 0.015477263 0 0.00025423477 0 0)
(-0.0076312642 0.016094424 0 5.6671698e-005 0 0)
(-0.0078197838 0.016281688 0 1.5823676e-005 0 0)
(-0.0078795888 0.016329824 0 1.1003663e-006 0 0)
(-0.0078873025 0.016339331 0 -5.9741917e-007 0 0)
(-0.0078872051 0.016339039 0 -4.8382284e-007 0 0)
(-0.0078846639 0.016336426 0 -1.0732515e-007 0 0)
(-0.0078828094 0.016333973 0 5.8411859e-008 0 0)
(-0.0078821762 0.016333062 0 4.68227e-008 0 0)
(-0.0078820653 0.016332881 0 8.8143462e-009 0 0)
(-0.0078820965 0.016332929 0 -1.7822547e-009 0 0)
(-0.0078821352 0.016332995 0 -2.3918511e-009 0 0)
(-0.0078821407 0.016333011 0 2.6774265e-010 0 0)
(-0.0078821361 0.016333006 0 1.2423201e-009 0 0)
(-0.0078821316 0.016333001 0 7.309971e-010 0 0)
(-0.0078821302 0.016332999 0 1.2884925e-010 0 0)
(-0.0078821302 0.016332999 0 -1.4477446e-011 0 0)
(-0.0078821307 0.016333 0 -2.6069225e-011 0 0)
(-0.0078821307 0.016333 0 -7.1684736e-011 0 0)
(-0.0078821303 0.016332999 0 4.4246311e-012 0 0)
(-0.00788213 0.016332999 0 -2.0131559e-010 0 0)
(-0.0078821283 0.016332996 0 -2.9130898e-010 0 0)
(-0.007496078 0.0088561215 0 0.0035869919 0 0)
(-0.0068704611 0.014238656 0 0.0011576816 0 0)
(-0.0091133746 0.017571506 0 0.00032118966 0 0)
(-0.010774803 0.019275911 0 8.1312995e-005 0 0)
(-0.011516274 0.019743217 0 6.8326306e-006 0 0)
(-0.01169637 0.019867388 0 -3.7487488e-006 0 0)
(-0.011745881 0.019889026 0 -3.4262645e-006 0 0)
(-0.011751408 0.019891459 0 2.0941335e-008 0 0)
(-0.011750482 0.019889732 0 1.2927597e-006 0 0)
(-0.011746778 0.019887234 0 1.3588944e-006 0 0)
(-0.011744528 0.019885801 0 6.8254491e-007 0 0)
(-0.01174347 0.019885344 0 1.1706202e-007 0 0)
(-0.011743225 0.019885259 0 -7.6929656e-008 0 0)
(-0.011743278 0.019885284 0 -6.2888564e-008 0 0)
(-0.01174336 0.019885314 0 -1.2620888e-008 0 0)
(-0.011743384 0.019885321 0 7.1618345e-009 0 0)
(-0.011743381 0.01988532 0 6.7889075e-009 0 0)
(-0.011743373 0.019885318 0 1.7660658e-009 0 0)
(-0.01174337 0.019885317 0 -3.6394566e-010 0 0)
(-0.01174337 0.019885317 0 -4.8065732e-010 0 0)
(-0.01174337 0.019885317 0 -1.6259996e-010 0 0)
(-0.011743371 0.019885317 0 -6.3701079e-011 0 0)
(-0.011743371 0.019885317 0 1.7415815e-010 0 0)
(-0.011743371 0.019885316 0 7.8811826e-010 0 0)
(-0.011743369 0.019885313 0 6.9279917e-010 0 0)
(-0.0065136155 0.01155251 0 0.0013866668 0 0)
(-0.0089094062 0.01886509 0 -0.00041463224 0 0)
(-0.013615811 0.021858842 0 -0.00016950883 0 0)
(-0.015568604 0.023093945 0 -2.5982998e-005 0 0)
(-0.01621975 0.023349025 0 -9.7532908e-006 0 0)
(-0.016328438 0.023407141 0 -7.4166974e-006 0 0)
(-0.016358739 0.023409335 0 -2.4530316e-006 0 0)
(-0.016361222 0.02340829 0 1.6959664e-006 0 0)
(-0.016360609 0.023406723 0 2.909385e-006 0 0)
(-0.016358003 0.023406162 0 2.2477516e-006 0 0)
(-0.016356041 0.023405975 0 9.8785684e-007 0 0)
(-0.016354826 0.023405968 0 1.0416971e-007 0 0)
(-0.016354487 0.023405922 0 -1.5058662e-007 0 0)
(-0.016354536 0.023405888 0 -9.825231e-008 0 0)
(-0.016354634 0.023405875 0 -1.7264535e-008 0 0)
(-0.016354675 0.023405877 0 1.3391041e-008 0 0)
(-0.016354672 0.023405881 0 9.7514142e-009 0 0)
(-0.016354664 0.023405883 0 2.3125569e-009 0 0)
(-0.01635466 0.023405883 0 -8.6682895e-010 0 0)
(-0.01635466 0.023405883 0 -7.0451894e-010 0 0)
(-0.01635466 0.023405883 0 -2.3164213e-010 0 0)
(-0.016354661 0.023405883 0 -4.9095751e-011 0 0)
(-0.016354661 0.023405882 0 3.7978214e-010 0 0)
(-0.016354662 0.023405881 0 1.6645589e-009 0 0)
(-0.01635466 0.023405879 0 1.5775712e-009 0 0)
(-0.0065201074 0.016268249 0 -0.0018512685 0 0)
(-0.013521329 0.024209129 0 -0.0017993388 0 0)
(-0.01983489 0.026203884 0 -0.00039950957 0 0)
(-0.021218458 0.026833112 0 -7.380943e-005 0 0)
(-0.021671752 0.026899041 0 -6.67066e-006 0 0)
(-0.021690665 0.026910025 0 -3.5521909e-006 0 0)
(-0.021710547 0.026904589 0 1.5932812e-007 0 0)
(-0.021712634 0.026904341 0 2.5541324e-006 0 0)
(-0.021715505 0.026904711 0 3.3240685e-006 0 0)
(-0.021715185 0.026906129 0 2.3802178e-006 0 0)
(-0.02171396 0.026907013 0 9.6666736e-007 0 0)
(-0.021712856 0.026907292 0 9.1426319e-008 0 0)
(-0.021712411 0.026907224 0 -1.6685285e-007 0 0)
(-0.021712423 0.026907124 0 -9.2299574e-008 0 0)
(-0.021712512 0.026907089 0 -1.2511972e-008 0 0)
(-0.021712558 0.026907093 0 1.5055135e-008 0 0)
(-0.021712559 0.026907104 0 9.1584884e-009 0 0)
(-0.021712552 0.026907108 0 1.4850281e-009 0 0)
(-0.021712548 0.026907108 0 -1.0696348e-009 0 0)
(-0.021712548 0.026907107 0 -7.3467824e-010 0 0)
(-0.021712548 0.026907107 0 -2.1451752e-010 0 0)
(-0.021712549 0.026907107 0 -2.0907253e-012 0 0)
(-0.021712549 0.026907106 0 5.2176138e-010 0 0)
(-0.021712551 0.026907106 0 2.1851637e-009 0 0)
(-0.02171255 0.026907106 0 2.0757616e-009 0 0)
(-0.0119312 0.025208555 0 -0.0053880829 0 0)
(-0.021853015 0.030263847 0 -0.0028405564 0 0)
(-0.027272811 0.030422473 0 -0.00039868078 0 0)
(-0.027554203 0.030425043 0 -8.0680768e-005 0 0)
(-0.027774367 0.030388149 0 1.1588441e-005 0 0)
(-0.027771335 0.030392173 0 1.6870607e-006 0 0)
(-0.027800875 0.030391311 0 3.4336114e-006 0 0)
(-0.027807128 0.030394314 0 2.559783e-006 0 0)
(-0.027814971 0.030397404 0 2.934408e-006 0 0)
(-0.02781651 0.030400469 0 1.7270184e-006 0 0)
(-0.027816285 0.030401913 0 6.431986e-007 0 0)
(-0.027815409 0.030402236 0 3.6321563e-009 0 0)
(-0.027814962 0.030402082 0 -1.359273e-007 0 0)
(-0.027814904 0.03040193 0 -6.4943221e-008 0 0)
(-0.027814972 0.030401888 0 -2.695245e-009 0 0)
(-0.027815017 0.030401901 0 1.2755321e-008 0 0)
(-0.027815024 0.030401916 0 6.4298979e-009 0 0)
(-0.027815019 0.03040192 0 4.875945e-010 0 0)
(-0.027815015 0.03040192 0 -9.8354391e-010 0 0)
(-0.027815015 0.030401919 0 -5.5890247e-010 0 0)
(-0.027815015 0.030401918 0 -1.5915774e-010 0 0)
(-0.027815016 0.030401918 0 -1.7269383e-011 0 0)
(-0.027815016 0.030401918 0 4.057394e-010 0 0)
(-0.027815019 0.030401919 0 1.9227411e-009 0 0)
(-0.02781502 0.030401921 0 1.8664044e-009 0 0)
(-0.035376123 0.042511133 0 -0.0099133948 0 0)
(-0.033497909 0.035591612 0 -0.001881937 0 0)
(-0.039416726 0.036357594 0 -0.00022204035 0 0)
(-0.037727567 0.035468945 0 -2.8976687e-005 0 0)
(-0.038414394 0.035681313 0 1.846752e-005 0 0)
(-0.038285542 0.035635008 0 2.381455e-006 0 0)
(-0.038373828 0.035664001 0 2.2746273e-006 0 0)
(-0.038369975 0.035662072 0 1.0866731e-006 0 0)
(-0.038386118 0.035669398 0 1.1967128e-006 0 0)
(-0.038388187 0.035672347 0 6.6493847e-007 0 0)
(-0.038389896 0.035674291 0 2.4386881e-007 0 0)
(-0.03838931 0.035674476 0 -1.261161e-008 0 0)
(-0.038388938 0.035674278 0 -5.5854358e-008 0 0)
(-0.038388779 0.035674102 0 -2.4361816e-008 0 0)
(-0.03838882 0.035674075 0 2.1018028e-010 0 0)
(-0.038388863 0.035674095 0 5.146818e-009 0 0)
(-0.03838888 0.035674111 0 2.2638272e-009 0 0)
(-0.038388878 0.035674114 0 -2.6441995e-011 0 0)
(-0.038388874 0.035674113 0 -4.5958264e-010 0 0)
(-0.038388873 0.035674112 0 -2.4126203e-010 0 0)
(-0.038388873 0.035674111 0 -8.9437048e-011 0 0)
(-0.038388873 0.035674111 0 -1.6092841e-011 0 0)
(-0.038388873 0.035674111 0 1.7638909e-010 0 0)
(-0.038388874 0.035674112 0 9.6888544e-010 0 0)
(-0.038388879 0.035674117 0 1.0034217e-009 0 0)
(-0.00063862528 0.00071587706 0 0.0005752069 0 0)
(-0.00070984576 3.5011021e-005 0 0.00076490502 0 0)
(-0.00072026955 -0.00021424601 0 0.00067570116 0 0)
(-0.00055195989 -0.00029380138 0 0.00054290166 0 0)
(-0.0004031456 -0.00027905524 0 0.00039507784 0 0)
(-0.0002905817 -0.00023754772 0 0.00028544098 0 0)
(-0.00019896234 -0.00017587147 0 0.00019567471 0 0)
(-0.00014075143 -0.00011604831 0 0.00013907718 0 0)
(-0.00010348921 -5.8365874e-005 0 0.00010217003 0 0)
(-8.5016518e-005 -1.2327449e-005 0 8.4292226e-005 0 0)
(-7.8258027e-005 4.2643821e-005 0 7.7776855e-005 0 0)
(-8.3651247e-005 9.030774e-005 0 8.2447087e-005 0 0)
(-0.00010161491 0.00016094637 0 0.00010007877 0 0)
(-0.00012764034 0.00023633341 0 0.00012427496 0 0)
(-0.0001743584 0.00036078556 0 0.00016936806 0 0)
(-0.00023831801 0.00053428131 0 0.00022879868 0 0)
(-0.00032242322 0.00078089994 0 0.0002985079 0 0)
(-0.00044277131 0.001162518 0 0.00039639762 0 0)
(-0.00054910806 0.0017608795 0 0.00046735239 0 0)
(-0.00069609913 0.0024420703 0 0.00048517827 0 0)
(-0.00060240539 0.0037196919 0 0.00030923955 0 0)
(-0.00048040623 0.0048918819 0 -0.00039375371 0 0)
(0.0013902093 0.0069910526 0 -0.0020595384 0 0)
(0.0019322646 0.0077443367 0 -0.0044463946 0 0)
(0.0098738297 0.0075127098 0 -0.01308061 0 0)
(-0.00078070601 0.00097021976 0 0.00068335921 0 0)
(-0.00078369624 3.2594129e-005 0 0.00085771251 0 0)
(-0.00075529436 -0.00028229027 0 0.00070013209 0 0)
(-0.00053303417 -0.00034238089 0 0.00052135526 0 0)
(-0.00035810485 -0.00030324447 0 0.00035195608 0 0)
(-0.00023129183 -0.00022756129 0 0.00022754785 0 0)
(-0.000145581 -0.00014330377 0 0.00014382391 0 0)
(-9.0556831e-005 -6.3598673e-005 0 9.0884987e-005 0 0)
(-6.0312797e-005 5.1541111e-006 0 6.0145713e-005 0 0)
(-4.4052067e-005 6.4891958e-005 0 4.3984468e-005 0 0)
(-3.7182677e-005 0.00011885251 0 3.6743186e-005 0 0)
(-3.7001946e-005 0.00018373935 0 3.6008278e-005 0 0)
(-4.1113957e-005 0.00025208826 0 4.0999442e-005 0 0)
(-5.0276389e-005 0.00033813247 0 4.7038824e-005 0 0)
(-6.4149823e-005 0.00046198451 0 5.6625568e-005 0 0)
(-7.7540999e-005 0.00065468048 0 6.9645934e-005 0 0)
(-8.8701207e-005 0.00089612521 0 6.7361506e-005 0 0)
(-8.8913177e-005 0.001254578 0 3.9949899e-005 0 0)
(-2.2921641e-005 0.0018174184 0 -5.2976037e-005 0 0)
(0.00011278345 0.0023999135 0 -0.0003007168 0 0)
(0.00061214969 0.003252229 0 -0.0008912992 0 0)
(0.0012221759 0.0038081674 0 -0.001936297 0 0)
(0.0031879287 0.0043363413 0 -0.0039453258 0 0)
(0.0052102859 0.0020730753 0 -0.0074318536 0 0)
(0.0063073651 -0.00097075921 0 -0.0091759462 0 0)
(-0.00095235363 0.0012717275 0 0.00082469545 0 0)
(-0.00084295659 2.6935885e-005 0 0.0009235325 0 0)
(-0.0007459801 -0.00032373278 0 0.00068535163 0 0)
(-0.00046762497 -0.00033609758 0 0.00045530429 0 0)
(-0.00027106136 -0.00024356299 0 0.00026757128 0 0)
(-0.00014880528 -0.00012668548 0 0.00014641536 0 0)
(-7.5867674e-005 -1.7285013e-005 0 7.4626532e-005 0 0)
(-3.145286e-005 8.1924737e-005 0 3.1464682e-005 0 0)
(-1.0396913e-005 0.0001622704 0 1.0080273e-005 0 0)
(-5.3667647e-007 0.00022380057 0 -6.1466098e-007 0 0)
(6.5450901e-006 0.0002883462 0 -8.1874074e-006 0 0)
(1.0942333e-005 0.00034359251 0 -1.4001021e-005 0 0)
(1.745124e-005 0.00041736756 0 -2.119059e-005 0 0)
(2.8807451e-005 0.00050998641 0 -3.3527795e-005 0 0)
(4.1300307e-005 0.00061621281 0 -5.3477066e-005 0 0)
(7.3368986e-005 0.00079534732 0 -8.8961109e-005 0 0)
(0.00013285102 0.0010349575 0 -0.00015651659 0 0)
(0.00021476636 0.0013355826 0 -0.00027063628 0 0)
(0.00042373969 0.0018004398 0 -0.00050841579 0 0)
(0.00070541934 0.0022565527 0 -0.00087004066 0 0)
(0.00129889 0.0027916302 0 -0.0015381796 0 0)
(0.0021031383 0.0030011951 0 -0.0025603084 0 0)
(0.0034817962 0.0028398494 0 -0.0038714651 0 0)
(0.0046431151 0.00077432773 0 -0.0053839461 0 0)
(0.0035435056 -0.0025165776 0 -0.0036520949 0 0)
(-0.001131066 0.0016339814 0 0.00096229572 0 0)
(-0.0008357422 2.1329279e-005 0 0.00092089113 0 0)
(-0.00064684489 -0.00031262746 0 0.00058309933 0 0)