/*--------------------------------*- C++ -*----------------------------------*\
| =========                 |                                                 |
| \\      /  F ield         | OpenFOAM: The Open Source CFD Toolbox           |
|  \\    /   O peration     | Version:  5.x                                   |
|   \\  /    A nd           | Web:      www.OpenFOAM.org                      |
|    \\/     M anipulation  |                                                 |
\*---------------------------------------------------------------------------*/
/*   Windows 32 and 64 bit porting by blueCAPE: http://www.bluecape.com.pt   *\
|  Based on Windows porting (2.0.x v4) by Symscape: http://www.symscape.com   |
\*---------------------------------------------------------------------------*/
FoamFile
{
    version     2.0;
    format      ascii;
    class       volVectorField;
    location    "0.25";
    object      U;
}
// * * * * * * * * * * * * * * * * * * * * * * * * * * * * * * * * * * * * * //

dimensions      [0 1 -1 0 0 0 0];

internalField   nonuniform List<vector> 
750
(
(0.039407838 -0.00016319611 0)
(0.040765688 -0.00020618796 0)
(0.042641335 -0.00020692206 0)
(0.044129988 -0.00018042128 0)
(0.045507356 -0.0001530023 0)
(0.046584792 -0.00012115414 0)
(0.047441485 -9.4987842e-005 0)
(0.048104282 -7.4151365e-005 0)
(0.048623417 -5.9934239e-005 0)
(0.049060169 -5.2931481e-005 0)
(0.049467806 -5.2443058e-005 0)
(0.049896342 -5.8742874e-005 0)
(0.050404079 -7.3396575e-005 0)
(0.051066041 -9.8955868e-005 0)
(0.051982028 -0.00014001099 0)
(0.053295972 -0.00020329743 0)
(0.055219351 -0.00030276397 0)
(0.058119245 -0.00045871634 0)
(0.062521672 -0.00069486158 0)
(0.069154516 -0.0010560804 0)
(0.079381838 -0.0015491145 0)
(0.093582922 -0.0022915757 0)
(0.11621441 -0.0031581138 0)
(0.14291274 -0.0040981212 0)
(0.18274863 -0.0046924894 0)
(0.03941347 -0.00048804689 0)
(0.04077572 -0.00062514209 0)
(0.042659096 -0.00061828153 0)
(0.044151714 -0.00054317277 0)
(0.045528143 -0.00045779447 0)
(0.046603629 -0.00036350233 0)
(0.047457265 -0.00028438419 0)
(0.048116441 -0.00022155392 0)
(0.048631912 -0.0001791386 0)
(0.049065644 -0.00015815554 0)
(0.049469814 -0.00015660865 0)
(0.049894532 -0.00017544578 0)
(0.050397263 -0.00021912146 0)
(0.051052966 -0.00029535375 0)
(0.051959584 -0.00041778359 0)
(0.053259272 -0.00060643817 0)
(0.055160922 -0.0009027147 0)
(0.05802543 -0.0013669758 0)
(0.062367938 -0.0020695168 0)
(0.068904717 -0.0031403439 0)
(0.078963406 -0.0046139473 0)
(0.092921443 -0.0067857316 0)
(0.11512913 -0.0094254542 0)
(0.14122417 -0.012147241 0)
(0.18069295 -0.014072392 0)
(0.039423391 -0.00081376929 0)
(0.040796564 -0.001049631 0)
(0.042695325 -0.0010294738 0)
(0.044194934 -0.00090736363 0)
(0.045570218 -0.00076168241 0)
(0.046641767 -0.00060513798 0)
(0.047488661 -0.00047259553 0)
(0.048140646 -0.00036765731 0)
(0.048649212 -0.00029719881 0)
(0.049076803 -0.0002622313 0)
(0.049473981 -0.00025952071 0)
(0.049891164 -0.00029058534 0)
(0.050383874 -0.00036289511 0)
(0.051026937 -0.00048900734 0)
(0.05191489 -0.0006914407 0)
(0.053186213 -0.0010032848 0)
(0.055043982 -0.0014925168 0)
(0.057837031 -0.0022584331 0)
(0.062060478 -0.003417126 0)
(0.068401173 -0.0051766869 0)
(0.078134008 -0.0076119589 0)
(0.091580236 -0.011152798 0)
(0.1130099 -0.015535908 0)
(0.13785922 -0.019962451 0)
(0.17650856 -0.023354085 0)
(0.039438179 -0.0011441651 0)
(0.040828835 -0.0014786365 0)
(0.042750424 -0.0014439844 0)
(0.044259694 -0.0012723834 0)
(0.045633543 -0.00106495 0)
(0.046699062 -0.00084495002 0)
(0.047535351 -0.00065856518 0)
(0.048176535 -0.00051162498 0)
(0.048675088 -0.00041324534 0)
(0.049093447 -0.00036426324 0)
(0.049480039 -0.00036013739 0)
(0.049886076 -0.00040300954 0)
(0.050363958 -0.00050310415 0)
(0.05098801 -0.00067774465 0)
(0.051848332 -0.00095778612 0)
(0.053077727 -0.0013888605 0)
(0.054870342 -0.0020643144 0)
(0.057557787 -0.0031204453 0)
(0.061607679 -0.0047156864 0)
(0.067657437 -0.0071318732 0)
(0.076912194 -0.010479481 0)
(0.089597822 -0.015319219 0)
(0.1098825 -0.021335792 0)
(0.13283073 -0.027400537 0)
(0.17017071 -0.032313391 0)
(0.039459225 -0.0014815136 0)
(0.040873198 -0.0019134968 0)
(0.042824601 -0.001863324 0)
(0.044345982 -0.0016383827 0)
(0.045717558 -0.0013672516 0)
(0.046774847 -0.0010822212 0)
(0.04759661 -0.0008413876 0)
(0.048223455 -0.00065261306 0)
(0.04870885 -0.00052646974 0)
(0.049114918 -0.00046340336 0)
(0.049487208 -0.00045763281 0)
(0.049878815 -0.00051164241 0)
(0.050337153 -0.0006383831 0)
(0.05093607 -0.00085973667 0)
(0.051760178 -0.0012140755 0)
(0.052934712 -0.001758957 0)
(0.054642298 -0.0026114135 0)
(0.057192364 -0.0039421637 0)
(0.061017437 -0.0059471093 0)
(0.066686166 -0.008975623 0)
(0.075326034 -0.013166524 0)
(0.086986533 -0.019207508 0)
(0.10577194 -0.026703151 0)
(0.12625864 -0.034370106 0)
(0.16172922 -0.040595875 0)
(0.039487979 -0.0018281046 0)
(0.040930346 -0.0023559824 0)
(0.04291803 -0.0022885077 0)
(0.04445367 -0.0020055535 0)
(0.045821562 -0.0016681471 0)
(0.046868 -0.0013161651 0)
(0.047671187 -0.0010201876 0)
(0.048280294 -0.00078977102 0)
(0.048749322 -0.0006360687 0)
(0.049139996 -0.00055882122 0)
(0.049494403 -0.00055105565 0)
(0.049868242 -0.00061554047 0)
(0.050302771 -0.00076748064 0)
(0.050870627 -0.0010331069 0)
(0.051650192 -0.0014576136 0)
(0.052757594 -0.0021096008 0)
(0.054361712 -0.0031276693 0)
(0.056744219 -0.0047136369 0)
(0.060296843 -0.0070946474 0)
(0.065505271 -0.010682144 0)
(0.073397147 -0.015625449 0)
(0.083778665 -0.022746319 0)
(0.10076242 -0.03152359 0)
(0.11802327 -0.040745406 0)
(0.15117097 -0.048040353 0)
(0.039526201 -0.0021866472 0)
(0.041000823 -0.002807364 0)
(0.043030531 -0.0027205501 0)
(0.044581959 -0.0023738739 0)
(0.045944041 -0.0019670929 0)
(0.046976548 -0.0015459426 0)
(0.047757282 -0.0011939952 0)
(0.048345104 -0.00092224687 0)
(0.048794493 -0.00074131201 0)
(0.049166661 -0.00064963354 0)
(0.049499565 -0.00063964861 0)
(0.049852689 -0.00071381576 0)
(0.050259346 -0.0008890242 0)
(0.050790547 -0.001196145 0)
(0.051517793 -0.0016860234 0)
(0.052546618 -0.0024370119 0)
(0.054030151 -0.0036069713 0)
(0.056218236 -0.0054252211 0)
(0.059456169 -0.0081427544 0)
(0.064132409 -0.012223219 0)
(0.071154963 -0.017807079 0)
(0.080025308 -0.025860019 0)
(0.094885238 -0.035627716 0)
(0.10795256 -0.046220677 0)
(0.13898611 -0.054641553 0)
(0.039576204 -0.0025604017 0)
(0.041084831 -0.003268336 0)
(0.04316115 -0.0031604983 0)
(0.044729292 -0.002743099 0)
(0.046082437 -0.0022633116 0)
(0.047097214 -0.001770624 0)
(0.047852052 -0.0013619174 0)
(0.04841488 -0.0010491552 0)
(0.048841397 -0.00084131048 0)
(0.049191633 -0.00073511329 0)
(0.049500287 -0.00072251071 0)
(0.049829102 -0.00080548156 0)
(0.050204413 -0.001001991 0)
(0.050693925 -0.0013472703 0)
(0.051361941 -0.0018967566 0)
(0.052301295 -0.002737779 0)
(0.053649676 -0.0040443445 0)
(0.055620939 -0.0060690676 0)
(0.058506681 -0.0090785946 0)
(0.062590499 -0.013578554 0)
(0.068645234 -0.01967131 0)
(0.075790488 -0.028483364 0)
(0.088204945 -0.03891251 0)
(0.096695803 -0.050781225 0)
(0.12545605 -0.059263857 0)
(0.039640253 -0.0029525808 0)
(0.041182718 -0.0037397066 0)
(0.043307984 -0.003608926 0)
(0.044893798 -0.0031127313 0)
(0.046232895 -0.0025557695 0)
(0.047225919 -0.0019891673 0)
(0.047951155 -0.0015230337 0)
(0.048485408 -0.001169683 0)
(0.048885863 -0.00093522801 0)
(0.04921023 -0.00081435729 0)
(0.049492809 -0.00079893675 0)
(0.04979359 -0.00088980967 0)
(0.05013461 -0.0011052904 0)
(0.050577845 -0.0014850073 0)
(0.051180496 -0.002088057 0)
(0.052021259 -0.003009041 0)
(0.053222397 -0.0044351407 0)
(0.054959305 -0.0066383894 0)
(0.057462356 -0.0098905014 0)
(0.060905017 -0.01472607 0)
(0.065924935 -0.021176512 0)
(0.071187461 -0.030528603 0)
(0.080924411 -0.041283646 0)
(0.084462673 -0.054517833 0)
(0.11063901 -0.062335742 0)
(0.039718767 -0.0033641093 0)
(0.041295276 -0.0042262542 0)
(0.043468392 -0.0040634955 0)
(0.045072063 -0.0034826535 0)
(0.046390465 -0.0028438422 0)
(0.047356609 -0.0022004964 0)
(0.048049105 -0.0016765098 0)
(0.048551185 -0.0012830839 0)
(0.048922193 -0.0010222755 0)
(0.04921711 -0.00088678836 0)
(0.049471729 -0.00086829764 0)
(0.049741152 -0.00096600175 0)
(0.05004569 -0.0011982194 0)
(0.050438622 -0.0016082096 0)
(0.05097047 -0.0022579081 0)
(0.051704886 -0.0032488536 0)
(0.052749729 -0.004777573 0)
(0.054237453 -0.0071288857 0)
(0.056334737 -0.010572736 0)
(0.059109041 -0.015658357 0)
(0.063048236 -0.022344074 0)
(0.066441742 -0.031966647 0)
(0.073027163 -0.042779282 0)
(0.070927555 -0.056929975 0)
(0.091238463 -0.06245126 0)
(0.21572338 -0.0027167876 0)
(0.22678332 -0.0010353628 0)
(0.2306798 -0.00025982404 0)
(0.23105764 -4.0611389e-005 0)
(0.23131433 -4.6289614e-006 0)
(0.23121006 3.9359704e-006 0)
(0.23123962 -4.1238522e-006 0)
(0.2312581 -2.6475466e-006 0)
(0.23127477 -8.7158127e-007 0)
(0.23127178 6.1786998e-007 0)
(0.23126502 8.7260738e-007 0)
(0.23125907 4.7634611e-007 0)
(0.23125726 1.1020203e-007 0)
(0.23125741 -4.3043913e-008 0)
(0.23125792 -4.4510617e-008 0)
(0.23125813 -1.5442752e-008 0)
(0.23125813 2.6840946e-009 0)
(0.23125809 3.9016477e-009 0)
(0.23125807 1.0527825e-009 0)
(0.23125807 -4.0094771e-010 0)
(0.23125808 -4.41964e-010 0)
(0.23125808 -1.4837317e-010 0)
(0.23125808 1.6851625e-010 0)
(0.23125808 1.0044448e-009 0)
(0.23125806 8.6957454e-010 0)
(0.21278777 -0.0078216193 0)
(0.22246621 -0.003005549 0)
(0.22619055 -0.00067661621 0)
(0.22645341 -0.0001706014 0)
(0.22660456 -1.6380264e-005 0)
(0.22649181 9.7786863e-006 0)
(0.22651615 -6.1619499e-006 0)
(0.22653443 -7.64124e-006 0)
(0.2265496 -2.3723891e-006 0)
(0.22654726 1.6522231e-006 0)
(0.22654115 2.4061694e-006 0)
(0.22653595 1.4011464e-006 0)
(0.22653437 3.1543211e-007 0)
(0.22653455 -1.2808232e-007 0)
(0.22653501 -1.318032e-007 0)
(0.22653519 -3.9456582e-008 0)
(0.22653519 8.3708118e-009 0)
(0.22653515 1.1357531e-008 0)
(0.22653513 2.9408008e-009 0)
(0.22653513 -1.1263554e-009 0)
(0.22653514 -1.2417364e-009 0)
(0.22653514 -3.5295679e-010 0)
(0.22653514 5.9369467e-010 0)
(0.22653514 2.5975369e-009 0)
(0.22653513 2.3077253e-009 0)
(0.20678832 -0.012442147 0)
(0.21378959 -0.0047058491 0)
(0.21738488 -0.0011121925 0)
(0.21714068 -0.00021201359 0)
(0.21713907 8.2419468e-006 0)
(0.21707554 1.1454246e-005 0)
(0.21710607 -9.8295722e-006 0)
(0.2171231 -1.2096068e-005 0)
(0.21713429 -3.6093783e-006 0)
(0.21713254 2.5307606e-006 0)
(0.21712765 3.703114e-006 0)
(0.21712386 2.162398e-006 0)
(0.21712287 4.6991932e-007 0)
(0.2171231 -2.0600018e-007 0)
(0.21712345 -2.0521894e-007 0)
(0.21712357 -5.7142757e-008 0)
(0.21712356 1.4213919e-008 0)
(0.21712353 1.7526808e-008 0)
(0.21712352 4.2950377e-009 0)
(0.21712352 -1.795206e-009 0)
(0.21712352 -1.8433234e-009 0)
(0.21712352 -4.481707e-010 0)
(0.21712352 9.9139873e-010 0)
(0.21712352 3.732916e-009 0)
(0.21712352 3.2822175e-009 0)
(0.19748174 -0.016314047 0)
(0.20116851 -0.0060753859 0)
(0.20386174 -0.0013417123 0)
(0.20307696 -0.00018444268 0)
(0.20307288 3.8684792e-005 0)
(0.20305244 1.0894141e-005 0)
(0.20307972 -1.4271681e-005 0)
(0.20308551 -1.5284838e-005 0)
(0.20309054 -4.3301532e-006 0)
(0.20308876 3.210369e-006 0)
(0.20308575 4.6123071e-006 0)
(0.203084 2.5869514e-006 0)
(0.20308381 5.1907312e-007 0)
(0.20308406 -2.7171136e-007 0)
(0.20308425 -2.4967981e-007 0)
(0.20308428 -6.5461948e-008 0)
(0.20308426 1.9591805e-008 0)
(0.20308424 2.1130746e-008 0)
(0.20308424 4.6654499e-009 0)
(0.20308424 -2.3582217e-009 0)
(0.20308424 -2.1838161e-009 0)
(0.20308424 -4.1062153e-010 0)
(0.20308424 1.3216194e-009 0)
(0.20308424 4.240459e-009 0)
(0.20308424 3.6074093e-009 0)
(0.18470952 -0.019158661 0)
(0.18434156 -0.006934887 0)
(0.18527524 -0.0012611694 0)
(0.18445401 -0.00013719575 0)
(0.18452904 4.1638418e-005 0)
(0.18449136 4.0060006e-006 0)
(0.18450389 -1.5609283e-005 0)
(0.18449432 -1.5830429e-005 0)
(0.18449277 -4.1152358e-006 0)
(0.18449082 3.6395908e-006 0)
(0.18449047 4.9362383e-006 0)
(0.18449107 2.6228078e-006 0)
(0.18449171 4.6026553e-007 0)
(0.1844919 -3.1444827e-007 0)
(0.18449188 -2.5899157e-007 0)
(0.18449182 -6.0847184e-008 0)
(0.1844918 2.3560534e-008 0)
(0.1844918 2.1727129e-008 0)
(0.18449181 4.0883302e-009 0)
(0.18449181 -2.7263046e-009 0)
(0.18449181 -2.1897074e-009 0)
(0.18449181 -2.1198756e-010 0)
(0.18449181 1.6019589e-009 0)
(0.18449181 4.073159e-009 0)
(0.18449181 3.3036588e-009 0)
(0.16860931 -0.02091025 0)
(0.16229601 -0.0068170307 0)
(0.1621242 -0.0010771664 0)
(0.16136104 -0.00010149221 0)
(0.16149138 5.2718337e-005 0)
(0.16143557 6.651567e-006 0)
(0.1614415 -1.2398824e-005 0)
(0.16141967 -1.360491e-005 0)
(0.16141321 -3.0544387e-006 0)
(0.16141159 3.6994632e-006 0)
(0.16141444 4.5639284e-006 0)
(0.16141721 2.2658891e-006 0)
(0.16141842 3.2148493e-007 0)
(0.16141845 -3.1660134e-007 0)
(0.16141823 -2.299767e-007 0)
(0.1614181 -4.6126817e-008 0)
(0.16141809 2.4462051e-008 0)
(0.16141811 1.9040035e-008 0)
(0.16141812 2.8184277e-009 0)
(0.16141812 -2.7406308e-009 0)
(0.16141812 -1.8680627e-009 0)
(0.16141812 1.5246828e-011 0)
(0.16141812 1.7040992e-009 0)
(0.16141812 3.4111789e-009 0)
(0.16141813 2.5636388e-009 0)
(0.14787051 -0.020861691 0)
(0.13494681 -0.0059071215 0)
(0.13467539 -0.00079909883 0)
(0.1338162 -7.4863361e-005 0)
(0.13399541 5.6966803e-005 0)
(0.13393706 8.3627325e-006 0)
(0.13394471 -7.7616437e-006 0)
(0.13391504 -9.587079e-006 0)
(0.13390665 -1.6187181e-006 0)
(0.13390639 3.1945738e-006 0)
(0.13391204 3.5495578e-006 0)
(0.13391613 1.6139723e-006 0)
(0.1339175 1.5764658e-007 0)
(0.13391731 -2.696549e-007 0)
(0.13391694 -1.7032764e-007 0)
(0.13391679 -2.6955278e-008 0)
(0.1339168 2.1373598e-008 0)
(0.13391683 1.3948964e-008 0)
(0.13391684 1.352488e-009 0)
(0.13391684 -2.3364617e-009 0)
(0.13391684 -1.351134e-009 0)
(0.13391684 1.9891125e-010 0)
(0.13391684 1.5940508e-009 0)
(0.13391684 2.4842268e-009 0)
(0.13391685 1.6606193e-009 0)
(0.12048324 -0.018177911 0)
(0.10273945 -0.0043813858 0)
(0.1028344 -0.00049063145 0)
(0.10178944 -4.2960331e-005 0)
(0.10206611 5.4760899e-005 0)
(0.10201671 8.452227e-006 0)
(0.10203402 -2.9323422e-006 0)
(0.10200352 -5.0746668e-006 0)
(0.10199704 -4.1348847e-007 0)
(0.10199855 2.2192462e-006 0)
(0.10200549 2.1871925e-006 0)
(0.10200965 8.8727263e-007 0)
(0.10201076 3.2482459e-008 0)
(0.1020104 -1.8164725e-007 0)
(0.10200998 -9.9058289e-008 0)
(0.10200986 -1.0477023e-008 0)
(0.10200988 1.4616101e-008 0)
(0.10200992 7.9905371e-009 0)
(0.10200992 2.5312095e-010 0)
(0.10200992 -1.571347e-009 0)
(0.10200992 -7.6411852e-010 0)
(0.10200992 2.5365961e-010 0)
(0.10200992 1.2550876e-009 0)
(0.10200992 1.5857144e-009 0)
(0.10200993 9.2524522e-010 0)
(0.085959293 -0.013045031 0)
(0.065840067 -0.0024846689 0)
(0.066404537 -0.00018026462 0)
(0.06532605 -2.3053971e-005 0)
(0.065708176 3.8196474e-005 0)
(0.065665437 4.4010185e-006 0)
(0.065694278 6.0295992e-007 0)
(0.065670292 -1.5426641e-006 0)
(0.065668414 2.6713088e-007 0)
(0.065670591 1.026246e-006 0)
(0.065676524 8.8115327e-007 0)
(0.065679501 3.0107051e-007 0)
(0.065680105 -2.0232898e-008 0)
(0.065679706 -7.9166533e-008 0)
(0.065679387 -3.6085722e-008 0)
(0.06567931 -1.0866294e-009 0)
(0.06567934 6.4356465e-009 0)
(0.065679367 2.7931838e-009 0)
(0.065679372 -2.0338324e-010 0)
(0.065679368 -7.0580032e-010 0)
(0.065679366 -2.772591e-010 0)
(0.065679365 1.6086089e-010 0)
(0.065679367 6.9805603e-010 0)
(0.06567937 8.0953648e-010 0)
(0.065679372 4.5015427e-010 0)
(0.040025441 -0.006820709 0)
(0.024024905 -0.00012687708 0)
(0.025400988 1.0476556e-005 0)
(0.024546648 1.5183098e-005 0)
(0.024915406 1.9611011e-006 0)
(0.024855152 1.3267375e-006 0)
(0.024889447 2.0598098e-007 0)
(0.024876268 8.4955389e-008 0)
(0.024878675 -4.5209001e-008 0)
(0.024879472 -3.0576297e-008 0)
(0.024882175 -1.8355724e-008 0)
(0.024883159 -5.8888327e-009 0)
(0.024883295 -5.1819308e-009 0)
(0.024883082 -1.6116351e-009 0)
(0.02488296 -6.1760572e-010 0)
(0.024882938 1.4385029e-010 0)
(0.024882954 5.8827587e-011 0)
(0.024882965 -3.0603126e-011 0)
(0.024882965 -5.3861244e-011 0)
(0.024882964 -3.0408472e-011 0)
(0.024882962 8.5970828e-012 0)
(0.024882963 2.4765432e-011 0)
(0.024882963 1.1940285e-010 0)
(0.024882966 -5.4618999e-011 0)
(0.024882967 -1.1038408e-010 0)
(0.039899932 -0.0042177562 0)
(0.041548467 -0.0052523035 0)
(0.043810905 -0.0049738596 0)
(0.045445034 -0.0042243074 0)
(0.046707052 -0.0034088305 0)
(0.047606587 -0.0026085203 0)
(0.048228086 -0.0019674333 0)
(0.048656946 -0.0014943083 0)
(0.048962441 -0.0011817107 0)
(0.049192738 -0.0010177489 0)
(0.04938968 -0.00099202411 0)
(0.049587572 -0.0011013914 0)
(0.049815927 -0.0013624355 0)
(0.050099597 -0.0018242476 0)
(0.050483401 -0.0025525336 0)
(0.050992548 -0.0036610881 0)
(0.051707634 -0.0053594429 0)
(0.052675241 -0.0079399973 0)
(0.053943012 -0.011667146 0)
(0.055402513 -0.017055766 0)
(0.057173173 -0.023943674 0)
(0.057305469 -0.03339212 0)
(0.057430911 -0.043379749 0)
(0.043784855 -0.055873497 0)
(0.036523454 -0.045896533 0)
(0.040218193 -0.0057017745 0)
(0.042010776 -0.0069878573 0)
(0.044379893 -0.0063622856 0)
(0.045963653 -0.0053027456 0)
(0.04707023 -0.004174709 0)
(0.047808853 -0.0031331725 0)
(0.048277035 -0.002314157 0)
(0.048558902 -0.0017247284 0)
(0.048737354 -0.0013421255 0)
(0.04885565 -0.0011392606 0)
(0.048945164 -0.0011013481 0)
(0.049026338 -0.0012159854 0)
(0.049116131 -0.0014965651 0)
(0.049213185 -0.0019943256 0)
(0.049350794 -0.0027796096 0)
(0.049508519 -0.0039578861 0)
(0.049683766 -0.0057284037 0)
(0.04986477 -0.0083860705 0)
(0.049959137 -0.012120314 0)
(0.049622846 -0.01724697 0)
(0.048788665 -0.023447909 0)
(0.04578154 -0.030641929 0)
(0.040718702 -0.036304263 0)
(0.026256824 -0.039147475 0)
(0.010961608 -0.020012273 0)
(0.040586687 -0.0074923865 0)
(0.042483693 -0.0088288318 0)
(0.044830447 -0.0077290323 0)
(0.046205725 -0.0062587886 0)
(0.047042106 -0.0047942689 0)
(0.047536119 -0.0035123542 0)
(0.047785633 -0.0025293238 0)
(0.047893571 -0.0018428771 0)
(0.0479225 -0.0014039578 0)
(0.047919552 -0.0011740636 0)
(0.047892074 -0.0011203177 0)
(0.047854417 -0.0012279196 0)
(0.047800629 -0.0015098801 0)
(0.047719125 -0.0019962832 0)
(0.047600025 -0.002768606 0)
(0.047423254 -0.0039278211 0)
(0.047105331 -0.0056199956 0)
(0.04656697 -0.0081225787 0)
(0.045678204 -0.011555491 0)
(0.043978054 -0.016053974 0)
(0.041190185 -0.021223663 0)
(0.036186332 -0.026306565 0)
(0.028698696 -0.029395229 0)
(0.015893268 -0.028784588 0)
(0.0025494025 -0.013520468 0)
(0.040987852 -0.009594835 0)
(0.042855203 -0.010664928 0)
(0.044913327 -0.0089253338 0)
(0.045859685 -0.0069712502 0)
(0.046265073 -0.0051770541 0)
(0.046415272 -0.003688356 0)
(0.046380413 -0.0025777941 0)
(0.046289647 -0.0018287869 0)
(0.046165091 -0.0013626078 0)
(0.046036123 -0.0011167812 0)
(0.04590367 -0.0010536942 0)
(0.045751986 -0.0011441146 0)
(0.045569968 -0.0014006253 0)
(0.045335532 -0.0018497837 0)
(0.044995212 -0.0025434524 0)
(0.044517631 -0.0035944921 0)
(0.043809072 -0.0051073738 0)
(0.042705335 -0.0072838924 0)
(0.041055574 -0.010223858 0)
(0.038436731 -0.013860156 0)
(0.034531145 -0.017782974 0)
(0.028697754 -0.021092961 0)
(0.020879278 -0.02216999 0)
(0.010686876 -0.019572997 0)
(0.00038821622 -0.0082293792 0)
(0.041342886 -0.011966635 0)
(0.042970136 -0.012287414 0)
(0.044318928 -0.0097331653 0)
(0.044570429 -0.0072778738 0)
(0.044376584 -0.0052127396 0)
(0.044082161 -0.0035945549 0)
(0.043732399 -0.002438964 0)
(0.043426789 -0.0016759331 0)
(0.043163855 -0.001218355 0)
(0.042924543 -0.00097747294 0)
(0.042703674 -0.00090833891 0)
(0.042466105 -0.00098022058 0)
(0.042186842 -0.001192678 0)
(0.041829155 -0.0015732598 0)
(0.041337763 -0.0021578543 0)
(0.040639286 -0.0030267639 0)
(0.039653433 -0.0042841758 0)
(0.038183574 -0.0060430783 0)
(0.036052464 -0.0083783769 0)
(0.032927476 -0.011149956 0)
(0.028541853 -0.013940903 0)
(0.022631863 -0.015926716 0)
(0.01535842 -0.01594607 0)
(0.0074078846 -0.012928703 0)
(-8.5727515e-005 -0.0051396837 0)
(0.041463343 -0.014461426 0)
(0.042582969 -0.013354799 0)
(0.042649064 -0.009884512 0)
(0.041954063 -0.0070070787 0)
(0.041046337 -0.0048083078 0)
(0.040240835 -0.0031924282 0)
(0.039601877 -0.0021003219 0)
(0.039103515 -0.0013982898 0)
(0.038727949 -0.00098619888 0)
(0.038415206 -0.00077383291 0)
(0.038136221 -0.00070818875 0)
(0.037847914 -0.0007590788 0)
(0.0375156 -0.00092225933 0)
(0.037087365 -0.0012107995 0)
(0.036516265 -0.0016627962 0)
(0.035709812 -0.0023227302 0)
(0.034579401 -0.0032737433 0)
(0.032952066 -0.0045845075 0)
(0.030636343 -0.0062872295 0)
(0.027392285 -0.008245392 0)
(0.023041719 -0.010090063 0)
(0.017569906 -0.011186172 0)
(0.011252695 -0.010699321 0)
(0.0052021026 -0.0080153317 0)
(-0.00016915697 -0.00290185 0)
(0.041095837 -0.016864104 0)
(0.041205135 -0.01336111 0)
(0.039373452 -0.0091178396 0)
(0.037556272 -0.0060300418 0)
(0.035936881 -0.0039335457 0)
(0.034691949 -0.0025062193 0)
(0.033829583 -0.0015893858 0)
(0.03321474 -0.0010238948 0)
(0.032778017 -0.00070018705 0)
(0.032439935 -0.00053605852 0)
(0.032146889 -0.00048318403 0)
(0.031852393 -0.00051518386 0)
(0.031514273 -0.00062556633 0)
(0.031084112 -0.0008219184 0)
(0.030508349 -0.0011280203 0)
(0.029707612 -0.0015767107 0)
(0.028585177 -0.0022155193 0)
(0.026999573 -0.0030913965 0)
(0.024779241 -0.0042076057 0)
(0.021751638 -0.0054588317 0)
(0.017829204 -0.0065683526 0)
(0.013112933 -0.0071007049 0)
(0.0079707781 -0.006503827 0)
(0.0034966757 -0.0044705946 0)
(-0.00017682907 -0.0013617156 0)
(0.039488848 -0.01845393 0)
(0.03797788 -0.011735333 0)
(0.033610739 -0.007212316 0)
(0.03083792 -0.0043674328 0)
(0.028731256 -0.0026636872 0)
(0.027284091 -0.0016182244 0)
(0.026348343 -0.00098715577 0)
(0.025728854 -0.00061124186 0)
(0.025311427 -0.00040393361 0)
(0.025004564 -0.00030087558 0)
(0.024746855 -0.00026728824 0)
(0.024492145 -0.00028411911 0)
(0.024199903 -0.00034539067 0)
(0.023830058 -0.00045644875 0)
(0.023332867 -0.00062775696 0)
(0.022644145 -0.00088041861 0)
(0.021679624 -0.0012384685 0)
(0.020325099 -0.0017273949 0)
(0.018446019 -0.0023436647 0)
(0.015925333 -0.0030237025 0)
(0.012732717 -0.0035985477 0)
(0.0090185137 -0.0037997478 0)
(0.0051582348 -0.0033276666 0)
(0.0020695957 -0.0020252675 0)
(-0.00018229631 -0.00038044615 0)
(0.034425151 -0.016505047 0)
(0.031451168 -0.0078236392 0)
(0.024324482 -0.0044163062 0)
(0.021370067 -0.0023890901 0)
(0.019246834 -0.0013685741 0)
(0.017964301 -0.00078597928 0)
(0.017177544 -0.00045664269 0)
(0.016693904 -0.00026978755 0)
(0.016384711 -0.00017080836 0)
(0.016167258 -0.00012304628 0)
(0.015989548 -0.00010753251 0)
(0.01581562 -0.00011390324 0)
(0.015615924 -0.00013936783 0)
(0.015361624 -0.00018557056 0)
(0.015017788 -0.00025699202 0)
(0.01453927 -0.00036197945 0)
(0.013866408 -0.00051114141 0)
(0.012919984 -0.00071394984 0)
(0.011608521 -0.00097021623 0)
(0.0098557978 -0.0012502665 0)
(0.0076559341 -0.0014759446 0)
(0.0051563656 -0.0015231007 0)
(0.0026480554 -0.0012583957 0)
(0.00083821135 -0.00061099585 0)
(-0.00020473732 6.0823887e-005 0)
(0.020501308 -0.012023349 0)
(0.017296501 -0.0023155808 0)
(0.010464264 -0.00037702386 0)
(0.0090181658 -0.00014722216 0)
(0.0076165463 -4.3149694e-005 0)
(0.0069371568 -1.2276642e-005 0)
(0.0065298444 -1.0773415e-006 0)
(0.0062994549 3.5968139e-006 0)
(0.0061612933 5.141514e-006 0)
(0.0060704374 5.7156473e-006 0)
(0.0059993684 5.891518e-006 0)
(0.0059307471 6.1714973e-006 0)
(0.0058515624 6.9268207e-006 0)
(0.0057490882 8.094051e-006 0)
(0.0056086448 1.0037314e-005 0)
(0.0054110201 1.2588165e-005 0)
(0.0051306406 1.6021411e-005 0)
(0.0047341409 2.0511858e-005 0)
(0.0041828482 2.6168393e-005 0)
(0.0034463288 3.3621208e-005 0)
(0.0025265947 4.2370367e-005 0)
(0.0015084528 5.7283137e-005 0)
(0.00052339085 7.1579617e-005 0)
(-5.8643847e-005 0.00011022282 0)
(-0.00018109966 0.00012693163 0)
)
;

boundaryField
{
    inlet
    {
        type            fixedValue;
        value           uniform (0.03876 0 0);
    }
    walls
    {
        type            fixedValue;
        value           uniform (0 0 0);
    }
    outlet
    {
        type            zeroGradient;
    }
    centreline
    {
        type            symmetryPlane;
    }
    frontAndBack
    {
        type            empty;
    }
}


// ************************************************************************* //
