/*--------------------------------*- C++ -*----------------------------------*\
| =========                 |                                                 |
| \\      /  F ield         | OpenFOAM: The Open Source CFD Toolbox           |
|  \\    /   O peration     | Version:  5.x                                   |
|   \\  /    A nd           | Web:      www.OpenFOAM.org                      |
|    \\/     M anipulation  |                                                 |
\*---------------------------------------------------------------------------*/
/*   Windows 32 and 64 bit porting by blueCAPE: http://www.bluecape.com.pt   *\
|  Based on Windows porting (2.0.x v4) by Symscape: http://www.symscape.com   |
\*---------------------------------------------------------------------------*/
FoamFile
{
    version     2.0;
    format      ascii;
    class       volVectorField;
    location    "0.25";
    object      U_0;
}
// * * * * * * * * * * * * * * * * * * * * * * * * * * * * * * * * * * * * * //

dimensions      [0 1 -1 0 0 0 0];

internalField   nonuniform List<vector> 
750
(
(0.039407505 -0.0001631112 0)
(0.040764629 -0.00020607367 0)
(0.042639208 -0.00020680354 0)
(0.044126998 -0.00018031432 0)
(0.045503532 -0.0001529092 0)
(0.046580307 -0.00012108004 0)
(0.047436479 -9.4932216e-005 0)
(0.048098907 -7.4113291e-005 0)
(0.048617805 -5.9909148e-005 0)
(0.049054393 -5.291576e-005 0)
(0.049461945 -5.2434239e-005 0)
(0.049890428 -5.8737873e-005 0)
(0.050398139 -7.3393092e-005 0)
(0.05106007 -9.8950762e-005 0)
(0.051976009 -0.00014000088 0)
(0.053289841 -0.00020327594 0)
(0.055212992 -0.00030272476 0)
(0.058112494 -0.00045866423 0)
(0.062514488 -0.00069482313 0)
(0.06914715 -0.0010561045 0)
(0.079375055 -0.0015492386 0)
(0.093577526 -0.0022917984 0)
(0.11621122 -0.0031583515 0)
(0.14291113 -0.0040982843 0)
(0.18274805 -0.0046925403 0)
(0.039413125 -0.00048779107 0)
(0.040774641 -0.00062479437 0)
(0.042656943 -0.00061792723 0)
(0.044148695 -0.00054285066 0)
(0.045524291 -0.00045751617 0)
(0.046599118 -0.00036327981 0)
(0.047452235 -0.00028421772 0)
(0.048111044 -0.00022144032 0)
(0.048626281 -0.00017906378 0)
(0.049059851 -0.00015810883 0)
(0.049463938 -0.00015658261 0)
(0.049888605 -0.00017543112 0)
(0.050391311 -0.00021911093 0)
(0.051046983 -0.0002953389 0)
(0.051953556 -0.00041775362 0)
(0.053253136 -0.00060637481 0)
(0.055154564 -0.00090259856 0)
(0.058018688 -0.0013668213 0)
(0.062360772 -0.002069403 0)
(0.068897376 -0.003140416 0)
(0.078956647 -0.0046143214 0)
(0.092916063 -0.0067863988 0)
(0.11512594 -0.0094261726 0)
(0.14122262 -0.012147731 0)
(0.18069239 -0.014072564 0)
(0.039423024 -0.0008133384 0)
(0.040795448 -0.0010490452 0)
(0.042693122 -0.0010288836 0)
(0.044191863 -0.00090682554 0)
(0.045566315 -0.00076121966 0)
(0.046637208 -0.0006047675 0)
(0.047483587 -0.00047231908 0)
(0.04813521 -0.00036746899 0)
(0.048643547 -0.0002970751 0)
(0.049070982 -0.00026215442 0)
(0.04946808 -0.00025947813 0)
(0.049885215 -0.00029056139 0)
(0.0503779 -0.00036287781 0)
(0.051020936 -0.00048898314 0)
(0.051908849 -0.00069139211 0)
(0.05318007 -0.0010031812 0)
(0.055037629 -0.0014923261 0)
(0.05783031 -0.0022581786 0)
(0.062053349 -0.0034169401 0)
(0.068393885 -0.0051768093 0)
(0.078127298 -0.007612582 0)
(0.091574887 -0.011153904 0)
(0.11300669 -0.015537116 0)
(0.1378578 -0.019963275 0)
(0.17650806 -0.023354422 0)
(0.039437781 -0.0011435503 0)
(0.040827668 -0.0014778081 0)
(0.042748154 -0.0014431561 0)
(0.044256554 -0.0012716292 0)
(0.045629575 -0.0010643034 0)
(0.046694442 -0.00084443291 0)
(0.047530224 -0.0006581803 0)
(0.048171054 -0.0005113634 0)
(0.048669384 -0.00041307418 0)
(0.049087594 -0.00036415756 0)
(0.049474112 -0.00036007935 0)
(0.049880105 -0.00040297689 0)
(0.050357964 -0.00050308065 0)
(0.050981993 -0.00067771245 0)
(0.051842282 -0.00095772076 0)
(0.053071584 -0.0013887194 0)
(0.054864007 -0.0020640536 0)
(0.057551108 -0.0031200961 0)
(0.061600616 -0.0047154326 0)
(0.067650236 -0.0071320457 0)
(0.076905562 -0.010480349 0)
(0.089592511 -0.015320754 0)
(0.10987928 -0.021337493 0)
(0.1328294 -0.027401699 0)
(0.1701703 -0.032313866 0)
(0.039458788 -0.0014807033 0)
(0.040871972 -0.001912421 0)
(0.042822257 -0.0018622556 0)
(0.04434277 -0.001637413 0)
(0.045713523 -0.0013664223 0)
(0.046770167 -0.0010815593 0)
(0.047591434 -0.00084089647 0)
(0.048217934 -0.00065228019 0)
(0.048703113 -0.00052625308 0)
(0.049109043 -0.00046327076 0)
(0.049481264 -0.00045756043 0)
(0.049872834 -0.00051160182 0)
(0.050331153 -0.0006383548 0)
(0.05093005 -0.000859698 0)
(0.051754134 -0.0012139954 0)
(0.052928589 -0.0017587828 0)
(0.054636006 -0.0026110888 0)
(0.05718576 -0.0039417264 0)
(0.061010485 -0.0059467939 0)
(0.066679097 -0.0089758443 0)
(0.075319519 -0.013167626 0)
(0.086981288 -0.019209457 0)
(0.10576872 -0.026705358 0)
(0.12625731 -0.034371635 0)
(0.16172896 -0.040596444 0)
(0.039487494 -0.0018270856 0)
(0.040929058 -0.0023546551 0)
(0.042915617 -0.002287198 0)
(0.044450393 -0.0020043694 0)
(0.045817472 -0.0016671369 0)
(0.046863275 -0.0013153612 0)
(0.04766598 -0.001019593 0)
(0.048274753 -0.00078936945 0)
(0.048743576 -0.000635809 0)
(0.049134122 -0.00055866369 0)
(0.049488468 -0.00055097082 0)
(0.049862278 -0.00061549371 0)
(0.050296792 -0.00076744806 0)
(0.050864634 -0.0010330631 0)
(0.051644185 -0.0014575224 0)
(0.052751525 -0.0021093984 0)
(0.054355498 -0.0031272877 0)
(0.056737735 -0.0047131224 0)
(0.06029006 -0.0070942792 0)
(0.065498404 -0.010682419 0)
(0.073390809 -0.015626776 0)
(0.083773534 -0.022748667 0)
(0.10075919 -0.031526277 0)
(0.1180219 -0.040747311 0)
(0.15117083 -0.048041072 0)
(0.039525664 -0.002185406 0)
(0.04099948 -0.0028057832 0)
(0.043028062 -0.0027189999 0)
(0.044578643 -0.0023724784 0)
(0.045939926 -0.0019659045 0)
(0.04697181 -0.0015449999 0)
(0.047752078 -0.0011933005 0)
(0.048339582 -0.0009217798 0)
(0.048788778 -0.00074101192 0)
(0.04916083 -0.00064945363 0)
(0.049493679 -0.00063955338 0)
(0.049846783 -0.00071376392 0)
(0.050253432 -0.00088898895 0)
(0.050784624 -0.0011960991 0)
(0.05151187 -0.0016859243 0)
(0.052540651 -0.0024367865 0)
(0.054024066 -0.0036065422 0)
(0.056211928 -0.0054246428 0)
(0.059449622 -0.0081423453 0)
(0.064125824 -0.012223556 0)
(0.071148867 -0.01780862 0)
(0.080020334 -0.025862743 0)
(0.094882029 -0.035630868 0)
(0.10795118 -0.046222994 0)
(0.13898625 -0.05464251 0)
(0.039575612 -0.002558925 0)
(0.041083445 -0.0032665029 0)
(0.043158652 -0.0031587108 0)
(0.044725972 -0.0027414969 0)
(0.046078341 -0.0022619492 0)
(0.047092513 -0.0017695468 0)
(0.047846905 -0.0013611269 0)
(0.04840943 -0.0010486259 0)
(0.048835767 -0.00084097319 0)
(0.049185901 -0.00073491315 0)
(0.049494504 -0.00072240698 0)
(0.049823314 -0.00080542743 0)
(0.050198624 -0.0010019551 0)
(0.050688134 -0.0013472242 0)
(0.051356161 -0.0018966536 0)
(0.052295492 -0.0027375366 0)
(0.053643786 -0.0040438778 0)
(0.05561487 -0.0060684367 0)
(0.058500444 -0.0090781586 0)
(0.062584266 -0.01357894 0)
(0.068639453 -0.01967305 0)
(0.075785719 -0.028486429 0)
(0.088201797 -0.038916103 0)
(0.096694463 -0.050783949 0)
(0.12545652 -0.059265069 0)
(0.039639606 -0.0029508575 0)
(0.041181309 -0.0037376267 0)
(0.043305496 -0.0036069076 0)
(0.044890523 -0.0031109301 0)
(0.046228876 -0.0025542387 0)
(0.047221318 -0.001987961 0)
(0.047946131 -0.0015221521 0)
(0.0484801 -0.0011690954 0)
(0.048880389 -0.00093485712 0)
(0.049204672 -0.00081413894 0)
(0.049487195 -0.00079882754 0)
(0.049787992 -0.00088975678 0)
(0.050129022 -0.001105255 0)
(0.050572261 -0.0014849625 0)
(0.051174933 -0.002087955 0)
(0.052015697 -0.0030087897 0)
(0.053216775 -0.0044346458 0)
(0.054953552 -0.0066377191 0)
(0.057456507 -0.0098900514 0)
(0.060899221 -0.014726511 0)
(0.065919559 -0.021178428 0)
(0.071182981 -0.030531976 0)
(0.080921361 -0.041287656 0)
(0.084461263 -0.054521048 0)
(0.1106396 -0.062337145 0)
(0.03971807 -0.0033621323 0)
(0.041293867 -0.0042239351 0)
(0.043465957 -0.0040612584 0)
(0.04506889 -0.0034806627 0)
(0.046386592 -0.0028421507 0)
(0.047352183 -0.0021991668 0)
(0.048044284 -0.0016755424 0)
(0.048546099 -0.0012824426 0)
(0.048916956 -0.0010218745 0)
(0.049211807 -0.00088655529 0)
(0.049466377 -0.00086818359 0)
(0.049735818 -0.00096595281 0)
(0.050040385 -0.0011981883 0)
(0.05043333 -0.0016081693 0)
(0.050965213 -0.0022578097 0)
(0.051699642 -0.0032485966 0)
(0.052744449 -0.0047770585 0)
(0.054232114 -0.0071282012 0)
(0.05632936 -0.010572285 0)
(0.059103776 -0.015658861 0)
(0.063043365 -0.022346142 0)
(0.066437688 -0.031970295 0)
(0.073024322 -0.042783647 0)
(0.070926116 -0.056933664 0)
(0.091238774 -0.062453058 0)
(0.21572276 -0.0027167609 0)
(0.22678236 -0.0010354188 0)
(0.23068007 -0.00025998653 0)
(0.23105957 -4.0892253e-005 0)
(0.23131849 -4.8732809e-006 0)
(0.23121621 3.6844987e-006 0)
(0.23124698 -4.2380725e-006 0)
(0.23126586 -2.6709189e-006 0)
(0.23128247 -8.5898063e-007 0)
(0.23127932 6.3421597e-007 0)
(0.23127248 8.7839072e-007 0)
(0.23126653 4.7565087e-007 0)
(0.23126474 1.0791873e-007 0)
(0.2312649 -4.4112085e-008 0)
(0.23126541 -4.4470493e-008 0)
(0.23126562 -1.5183242e-008 0)
(0.23126562 2.8182434e-009 0)
(0.23126558 3.9090013e-009 0)
(0.23126556 1.0320899e-009 0)
(0.23126556 -4.1043958e-010 0)
(0.23126556 -4.4152263e-010 0)
(0.23126557 -1.4749685e-010 0)
(0.23126557 1.6899027e-010 0)
(0.23126556 1.0130068e-009 0)
(0.23126555 8.7829687e-010 0)
(0.21278725 -0.0078215489 0)
(0.22246545 -0.0030057334 0)
(0.22619096 -0.00067717943 0)
(0.22645517 -0.00017129855 0)
(0.22660841 -1.7307269e-005 0)
(0.22649738 9.204281e-006 0)
(0.22652278 -6.4584171e-006 0)
(0.22654138 -7.7057796e-006 0)
(0.22655649 -2.3324976e-006 0)
(0.22655401 1.6972835e-006 0)
(0.22654782 2.4232917e-006 0)
(0.22654261 1.39856e-006 0)
(0.22654105 3.0886511e-007 0)
(0.22654125 -1.3102593e-007 0)
(0.22654171 -1.3172871e-007 0)
(0.22654189 -3.871448e-008 0)
(0.22654188 8.7336501e-009 0)
(0.22654184 1.1373664e-008 0)
(0.22654183 2.8794612e-009 0)
(0.22654183 -1.1520334e-009 0)
(0.22654183 -1.2412044e-009 0)
(0.22654183 -3.5015426e-010 0)
(0.22654183 5.959342e-010 0)
(0.22654183 2.6226613e-009 0)
(0.22654182 2.334946e-009 0)
(0.20678799 -0.012442056 0)
(0.21378916 -0.0047061291 0)
(0.21738519 -0.0011129968 0)
(0.21714224 -0.00021316298 0)
(0.2171423 6.8357974e-006 0)
(0.21707995 1.0593759e-005 0)
(0.21711117 -1.0266991e-005 0)
(0.21712841 -1.2186801e-005 0)
(0.21713952 -3.5435047e-006 0)
(0.21713766 2.6007232e-006 0)
(0.2171327 3.7301624e-006 0)
(0.21712892 2.1578439e-006 0)
(0.21712794 4.5962292e-007 0)
(0.21712818 -2.1041569e-007 0)
(0.21712853 -2.0508227e-007 0)
(0.21712865 -5.5986816e-008 0)
(0.21712863 1.4752379e-008 0)
(0.2171286 1.754184e-008 0)
(0.21712859 4.1988956e-009 0)
(0.2171286 -1.8331356e-009 0)
(0.2171286 -1.8421643e-009 0)
(0.2171286 -4.4377155e-010 0)
(0.2171286 9.95844e-010 0)
(0.2171286 3.7743717e-009 0)
(0.21712859 3.3274835e-009 0)
(0.19748156 -0.016314004 0)
(0.20116832 -0.006075728 0)
(0.20386201 -0.0013426913 0)
(0.20307823 -0.00018593446 0)
(0.20307495 3.7169408e-005 0)
(0.203055 9.7301122e-006 0)
(0.20308253 -1.4795693e-005 0)
(0.20308835 -1.5380022e-005 0)
(0.20309331 -4.2425933e-006 0)
(0.20309146 3.2989696e-006 0)
(0.20308842 4.6452477e-006 0)
(0.20308667 2.5805202e-006 0)
(0.2030865 5.0623934e-007 0)
(0.20308675 -2.7696232e-007 0)
(0.20308693 -2.4936034e-007 0)
(0.20308696 -6.4030702e-008 0)
(0.20308694 2.0220836e-008 0)
(0.20308693 2.1129565e-008 0)
(0.20308692 4.5471581e-009 0)
(0.20308693 -2.402295e-009 0)
(0.20308693 -2.1814061e-009 0)
(0.20308693 -4.0461726e-010 0)
(0.20308693 1.3284785e-009 0)
(0.20308693 4.2963145e-009 0)
(0.20308693 3.6672625e-009 0)
(0.18470928 -0.019158615 0)
(0.18434177 -0.0069353565 0)
(0.18527567 -0.0012623119 0)
(0.18445456 -0.00013877979 0)
(0.18452942 4.0135469e-005 0)
(0.18449151 2.8908733e-006 0)
(0.18450385 -1.6126998e-005 0)
(0.18449414 -1.591076e-005 0)
(0.18449255 -4.0135333e-006 0)
(0.18449058 3.7361315e-006 0)
(0.18449023 4.9692769e-006 0)
(0.18449085 2.6145042e-006 0)
(0.18449149 4.465729e-007 0)
(0.18449167 -3.1972829e-007 0)
(0.18449166 -2.5844657e-007 0)
(0.1844916 -5.9327376e-008 0)
(0.18449158 2.4177394e-008 0)
(0.18449158 2.1699895e-008 0)
(0.18449158 3.9628618e-009 0)
(0.18449159 -2.769588e-009 0)
(0.18449159 -2.1858758e-009 0)
(0.18449158 -2.0467501e-010 0)
(0.18449158 1.6115824e-009 0)
(0.18449158 4.1382346e-009 0)
(0.18449159 3.3712247e-009 0)
(0.16860932 -0.020910261 0)
(0.1622966 -0.0068175816 0)
(0.16212446 -0.0010782636 0)
(0.16136056 -0.0001029471 0)
(0.16148992 5.1370857e-005 0)
(0.16143319 5.7466139e-006 0)
(0.16143852 -1.2834905e-005 0)
(0.16141646 -1.3657085e-005 0)
(0.16141 -2.951128e-006 0)
(0.16140844 3.7891935e-006 0)
(0.16141134 4.5912982e-006 0)
(0.16141411 2.2565855e-006 0)
(0.16141531 3.0891074e-007 0)
(0.16141534 -3.2103014e-007 0)
(0.16141512 -2.2927558e-007 0)
(0.16141499 -4.4729408e-008 0)
(0.16141498 2.4970052e-008 0)
(0.161415 1.8989566e-008 0)
(0.16141501 2.7034252e-009 0)
(0.16141501 -2.7762284e-009 0)
(0.16141501 -1.8630115e-009 0)
(0.16141501 2.250191e-011 0)
(0.16141501 1.7161391e-009 0)
(0.16141501 3.4768939e-009 0)
(0.16141501 2.6293828e-009 0)
(0.1478711 -0.020861866 0)
(0.13494736 -0.0059076233 0)
(0.13467525 -0.00079997798 0)
(0.13381473 -7.6001598e-005 0)
(0.13399237 5.591538e-005 0)
(0.13393265 7.6417461e-006 0)
(0.13393949 -8.0697443e-006 0)
(0.13390956 -9.6079498e-006 0)
(0.13390122 -1.5297467e-006 0)
(0.13390108 3.2635595e-006 0)
(0.13390681 3.5673933e-006 0)
(0.1339109 1.6055168e-006 0)
(0.13391225 1.4797311e-007 0)
(0.13391206 -2.727138e-007 0)
(0.13391168 -1.6956317e-007 0)
(0.13391153 -2.5873355e-008 0)
(0.13391154 2.1719632e-008 0)
(0.13391157 1.3884829e-008 0)
(0.13391159 1.2639456e-009 0)
(0.13391158 -2.3605327e-009 0)
(0.13391158 -1.346092e-009 0)
(0.13391158 2.0528164e-010 0)
(0.13391158 1.6069588e-009 0)
(0.13391158 2.5404935e-009 0)
(0.13391159 1.7149823e-009 0)
(0.12048409 -0.018178058 0)
(0.10273978 -0.0043817645 0)
(0.10283386 -0.00049121845 0)
(0.10178732 -4.3712626e-005 0)
(0.10206226 5.4106375e-005 0)
(0.10201141 8.0392026e-006 0)
(0.10202792 -3.0990534e-006 0)
(0.10199721 -5.0739055e-006 0)
(0.10199084 -3.5645582e-007 0)
(0.1019925 2.2602678e-006 0)
(0.10199951 2.1957489e-006 0)
(0.10200367 8.8108095e-007 0)
(0.10200475 2.6558994e-008 0)
(0.10200438 -1.8326188e-007 0)
(0.10200397 -9.8421748e-008 0)
(0.10200384 -9.8232796e-009 0)
(0.10200386 1.4796006e-008 0)
(0.1020039 7.9342715e-009 0)
(0.10200391 1.9411512e-010 0)
(0.10200391 -1.5837399e-009 0)
(0.1020039 -7.6036339e-010 0)
(0.1020039 2.5787605e-010 0)
(0.1020039 1.2655384e-009 0)
(0.10200391 1.6245512e-009 0)
(0.10200391 9.6175227e-010 0)
(0.085960134 -0.013045091 0)
(0.065840178 -0.0024848481 0)
(0.066403788 -0.00018052276 0)
(0.065323957 -2.3359707e-005 0)
(0.065704663 3.7932926e-005 0)
(0.065660818 4.2403194e-006 0)
(0.065689095 5.5066444e-007 0)
(0.065664995 -1.536088e-006 0)
(0.065663227 2.8672831e-007 0)
(0.065665526 1.0410978e-006 0)
(0.065671504 8.8344563e-007 0)
(0.065674472 2.9803658e-007 0)
(0.06567506 -2.2543866e-008 0)
(0.065674654 -7.9618426e-008 0)
(0.065674335 -3.5766373e-008 0)
(0.06567426 -8.2943751e-010 0)
(0.065674291 6.4874319e-009 0)
(0.065674318 2.7643904e-009 0)
(0.065674323 -2.2929765e-010 0)
(0.065674319 -7.0947811e-010 0)
(0.065674316 -2.7561618e-010 0)
(0.065674316 1.6245507e-010 0)
(0.065674317 7.0311115e-010 0)
(0.065674321 8.2670595e-010 0)
(0.065674323 4.6598657e-010 0)
(0.040025946 -0.0068207999 0)
(0.024024946 -0.00012691796 0)
(0.025400584 1.0462037e-005 0)
(0.024545594 1.5221201e-005 0)
(0.024913692 1.9629304e-006 0)
(0.024853001 1.3131908e-006 0)
(0.024887087 2.0738323e-007 0)
(0.02487388 8.4182017e-008 0)
(0.024876341 -4.922965e-008 0)
(0.024877186 -3.0498422e-008 0)
(0.024879903 -1.8046574e-008 0)
(0.024880882 -5.7778928e-009 0)
(0.024881011 -5.1421174e-009 0)
(0.024880796 -1.6097079e-009 0)
(0.024880675 -6.1686975e-010 0)
(0.024880654 1.5182307e-010 0)
(0.02488067 5.7830577e-011 0)
(0.02488068 -3.144323e-011 0)
(0.024880681 -5.393286e-011 0)
(0.024880679 -3.0636915e-011 0)
(0.024880678 8.453348e-012 0)
(0.024880678 2.5153354e-011 0)
(0.024880679 1.2079105e-010 0)
(0.024880681 -5.3336732e-011 0)
(0.024880682 -1.1000881e-010 0)
(0.039899152 -0.004215264 0)
(0.041547114 -0.0052495146 0)
(0.043808676 -0.0049712182 0)
(0.045442189 -0.004221956 0)
(0.046703612 -0.0034068338 0)
(0.047602669 -0.0026069592 0)
(0.048223839 -0.001966306 0)
(0.048652476 -0.0014935684 0)
(0.048957852 -0.0011812565 0)
(0.049188118 -0.0010174904 0)
(0.04938504 -0.00099190564 0)
(0.049582948 -0.0011013538 0)
(0.049811347 -0.0013624163 0)
(0.050095058 -0.0018242231 0)
(0.050478924 -0.0025524541 0)
(0.05098812 -0.0036608322 0)
(0.051703215 -0.0053589068 0)
(0.052670904 -0.0079393218 0)
(0.053938738 -0.011666737 0)
(0.055398456 -0.017056398 0)
(0.057169511 -0.023946027 0)
(0.057302514 -0.03339625 0)
(0.057428774 -0.043384708 0)
(0.043783763 -0.05587785 0)
(0.036523158 -0.045898847 0)
(0.040217463 -0.0056985622 0)
(0.042009812 -0.0069845233 0)
(0.044378444 -0.0063592379 0)
(0.0459619 -0.0053000109 0)
(0.04706816 -0.0041723806 0)
(0.047806505 -0.003131352 0)
(0.048274485 -0.0023128565 0)
(0.048556207 -0.0017238887 0)
(0.048734612 -0.0013416248 0)
(0.048852903 -0.0011390042 0)
(0.048942452 -0.0011012439 0)
(0.049023674 -0.0012159669 0)
(0.049113504 -0.0014966 0)
(0.04921064 -0.0019943562 0)
(0.049348304 -0.0027795765 0)
(0.049506152 -0.0039576924 0)
(0.049681485 -0.0057279552 0)
(0.04986266 -0.0083854842 0)
(0.049957213 -0.012120068 0)
(0.04962122 -0.017247853 0)
(0.04878737 -0.023450647 0)
(0.045780599 -0.03064648 0)
(0.040718014 -0.036309662 0)
(0.026256368 -0.039152267 0)
(0.01096135 -0.020014732 0)
(0.040586228 -0.0074887139 0)
(0.042483413 -0.0088253203 0)
(0.044830185 -0.0077258874 0)
(0.046205551 -0.0062559393 0)
(0.047041958 -0.0047918274 0)
(0.047535972 -0.0035104242 0)
(0.047785442 -0.0025279283 0)
(0.047893346 -0.0018419995 0)
(0.04792231 -0.0014034699 0)
(0.047919389 -0.0011738303 0)
(0.047891987 -0.0011202472 0)
(0.04785437 -0.0012279505 0)
(0.047800636 -0.0015099524 0)
(0.047719203 -0.0019963634 0)
(0.047600161 -0.0027686413 0)
(0.047423497 -0.0039277244 0)
(0.047105722 -0.00561968 0)
(0.046567553 -0.0081221422 0)
(0.045679019 -0.011555424 0)
(0.043979099 -0.016055093 0)
(0.041191397 -0.021226546 0)
(0.036187458 -0.026311132 0)
(0.028699378 -0.029400552 0)
(0.015893573 -0.028789286 0)
(0.0025492991 -0.013523172 0)
(0.040987822 -0.0095911154 0)
(0.042855695 -0.010661654 0)
(0.044914312 -0.0089224276 0)
(0.045861113 -0.00696859 0)
(0.046266882 -0.0051747359 0)
(0.046417334 -0.0036865002 0)
(0.046382643 -0.0025764472 0)
(0.046291992 -0.0018279389 0)
(0.046167522 -0.0013621578 0)
(0.046038633 -0.0011166006 0)
(0.045906231 -0.0010536661 0)
(0.045754596 -0.0011441806 0)
(0.045572617 -0.0014007381 0)
(0.045338213 -0.0018499135 0)
(0.044997944 -0.0025435506 0)
(0.044520431 -0.0035944756 0)
(0.043812021 -0.0051071847 0)
(0.042708451 -0.0072836287 0)
(0.041058917 -0.010223952 0)
(0.038440144 -0.013861325 0)
(0.034534382 -0.017785745 0)
(0.028700507 -0.021097192 0)
(0.020881128 -0.022174774 0)
(0.010687876 -0.01957715 0)
(0.00038822781 -0.008231796 0)
(0.041343368 -0.011963314 0)
(0.042971232 -0.012284659 0)
(0.044320817 -0.0097307249 0)
(0.044572984 -0.0072756334 0)
(0.044379749 -0.0052107831 0)
(0.044085817 -0.0035929603 0)
(0.043736417 -0.0024377824 0)
(0.043431046 -0.0016751985 0)
(0.043168233 -0.00121798 0)
(0.042929015 -0.00097734388 0)
(0.042708194 -0.00090834903 0)
(0.04247065 -0.00098031068 0)
(0.042191408 -0.0011928105 0)
(0.041833723 -0.0015734037 0)
(0.041342351 -0.0021579894 0)
(0.040643898 -0.0030268146 0)
(0.039658136 -0.0042840861 0)
(0.038188397 -0.0060429379 0)
(0.036057422 -0.0083785354 0)
(0.032932401 -0.01115099 0)
(0.028546338 -0.013943289 0)
(0.022635502 -0.015930271 0)
(0.015360918 -0.015950035 0)
(0.007409235 -0.012932073 0)
(-8.565353e-005 -0.0051415872 0)
(0.041464183 -0.014458805 0)
(0.042584346 -0.013352719 0)
(0.042651341 -0.0098826363 0)
(0.041957077 -0.0070053801 0)
(0.041050042 -0.0048068314 0)
(0.040245181 -0.0031912168 0)
(0.039606657 -0.0020994127 0)
(0.039108606 -0.0013977165 0)
(0.038733208 -0.00098591985 0)
(0.038420549 -0.00077375358 0)
(0.038141606 -0.00070822278 0)
(0.0378533 -0.00075917319 0)
(0.03752098 -0.00092239049 0)
(0.037092718 -0.0012109404 0)
(0.036521602 -0.0016629279 0)
(0.035715135 -0.0023228084 0)
(0.034584763 -0.0032737138 0)
(0.032957507 -0.0045844382 0)
(0.030641849 -0.0062873871 0)
(0.027397657 -0.0082462046 0)
(0.023046521 -0.010091887 0)
(0.017573709 -0.011188894 0)
(0.011255205 -0.010702336 0)
(0.005203464 -0.0080177945 0)
(-0.00016908988 -0.0029031648 0)
(0.041096753 -0.016862317 0)
(0.041206509 -0.01335965 0)
(0.039375709 -0.0091165221 0)
(0.037559235 -0.0060288911 0)
(0.035940508 -0.003932577 0)
(0.034696173 -0.0025054193 0)
(0.033834255 -0.0015887761 0)
(0.033219722 -0.0010235114 0)
(0.03278318 -0.0007000061 0)
(0.032445171 -0.00053602118 0)
(0.032152146 -0.00048322701 0)
(0.031857636 -0.00051526915 0)
(0.031519482 -0.00062567341 0)
(0.031089277 -0.0008220356 0)
(0.030513473 -0.0011281302 0)
(0.029712699 -0.001576783 0)
(0.028590268 -0.0022155234 0)
(0.027004712 -0.0030913636 0)
(0.024784403 -0.004207717 0)
(0.021756652 -0.0054593778 0)
(0.017833657 -0.0065695617 0)
(0.013116407 -0.007102558 0)
(0.0079729854 -0.0065058984 0)
(0.003497839 -0.0044722181 0)
(-0.0001768037 -0.0013625069 0)
(0.039489616 -0.018452938 0)
(0.037979072 -0.011734442 0)
(0.033612759 -0.0072115307 0)
(0.030840522 -0.0043667767 0)
(0.028734424 -0.0026631646 0)
(0.027287729 -0.0016177923 0)
(0.026352357 -0.00098682112 0)
(0.025733136 -0.00061103497 0)
(0.02531586 -0.00040384182 0)
(0.025009052 -0.00030086656 0)
(0.024751345 -0.00026732527 0)
(0.024496607 -0.00028417905 0)
(0.024204319 -0.00034546175 0)
(0.023834422 -0.00045652627 0)
(0.023337177 -0.00062783148 0)
(0.022648409 -0.0008804685 0)
(0.021683875 -0.001238481 0)
(0.020329374 -0.00172738 0)
(0.018450301 -0.0023437198 0)
(0.015929473 -0.0030239886 0)
(0.012736418 -0.0035992073 0)
(0.0090213827 -0.0038008187 0)
(0.0051600021 -0.003328875 0)
(0.0020704712 -0.0020261691 0)
(-0.00018230916 -0.00038083233 0)
(0.034425621 -0.016504648 0)
(0.031452049 -0.0078232305 0)
(0.024326017 -0.0044159364 0)
(0.021372029 -0.0023888093 0)
(0.019249197 -0.0013683621 0)
(0.017966971 -0.0007858053 0)
(0.017180475 -0.00045651266 0)
(0.016697019 -0.00026971267 0)
(0.016387923 -0.00017078143 0)
(0.016170499 -0.00012305289 0)
(0.015992777 -0.0001075574 0)
(0.015818817 -0.0001139361 0)
(0.015619079 -0.00013940515 0)
(0.015364731 -0.00018561155 0)
(0.015020846 -0.00025703074 0)
(0.014542285 -0.00036200874 0)
(0.013869404 -0.00051115247 0)
(0.012922989 -0.00071394324 0)
(0.011611534 -0.00097022971 0)
(0.0098587226 -0.0012503726 0)
(0.0076585564 -0.0014762175 0)
(0.0051584087 -0.0015235518 0)
(0.0026492801 -0.001258927 0)
(0.00083875412 -0.00061136594 0)
(-0.00020478101 6.069248e-005 0)
(0.020501462 -0.012023366 0)
(0.017296894 -0.0023155705 0)
(0.010464965 -0.00037702617 0)
(0.0090190532 -0.00014722903 0)
(0.0076176064 -4.3156053e-005 0)
(0.0069383324 -1.2287016e-005 0)
(0.0065311182 -1.0856261e-006 0)
(0.0063007939 3.590894e-006 0)
(0.0061626617 5.1383241e-006 0)
(0.006071808 5.7139431e-006 0)
(0.0060007248 5.8904394e-006 0)
(0.0059320818 6.1706808e-006 0)
(0.0058528719 6.926116e-006 0)
(0.0057503699 8.0933485e-006 0)
(0.0056098974 1.0036729e-005 0)
(0.0054122477 1.2588041e-005 0)
(0.0051318531 1.6021549e-005 0)
(0.0047353555 2.0514438e-005 0)
(0.0041840718 2.6173147e-005 0)
(0.0034475309 3.3628213e-005 0)
(0.0025276793 4.2375122e-005 0)
(0.0015092942 5.7284997e-005 0)
(0.00052386021 7.1573653e-005 0)
(-5.8476716e-005 0.00011024131 0)
(-0.00018114015 0.00012695215 0)
)
;

boundaryField
{
    inlet
    {
        type            fixedValue;
        value           uniform (0.03876 0 0);
    }
    walls
    {
        type            fixedValue;
        value           uniform (0 0 0);
    }
    outlet
    {
        type            zeroGradient;
    }
    centreline
    {
        type            symmetryPlane;
    }
    frontAndBack
    {
        type            empty;
    }
}


// ************************************************************************* //
