# vtk DataFile Version 2.0
track0
ASCII
DATASET POLYDATA
POINTS 11930 float
-0.0205 0.001 1e-005
-0.0203851 0.00100536 1.50243e-005
-0.0202701 0.00101047 1.96641e-005
-0.0201551 0.00101536 2.3972e-005
-0.0200401 0.00102 2.79434e-005
-0.0198624 0.00102682 3.35494e-005
-0.0196934 0.00103276 3.80967e-005
-0.0195243 0.00103809 4.16122e-005
-0.0193551 0.00104282 4.4105e-005
-0.019186 0.00104693 4.55842e-005
-0.0190172 0.00105043 4.60585e-005
-0.0187132 0.00105595 4.60585e-005
-0.0184093 0.00106082 4.60585e-005
-0.0181054 0.00106517 4.60585e-005
-0.0178014 0.00106899 4.60585e-005
-0.0174976 0.00107229 4.60585e-005
-0.0172058 0.00107516 4.60585e-005
-0.016914 0.00107795 4.60585e-005
-0.0166222 0.00108068 4.60585e-005
-0.0163305 0.00108333 4.60585e-005
-0.0160387 0.00108592 4.60585e-005
-0.0157586 0.00108832 4.60585e-005
-0.0154784 0.00109064 4.60585e-005
-0.0151983 0.00109288 4.60585e-005
-0.0149182 0.00109504 4.60585e-005
-0.0146381 0.00109712 4.60585e-005
-0.0143692 0.00109899 4.60585e-005
-0.0141002 0.00110076 4.60585e-005
-0.0138313 0.00110247 4.60585e-005
-0.0135624 0.00110409 4.60585e-005
-0.0132934 0.00110564 4.60585e-005
-0.0130353 0.00110705 4.60585e-005
-0.0127771 0.00110841 4.60585e-005
-0.0125189 0.00110972 4.60585e-005
-0.0122607 0.001111 4.60585e-005
-0.0120025 0.00111224 4.60585e-005
-0.0117547 0.0011134 4.60585e-005
-0.0115068 0.00111453 4.60585e-005
-0.0112589 0.00111564 4.60585e-005
-0.0110111 0.00111673 4.60585e-005
-0.0107632 0.00111781 4.60585e-005
-0.0105252 0.00111882 4.60585e-005
-0.0102873 0.00111982 4.60585e-005
-0.0100493 0.00112081 4.60585e-005
-0.00981133 0.00112179 4.60585e-005
-0.00957337 0.00112275 4.60585e-005
-0.00934491 0.00112366 4.60585e-005
-0.00911645 0.00112456 4.60585e-005
-0.00888799 0.00112545 4.60585e-005
-0.00865954 0.00112633 4.60585e-005
-0.00843108 0.0011272 4.60585e-005
-0.00821175 0.00112804 4.60585e-005
-0.00799242 0.00112886 4.60585e-005
-0.00777309 0.00112967 4.60585e-005
-0.00755376 0.00113048 4.60585e-005
-0.00733443 0.00113129 4.60585e-005
-0.00712387 0.00113206 4.60585e-005
-0.0069133 0.00113282 4.60585e-005
-0.00670273 0.00113358 4.60585e-005
-0.00649216 0.00113434 4.60585e-005
-0.0062816 0.00113509 4.60585e-005
-0.00607944 0.00113582 4.60585e-005
-0.00587729 0.00113654 4.60585e-005
-0.00567514 0.00113725 4.60585e-005
-0.00547298 0.00113797 4.60585e-005
-0.00527083 0.00113868 4.60585e-005
-0.00507675 0.00113937 4.60585e-005
-0.00488267 0.00114005 4.60585e-005
-0.0046886 0.00114073 4.60585e-005
-0.00449452 0.00114142 4.60585e-005
-0.00430044 0.0011421 4.60585e-005
-0.00411412 0.00114276 4.60585e-005
-0.0039278 0.00114341 4.60585e-005
-0.00374147 0.00114406 4.60585e-005
-0.00355515 0.00114471 4.60585e-005
-0.00336883 0.00114537 4.60585e-005
-0.00318995 0.001146 4.60585e-005
-0.00301107 0.00114663 4.60585e-005
-0.00283219 0.00114726 4.60585e-005
-0.00265331 0.00114789 4.60585e-005
-0.00247443 0.00114852 4.60585e-005
-0.0023027 0.00114913 4.60585e-005
-0.00213097 0.00114974 4.60585e-005
-0.00195924 0.00115035 4.60585e-005
-0.0017875 0.00115096 4.60585e-005
-0.00161577 0.00115157 4.60585e-005
-0.0014509 0.00115217 4.60585e-005
-0.00128603 0.00115276 4.60585e-005
-0.00112116 0.00115335 4.60585e-005
-0.000956289 0.00115395 4.60585e-005
-0.000791418 0.00115455 4.60585e-005
-0.000633135 0.00115514 4.60585e-005
-0.000474851 0.00115573 4.60585e-005
-0.000316567 0.00115631 4.60585e-005
-0.000158284 0.0011569 4.60585e-005
0 0.00115751 4.60585e-005
0.000105677 0.00115792 4.60585e-005
0.000211355 0.00115832 4.60585e-005
0.000317032 0.00115873 4.60585e-005
0.00042271 0.00115914 4.60585e-005
0.000528387 0.00115956 4.60585e-005
0.000634886 0.00115999 4.60585e-005
0.000741385 0.00116041 4.60585e-005
0.000847885 0.00116084 4.60585e-005
0.000954384 0.00116127 4.60585e-005
0.00106088 0.00116171 4.60585e-005
0.00116821 0.00116217 4.60585e-005
0.00127554 0.00116262 4.60585e-005
0.00138286 0.00116307 4.60585e-005
0.00149019 0.00116353 4.60585e-005
0.00159752 0.00116399 4.60585e-005
0.00170568 0.00116447 4.60585e-005
0.00181384 0.00116495 4.60585e-005
0.001922 0.00116543 4.60585e-005
0.00203016 0.0011659 4.60585e-005
0.00213833 0.00116638 4.60585e-005
0.00224733 0.00116687 4.60585e-005
0.00235633 0.00116737 4.60585e-005
0.00246533 0.00116786 4.60585e-005
0.00257434 0.00116836 4.60585e-005
0.00268334 0.00116885 4.60585e-005
0.00279319 0.00116935 4.60585e-005
0.00290304 0.00116985 4.60585e-005
0.00301289 0.00117036 4.60585e-005
0.00312274 0.00117087 4.60585e-005
0.00323259 0.00117138 4.60585e-005
0.00334329 0.00117188 4.60585e-005
0.003454 0.0011724 4.60585e-005
0.0035647 0.00117292 4.60585e-005
0.0036754 0.00117344 4.60585e-005
0.00378611 0.00117396 4.60585e-005
0.00389767 0.00117447 4.60585e-005
0.00400924 0.00117499 4.60585e-005
0.0041208 0.00117553 4.60585e-005
0.00423237 0.00117606 4.60585e-005
0.00434393 0.00117659 4.60585e-005
0.00445636 0.0011771 4.60585e-005
0.00456879 0.00117763 4.60585e-005
0.00468123 0.00117817 4.60585e-005
0.00479366 0.00117871 4.60585e-005
0.00490609 0.00117925 4.60585e-005
0.0050194 0.00117976 4.60585e-005
0.0051327 0.0011803 4.60585e-005
0.00524601 0.00118085 4.60585e-005
0.00535931 0.00118139 4.60585e-005
0.00547262 0.00118193 4.60585e-005
0.00558681 0.00118245 4.60585e-005
0.005701 0.00118299 4.60585e-005
0.00581518 0.00118354 4.60585e-005
0.00592937 0.00118408 4.60585e-005
0.00604356 0.00118463 4.60585e-005
0.00615863 0.00118515 4.60585e-005
0.00627371 0.0011857 4.60585e-005
0.00638878 0.00118624 4.60585e-005
0.00650386 0.00118679 4.60585e-005
0.00661893 0.00118733 4.60585e-005
0.0067349 0.00118786 4.60585e-005
0.00685087 0.0011884 4.60585e-005
0.00696684 0.00118895 4.60585e-005
0.00708281 0.00118949 4.60585e-005
0.00719878 0.00119003 4.60585e-005
0.00731565 0.00119056 4.60585e-005
0.00743252 0.0011911 4.60585e-005
0.00754939 0.00119164 4.60585e-005
0.00766626 0.00119218 4.60585e-005
0.00778313 0.00119272 4.60585e-005
0.00790091 0.00119324 4.60585e-005
0.00801869 0.00119378 4.60585e-005
0.00813647 0.00119431 4.60585e-005
0.00825425 0.00119484 4.60585e-005
0.00837203 0.00119538 4.60585e-005
0.00849073 0.0011959 4.60585e-005
0.00860942 0.00119643 4.60585e-005
0.00872812 0.00119695 4.60585e-005
0.00884682 0.00119748 4.60585e-005
0.00896551 0.001198 4.60585e-005
0.00908513 0.00119852 4.60585e-005
0.00920475 0.00119904 4.60585e-005
0.00932437 0.00119957 4.60585e-005
0.00944398 0.00120008 4.60585e-005
0.0095636 0.0012006 4.60585e-005
0.00968415 0.00120111 4.60585e-005
0.0098047 0.00120163 4.60585e-005
0.00992525 0.00120214 4.60585e-005
0.0100458 0.00120265 4.60585e-005
0.0101663 0.00120316 4.60585e-005
0.0102878 0.00120366 4.60585e-005
0.0104093 0.00120417 4.60585e-005
0.0105308 0.00120467 4.60585e-005
0.0106523 0.00120517 4.60585e-005
0.0107738 0.00120567 4.60585e-005
0.0108962 0.00120616 4.60585e-005
0.0110186 0.00120666 4.60585e-005
0.0111411 0.00120715 4.60585e-005
0.0112635 0.00120764 4.60585e-005
0.0113859 0.00120813 4.60585e-005
0.0115093 0.00120862 4.60585e-005
0.0116327 0.0012091 4.60585e-005
0.0117561 0.00120959 4.60585e-005
0.0118795 0.00121007 4.60585e-005
0.0120028 0.00121054 4.60585e-005
0.0121272 0.00121101 4.60585e-005
0.0122515 0.00121149 4.60585e-005
0.0123759 0.00121196 4.60585e-005
0.0125002 0.00121243 4.60585e-005
0.0126245 0.0012129 4.60585e-005
0.0127498 0.00121335 4.60585e-005
0.0128752 0.00121382 4.60585e-005
0.0130005 0.00121428 4.60585e-005
0.0131258 0.00121473 4.60585e-005
0.0132511 0.00121518 4.60585e-005
0.0133774 0.00121563 4.60585e-005
0.0135036 0.00121608 4.60585e-005
0.0136299 0.00121652 4.60585e-005
0.0137562 0.00121696 4.60585e-005
0.0138825 0.0012174 4.60585e-005
0.0140098 0.00121783 4.60585e-005
0.014137 0.00121826 4.60585e-005
0.0142643 0.00121869 4.60585e-005
0.0143915 0.00121911 4.60585e-005
0.0145188 0.00121953 4.60585e-005
0.0146471 0.00121994 4.60585e-005
0.0147753 0.00122036 4.60585e-005
0.0149036 0.00122077 4.60585e-005
0.0150318 0.00122117 4.60585e-005
0.0151601 0.00122157 4.60585e-005
0.0152893 0.00122196 4.60585e-005
0.0154186 0.00122236 4.60585e-005
0.0155478 0.00122275 4.60585e-005
0.0156771 0.00122313 4.60585e-005
0.0158063 0.00122351 4.60585e-005
0.0159366 0.00122388 4.60585e-005
0.0160668 0.00122425 4.60585e-005
0.0161971 0.00122462 4.60585e-005
0.0163274 0.00122498 4.60585e-005
0.0164576 0.00122533 4.60585e-005
0.0165889 0.00122568 4.60585e-005
0.0167201 0.00122603 4.60585e-005
0.0168514 0.00122637 4.60585e-005
0.0169827 0.0012267 4.60585e-005
0.0171139 0.00122703 4.60585e-005
0.0172062 0.00122725 4.60585e-005
0.0172984 0.00122747 4.60585e-005
0.0173906 0.00122769 4.60585e-005
0.0174828 0.00122791 4.60585e-005
0.0175723 0.00122812 4.60585e-005
0.0176129 0.00122821 4.60585e-005
0.0176535 0.0012283 4.60585e-005
0.0176941 0.00122839 4.60585e-005
0.0177348 0.00122848 4.60585e-005
0.0177754 0.00122857 4.60585e-005
0.0179087 0.00122887 4.60585e-005
0.018042 0.00122915 4.60585e-005
0.0181753 0.00122943 4.60585e-005
0.0183087 0.0012297 4.60585e-005
0.018442 0.00122997 4.60585e-005
0.0185763 0.00123022 4.60585e-005
0.0187107 0.00123048 4.60585e-005
0.018845 0.00123072 4.60585e-005
0.0189794 0.00123095 4.60585e-005
0.0191137 0.00123118 4.60585e-005
0.0192491 0.0012314 4.60585e-005
0.0193845 0.00123161 4.60585e-005
0.0195199 0.00123182 4.60585e-005
0.0196553 0.00123201 4.60585e-005
0.0197907 0.0012322 4.60585e-005
0.0199272 0.00123238 4.60585e-005
0.0200636 0.00123255 4.60585e-005
0.0202001 0.00123271 4.60585e-005
0.0203365 0.00123287 4.60585e-005
0.020473 0.00123301 4.60585e-005
0.0206105 0.00123315 4.60585e-005
0.020748 0.00123327 4.60585e-005
0.0208855 0.00123339 4.60585e-005
0.021023 0.0012335 4.60585e-005
0.0211606 0.0012336 4.60585e-005
0.0212991 0.00123368 4.60585e-005
0.0214377 0.00123376 4.60585e-005
0.0215763 0.00123383 4.60585e-005
0.0217149 0.00123389 4.60585e-005
0.0218535 0.00123394 4.60585e-005
0.0219931 0.00123398 4.60585e-005
0.0221328 0.001234 4.60585e-005
0.0222724 0.00123402 4.60585e-005
0.0224121 0.00123403 4.60585e-005
0.0225517 0.00123402 4.60585e-005
0.0226925 0.00123401 4.60585e-005
[...]
POINT_DATA 11930
 FIELD attributes 2
p 1 11930 float
-1551.02 -1538.45 -1524.66 -1511.03 -1497.54 -1476.95 -1462.31 -1447.59 -1432.8 -1417.93 -1397.19 -1349.11 -1301.09 -1253.13 -1205.24 -1162.78 -1131.13 -1105.66 -1080.19 -1054.74 -1037.9 -1026.13 -1016.64 -1007.16 -997.684 -990.063 -983.3 -975.389 -967.477 -959.565 -950.512 -942.04 -933.381 -924.718 -916.073 -907.66 -899.676 -892.476 -885.368 -878.414 -872.375 -866.593 -861.386 -856.301 -851.371 -847.034 -842.867 -838.923 -835.048 -831.262 -827.722 -824.312 -821.032 -817.804 -814.649 -811.652 -808.753 -805.979 -803.27 -800.644 -798.159 -795.744 -793.439 -791.205 -789.057 -787.028 -785.041 -783.136 -781.295 -779.527 -777.849 -776.186 -774.585 -773.041 -771.564 -770.155 -768.736 -767.364 -766.043 -764.786 -763.584 -762.347 -761.152 -760.011 -758.94 -757.92 -756.838 -755.782 -754.768 -753.828 -752.934 -751.955 -751.026 -750.185 -749.465 -748.809 -748.081 -747.416 -746.865 -746.452 -746.121 -745.621 -745.165 -744.77 -744.469 -744.24 -743.827 -743.52 -743.333 -743.263 -743.306 -743.162 -743.104 -743.123 -743.206 -743.365 -743.477 -743.575 -743.663 -743.741 -743.802 -744.069 -744.23 -744.329 -744.369 -744.295 -744.672 -744.874 -744.996 -745.034 -744.869 -745.324 -745.553 -745.7 -745.76 -745.543 -746.026 -746.241 -746.385 -746.454 -746.197 -746.645 -746.812 -746.926 -746.988 -746.718 -747.096 -747.221 -747.315 -747.383 -747.151 -747.458 -747.561 -747.652 -747.736 -747.573 -747.808 -747.892 -747.975 -748.058 -747.965 -748.125 -748.191 -748.258 -748.324 -748.292 -748.392 -748.45 -748.508 -748.565 -748.586 -748.652 -748.712 -748.772 -748.832 -748.893 -748.946 -749.009 -749.072 -749.136 -749.221 -749.272 -749.338 -749.404 -749.471 -749.566 -749.628 -749.699 -749.77 -749.842 -749.937 -750.02 -750.099 -750.179 -750.259 -750.351 -750.459 -750.552 -750.644 -750.736 -750.826 -750.961 -751.067 -751.173 -751.279 -751.367 -751.526 -751.645 -751.764 -751.883 -751.972 -752.149 -752.28 -752.41 -752.541 -752.635 -752.825 -752.968 -753.11 -753.252 -753.356 -753.556 -753.711 -753.866 -754.02 -754.14 -754.344 -754.511 -754.677 -754.844 -754.982 -755.191 -755.372 -755.552 -755.733 -755.895 -756.11 -756.307 -756.504 -756.702 -756.891 -757.045 -757.193 -757.34 -757.487 -757.63 -757.695 -757.76 -757.825 -757.889 -757.965 -758.178 -758.402 -758.625 -758.848 -759.117 -759.313 -759.549 -759.785 -760.021 -760.333 -760.516 -760.765 -761.014 -761.263 -761.613 -761.789 -762.051 -762.312 -762.573 -762.952 -763.129 -763.402 -763.675 -763.948 -764.348 -764.533 -764.818 -765.102 -765.387 -765.8 -766 -766.295 -766.591 -766.887 -767.302 -767.525 -767.831 -768.138 -768.444 -768.853 -769.105 -769.421 -769.737 -770.053 -770.449 -770.734 -771.06 -771.385 -771.711 -772.086 -772.409 -772.743 -773.078 -773.412 -773.762 -774.124 -774.466 -774.809 -775.151 -775.474 -775.872 -776.225 -776.575 -776.919 -777.218 -777.646 -778.014 -778.371 -778.712 -778.995 -779.445 -779.832 -780.196 -780.53 -780.802 -781.268 -781.675 -782.046 -782.373 -782.64 -783.117 -783.545 -783.923 -784.243 -784.511 -784.999 -785.448 -785.834 -786.146 -786.416 -786.913 -787.381 -787.773 -788.075 -788.348 -788.847 -789.331 -789.727 -790.017 -790.292 -790.788 -791.281 -791.677 -791.96 -792.241 -792.729 -793.216 -793.609 -793.9 -794.192 -794.668 -795.144 -795.535 -795.839 -796.143 -796.605 -797.068 -797.458 -797.775 -798.091 -798.538 -798.986 -799.375 -799.704 -800.032 -800.464 -800.897 -801.283 -801.622 -801.962 -802.378 -802.795 -803.178 -803.526 -803.875 -804.276 -804.677 -805.056 -805.412 -805.767 -806.153 -806.539 -806.912 -807.273 -807.633 -808.004 -808.375 -808.742 -809.105 -809.466 -809.823 -810.181 -810.541 -810.901 -811.261 -811.604 -811.95 -812.301 -812.655 -813.011 -813.34 -813.675 -814.016 -814.36 -814.709 -815.023 -815.348 -815.677 -816.008 -816.347 -816.647 -816.96 -817.275 -817.591 -817.918 -818.202 -818.501 -818.801 -819.101 -819.41 -819.678 -819.959 -820.241 -820.523 -820.814 -821.063 -821.326 -821.588 -821.85 -822.121 -822.352 -822.594 -822.835 -823.077 -823.325 -823.536 -823.755 -823.974 -824.194 -824.416 -824.607 -824.802 -824.997 -825.192 -825.387 -825.396 -825.405 -825.413 -825.422 -825.431 -825.591 -825.752 -825.912 -826.073 -826.231 -826.373 -826.512 -826.651 -826.791 -826.926 -827.039 -827.146 -827.253 -827.36 -827.46 -827.543 -827.616 -827.688 -827.761 -827.824 -827.876 -827.912 -827.948 -827.984 -828.007 -828.024 -828.021 -828.018 -828.013 -827.992 -827.97 -827.929 -827.884 -827.833 -827.769 -827.704 -827.625 -827.536 -827.436 -827.327 -827.216 -827.098 -826.962 -826.81 -826.652 -826.495 -826.335 -826.15 -825.943 -825.735 -825.528 -825.321 -825.085 -824.824 -824.563 -824.303 -824.044 -823.756 -823.44 -823.123 -822.809 -822.495 -822.152 -821.779 -821.405 -821.034 -820.663 -820.263 -819.83 -819.396 -818.965 -818.532 -818.07 -817.58 -817.084 -816.591 -816.088 -815.562 -815.017 -814.458 -813.9 -813.323 -812.732 -812.131 -811.504 -810.88 -810.226 -809.567 -808.908 -808.213 -807.515 -806.785 -806.056 -805.326 -804.571 -803.792 -802.989 -802.187 -801.385 -800.568 -799.704 -798.826 -797.949 -797.072 -796.191 -795.938 -795.681 -795.425 -795.168 -794.916 -794.221 -793.527 -792.832 -792.137 -791.432 -790.415 -789.387 -788.359 -787.332 -786.277 -785.197 -784.088 -782.98 -781.872 -780.718 -779.573 -778.382 -777.191 -775.993 -774.746 -773.52 -772.26 -770.985 -769.684 -768.351 -767.04 -765.713 -764.352 -762.945 -761.525 -760.127 -758.729 -757.277 -755.768 -754.26 -752.773 -751.286 -749.745 -748.146 -746.548 -744.972 -743.396 -741.762 -740.073 -738.384 -736.716 -735.038 -733.307 -731.54 -729.759 -728 -726.205 -724.382 -722.544 -720.671 -718.818 -716.906 -714.988 -713.071 -711.113 -709.147 -707.134 -705.122 -703.111 -701.081 -699.442 -697.782 -696.122 -694.463 -692.888 -692.427 -691.965 -691.504 -691.043 -690.576 -688.392 -686.204 -684.015 -681.828 -679.606 -677.351 -675.067 -672.784 -670.502 -668.156 -665.821 -663.452 -661.074 -658.667 -656.225 -653.795 -651.357 -648.884 -646.352 -643.815 -641.29 -638.766 -636.189 -633.558 -630.926 -628.306 -625.688 -623.011 -620.285 -617.559 -614.846 -612.108 -609.33 -606.538 -603.719 -600.913 -598.047 -595.177 -592.307 -589.407 -586.48 -583.517 -580.554 -577.592 -574.629 -574.52 -574.411 -574.301 -574.191 -574.081 -571.144 -568.206 -565.27 -562.333 -559.373 -556.252 -553.116 -549.98 -546.843 -543.662 -540.46 -537.244 -534.021 -530.771 -527.503 -524.214 -520.926 -517.61 -514.257 -510.903 -507.528 -504.154 -500.744 -497.307 -493.869 -490.411 -486.938 -483.438 -479.931 -476.412 -472.872 -469.293 -465.712 -462.132 -458.54 -455.852 -453.145 -450.439 -447.733 -445.137 -444.163 -443.19 -442.217 -441.244 -440.263 -436.537 -432.807 -429.078 -425.349 -421.586 -417.799 -413.996 -410.193 -406.373 -402.527 -398.667 -394.807 -390.931 -387.016 -383.1 -379.171 -375.242 -371.283 -367.301 -363.319 -359.322 -355.313 -351.28 -347.243 -343.197 -339.135 -335.039 -330.944 -326.849 -322.749 -321.093 -319.427 -317.761 -316.095 -314.463 -311.97 -309.477 -306.984 -304.491 -301.983 -297.782 -293.574 -289.368 -285.158 -280.917 -276.665 -272.41 -268.151 -263.866 -259.574 -255.271 -250.969 -246.649 -242.311 -237.972 -233.622 -229.265 -224.889 -220.511 -216.129 -211.734 -207.316 -202.899 -198.482 -194.062 -192.626 -191.185 -189.744 -188.304 -186.885 -183.866 -180.847 -177.829 -174.811 -171.779 -167.291 -162.802 -158.313 -153.819 -149.306 -144.786 -140.267 -135.747 -131.208 -126.667 -122.119 -117.571 -113.008 -108.443 -103.876 -99.3007 -94.7172 -90.1293 -85.5418 -80.9549 -77.7926 -74.6258 -71.4593 -68.2931 -65.2222 -63.7646 -62.307 -60.8495 -59.392 -57.9313 -53.3088 -48.6882 -44.068 -39.4476 -34.8145 -30.1763 -25.5406 -20.9087 -16.2692 -11.6268 -6.97858 -2.3309 2.3193 6.96413 11.6111 16.2646 20.919 25.5739 30.2284 34.8777 37.7095 40.541 43.3724 46.2035 48.9656 50.805 52.6443 54.4836 56.3228 58.1631 62.8258 67.483 72.1398 76.7959 81.4537 86.1152 90.7748 95.4238 100.07 104.718 109.37 114.021 118.666 123.303 127.938 132.577 137.209 141.839 146.469 151.098 151.903 152.706 153.509 154.312 155.11 158.93 162.75 166.57 170.389 174.203 178.821 183.428 188.031 192.627 197.221 201.817 206.413 210.996 215.563 220.133 224.704 229.267 233.822 238.378 242.924 244.967 247.003 249.038 251.074 253.079 255.584 258.089 260.595 263.1 265.598 270.122 274.632 279.141 283.642 288.138 292.631 297.124 301.599 306.058 310.518 314.977 319.425 323.863 328.301 332.728 334.819 336.9 338.98 341.061 343.112 345.446 347.781 350.115 352.449 354.774 359.166 363.543 367.92 372.285 376.644 380.996 385.348 389.681 393.995 398.311 402.62 406.914 411.2 415.486 419.765 420.927 422.083 423.239 424.394 425.541 428.642 431.742 434.843 437.942 441.027 445.256 449.474 453.686 457.879 462.07 466.25 470.43 474.587 478.731 482.874 486.478 490.063 493.646 497.228 500.74 501.279 501.819 502.359 502.898 503.435 507.513 511.588 515.662 519.73 523.781 527.818 531.854 535.87 539.865 543.863 547.845 551.812 555.767 559.722 563.67 564.755 565.834 566.911 567.989 569.061 571.899 574.738 577.577 580.412 583.231 587.11 590.983 594.844 598.678 602.512 606.33 610.141 613.929 617.715 621.487 623.207 624.915 626.62 628.325 630.023 632.056 634.09 636.123 638.153 640.17 643.872 647.559 651.241 654.893 658.543 662.174 665.8 669.393 672.978 676.546 678.372 680.188 681.999 683.81 685.631 687.351 689.072 690.792 692.509 694.216 697.718 701.176 704.624 707.997 711.355 714.693 718.044 721.527 725.031 728.574 730.499 732.06 733.509 734.959 736.445 737.842 739.24 740.637 741.95 742.968 745.193 748.221 751.319 755.716 760.498 765.163 769.451 771.903 774.358 776.245 776.507 776.827 777.239 777.652 778.068 779.771 781.476 783.181 785.345 787.81 790.777 793.744 796.574 799.386 802.142 802.851 803.546 804.216 804.885 805.57 807.628 809.685 811.742 813.733 815.684 818.32 820.954 823.505 826.016 828.49 829.249 829.992 830.703 831.414 832.154 833.867 835.578 837.288 838.934 840.54 842.85 845.156 847.32 849.365 851.382 852.172 852.927 853.625 854.322 855.068 856.242 857.412 858.581 859.675 860.712 862.394 864.07 865.543 866.814 868.076 868.818 869.469 870.008 870.545 871.157 871.554 871.95 872.344 872.688 872.975 873.669 874.221 874.709 874.837 874.951 874.932 874.734 874.279 873.817 873.236 873.09 872.891 872.661 872.432 872.191 871.343 870.484 869.615 868.616 867.349 865.602 863.843 861.64 859.029 856.405 853.525 850.274 846.745 843.208 839.472 838.453 837.298 836.121 834.942 833.671 830.242 826.802 823.352 819.853 815.929 810.331 804.41 798.239 791.34 784.318 776.827 769.323 761.251 752.675 744.049 734.901 724.596 713.976 703.353 692.214 687.416 682.607 677.795 672.982 667.499 660.179 652.854 645.526 638.193 630.815 617.002 601.335 585.635 568.989 549.692 529.424 509.747 492.206 478.231 464.321 449.664 435.007 407.562 367.798 327.999 286.408 253.666 237.251 228.422 231.28 233.946 176.959 119.598 61.9443 0